Membrane in water
40344
    1TMC1    C1    1   2.490   1.441  11.854  0.3102 -0.2453 -0.3017
    1TMC1    C2    2   2.550   1.534  11.938  0.6434  0.8333 -0.0631
    1TMC1    C3    3   2.538   1.670  11.907  0.7290  0.4022  0.0514
    1TMC1    C4    4   2.424   1.474  11.742  0.5370  0.3722 -0.1986
    1TMC1    C5    5   2.416   1.609  11.715 -0.0650  0.0386 -0.0458
    1TMC1    C6    6   2.471   1.711  11.797 -0.6638 -0.0338  0.1970
    1TMC1     C    7   2.461   1.312  11.913  0.8220  0.7802  0.2251
    1TMC1     O    8   2.426   1.307  12.032  0.4782  0.4799 -0.7649
    1TMC1     H    9   2.601   1.504  12.028  2.0136  1.1781 -0.7135
    1TMC1    H1   10   2.362   1.402  11.690 -0.6000 -0.3701  2.1658
    1TMC1    H2   11   2.453   1.816  11.778  0.9340  0.3437  0.7953
    1TMC1    C7   12   2.314   1.639  11.619  0.4727  0.2390 -0.2736
    1TMC1    C8   13   2.621   1.765  11.979  0.5608 -0.0133 -0.2193
    1TMC1    O1   14   2.214   1.577  11.599  0.8230 -0.0655  0.4218
    1TMC1    O2   15   2.603   1.886  11.968 -0.0540 -0.5955 -0.8315
    1TMC1    O3   16   2.379   1.714  11.527  0.3030 -0.0522  0.3086
    1TMC1    H3   17   2.470   1.731  11.559  0.4762  1.1623 -0.8582
    1TMC1    O5   18   2.740   1.710  11.963 -0.0747 -0.3058 -0.2081
    1TMC1    H5   19   2.747   1.612  11.965  2.9312 -0.0632  0.6678
    2MPD2     C   20   2.400   0.804  11.874 -0.0520  0.0438 -0.4668
    2MPD2    C1   21   2.361   0.893  11.975 -0.8280  0.2181 -0.4800
    2MPD2    C2   22   2.381   1.026  11.954  0.7003  0.1318  0.2710
    2MPD2    C3   23   2.445   1.075  11.841  0.1501 -0.1672 -0.5829
    2MPD2    C4   24   2.489   0.981  11.744 -0.1858  0.4201  0.5856
    2MPD2    C5   25   2.465   0.852  11.765 -0.3055 -1.2510  0.4382
    2MPD2     H   26   2.352   1.097  12.031  1.6347  1.7145 -0.8415
    2MPD2    H1   27   2.558   1.005  11.665 -0.6109  1.4368  0.5242
    2MPD2    H2   28   2.387   0.698  11.890  0.6031  0.0192 -0.1079
    2MPD2    H3   29   2.487   0.771  11.697  4.4254 -1.1263  1.8100
    2MPD2     N   30   2.470   1.213  11.819  0.0735  0.3960  0.1765
    2MPD2    H5   31   2.518   1.231  11.732  1.0788  1.0815  0.8831
    2MPD2    N1   32   2.307   0.853  12.099 -0.3777  0.2019 -0.3590
    2MPD2    H7   33   2.291   0.938  12.153 -0.7310  0.3715 -0.7318
    3TMC1    C1   34   1.923   1.246  10.750  0.1499  0.4592  0.3777
    3TMC1    C2   35   1.974   1.378  10.730  0.1557  0.4145  0.0618
    3TMC1    C3   36   2.052   1.400  10.616  0.3059  0.4688 -0.0489
    3TMC1    C4   37   1.956   1.148  10.661 -0.5149 -0.4454  0.4089
    3TMC1    C5   38   2.036   1.174  10.557  0.5774  0.1007 -0.5291
    3TMC1    C6   39   2.084   1.301  10.526  0.3088  0.6815  0.2058
    3TMC1     C   40   1.821   1.216  10.854  0.1962 -0.0356  0.1248
    3TMC1     O   41   1.800   1.099  10.879 -0.2714 -0.2831 -0.5929
    3TMC1     H   42   1.958   1.458  10.802 -0.6528 -1.6104  2.1287
    3TMC1    H1   43   1.937   1.044  10.687 -1.4065 -0.3709  0.0521
    3TMC1    H2   44   2.141   1.316  10.435 -0.7572 -0.4424 -0.6344
    3TMC1    C7   45   2.086   1.065  10.476 -0.0663 -0.4257  0.4349
    3TMC1    C8   46   2.103   1.537  10.584  0.5668 -0.2164  0.0331
    3TMC1    O1   47   2.191   1.072  10.411 -0.0273 -0.7701 -0.0010
    3TMC1    O2   48   2.191   1.564  10.500  0.2067  0.6220  0.6056
    3TMC1    O3   49   1.991   0.973  10.462  0.0699  0.3056  0.2861
    3TMC1    H3   50   1.913   1.006  10.511 -0.0606 -1.1653  1.0466
    3TMC1    O5   51   2.021   1.625  10.640  0.3646 -0.2316 -1.1266
    3TMC1    H5   52   1.939   1.611  10.691  1.2578 -1.7307 -0.0907
    4MPD2     C   53   1.449   1.370  11.173  0.4010  0.0152 -0.6273
    4MPD2    C1   54   1.481   1.468  11.090 -0.3179 -0.2832  0.5138
    4MPD2    C2   55   1.592   1.466  11.007 -0.3263 -0.3773 -0.2658
    4MPD2    C3   56   1.651   1.342  10.991 -0.5112 -0.4455 -0.2113
    4MPD2    C4   57   1.605   1.234  11.062  0.2168 -0.5106 -0.1075
    4MPD2    C5   58   1.510   1.245  11.159  0.9856  0.8853 -0.4182
    4MPD2     H   59   1.629   1.552  10.953  0.4865  0.6663  1.9606
    4MPD2    H1   60   1.636   1.132  11.039 -1.9615 -2.0242  3.6325
    4MPD2    H2   61   1.379   1.389  11.254 -1.4755 -1.3746 -1.9391
    4MPD2    H3   62   1.479   1.164  11.224  3.5770 -1.0802 -1.6743
    4MPD2     N   63   1.753   1.332  10.897 -0.5698  0.5141  0.1869
    4MPD2    H5   64   1.769   1.416  10.843  0.1199  0.9163  1.0044
    4MPD2    N1   65   1.410   1.590  11.104  0.7459  0.3581 -0.3259
    4MPD2    H7   66   1.449   1.679  11.073  0.5070  0.0956 -1.3882
    5TCq1    O1   67   3.018   3.336  12.299  0.2671  0.8586  0.2540
    5TCq1    C1   68   2.928   3.249  12.238 -0.2603  0.0915  0.4706
    5TCq1    O2   69   2.957   3.142  12.188 -0.1821  0.1966  0.2565
    5TCq1    C2   70   2.819   3.326  12.185  1.7577  0.1190  0.8290
    5TCq1    C3   71   2.772   3.423  12.269  0.0459  0.0104  0.1403
    5TCq1    C4   72   2.727   3.538  12.218  0.3786  0.7320  0.4624
    5TCq1    C5   73   2.721   3.553  12.079  0.5155 -0.3851 -0.5848
    5TCq1    C6   74   2.765   3.461  11.998  0.1651 -0.2408 -0.2606
    5TCq1    C7   75   2.816   3.340  12.053 -0.3459 -0.0531  0.4975
    5TCq1    C8   76   2.703   3.444  11.870  0.9106 -0.0521 -0.1301
    5TCq1    O4   77   2.751   3.359  11.795 -0.1457  0.0393 -0.5280
    5TCq1    C9   78   2.653   3.637  12.302 -0.2131  0.7585  1.3104
    5TCq1    O5   79   2.619   3.591  12.410  0.1486 -0.2644  0.0225
    5TCq1    O6   80   2.652   3.755  12.262 -0.4254 -0.5208 -0.2067
    5TCq1    H1   81   2.969   3.421  12.306  1.4351  1.1433  4.8522
    5TCq1    H2   82   2.763   3.406  12.376 -2.3464 -0.1131 -0.0950
    5TCq1    H3   83   2.681   3.647  12.043 -0.2973  0.2480  1.9599
    5TCq1    H4   84   2.871   3.270  11.990 -2.3882  1.8640 -3.4068
    6MPD2     C   85   2.347   3.519  11.842 -0.1135 -0.2444  0.5571
    6MPD2    C1   86   2.465   3.462  11.799  0.4740  0.6346 -0.4879
    6MPD2    C2   87   2.460   3.389  11.686  0.7190  0.3641 -0.5770
    6MPD2    C3   88   2.345   3.377  11.611 -0.6107 -0.1409 -0.1666
    6MPD2    C4   89   2.234   3.448  11.648 -0.0100 -0.0691 -0.6697
    6MPD2    C5   90   2.228   3.513  11.769 -0.1772 -0.3240  1.0748
    6MPD2     H   91   2.552   3.339  11.657 -1.2533 -3.1891 -0.6855
    6MPD2    H1   92   2.147   3.445  11.584  0.5555 -0.6523 -1.4150
    6MPD2    H2   93   2.341   3.567  11.939 -1.5445  1.3492 -0.3288
    6MPD2    H3   94   2.141   3.567  11.803 -0.1449  0.2629  0.2330
    6MPD2     N   95   2.335   3.276  11.501 -0.2096 -0.6269 -0.5597
    6MPD2    H5   96   2.424   3.237  11.470  0.2517 -0.1963  0.1937
    6MPD2    N1   97   2.575   3.481  11.884 -0.0296  0.5231 -0.1349
    6MPD2    H7   98   2.565   3.518  11.979  0.5898  1.3156 -0.3823
    7TCq1    O1   99   4.370   3.383  13.388  0.0460  0.1926  0.0486
    7TCq1    C1  100   4.474   3.466  13.402  0.2020  0.4149 -0.3332
    7TCq1    O2  101   4.459   3.589  13.410 -0.0238  0.2402 -0.2178
    7TCq1    C2  102   4.602   3.396  13.429  0.1938 -0.6932  0.6514
    7TCq1    C3  103   4.675   3.433  13.545  0.1018  0.2377 -0.1383
    7TCq1    C4  104   0.007   3.335  13.613 -0.0847  0.0069  0.5500
    7TCq1    C5  105   0.027   3.219  13.552  0.7542 -0.3675  0.2754
    7TCq1    C6  106   4.700   3.193  13.438 -0.6011 -0.2817  0.9402
    7TCq1    C7  107   4.608   3.269  13.376  0.0813  0.8828  0.0379
    7TCq1    C8  108   0.005   3.084  13.366  0.3600  0.8860  0.0543
    7TCq1    O4  109   4.671   3.023  13.293  0.0012 -0.3122  0.0754
    7TCq1    C9  110   0.062   3.365  13.741  0.3785 -0.7003  0.1944
    7TCq1    O5  111   0.109   3.262  13.803  0.0746  0.1864 -1.2262
    7TCq1    O6  112   0.037   3.474  13.796 -0.7108 -0.6456 -0.1685
    7TCq1    H1  113   4.389   3.288  13.407  1.4290  0.1630 -1.5869
    7TCq1    H2  114   4.663   3.533  13.586  0.3908 -0.4655  1.6409
    7TCq1    H3  115   0.089   3.149  13.607  0.3444  0.4888  1.8419
    7TCq1    H4  116   4.564   3.239  13.281  0.2673 -0.8758  0.5220
    8MPD2     C  117   0.354   2.696  13.335  0.7073  0.2214  0.6217
    8MPD2    C1  118   0.221   2.699  13.306 -0.6702  0.2481  0.7056
    8MPD2    C2  119   0.149   2.817  13.329 -0.1688  0.0220 -0.1190
    8MPD2    C3  120   0.199   2.928  13.388  0.7476 -0.1812  0.1428
    8MPD2    C4  121   0.339   2.926  13.416 -0.1757  0.2643 -0.6753
    8MPD2    C5  122   0.413   2.813  13.389  0.4048 -0.0933 -0.8159
    8MPD2     H  123   0.044   2.827  13.304 -0.1919 -1.5658 -0.6483
    8MPD2    H1  124   0.390   2.998  13.478 -2.1196  1.1330 -0.0813
    8MPD2    H2  125   0.414   2.607  13.320  1.8736  0.9200  1.1863
    8MPD2    H3  126   0.516   2.824  13.421 -0.5479  2.6093  1.3410
    8MPD2     N  127   0.135   3.054  13.409 -0.0984  0.0632  0.3316
    8MPD2    H5  128   0.184   3.130  13.455 -0.1496 -0.0631  0.5914
    8MPD2    N1  129   0.159   2.577  13.265 -0.2363 -0.0317  0.1422
    8MPD2    H7  130   0.224   2.500  13.257  0.3984  0.7474 -2.0660
    9TMC1    C1  131   2.166   1.829  11.290  0.0386 -0.3758  0.6769
    9TMC1    C2  132   2.125   1.708  11.333  0.0118 -0.3387  0.0140
    9TMC1    C3  133   2.141   1.599  11.255 -0.2497  0.4935 -0.5728
    9TMC1    C4  134   2.242   1.841  11.172 -0.3375  0.2297 -0.4750
    9TMC1    C5  135   2.263   1.727  11.103 -0.0231 -0.1455  0.3259
    9TMC1    C6  136   2.221   1.606  11.146 -0.0521  0.8821 -0.1917
    9TMC1     C  137   2.194   1.938  11.384 -0.1660 -0.0632 -0.0482
    9TMC1     O  138   2.277   2.016  11.344  0.2028 -0.1235 -0.4435
    9TMC1     H  139   2.091   1.690  11.434  0.4884  0.7284  0.3560
    9TMC1    H1  140   2.265   1.939  11.132  0.6241 -0.5927 -1.9103
    9TMC1    H2  141   2.237   1.512  11.094 -0.4622  0.5950  0.2034
    9TMC1    C7  142   2.336   1.740  10.982  0.3670  0.5854  0.4017
    9TMC1    C8  143   2.089   1.471  11.290 -0.0991 -0.1076 -0.2333
    9TMC1    O1  144   2.375   1.852  10.953  0.5297 -0.4666 -0.0943
    9TMC1    O2  145   2.037   1.403  11.208  0.5365  0.1209 -0.3207
    9TMC1    O3  146   2.283   1.656  10.886  0.3961 -0.1391 -0.1837
    9TMC1    H3  147   2.274   1.563  10.917  1.8115 -0.4741 -0.7429
    9TMC1    O5  148   2.054   1.462  11.421 -0.4891 -0.0597  0.2016
    9TMC1    H5  149   2.111   1.520  11.475  0.4867 -1.3078  0.5218
   10MPD2     C  150   2.285   2.071  11.626 -0.4048 -0.0382 -0.4475
   10MPD2    C1  151   2.176   1.991  11.619  0.3103  0.4608 -0.5905
   10MPD2    C2  152   2.118   1.957  11.739  0.5324 -0.1946  0.4031
   10MPD2    C3  153   2.168   2.007  11.861  0.0034 -0.1019  0.4124
   10MPD2    C4  154   2.270   2.098  11.861  0.3215  0.4463 -0.5034
   10MPD2    C5  155   2.336   2.120  11.740 -0.1762 -0.6605 -0.4316
   10MPD2     H  156   2.029   1.896  11.737 -0.0205  0.6883 -1.9657
   10MPD2    H1  157   2.306   2.137  11.955 -2.5718  0.7340  0.4763
   10MPD2    H2  158   2.350   2.092  11.541  0.7871  2.1652  1.0280
   10MPD2    H3  159   2.423   2.183  11.735 -0.9006  0.4862  1.3791
   10MPD2     N  160   2.111   1.976  11.990 -0.7818 -0.0933 -0.3666
   10MPD2    H5  161   2.136   2.035  12.069  1.2280 -0.4389 -0.7427
   10MPD2    N1  162   2.132   1.928  11.499  0.9295 -0.0992  0.0049
   10MPD2    H7  163   2.053   1.865  11.509  1.5512 -1.0070 -0.8603
   11TCq1    O1  164   1.256   1.454  15.140  0.2425  0.6471  0.2413
   11TCq1    C1  165   1.383   1.418  15.151 -0.7571 -0.4392  0.0654
   11TCq1    O2  166   1.437   1.374  15.254 -0.3928  0.1669  0.3100
   11TCq1    C2  167   1.439   1.396  15.020  0.4448 -0.6840 -0.1827
   11TCq1    C3  168   1.444   1.494  14.926 -0.1008  0.2301 -0.1976
   11TCq1    C4  169   1.524   1.476  14.815  0.4740 -0.1945 -0.2214
   11TCq1    C5  170   1.598   1.361  14.805 -0.6742 -0.4270 -0.5809
   11TCq1    C6  171   1.594   1.266  14.901 -0.0560  0.4645  0.5740
   11TCq1    C7  172   1.507   1.276  15.005  0.1236 -0.3455  0.2236
   11TCq1    C8  173   1.713   1.175  14.924  0.8284  0.1115 -0.1641
   11TCq1    O4  174   1.725   1.134  15.037 -0.2392  0.2576  0.0566
   11TCq1    C9  175   1.517   1.572  14.715 -0.5248  0.3012  0.6084
   11TCq1    O5  176   1.600   1.550  14.624 -0.1332  0.1533  0.0172
   11TCq1    O6  177   1.433   1.665  14.723  0.8297 -0.1742  0.4683
   11TCq1    H1  178   1.232   1.449  15.045  1.4849  0.4851 -0.0566
   11TCq1    H2  179   1.391   1.587  14.943  0.8968  0.8966 -0.7263
   11TCq1    H3  180   1.670   1.360  14.724 -0.5741 -0.2966 -0.4938
   11TCq1    H4  181   1.501   1.205  15.088  1.5222 -1.3232 -0.5135
   12MPD2     C  182   1.936   0.984  14.902 -0.5908  0.4276  0.1854
   12MPD2    C1  183   1.888   1.059  14.801 -0.7832 -0.9730 -0.1208
   12MPD2    C2  184   1.932   1.037  14.670  0.0448  0.1219  0.2505
   12MPD2    C3  185   2.036   0.955  14.643 -0.4934 -0.6043  0.3310
   12MPD2    C4  186   2.110   0.904  14.749 -0.0108 -0.6041 -0.0363
   12MPD2    C5  187   2.048   0.908  14.876 -0.2666  0.1873 -0.1450
   12MPD2     H  188   1.878   1.089  14.592  1.2112 -0.5038 -0.9983
   12MPD2    H1  189   2.196   0.840  14.735 -0.7292 -1.1632 -1.8636
   12MPD2    H2  190   1.906   1.003  15.004  0.2122  0.6165  0.3860
   12MPD2    H3  191   2.094   0.852  14.957 -0.2420 -0.4800 -0.6174
   12MPD2     N  192   2.084   0.925  14.513 -0.8596 -0.1787 -0.3036
   12MPD2    H5  193   2.178   0.890  14.500 -0.5640  0.5640 -0.1488
   12MPD2    N1  194   1.789   1.154  14.811  0.4025  0.8574  0.2929
   12MPD2    H7  195   1.736   1.185  14.730  2.5218 -0.5317 -1.6113
   13TCq1    O1  196   2.820   1.522  10.859  0.9075 -0.1636  0.2898
   13TCq1    C1  197   2.813   1.498  10.726 -0.2456  0.3413 -0.4815
   13TCq1    O2  198   2.911   1.483  10.652  0.0666  0.7135 -0.3178
   13TCq1    C2  199   2.676   1.464  10.684  0.4078  0.4601 -0.5578
   13TCq1    C3  200   2.653   1.434  10.556 -0.7677 -0.4079 -0.2200
   13TCq1    C4  201   2.536   1.376  10.522  0.0042 -0.4346 -0.5289
   13TCq1    C5  202   2.441   1.344  10.609 -0.0269 -0.6635 -0.3061
   13TCq1    C6  203   2.462   1.378  10.740  0.6109 -0.0578  1.4024
   13TCq1    C7  204   2.578   1.441  10.778 -0.2944  0.0492 -0.2944
   13TCq1    C8  205   2.377   1.320  10.845 -0.2865  0.7373 -0.0986
   13TCq1    O4  206   2.371   1.388  10.948  0.3798 -0.3897  0.0037
   13TCq1    C9  207   2.520   1.344  10.381 -0.0928 -0.1662 -0.2366
   13TCq1    O5  208   2.610   1.371  10.304  0.4141 -0.7459  0.2974
   13TCq1    O6  209   2.403   1.310  10.347  0.5026  0.5061 -0.0754
   13TCq1    H1  210   2.736   1.549  10.903 -0.4399  0.4214 -2.6577
   13TCq1    H2  211   2.726   1.458  10.480  0.1555  0.9206  1.0917
   13TCq1    H3  212   2.344   1.302  10.585 -0.6932  1.5719 -1.4668
   13TCq1    H4  213   2.603   1.441  10.883 -0.5482 -0.4000 -0.2346
   14MPD2     C  214   2.226   0.991  10.823  0.3700 -0.2006  0.3871
   14MPD2    C1  215   2.247   1.113  10.877  0.0904 -0.3799  0.8623
   14MPD2    C2  216   2.174   1.155  10.988  0.0576 -0.2039  0.2312
   14MPD2    C3  217   2.081   1.073  11.051 -0.0259 -0.8338 -0.2535
   14MPD2    C4  218   2.064   0.946  10.999  0.0060 -0.4622 -0.0201
   14MPD2    C5  219   2.127   0.903  10.881 -0.1064  0.3483  0.0417
   14MPD2     H  220   2.195   1.253  11.030 -1.8455 -0.9793  3.0001
   14MPD2    H1  221   2.006   0.869  11.048 -0.8244  0.4424  0.4177
   14MPD2    H2  222   2.269   0.957  10.729 -2.5089 -0.8670 -0.6827
   14MPD2    H3  223   2.122   0.798  10.853 -1.0263 -0.1413  2.0781
   14MPD2     N  224   2.007   1.117  11.167 -0.2756 -0.3957 -0.3054
   14MPD2    H5  225   2.020   1.214  11.196 -0.3839  0.0681 -1.7920
   14MPD2    N1  226   2.333   1.196  10.805  0.1011  0.2510 -0.2709
   14MPD2    H7  227   2.383   1.152  10.729 -1.9897 -2.3769 -0.1193
   15TCq1    O1  228   4.492   1.470   2.643  0.6990  1.0239  0.1297
   15TCq1    C1  229   4.531   1.574   2.564  0.1733  0.4425 -0.5544
   15TCq1    O2  230   4.455   1.652   2.514 -0.2058 -0.1260  0.1948
   15TCq1    C2  231   4.637   1.517   2.486 -0.2041  0.1585  1.1244
   15TCq1    C3  232   0.014   1.492   2.547  0.1671 -0.1254  0.1129
   15TCq1    C4  233   0.117   1.458   2.470  0.1547  0.3611  0.4479
   15TCq1    C5  234   0.101   1.420   2.340 -0.2769 -0.3331 -0.3678
   15TCq1    C6  235   4.716   1.447   2.286 -1.0497  0.1576 -0.1756
   15TCq1    C7  236   4.617   1.508   2.355 -0.9622 -0.2462  0.1777
   15TCq1    C8  237   4.679   1.370   2.169  0.0443 -0.2477  0.5052
   15TCq1    O4  238   0.016   1.277   2.135 -0.0320  0.0491  0.0895
   15TCq1    C9  239   0.242   1.436   2.535  0.7379 -0.5768  0.0217
   15TCq1    O5  240   0.260   1.469   2.654  0.2708 -0.4477 -0.2241
   15TCq1    O6  241   0.336   1.396   2.463 -0.0144 -0.0398 -0.4042
   15TCq1    H1  242   4.541   1.387   2.623 -1.6526 -0.2277 -0.4105
   15TCq1    H2  243   0.027   1.519   2.652  0.6241 -0.9063  0.2601
   15TCq1    H3  244   0.181   1.371   2.286 -0.2311  1.3940 -1.8545
   15TCq1    H4  245   4.515   1.520   2.322 -1.0328 -0.7652  0.2156
   16MPD2     C  246   4.425   1.455   1.919 -0.1459 -0.0719 -0.0468
   16MPD2    C1  247   4.525   1.381   1.977 -0.1110 -0.2735  0.7714
   16MPD2    C2  248   4.571   1.266   1.911 -0.0151  0.1901 -0.0886
   16MPD2    C3  249   4.538   1.232   1.779 -0.1443  0.2487 -0.6162
   16MPD2    C4  250   4.439   1.316   1.722  0.0208  0.1563  0.0333
   16MPD2    C5  251   4.388   1.422   1.792  0.1018  0.7019  0.4117
   16MPD2     H  252   4.640   1.205   1.967  1.7783  2.5171  0.2679
   16MPD2    H1  253   4.407   1.316   1.619  0.2884  0.7773 -0.0483
   16MPD2    H2  254   4.391   1.545   1.970 -0.5332  1.4671 -3.0022
   16MPD2    H3  255   4.317   1.483   1.738 -0.7732 -1.1767 -0.5736
   16MPD2     N  256   4.590   1.117   1.707  0.0461  0.1824  0.0680
   16MPD2    H5  257   4.646   1.049   1.756  0.8384 -1.8055 -3.5887
   16MPD2    N1  258   4.566   1.417   2.108 -0.6161  0.0658  0.1511
   16MPD2    H7  259   4.525   1.503   2.142 -0.1036  0.8509 -1.2062
   17TMC1    C1  260   2.047   1.032  11.755 -0.5187 -0.1629 -0.1288
   17TMC1    C2  261   2.033   1.103  11.871 -0.3986  0.4856 -0.2304
   17TMC1    C3  262   1.987   1.047  11.987  0.2039 -0.3767 -0.0220
   17TMC1    C4  263   2.039   0.895  11.762  0.6811 -0.4732 -0.3083
   17TMC1    C5  264   2.025   0.847  11.889  0.5749 -0.4150  0.1349
   17TMC1    C6  265   2.004   0.919  12.001  0.1027  0.8609  0.6582
   17TMC1     C  266   2.100   1.100  11.638  0.1288 -0.1728  0.3154
   17TMC1     O  267   2.077   1.221  11.633 -0.2642  1.1207  0.0614
   17TMC1     H  268   2.058   1.208  11.867 -1.0324  0.5269 -2.6227
   17TMC1    H1  269   2.051   0.834  11.674 -0.8271 -1.2605  0.0442
   17TMC1    H2  270   1.975   0.876  12.096 -1.1733 -0.1753 -0.2007
   17TMC1    C7  271   1.988   0.714  11.900  0.4835  0.1893  0.5092
   17TMC1    C8  272   2.033   1.117  12.108 -0.3387  0.1299  0.5665
   17TMC1    O1  273   1.972   0.664  12.010 -0.0810 -0.5139 -0.1272
   17TMC1    O2  274   2.117   1.061  12.174  0.0823  0.3443  0.2767
   17TMC1    O3  275   1.897   0.701  11.802  0.9290 -0.5661  0.6076
   17TMC1    H3  276   1.906   0.777  11.740 -1.8603  0.9716  2.0887
   17TMC1    O5  277   2.034   1.252  12.091  0.0634 -0.5035 -0.3441
   17TMC1    H5  278   1.975   1.295  12.026 -1.4250 -2.6960 -0.4482
   18MPD2     C  279   2.270   1.212  11.423  0.0077 -0.1270  0.0728
   18MPD2    C1  280   2.248   1.071  11.443  0.1493 -0.2719  1.0017
   18MPD2    C2  281   2.306   0.979  11.358  0.6539 -0.3451  0.2938
   18MPD2    C3  282   2.382   1.029  11.252 -0.4824 -0.2058 -0.8374
   18MPD2    C4  283   2.411   1.162  11.234 -0.4704 -0.2644  0.3885
   18MPD2    C5  284   2.355   1.254  11.318  0.0898 -0.2473  0.0172
   18MPD2     H  285   2.296   0.874  11.384 -2.1599 -0.1763 -0.1268
   18MPD2    H1  286   2.458   1.202  11.145 -0.0498  0.3070  0.8633
   18MPD2    H2  287   2.242   1.294  11.488  3.9727  1.2693  0.0380
   18MPD2    H3  288   2.372   1.360  11.301  0.2429 -0.3207 -0.2808
   18MPD2     N  289   2.445   0.933  11.168  0.4743 -0.1441 -0.0031
   18MPD2    H5  290   2.505   0.973  11.097 -0.7199 -0.5217 -1.2374
   18MPD2    N1  291   2.176   1.021  11.559 -0.7099 -0.9428 -0.3363
   18MPD2    H7  292   2.193   0.924  11.581 -1.4094 -1.5750 -2.5266
   19TMC2    C1  293   3.806   1.645  14.215  0.7000 -0.5265  0.5558
   19TMC2    C2  294   3.738   1.765  14.226 -0.0797  0.6426  0.0969
   19TMC2    C3  295   3.600   1.747  14.236  0.5709  0.2086 -0.1394
   19TMC2    C4  296   3.751   1.515  14.224  0.0742 -0.0898  0.1157
   19TMC2    C5  297   3.615   1.513  14.232 -0.2045  0.2827 -0.2243
   19TMC2    C6  298   3.543   1.621  14.231 -0.4703  0.2490  0.1067
   19TMC2     C  299   3.947   1.667  14.176 -0.4375  0.8863  0.0357
   19TMC2     O  300   3.978   1.767  14.107 -0.3651 -0.2449 -0.4300
   19TMC2     H  301   3.789   1.860  14.240  0.4364  0.3647  0.0880
   19TMC2    H1  302   3.800   1.421  14.205  0.4670 -0.2536  1.9372
   19TMC2    H2  303   3.434   1.616  14.233 -0.4591  0.3709  1.2258
   19TMC2    C7  304   3.561   1.385  14.178  0.1447  0.5037  0.1137
   19TMC2    C8  305   3.507   1.858  14.245 -0.4275  0.2260  0.1119
   19TMC2    O1  306   3.613   1.280  14.209 -0.2294 -0.3467 -0.5266
   19TMC2    O2  307   3.393   1.835  14.287  0.4870 -0.1031 -0.1647
   19TMC2    O5  308   3.557   1.969  14.183 -1.0104 -0.3834  0.1083
   19TMC2    H5  309   3.638   1.940  14.136  0.3322  2.7340  0.4778
   20MPD2     C  310   4.200   1.606  14.023  0.0865  0.7667 -0.0857
   20MPD2    C1  311   4.161   1.540  14.141  0.3144  0.5420 -0.2440
   20MPD2    C2  312   4.247   1.450  14.204 -0.0124 -0.5469 -0.1560
   20MPD2    C3  313   4.372   1.428  14.157 -0.0429 -0.8038 -0.3193
   20MPD2    C4  314   4.417   1.494  14.049 -0.8307 -0.1746 -0.5678
   20MPD2    C5  315   4.333   1.586  13.987 -0.1952  0.0707 -0.4551
   20MPD2     H  316   4.216   1.403  14.297 -0.7767 -2.1244 -1.2010
   20MPD2    H1  317   4.522   1.485  14.022 -0.6025  0.9536 -0.0557
   20MPD2    H2  318   4.133   1.664  13.961  0.5732  2.0027  0.5576
   20MPD2    H3  319   4.359   1.640  13.897  2.1140  0.0185  0.2005
   20MPD2     N  320   4.466   1.343  14.219 -0.4692  0.1222  0.0121
   20MPD2    H5  321   4.557   1.358  14.177  0.0009 -0.7201  0.7433
   20MPD2    N1  322   4.034   1.561  14.206  0.3003 -0.0353  0.0489
   20MPD2    H7  323   4.000   1.489  14.269 -2.1464  2.3892  1.4927
   21TMC2    C1  324   1.767   1.668  14.281  0.0862  0.3321  0.4901
   21TMC2    C2  325   1.696   1.555  14.307  0.4200  0.1619 -0.1046
   21TMC2    C3  326   1.559   1.567  14.313 -0.2299 -0.5503 -0.1172
   21TMC2    C4  327   1.700   1.791  14.261 -0.9689 -0.3554 -0.2143
   21TMC2    C5  328   1.562   1.793  14.268  0.2976 -0.5081 -0.2165
   21TMC2    C6  329   1.493   1.681  14.300 -0.1615  0.2959  0.5948
   21TMC2     C  330   1.906   1.680  14.316 -0.2373  0.9463 -0.1379
   21TMC2     O  331   1.958   1.592  14.383 -0.1895  0.2918 -0.3323
   21TMC2     H  332   1.736   1.455  14.320 -3.3930 -1.2126  1.0274
   21TMC2    H1  333   1.749   1.886  14.241 -0.3158 -0.1669  2.2732
   21TMC2    H2  334   1.385   1.679  14.309 -0.3810 -1.3937 -2.3044
   21TMC2    C7  335   1.509   1.914  14.324 -0.2081  0.2240 -0.2674
   21TMC2    C8  336   1.483   1.441  14.319 -0.4209 -0.2045 -0.5522
   21TMC2    O1  337   1.587   1.992  14.370 -0.3002 -0.1282 -0.3642
   21TMC2    O2  338   1.462   1.375  14.221 -0.1726 -0.2082 -0.3069
   21TMC2    O5  339   1.540   1.394  14.429  0.0813 -0.4543 -0.0242
   21TMC2    H5  340   1.556   1.468  14.491  0.5668 -0.0930 -0.5799
   22MPD2     C  341   2.325   1.965  14.401  0.3032  0.2241  0.0311
   22MPD2    C1  342   2.274   1.847  14.454 -0.1449 -0.1943 -0.2688
   22MPD2    C2  343   2.160   1.789  14.415 -0.3654 -0.1725 -0.0451
   22MPD2    C3  344   2.090   1.845  14.309  1.0501  0.5176  0.4776
   22MPD2    C4  345   2.134   1.961  14.249  0.2306  0.5683  0.4944
   22MPD2    C5  346   2.249   2.023  14.295  0.1481 -1.0609 -0.0192
   22MPD2     H  347   2.127   1.707  14.478 -0.8567  0.3346  0.3500
   22MPD2    H1  348   2.081   2.001  14.163  0.7580  0.3097  0.0527
   22MPD2    H2  349   2.418   2.015  14.426  1.3789 -2.2098  0.9202
   22MPD2    H3  350   2.284   2.112  14.245  0.6850 -1.4835 -0.3923
   22MPD2     N  351   1.964   1.794  14.273 -0.0147 -0.3561  0.0004
   22MPD2    H5  352   1.923   1.836  14.190  2.5998 -1.6368 -1.9290
   22MPD2    N1  353   2.334   1.789  14.566  0.6627 -0.1890 -0.0248
   22MPD2    H7  354   2.293   1.703  14.600  0.3710  0.4435  1.2080
   23TMC2    C1  355   2.324   3.239  14.735 -0.2965 -0.1657  0.1072
   23TMC2    C2  356   2.239   3.347  14.754 -0.5002 -0.1042  0.8022
   23TMC2    C3  357   2.114   3.338  14.712  0.4993  0.1016 -0.2031
   23TMC2    C4  358   2.268   3.126  14.680  0.3782  0.1257  0.1911
   23TMC2    C5  359   2.138   3.121  14.645  0.0882 -0.5315  0.5865
   23TMC2    C6  360   2.055   3.225  14.664  0.4262  0.5301  0.1450
   23TMC2     C  361   2.449   3.219  14.810 -0.1413  0.1646  0.4228
   23TMC2     O  362   2.499   3.108  14.803  0.4833 -0.2054  0.7141
   23TMC2     H  363   2.284   3.436  14.798  2.1887 -1.0845  0.0445
   23TMC2    H1  364   2.336   3.042  14.667  1.6741  1.0910  0.6911
   23TMC2    H2  365   1.949   3.227  14.640 -0.3524  0.4879  3.5648
   23TMC2    C7  366   2.104   3.007  14.556  0.1576 -0.0961  0.5890
   23TMC2    C8  367   2.054   3.469  14.707  0.0113 -0.2886  0.0439
   23TMC2    O1  368   2.199   2.933  14.527  0.2424  0.5069  0.4022
   23TMC2    O2  369   2.117   3.569  14.734 -0.4499  0.0292  0.1422
   23TMC2    O5  370   1.959   3.461  14.614  0.0994  0.7297  0.3488
   23TMC2    H5  371   1.918   3.373  14.599 -0.2236  0.7668  1.0277
   24MPD2     C  372   2.819   3.352  15.154 -0.5015  0.4505  0.3037
   24MPD2    C1  373   2.770   3.230  15.121  0.1059 -0.3817  0.3912
   24MPD2    C2  374   2.667   3.214  15.027 -0.0785 -0.4756 -0.1517
   24MPD2    C3  375   2.612   3.327  14.960  0.5957  0.5327  0.4759
   24MPD2    C4  376   2.666   3.445  15.000  0.3743 -0.3522 -0.4872
   24MPD2    C5  377   2.769   3.458  15.092 -0.1682 -0.5789 -0.0801
   24MPD2     H  378   2.630   3.117  14.996  0.7513  0.3545 -3.7040
   24MPD2    H1  379   2.621   3.537  14.966  0.6265  0.3706  1.1406
   24MPD2    H2  380   2.901   3.357  15.224 -1.1752  2.0027  0.9954
   24MPD2    H3  381   2.807   3.558  15.105 -1.2452 -0.3038  1.0051
   24MPD2     N  382   2.503   3.327  14.868 -0.0300  0.4139 -0.0449
   24MPD2    H5  383   2.452   3.413  14.849 -0.3228  1.0048  3.5182
   24MPD2    N1  384   2.838   3.127  15.186 -0.4990  0.1610 -0.5936
   24MPD2    H7  385   2.882   3.136  15.277  1.3069  1.7366 -1.6243
   25TMC2    C1  386   2.187   4.564  11.627  0.2530  0.2719 -0.4270
   25TMC2    C2  387   2.254   4.687  11.629 -0.7242  0.3430  0.3583
   25TMC2    C3  388   2.288   0.017  11.743  0.4006  0.3324 -0.5054
   25TMC2    C4  389   2.159   4.513  11.749 -0.2400 -0.0915 -0.7547
   25TMC2    C5  390   2.199   4.585  11.860  0.0675 -0.0506 -0.6931
   25TMC2    C6  391   2.256   4.708  11.862  0.1595  1.0984 -0.5098
   25TMC2     C  392   2.204   4.483  11.507  0.3918  0.6587  0.4869
   25TMC2     O  393   2.288   4.519  11.426 -0.1346  0.2068  0.0915
   25TMC2     H  394   2.277   4.729  11.532 -1.4620 -0.1034 -0.0076
   25TMC2    H1  395   2.118   4.414  11.769  2.0054 -0.9147 -0.2921
   25TMC2    H2  396   2.254   0.037  11.946  0.2825 -0.2271  0.5698
   25TMC2    C7  397   2.173   4.531  11.987  0.3076 -0.5124 -0.2755
   25TMC2    C8  398   2.290   0.165  11.733  0.1563 -0.2712 -0.1317
   25TMC2    O1  399   2.100   4.434  12.001  0.1935 -0.1708 -0.3143
   25TMC2    O2  400   2.321   0.233  11.827  0.2878 -0.3363  0.1883
   25TMC2    O5  401   2.195   0.204  11.645  0.7340 -0.2026  0.0827
   25TMC2    H5  402   2.168   0.135  11.581  0.7428 -2.3231  2.3953
   26MPD2     C  403   2.214   4.071  11.231  0.6081 -0.1969 -0.5520
   26MPD2    C1  404   2.090   4.079  11.290  0.1016  0.3667  0.8115
   26MPD2    C2  405   2.058   4.170  11.387 -0.4678  0.0406 -0.3114
   26MPD2    C3  406   2.155   4.263  11.416  0.7277 -0.3197  0.2972
   26MPD2    C4  407   2.279   4.247  11.368  0.6294 -0.3725  0.3475
   26MPD2    C5  408   2.311   4.160  11.269 -0.5738 -0.3961  0.6521
   26MPD2     H  409   1.954   4.168  11.416  0.0767  0.3031  1.6112
   26MPD2    H1  410   2.361   4.302  11.414  1.2054  0.3736 -1.5525
   26MPD2    H2  411   2.238   3.990  11.163  0.1390 -1.9689  1.3839
   26MPD2    H3  412   2.406   4.165  11.218  0.0327 -3.4310  1.4508
   26MPD2     N  413   2.121   4.374  11.503  0.2885 -0.1148  0.0003
   26MPD2    H5  414   2.043   4.373  11.567  1.1042  2.5563  1.0565
   26MPD2    N1  415   2.012   3.967  11.253 -0.0067 -0.1891 -0.4074
   26MPD2    H7  416   2.044   3.910  11.175  2.7710  0.2157  0.4355
   27TMC2    C1  417   0.897   2.246  11.738  0.0356 -0.0923 -0.1202
   27TMC2    C2  418   0.979   2.238  11.625 -0.4079 -0.1722 -0.2318
   27TMC2    C3  419   1.052   2.350  11.594 -0.5615  0.9572  0.3850
   27TMC2    C4  420   0.917   2.343  11.829 -0.5707  0.2388 -0.2338
   27TMC2    C5  421   1.002   2.448  11.801  0.1348  0.6063 -0.0942
   27TMC2    C6  422   1.061   2.458  11.677 -0.4268  0.1043 -0.1569
   27TMC2     C  423   0.842   2.118  11.778  0.4889 -0.5873  0.2428
   27TMC2     O  424   0.870   2.029  11.706 -0.4683 -0.1500  0.1038
   27TMC2     H  425   0.965   2.160  11.550  0.2094 -2.3489  1.9117
   27TMC2    H1  426   0.863   2.347  11.923  1.8382 -0.4883  1.1884
   27TMC2    H2  427   1.110   2.545  11.635  1.8441  0.0252  2.3144
   27TMC2    C7  428   1.072   2.521  11.907  0.3087  0.3746 -0.2424
   27TMC2    C8  429   1.104   2.357  11.462 -0.0284  0.0330 -0.0257
   27TMC2    O1  430   1.150   2.599  11.861 -0.1812 -0.2339 -0.3296
   27TMC2    O2  431   1.124   2.253  11.399  0.2142  0.3018 -0.3031
   27TMC2    O5  432   1.020   2.451  11.415  0.0481  0.0664 -0.4432
   27TMC2    H5  433   0.982   2.515  11.478 -0.3748  0.3389 -0.9821
   28MPD2     C  434   0.508   1.836  12.042  0.2139  0.5112  0.4120
   28MPD2    C1  435   0.493   1.965  12.076 -0.5909 -0.6391 -0.0505
   28MPD2    C2  436   0.579   2.054  12.025 -0.6489 -0.1002 -0.3035
   28MPD2    C3  437   0.671   2.023  11.933  0.4720 -0.1578  0.1817
   28MPD2    C4  438   0.694   1.893  11.894  0.5913 -0.3590  0.5127
   28MPD2    C5  439   0.614   1.801  11.957  0.0299 -0.1236  0.1125
   28MPD2     H  440   0.580   2.159  12.052  1.3553 -0.0058 -0.7278
   28MPD2    H1  441   0.769   1.863  11.822 -1.1833  1.4607 -2.0764
   28MPD2    H2  442   0.453   1.756  12.090 -0.0531 -0.6671 -1.8699
   28MPD2    H3  443   0.630   1.695  11.938 -1.7040  0.0185 -2.1396
   28MPD2     N  444   0.749   2.129  11.881 -1.0019  0.1449 -0.4122
   28MPD2    H5  445   0.747   2.216  11.935 -1.4622  1.0350 -1.8603
   28MPD2    N1  446   0.377   2.000  12.150 -0.4517  0.0205 -0.0253
   28MPD2    H7  447   0.334   1.922  12.197 -1.7943 -0.3242 -1.8275
   29TMC2    C1  448   0.359   4.578  14.464  0.1403 -0.2526 -0.6486
   29TMC2    C2  449   0.487   4.553  14.494  0.1774  0.0013 -0.0485
   29TMC2    C3  450   0.567   4.645  14.561  0.1922  0.3971 -0.1156
   29TMC2    C4  451   0.298   4.702  14.482  0.3524 -0.4273  0.4776
   29TMC2    C5  452   0.384   0.050  14.541 -0.8715 -0.0721 -0.2564
   29TMC2    C6  453   0.508   0.024  14.595  0.6624  0.0180 -0.0452
   29TMC2     C  454   0.281   4.472  14.402 -0.3518  0.5020  0.3644
   29TMC2     O  455   0.338   4.370  14.362 -0.3574  0.0169  0.1435
   29TMC2     H  456   0.532   4.462  14.456 -1.3697 -1.5849  1.9275
   29TMC2    H1  457   0.195   4.725  14.456  0.5230 -1.3747 -1.0252
   29TMC2    H2  458   0.560   0.098  14.656  1.4974 -1.1330  0.6397
   29TMC2    C7  459   0.322   0.182  14.563  0.1554  0.1319  0.0369
   29TMC2    C8  460   0.680   4.604  14.627  0.6934  0.2720  0.1482
   29TMC2    O1  461   0.200   0.182  14.562 -0.0754 -0.7023  0.0941
   29TMC2    O2  462   0.751   4.687  14.682 -0.4222  0.2798 -0.1842
   29TMC2    O5  463   0.682   4.472  14.660  0.1297 -0.4080  0.0754
   29TMC2    H5  464   0.611   4.413  14.626 -1.7854  1.5401  0.6622
   30MPD2     C  465   4.567   4.325  14.216  0.5175 -0.2831 -0.6810
   30MPD2    C1  466   4.690   4.269  14.197  0.3909  0.2084 -0.6914
   30MPD2    C2  467   0.056   4.330  14.260  0.5950  0.3434  0.6457
   30MPD2    C3  468   0.041   4.437  14.344  0.2217 -0.3517 -0.2431
   30MPD2    C4  469   4.658   4.499  14.363 -0.7645 -0.1294  0.9007
   30MPD2    C5  470   4.554   4.440  14.291 -0.5596  0.0952  0.5797
   30MPD2     H  471   0.150   4.278  14.252  1.3780  2.2959 -2.5876
   30MPD2    H1  472   4.635   4.579  14.433  0.5553  0.1886  0.9712
   30MPD2    H2  473   4.475   4.282  14.179 -1.2033  0.6711  2.4430
   30MPD2    H3  474   4.453   4.477  14.303 -0.1854  1.1514  0.4683
   30MPD2     N  475   0.148   4.504  14.409 -0.3466  0.1847 -0.0171
   30MPD2    H5  476   0.120   4.591  14.454 -0.4787  0.7453 -1.1748
   30MPD2    N1  477   4.706   4.158  14.112 -0.3164  0.5833 -0.0504
   30MPD2    H7  478   0.056   4.111  14.113  0.2851  1.7490  0.1935
   31TMC2    C1  479   2.445   3.716  15.751  0.4856  0.4393 -1.1084
   31TMC2    C2  480   2.342   3.803  15.762  0.0440 -0.2924 -0.5575
   31TMC2    C3  481   2.315   3.853  15.890  0.9070  0.3430  0.2582
   31TMC2    C4  482   2.534   3.702  15.850 -0.1005 -0.3691 -0.1803
   31TMC2    C5  483   2.509   3.752  15.976  0.3148 -0.4726  0.0296
   31TMC2    C6  484   2.393   3.824  15.997  0.1778 -0.3460  0.1777
   31TMC2     C  485   2.487   3.718  15.609  0.8673 -0.4106  0.2637
   31TMC2     O  486   2.442   3.811  15.546  0.1549 -0.1304 -0.0809
   31TMC2     H  487   2.263   3.820  15.690  1.4549  2.3361 -1.4818
   31TMC2    H1  488   2.623   3.640  15.845  1.3761  1.9854 -2.3944
   31TMC2    H2  489   2.355   3.870  16.088 -0.5611  0.5272 -0.5752
   31TMC2    C7  490   2.598   3.706  16.077  0.3654  0.4261 -0.4884
   31TMC2    C8  491   2.188   3.914  15.908  0.1159  0.3264  1.0899
   31TMC2    O1  492   2.636   3.589  16.073 -0.9698  0.2679  0.8742
   31TMC2    O2  493   2.122   3.879  16.006 -0.3747  0.2345 -0.4612
   31TMC2    O5  494   2.147   3.984  15.800 -0.4891 -0.6366 -0.3567
   31TMC2    H5  495   2.219   4.019  15.744  0.1494  0.0138  0.8580
   32MPD2     C  496   2.907   3.687  15.331  0.1314  0.3452  0.0235
   32MPD2    C1  497   2.800   3.764  15.309  0.6753  0.2930  0.1483
   32MPD2    C2  498   2.692   3.747  15.390 -0.2698  0.4360  0.0088
   32MPD2    C3  499   2.698   3.658  15.496  0.5576 -1.1898 -0.3869
   32MPD2    C4  500   2.817   3.597  15.523 -1.1824  0.0888  0.6791
   32MPD2    C5  501   2.915   3.598  15.434  0.2589 -0.2848  0.2338
   32MPD2     H  502   2.603   3.809  15.381  0.0710  0.8693 -0.3992
   32MPD2    H1  503   2.834   3.539  15.613 -1.1494 -1.5108 -0.3439
   32MPD2    H2  504   2.989   3.693  15.260 -0.8868  1.6070 -1.0520
   32MPD2    H3  505   2.999   3.533  15.456  1.4401  0.5512 -1.7992
   32MPD2     N  506   2.606   3.648  15.596 -0.3945 -0.0168 -0.2507
   32MPD2    H5  507   2.627   3.585  15.673  0.2411  1.0330  0.4335
   32MPD2    N1  508   2.805   3.857  15.204  0.0333 -0.1456 -0.0079
   32MPD2    H7  509   2.892   3.870  15.153 -0.2695  2.1198  0.0844
   33TMC2    C1  510   2.577   1.016  10.151 -0.2328 -1.0087 -0.1859
   33TMC2    C2  511   2.460   1.089  10.163 -0.0373  0.3044 -0.2813
   33TMC2    C3  512   2.428   1.164  10.055  0.0503 -0.0643 -0.0628
   33TMC2    C4  513   2.662   1.030  10.040 -0.3021  0.2926 -0.1557
   33TMC2    C5  514   2.624   1.111   9.936  0.2075 -0.7091  0.4025
   33TMC2    C6  515   2.505   1.175   9.942 -0.1147  0.6453  0.3947
   33TMC2     C  516   2.618   0.942  10.269 -0.8098 -0.4511 -0.1695
   33TMC2     O  517   2.540   0.940  10.367 -0.2419 -0.2839 -0.2849
   33TMC2     H  518   2.399   1.069  10.251 -0.8612  2.1785 -0.4305
   33TMC2    H1  519   2.751   0.970  10.030 -1.5773 -1.5308 -0.4320
   33TMC2    H2  520   2.463   1.234   9.861  0.1101 -1.0008 -0.9336
   33TMC2    C7  521   2.731   1.152   9.848  0.2551 -0.4912 -0.0379
   33TMC2    C8  522   2.303   1.228  10.034  0.0882  0.2870  0.6234
   33TMC2    O1  523   2.843   1.122   9.889 -0.2764  0.1083 -0.1039
   33TMC2    O2  524   2.240   1.213   9.931 -0.1026  0.2585 -0.6947
   33TMC2    O5  525   2.244   1.243  10.157  0.3548  0.5086  0.1357
   33TMC2    H5  526   2.306   1.245  10.233  0.2154  0.6832  0.2442
   34MPD2     C  527   3.011   0.803  10.600  0.3456 -0.3262 -0.5732
   34MPD2    C1  528   2.872   0.795  10.616  0.2731 -0.0334  0.8170
   34MPD2    C2  529   2.788   0.841  10.511 -0.3214 -0.4315  0.5457
   34MPD2    C3  530   2.836   0.883  10.383 -0.1462 -0.6255 -0.0620
   34MPD2    C4  531   2.969   0.878  10.364 -0.1961  0.2897  0.0427
   34MPD2    C5  532   3.050   0.843  10.471 -0.2782  0.1133 -0.8659
   34MPD2     H  533   2.680   0.844  10.514 -0.2245  1.0993  1.9551
   34MPD2    H1  534   3.019   0.903  10.271 -0.5313 -0.9904 -0.4760
   34MPD2    H2  535   3.081   0.778  10.678 -0.3818  1.1746  0.5543
   34MPD2    H3  536   3.155   0.858  10.446 -0.3864 -2.8964 -3.1196
   34MPD2     N  537   2.757   0.925  10.274 -0.0826  0.2442 -0.3723
   34MPD2    H5  538   2.803   0.957  10.190 -1.4887  0.1037 -1.2004
   34MPD2    N1  539   2.815   0.760  10.740  0.9549  0.2349  0.0333
   34MPD2    H7  540   2.877   0.734  10.816  1.4755 -1.7134 -1.0358
   35TMC2    C1  541   3.608   2.638  11.492 -0.2601 -0.7150  0.0778
   35TMC2    C2  542   3.493   2.693  11.449  0.6909  1.0740 -0.3975
   35TMC2    C3  543   3.395   2.602  11.431 -0.1089 -0.1796  0.3978
   35TMC2    C4  544   3.628   2.501  11.512 -0.4070 -1.0130 -0.0006
   35TMC2    C5  545   3.528   2.418  11.480  0.0158 -0.2181  0.2720
   35TMC2    C6  546   3.407   2.461  11.446  0.5514 -0.4282  0.1213
   35TMC2     C  547   3.721   2.734  11.502  0.4378 -0.1338  0.9351
   35TMC2     O  548   3.700   2.851  11.474  0.2676 -0.3091  0.0750
   35TMC2     H  549   3.480   2.798  11.424 -2.6610  1.0016  1.0345
   35TMC2    H1  550   3.710   2.464  11.572 -0.2465  1.6818  1.4493
   35TMC2    H2  551   3.327   2.395  11.416 -0.1973 -0.0329  1.2506
   35TMC2    C7  552   3.538   2.271  11.494 -0.5325 -0.1086  0.0666
   35TMC2    C8  553   3.281   2.647  11.347  0.3607  0.2202  0.0056
   35TMC2    O1  554   3.439   2.201  11.464  0.4077 -0.5528 -0.8388
   35TMC2    O2  555   3.229   2.555  11.282 -0.5630  0.3210  0.0390
   35TMC2    O5  556   3.217   2.764  11.381 -0.2469 -0.4122  0.7464
   35TMC2    H5  557   3.256   2.827  11.445  0.6518  1.5201 -1.6979
   36MPD2     C  558   4.218   2.839  11.489  0.8218  0.8545 -0.4708
   36MPD2    C1  559   4.211   2.705  11.516 -0.0934  0.8997  0.4979
   36MPD2    C2  560   4.087   2.650  11.516  0.9887 -0.4589 -0.1321
   36MPD2    C3  561   3.972   2.731  11.520  0.5164  0.0018  0.3028
   36MPD2    C4  562   3.982   2.869  11.518 -0.1643  0.1563  0.4439
   36MPD2    C5  563   4.111   2.917  11.508  0.2001  0.2512  0.2173
   36MPD2     H  564   4.064   2.544  11.521  1.3135 -0.6684 -2.9738
   36MPD2    H1  565   3.897   2.937  11.526  0.0476  0.3597  0.9613
   36MPD2    H2  566   4.315   2.887  11.482  1.1951 -0.0006 -1.2267
   36MPD2    H3  567   4.123   3.023  11.490 -1.1879  0.1616 -1.2182
   36MPD2     N  568   3.843   2.670  11.523 -0.1757 -0.2548 -0.2042
   36MPD2    H5  569   3.842   2.569  11.519  1.6785 -0.2095 -1.6464
   36MPD2    N1  570   4.327   2.628  11.542 -0.0786  0.1630  0.0558
   36MPD2    H7  571   4.408   2.683  11.571 -0.1991  0.9096 -1.0208
   37TMC2    C1  572   1.384   2.197  12.301  0.1746  0.0826  0.1121
   37TMC2    C2  573   1.271   2.124  12.274  0.3606 -0.1341 -0.4273
   37TMC2    C3  574   1.205   2.131  12.157 -0.3043 -0.0809  0.9542
   37TMC2    C4  575   1.434   2.287  12.209 -0.4492  0.1974 -0.1003
   37TMC2    C5  576   1.377   2.272  12.079 -0.6335  0.8116  0.0520
   37TMC2    C6  577   1.260   2.207  12.056 -0.7124  0.5835 -0.1003
   37TMC2     C  578   1.415   2.211  12.441  0.6922 -0.2260 -0.4701
   37TMC2     O  579   1.319   2.194  12.520 -0.2368  0.1507  0.0078
   37TMC2     H  580   1.234   2.055  12.349 -1.4476  1.3360  0.0509
   37TMC2    H1  581   1.511   2.360  12.232 -0.7402  1.0138 -1.7356
   37TMC2    H2  582   1.205   2.215  11.963 -0.5030 -1.5640 -0.4065
   37TMC2    C7  583   1.460   2.333  11.979  0.7846 -0.3271  0.0413
   37TMC2    C8  584   1.068   2.101  12.148 -0.4784  0.1011  0.4503
   37TMC2    O1  585   1.542   2.420  12.014 -0.5365  0.3361 -0.0226
   37TMC2    O2  586   0.992   2.167  12.082 -0.1822 -0.0716  0.5540
   37TMC2    O5  587   1.032   2.009  12.245 -0.5236  0.3252 -0.1676
   37TMC2    H5  588   1.110   1.954  12.269 -1.9788 -1.5127  0.2709
   38MPD2     C  589   1.720   2.435  12.806 -0.3002 -0.2303  1.1903
   38MPD2    C1  590   1.789   2.430  12.681  0.1243 -0.3415 -0.5684
   38MPD2    C2  591   1.726   2.385  12.568 -0.4378 -0.0048  0.5441
   38MPD2    C3  592   1.597   2.328  12.575  0.1821 -0.1839 -0.0373
   38MPD2    C4  593   1.525   2.339  12.691  0.8122 -0.2886  0.8638
   38MPD2    C5  594   1.586   2.390  12.809  0.6793  0.1162  0.8663
   38MPD2     H  595   1.783   2.384  12.476 -1.0392 -2.1415  0.1910
   38MPD2    H1  596   1.426   2.299  12.712 -0.0488  1.2149 -0.3758
   38MPD2    H2  597   1.757   2.479  12.898 -2.2259  1.3175  1.2509
   38MPD2    H3  598   1.530   2.408  12.899 -1.8663  2.5724 -1.2075
   38MPD2     N  599   1.541   2.269  12.457  0.1004 -0.3980 -0.0498
   38MPD2    H5  600   1.598   2.267  12.373  2.0241  1.7063  1.2014
   38MPD2    N1  601   1.921   2.472  12.662 -0.5038  0.2701 -1.1097
   38MPD2    H7  602   1.971   2.448  12.576  0.7565 -0.6226 -0.1294
   39TMC2    C1  603   0.251   4.692   1.803  0.0033 -0.5523 -0.0643
   39TMC2    C2  604   0.213   4.688   1.935 -0.3470  0.8276  0.2489
   39TMC2    C3  605   0.309   4.663   2.028  0.1409 -0.1863  0.0136
   39TMC2    C4  606   0.377   4.657   1.769 -0.3230 -0.0349  1.2043
   39TMC2    C5  607   0.474   4.632   1.867  0.3958 -0.0578 -0.2576
   39TMC2    C6  608   0.437   4.621   1.995  0.0563  0.5590  0.0376
   39TMC2     C  609   0.157   0.015   1.707 -0.3482  0.5030  0.2986
   39TMC2     O  610   0.050   0.060   1.747  0.1460 -0.1423  0.4551
   39TMC2     H  611   0.114   4.723   1.961 -0.0024  1.2157  1.0495
   39TMC2    H1  612   0.407   4.623   1.671 -0.5957 -0.1197  1.1527
   39TMC2    H2  613   0.514   4.597   2.068 -0.0205  2.4984  0.7389
   39TMC2    C7  614   0.613   4.630   1.836  0.2417 -0.3643  0.2461
   39TMC2    C8  615   0.286   4.715   2.159  0.3495 -0.2771 -0.6604
   39TMC2    O1  616   0.690   4.584   1.921  0.1278 -0.3093  0.1233
   39TMC2    O2  617   0.244   0.085   2.179  0.2985  0.2218  0.1601
   39TMC2    O5  618   0.340   4.638   2.255  0.3828 -0.0101  0.6586
   39TMC2    H5  619   0.340   4.546   2.220 -0.6152  0.3902 -0.3748
   40MPD2     C  620   0.183   4.739   1.346  0.0264 -0.7835 -0.0326
   40MPD2    C1  621   0.133   0.044   1.459 -0.4188  0.2893  0.1823
   40MPD2    C2  622   0.014   0.116   1.462  0.0819  0.1655 -0.0699
   40MPD2    C3  623   4.693   0.151   1.343  0.0657  0.0557 -0.3712
   40MPD2    C4  624   0.008   0.107   1.222 -0.7771 -0.7765  0.0808
   40MPD2    C5  625   0.120   0.024   1.227  0.2410  0.3949  0.1369
   40MPD2     H  626   4.722   0.172   1.549  0.2285  0.3401 -0.1279
   40MPD2    H1  627   4.698   0.111   1.126 -1.8720  0.4139  0.7023
   40MPD2    H2  628   0.268   4.673   1.344  0.8712  0.3078  0.1593
   40MPD2    H3  629   0.165   4.721   1.138 -0.6714 -1.3042  0.4867
   40MPD2     N  630   4.566   0.218   1.339  0.0391  0.5233 -0.3822
   40MPD2    H5  631   4.527   0.222   1.245  1.1253 -2.7165 -0.9723
   40MPD2    N1  632   0.205   0.000   1.578 -0.8764 -0.2548 -0.5725
   40MPD2    H7  633   0.291   4.686   1.574 -1.2711 -0.8008 -1.6556
   41TMC2    C1  634   3.742   2.618  13.115 -0.2567  0.1696 -0.8228
   41TMC2    C2  635   3.665   2.717  13.175  0.1000 -0.4124 -0.1207
   41TMC2    C3  636   3.698   2.846  13.148 -0.8000 -0.6757 -0.1361
   41TMC2    C4  637   3.834   2.642  13.018  0.0535  1.1425  0.1515
   41TMC2    C5  638   3.852   2.773  12.977 -0.9386  0.1406 -0.5583
   41TMC2    C6  639   3.786   2.872  13.050  0.1391  0.4819  0.2077
   41TMC2     C  640   3.755   2.497  13.186  0.2366 -0.3067 -0.3735
   41TMC2     O  641   3.792   2.394  13.129 -0.1161 -0.4712  0.0872
   41TMC2     H  642   3.598   2.695  13.257  0.8991  0.7074  0.8280
   41TMC2    H1  643   3.886   2.559  12.971 -1.5046  1.0576 -1.3966
   41TMC2    H2  644   3.821   2.971  13.023  1.4155  0.1444  0.6232
   41TMC2    C7  645   3.972   2.826  12.920  0.6736  0.4400  0.1137
   41TMC2    C8  646   3.708   2.925  13.268  0.2906  0.9092  0.2062
   41TMC2    O1  647   4.009   2.943  12.923 -0.1515 -0.7611  0.4743
   41TMC2    O2  648   3.696   2.876  13.383  0.2894 -0.1628  0.3390
   41TMC2    O5  649   3.712   3.054  13.238  0.2637 -0.0598  0.1841
   41TMC2    H5  650   3.685   3.075  13.146  0.2147 -1.6450 -0.1633
   42MPD2     C  651   3.784   2.293  13.409 -0.1157 -0.0677  0.4997
   42MPD2    C1  652   3.756   2.429  13.430 -0.1262 -0.7178 -0.0015
   42MPD2    C2  653   3.734   2.465  13.560  0.6273 -0.1070  0.4822
   42MPD2    C3  654   3.736   2.376  13.659 -0.4471 -0.2229 -0.4419
   42MPD2    C4  655   3.734   2.243  13.632  0.1484  0.4692 -0.0816
   42MPD2    C5  656   3.760   2.202  13.502  0.8168  0.0267 -0.6767
   42MPD2     H  657   3.710   2.570  13.575  0.0349  0.1047 -1.9194
   42MPD2    H1  658   3.717   2.172  13.712  0.5722  0.2562 -0.1827
   42MPD2    H2  659   3.824   2.261  13.313  0.8272 -1.9064  1.4976
   42MPD2    H3  660   3.767   2.099  13.470  3.2742 -0.8927  2.7518
   42MPD2     N  661   3.721   2.421  13.796  0.1841  0.4830  0.3642
   42MPD2    H5  662   3.704   2.349  13.866  2.1137 -1.1929 -0.9010
   42MPD2    N1  663   3.742   2.525  13.322 -0.6703  0.0487  0.5644
   42MPD2    H7  664   3.725   2.622  13.349  1.3989  0.1299  1.6187
   43TMC2    C1  665   0.497   1.399   1.379 -0.0186 -0.4621 -0.2069
   43TMC2    C2  666   0.387   1.478   1.411 -0.0236  1.1078 -0.4985
   43TMC2    C3  667   0.389   1.534   1.535 -0.2050 -0.7324  0.7981
   43TMC2    C4  668   0.600   1.378   1.477 -0.0912 -0.0836  0.2619
   43TMC2    C5  669   0.588   1.433   1.605 -0.4711 -0.0050  0.5126
   43TMC2    C6  670   0.481   1.522   1.632 -1.1130 -0.7268 -0.2098
   43TMC2     C  671   0.495   1.311   1.260  0.4860  0.0282 -0.1735
   43TMC2     O  672   0.572   1.216   1.234 -0.0487 -0.1328 -0.3521
   43TMC2     H  673   0.301   1.498   1.347 -0.7749  0.6964  0.3910
   43TMC2    H1  674   0.678   1.306   1.453 -0.2613  0.0332 -0.6475
   43TMC2    H2  675   0.464   1.559   1.732  0.5752  0.0560 -0.2115
   43TMC2    C7  676   0.707   1.450   1.694 -0.8357  0.0101 -0.5510
   43TMC2    C8  677   0.289   1.636   1.558  0.3504 -0.6376 -0.4184
   43TMC2    O1  678   0.818   1.427   1.649 -0.5220  0.0006 -0.3315
   43TMC2    O2  679   0.236   1.640   1.668 -0.2605  0.5524  0.1757
   43TMC2    O5  680   0.296   1.734   1.471 -0.1573 -0.1095  0.1388
   43TMC2    H5  681   0.376   1.723   1.416 -0.2078  0.6628 -0.0870
   44MPD2     C  682   0.255   1.187   0.824 -0.6764 -0.1383 -0.2293
   44MPD2    C1  683   0.363   1.132   0.875 -1.4154  0.1919 -0.1663
   44MPD2    C2  684   0.417   1.187   0.987  0.2241 -0.1889 -0.3757
   44MPD2    C3  685   0.343   1.282   1.063 -0.6088  0.2537  0.2043
   44MPD2    C4  686   0.220   1.318   1.019 -0.3006  0.7159 -0.7569
   44MPD2    C5  687   0.175   1.277   0.897 -0.0318 -1.2513 -0.6475
   44MPD2     H  688   0.503   1.147   1.040  0.9158  1.7673 -0.0177
   44MPD2    H1  689   0.155   1.396   1.057 -0.0098 -0.1170  1.4752
   44MPD2    H2  690   0.201   1.157   0.735  2.1947 -1.2065 -1.6058
   44MPD2    H3  691   0.078   1.310   0.862  0.9167  1.0425 -1.0875
   44MPD2     N  692   0.384   1.341   1.185  0.7024  0.2874 -0.5710
   44MPD2    H5  693   0.328   1.421   1.212  0.1270  0.1005 -1.2182
   44MPD2    N1  694   0.431   1.027   0.806  0.2834  0.1345 -0.1166
   44MPD2    H7  695   0.509   0.982   0.853  0.4101 -0.8529 -1.2684
   45TMC2    C1  696   1.908   2.086   9.801 -0.1700 -0.1968  0.3062
   45TMC2    C2  697   2.005   2.150   9.732 -0.2821  0.1103 -0.0312
   45TMC2    C3  698   2.088   2.239   9.799  0.4204 -0.3965 -0.1762
   45TMC2    C4  699   1.893   2.099   9.939 -0.1439 -0.6165 -0.3806
   45TMC2    C5  700   1.966   2.197   9.995 -0.3258 -0.4205 -0.1812
   45TMC2    C6  701   2.057   2.267   9.928 -0.0588  0.5492 -0.8510
   45TMC2     C  702   1.823   1.987   9.732  0.3014  0.6723 -0.6457
   45TMC2     O  703   1.873   1.934   9.636 -0.4561  0.0918 -0.0159
   45TMC2     H  704   2.008   2.133   9.625 -2.3498 -1.2176  0.1134
   45TMC2    H1  705   1.813   2.047   9.990  1.3000 -0.4473  2.0509
   45TMC2    H2  706   2.100   2.355   9.975 -1.4317  1.1218 -0.6515
   45TMC2    C7  707   1.933   2.236  10.126  0.0521 -0.3355  0.5315
   45TMC2    C8  708   2.182   2.324   9.717  0.6699  0.9145  0.9098
   45TMC2    O1  709   1.938   2.357  10.150  0.2033  0.3919  0.5857
   45TMC2    O2  710   2.194   2.444   9.739  0.0244  0.1646 -0.1596
   45TMC2    O5  711   2.239   2.260   9.618  0.3296  0.0811  0.2076
   45TMC2    H5  712   2.217   2.164   9.622 -0.1500  0.2326  1.0377
   46MPD2     C  713   1.603   1.800   9.629 -0.5175  0.3872  0.6783
   46MPD2    C1  714   1.594   1.914   9.715  0.8980 -0.1807  0.1476
   46MPD2    C2  715   1.462   1.945   9.753  0.3602  0.0751 -0.0306
   46MPD2    C3  716   1.350   1.882   9.702 -0.4210 -0.5525 -0.2826
   46MPD2    C4  717   1.361   1.782   9.601  0.6484 -0.5334  0.6875
   46MPD2    C5  718   1.493   1.746   9.564 -0.2713  0.0338 -0.1604
   46MPD2     H  719   1.437   2.029   9.818 -1.1045 -0.0290 -0.4562
   46MPD2    H1  720   1.271   1.729   9.573  0.8896  0.4399 -1.8460
   46MPD2    H2  721   1.704   1.782   9.594 -1.3953 -1.7695 -0.7564
   46MPD2    H3  722   1.507   1.671   9.488  2.0485  0.2060  0.0799
   46MPD2     N  723   1.223   1.933   9.745  0.1328  0.2445 -0.1873
   46MPD2    H5  724   1.227   2.004   9.817  0.9236  0.8588 -0.8388
   46MPD2    N1  725   1.696   1.989   9.775  0.8700  0.1537 -0.2065
   46MPD2    H7  726   1.665   2.061   9.840 -1.4393  0.1670 -1.3188
   47TMC2    C1  727   3.363   2.231   8.964  0.4604 -0.1759 -0.0551
   47TMC2    C2  728   3.338   2.188   8.835 -0.1529  0.0035  0.2674
   47TMC2    C3  729   3.213   2.142   8.806 -0.1056 -0.5708  0.2700
   47TMC2    C4  730   3.267   2.225   9.065  0.0947  0.0738 -0.1737
   47TMC2    C5  731   3.156   2.153   9.036 -0.0267 -0.1153 -0.0915
   47TMC2    C6  732   3.125   2.119   8.908  0.1778 -0.6785 -0.4877
   47TMC2     C  733   3.458   2.339   8.975 -0.3788 -0.4269  0.0098
   47TMC2     O  734   3.508   2.369   8.868  0.0658 -0.6220  0.3417
   47TMC2     H  735   3.421   2.188   8.765  0.4570  0.4131  0.9773
   47TMC2    H1  736   3.283   2.265   9.165  2.1004 -1.1758  0.0207
   47TMC2    H2  737   3.025   2.081   8.887 -0.9464  0.5716  2.5407
   47TMC2    C7  738   3.059   2.128   9.147  0.5703 -1.1189 -0.4980
   47TMC2    C8  739   3.198   2.083   8.675 -0.0690 -0.5682  0.3893
   47TMC2    O1  740   3.060   2.215   9.232  0.1049 -0.3166 -0.1676
   47TMC2    O2  741   3.236   2.134   8.573  0.5222 -0.2028  0.1125
   47TMC2    O5  742   3.149   1.960   8.675 -0.3306  0.7510  0.4621
   47TMC2    H5  743   3.120   1.916   8.758  0.3143  0.6977  0.6609
   48MPD2     C  744   3.689   2.524   9.054 -0.1619 -0.0585 -0.7750
   48MPD2    C1  745   3.606   2.460   9.148  0.2290 -0.4539  0.3509
   48MPD2    C2  746   3.625   2.496   9.280 -0.3193  0.1508  0.0201
   48MPD2    C3  747   3.726   2.582   9.320  0.2933  0.1516 -0.0515
   48MPD2    C4  748   3.811   2.640   9.225  0.1059  0.1240  0.9951
   48MPD2    C5  749   3.789   2.608   9.095 -0.6458 -0.3486 -0.1323
   48MPD2     H  750   3.565   2.457   9.362 -1.1665 -2.0495 -1.6384
   48MPD2    H1  751   3.897   2.702   9.245  0.7414 -0.7147  0.8541
   48MPD2    H2  752   3.665   2.510   8.950 -0.3658 -0.5617 -0.6598
   48MPD2    H3  753   3.860   2.640   9.019  0.6411 -0.1363  1.1613
   48MPD2     N  754   3.747   2.606   9.460 -0.3099  0.2640  0.2233
   48MPD2    H5  755   3.694   2.542   9.519 -0.9347 -0.2503 -0.8911
   48MPD2    N1  756   3.504   2.367   9.107  0.1744  0.1496 -0.0299
   48MPD2    H7  757   3.456   2.330   9.188  1.7799 -0.8085  0.4968
   49TMC2    C1  758   2.074   0.416  10.170  0.0927 -0.1018  0.2103
   49TMC2    C2  759   2.096   0.470  10.044 -0.1557  0.5319  0.5347
   49TMC2    C3  760   2.104   0.386   9.941 -0.2118  0.5126 -0.4997
   49TMC2    C4  761   2.062   0.283  10.189 -0.1621  0.6638  0.7777
   49TMC2    C5  762   2.084   0.200  10.078 -0.7754  0.1749 -0.3354
   49TMC2    C6  763   2.117   0.254   9.959  0.9499  1.0596 -0.1236
   49TMC2     C  764   2.012   0.513  10.268 -0.7480  0.1507 -0.4562
   49TMC2     O  765   2.049   0.629  10.259  0.8120 -0.0712 -0.1972
   49TMC2     H  766   2.085   0.577  10.030  1.2578  0.2735 -2.4994
   49TMC2    H1  767   2.053   0.242  10.289  2.9128 -1.0340  0.3615
   49TMC2    H2  768   2.150   0.200   9.872  1.5541 -1.9469  1.9904
   49TMC2    C7  769   2.074   0.056  10.085 -0.1859 -0.2069  1.0560
   49TMC2    C8  770   2.178   0.435   9.826 -0.8296 -0.4239  0.0073
   49TMC2    O1  771   2.109   4.730   9.991  0.1070 -0.9327  0.2119
   49TMC2    O2  772   2.235   0.544   9.815 -0.0163 -0.3678  0.4451
   49TMC2    O5  773   2.100   0.384   9.723 -0.0504 -0.3404  0.0978
   49TMC2    H5  774   2.048   0.307   9.756 -0.6905 -0.0147 -0.1440
   50MPD2     C  775   1.892   0.647  10.487  0.7186  0.2931 -0.1820
   50MPD2    C1  776   1.852   0.518  10.451 -0.1779  0.3362  0.1567
   50MPD2    C2  777   1.745   0.450  10.507 -0.0179 -0.7816  0.5929
   50MPD2    C3  778   1.675   0.518  10.615  0.0590 -0.2757  0.2545
   50MPD2    C4  779   1.721   0.644  10.658 -0.2113 -0.9653  0.2598
   50MPD2    C5  780   1.823   0.708  10.590  0.7727 -0.2178 -0.1545
   50MPD2     H  781   1.711   0.351  10.478  0.5849 -1.4948  2.2712
   50MPD2    H1  782   1.659   0.704  10.724  0.1181 -0.0381 -0.2721
   50MPD2    H2  783   1.962   0.717  10.444  0.6982 -0.1555 -0.9494
   50MPD2    H3  784   1.855   0.806  10.623  0.4681 -0.6636  1.4372
   50MPD2     N  785   1.568   0.465  10.689 -0.1091 -0.0060  0.1558
   50MPD2    H5  786   1.513   0.524  10.751 -2.5058 -1.6640 -0.3839
   50MPD2    N1  787   1.914   0.454  10.348 -0.2933  0.3278  0.0232
   50MPD2    H7  788   1.891   0.355  10.348  0.2203  0.2040  1.2998
   51TMC2    C1  789   3.139   4.303   1.417 -0.3077 -0.4035  0.1452
   51TMC2    C2  790   3.211   4.222   1.497  0.7927 -0.6855  0.2215
   51TMC2    C3  791   3.247   4.277   1.623  0.1628 -0.3290 -0.0821
   51TMC2    C4  792   3.121   4.435   1.445 -0.2080 -0.4538  0.0155
   51TMC2    C5  793   3.157   4.484   1.571  0.3820 -0.6658 -0.0085
   51TMC2    C6  794   3.216   4.403   1.660 -0.0509  0.5765 -0.2565
   51TMC2     C  795   3.118   4.267   1.277  0.3148  0.3511  0.5292
   51TMC2     O  796   3.049   4.338   1.206 -0.1139 -0.1261 -0.0138
   51TMC2     H  797   3.230   4.118   1.473  1.2842 -0.7485  0.8753
   51TMC2    H1  798   3.086   4.502   1.367  2.5372  0.4823 -0.4291
   51TMC2    H2  799   3.260   4.450   1.747 -1.2143 -0.2656  0.7908
   51TMC2    C7  800   3.137   4.629   1.598 -0.0548  0.8787 -0.1111
   51TMC2    C8  801   3.336   4.183   1.695  0.8540 -0.2051 -0.1907
   51TMC2    O1  802   3.203   4.660   1.699  1.1195  0.1414 -0.2398
   51TMC2    O2  803   3.394   4.089   1.642  0.1571  0.1979  0.5384
   51TMC2    O5  804   3.350   4.225   1.818  0.1158  0.3591  0.2124
   51TMC2    H5  805   3.279   4.286   1.847  0.5803  1.0362 -0.0776
   52MPD2     C  806   3.090   3.862   0.968 -0.5127  1.0204 -0.0263
   52MPD2    C1  807   3.015   3.974   0.963 -0.3120  0.1324 -0.0092
   52MPD2    C2  808   3.057   4.086   1.040  0.2788 -0.2699  0.1477
   52MPD2    C3  809   3.148   4.066   1.139 -0.4033  0.2229 -0.4619
   52MPD2    C4  810   3.231   3.958   1.132  0.1745  0.1358  0.8195
   52MPD2    C5  811   3.202   3.857   1.046  0.0522  0.2438 -0.2164
   52MPD2     H  812   2.994   4.174   1.037 -1.1559 -1.2272  1.5727
   52MPD2    H1  813   3.323   3.953   1.189  0.0980  0.8692  1.0088
   52MPD2    H2  814   3.086   3.784   0.893 -0.2746  0.7157  0.2815
   52MPD2    H3  815   3.265   3.769   1.049  3.3574  2.5992 -0.5504
   52MPD2     N  816   3.186   4.150   1.245 -0.4945 -0.4328 -0.0094
   52MPD2    H5  817   3.244   4.114   1.321  1.1185  1.1414 -0.4973
   52MPD2    N1  818   2.902   3.982   0.879 -0.4439  0.2561  0.0292
   52MPD2    H7  819   2.853   4.071   0.880  1.4077  1.2904 -0.3786
   53TMC2    C1  820   1.974   2.677  11.592 -0.2261  0.4423  0.6272
   53TMC2    C2  821   2.086   2.688  11.520 -0.0520  0.3621  0.6948
   53TMC2    C3  822   2.198   2.733  11.584  0.1478 -0.6139  0.2354
   53TMC2    C4  823   1.975   2.692  11.730 -0.9230 -0.0299  0.3310
   53TMC2    C5  824   2.084   2.752  11.784 -0.4878 -0.4807 -0.0801
   53TMC2    C6  825   2.202   2.768  11.714  0.0357 -0.3364  0.2748
   53TMC2     C  826   1.869   2.590  11.545 -0.3669  0.0699 -0.0259
   53TMC2     O  827   1.895   2.533  11.440 -0.1524 -0.1672 -0.1222
   53TMC2     H  828   2.093   2.673  11.413  0.5563  0.7995  0.6710
   53TMC2    H1  829   1.891   2.673  11.796 -0.6184 -0.2086  0.6645
   53TMC2    H2  830   2.292   2.808  11.760 -0.3862 -0.2987  1.0534
   53TMC2    C7  831   2.073   2.782  11.924 -0.5798 -0.1332  0.2370
   53TMC2    C8  832   2.328   2.744  11.524  0.6348 -0.0757 -0.0037
   53TMC2    O1  833   1.968   2.758  11.988 -0.1468  0.4026 -0.3924
   53TMC2    O2  834   2.404   2.837  11.558  0.5476 -0.1056  0.5291
   53TMC2    O5  835   2.367   2.619  11.508  0.0047  0.2267 -0.1101
   53TMC2    H5  836   2.302   2.552  11.540  1.5839 -1.7789 -1.1392
   54MPD2     C  837   1.628   2.401  11.503  0.2559  0.5250 -0.0516
   54MPD2    C1  838   1.670   2.459  11.622  0.6390 -0.4193  0.4544
   54MPD2    C2  839   1.603   2.417  11.733  0.5787 -0.4415 -0.3027
   54MPD2    C3  840   1.499   2.321  11.729 -0.4308 -0.2189  0.3684
   54MPD2    C4  841   1.444   2.285  11.615 -0.1025  0.1588 -0.3146
   54MPD2    C5  842   1.511   2.319  11.497 -0.4083 -0.0927  0.5526
   54MPD2     H  843   1.652   2.462  11.819 -1.4077 -0.2750  0.7281
   54MPD2    H1  844   1.364   2.211  11.608 -0.2581  0.1822  1.2668
   54MPD2    H2  845   1.682   2.432  11.414  0.1255 -3.2167 -1.4115
   54MPD2    H3  846   1.488   2.284  11.397  0.3834 -1.7550  0.9600
   54MPD2     N  847   1.432   2.290  11.849  0.2975  0.0157 -0.2921
   54MPD2    H5  848   1.358   2.222  11.838  1.0134 -0.7052 -0.6512
   54MPD2    N1  849   1.767   2.566  11.630  0.2342  0.0322  0.1789
   54MPD2    H7  850   1.766   2.626  11.712  3.3080 -0.3095  0.4879
   55TMC2    C1  851   3.292   1.830   0.323  0.3051 -0.0393  0.2360
   55TMC2    C2  852   3.386   1.892   0.246  1.2520 -0.1406 -0.5385
   55TMC2    C3  853   3.478   1.807   0.185 -0.0317 -0.1826 -0.6165
   55TMC2    C4  854   3.284   1.690   0.335 -0.9380 -0.0725 -1.0072
   55TMC2    C5  855   3.382   1.613   0.281  0.0392 -0.0395 -0.4645
   55TMC2    C6  856   3.486   1.672   0.215 -0.7170  0.2139 -0.6426
   55TMC2     C  857   3.178   1.913   0.367 -0.2677  0.7450 -0.5494
   55TMC2     O  858   3.089   1.848   0.415 -0.4774  0.5874 -0.1653
   55TMC2     H  859   3.397   1.999   0.233 -1.7092  0.2351  0.2126
   55TMC2    H1  860   3.202   1.648   0.390  0.7169  0.8248  2.1212
   55TMC2    H2  861   3.562   1.609   0.170 -0.7642 -1.2679  1.3074
   55TMC2    C7  862   3.361   1.470   0.291  0.0848 -0.2156 -0.2874
   55TMC2    C8  863   3.591   1.865   0.125 -0.0851  0.3334 -0.2004
   55TMC2    O1  864   3.445   1.408   0.228  0.3048 -0.1875  0.3437
   55TMC2    O2  865   3.609   1.984   0.121  0.1083  0.2707  0.4954
   55TMC2    O5  866   3.646   1.786   0.032 -0.3950  0.2037  0.1757
   55TMC2    H5  867   3.597   1.705   0.005  2.1251 -1.1256 -0.3090
   56MPD2     C  868   3.114   2.271   0.334  0.1132 -0.0426  0.1269
   56MPD2    C1  869   3.085   2.141   0.370 -0.4142 -0.0999  0.2077
   56MPD2    C2  870   2.962   2.109   0.414 -0.6889 -0.4945 -0.2820
   56MPD2    C3  871   2.861   2.207   0.433 -0.1287 -0.3110 -0.0350
   56MPD2    C4  872   2.891   2.340   0.402  0.0041  0.2489  0.1687
   56MPD2    C5  873   3.016   2.366   0.349 -0.2819  0.0022  0.6033
   56MPD2     H  874   2.936   2.005   0.431  0.6150 -0.9665 -1.1761
   56MPD2    H1  875   2.817   2.419   0.406  0.7408  0.9678 -0.5872
   56MPD2    H2  876   3.212   2.299   0.297 -0.1189  0.2753 -0.2373
   56MPD2    H3  877   3.051   2.468   0.334  0.4888  0.0076  2.4223
   56MPD2     N  878   2.740   2.152   0.485 -0.6003 -0.5975 -0.3525
   56MPD2    H5  879   2.742   2.051   0.497 -1.5886 -0.5244  0.4721
   56MPD2    N1  880   3.190   2.050   0.345  0.6459 -0.6996  0.2356
   56MPD2    H7  881   3.268   2.080   0.288  0.9535  3.7218  2.9861
   57TMC2    C1  882   2.248   1.852  13.018 -0.2109  0.8817 -0.2646
   57TMC2    C2  883   2.208   1.865  12.887  0.4089 -0.1458  1.0114
   57TMC2    C3  884   2.287   1.931  12.799 -0.3850 -0.2189 -0.4849
   57TMC2    C4  885   2.370   1.896  13.054 -0.0318  0.0440  0.2179
   57TMC2    C5  886   2.436   1.979  12.972 -0.6701  1.1876 -0.2112
   57TMC2    C6  887   2.405   1.997  12.841 -0.7270  0.3181  0.1196
   57TMC2     C  888   2.165   1.786  13.121  0.1727 -0.3091  0.3435
   57TMC2     O  889   2.186   1.812  13.239  0.0825  0.6159 -0.3442
   57TMC2     H  890   2.105   1.843  12.862  0.7634 -1.1503  0.4253
   57TMC2    H1  891   2.404   1.876  13.155  0.3489  0.7769  0.2374
   57TMC2    H2  892   2.465   2.058  12.775 -2.3619  1.6969 -0.1004
   57TMC2    C7  893   2.575   1.973  12.985 -0.4984 -0.0864 -1.5323
   57TMC2    C8  894   2.234   1.947  12.668  0.3867  0.3940 -0.5501
   57TMC2    O1  895   2.644   2.068  12.945 -0.4001  0.5195  0.6125
   57TMC2    O2  896   2.117   1.919  12.649  0.1077 -0.1592 -0.1944
   57TMC2    O5  897   2.282   2.065  12.620 -0.0644  0.3558  0.5028
   57TMC2    H5  898   2.380   2.069  12.615 -0.0005 -1.3797  0.2499
   58MPD2     C  899   1.755   1.500  13.265  0.5293  0.3047  0.6412
   58MPD2    C1  900   1.846   1.569  13.342 -0.1265  0.0498 -0.2680
   58MPD2    C2  901   1.939   1.651  13.281 -0.1138 -0.0099 -0.3879
   58MPD2    C3  902   1.959   1.643  13.145 -0.0801 -0.6637  0.0528
   58MPD2    C4  903   1.873   1.563  13.069 -0.1515 -0.2518 -0.1864
   58MPD2    C5  904   1.765   1.500  13.131 -0.3560  0.2066 -0.3655
   58MPD2     H  905   1.992   1.718  13.347 -2.6148  2.0011 -0.4419
   58MPD2    H1  906   1.882   1.555  12.961 -3.2152 -0.6522 -0.4107
   58MPD2    H2  907   1.664   1.457  13.307  0.0013  0.1259 -0.6946
   58MPD2    H3  908   1.702   1.442  13.065  0.4229  1.3874 -2.1628
   58MPD2     N  909   2.059   1.711  13.071  0.1512  0.3030  0.3517
   58MPD2    H5  910   2.076   1.676  12.977  2.4316 -0.0608  0.8936
   58MPD2    N1  911   1.832   1.586  13.481  0.0375  0.2225 -0.4388
   58MPD2    H7  912   1.897   1.652  13.523 -0.5169  0.8164 -0.5001
   59TMC2    C1  913   0.163   1.585  12.267  0.1528 -0.2984 -0.2274
   59TMC2    C2  914   0.177   1.456  12.314  0.0323  0.1121 -0.1727
   59TMC2    C3  915   0.129   1.356  12.231  0.9117 -0.5595  0.2019
   59TMC2    C4  916   0.103   1.617  12.153  0.1254 -0.2918  0.7556
   59TMC2    C5  917   0.045   1.514  12.085 -0.0070  0.3260  1.1208
   59TMC2    C6  918   0.049   1.386  12.121 -0.1917 -1.0262  0.4434
   59TMC2     C  919   0.246   1.683  12.327 -0.0257 -1.0155  0.1955
   59TMC2     O  920   0.279   1.774  12.256 -0.3677 -0.1890  0.1797
   59TMC2     H  921   0.240   1.423  12.396 -1.1852 -0.6866  0.4553
   59TMC2    H1  922   0.107   1.720  12.117 -3.1650 -0.5287 -0.3028
   59TMC2    H2  923   4.729   1.310  12.073 -0.4074  0.3831 -1.5189
   59TMC2    C7  924   4.728   1.537  11.957  0.1865  0.4322 -0.5850
   59TMC2    C8  925   0.139   1.214  12.263 -0.3215 -0.4388  0.4203
   59TMC2    O1  926   4.728   1.439  11.879 -0.1465 -0.0646 -0.4441
   59TMC2    O2  927   0.137   1.157  12.370  0.7609  0.5487  0.5024
   59TMC2    O5  928   0.193   1.151  12.157  0.4219  0.6289  0.2582
   59TMC2    H5  929   0.183   1.206  12.077 -1.2370  1.6219  1.1512
   60MPD2     C  930   0.370   1.897  12.504  0.8607  0.1456  0.3067
   60MPD2    C1  931   0.340   1.767  12.551  0.2812 -0.3310  0.7349
   60MPD2    C2  932   0.374   1.737  12.680  0.1294  0.3070  0.3914
   60MPD2    C3  933   0.432   1.834  12.762 -0.0319 -0.3311  0.0901
   60MPD2    C4  934   0.454   1.964  12.709  0.2161  0.0942  0.7854
   60MPD2    C5  935   0.430   1.992  12.579 -0.4069 -0.0604  0.2093
   60MPD2     H  936   0.366   1.637  12.720 -0.9418 -0.2126 -1.1215
   60MPD2    H1  937   0.507   2.038  12.768  1.8950  1.6945 -2.7259
   60MPD2    H2  938   0.355   1.924  12.400 -1.3035  0.6143  0.7356
   60MPD2    H3  939   0.456   2.091  12.542  2.1929 -0.6651  0.4377
   60MPD2     N  940   0.493   1.814  12.888  0.0098 -0.2794 -0.1897
   60MPD2    H5  941   0.543   1.887  12.936 -2.7470  0.6056  1.3466
   60MPD2    N1  942   0.276   1.667  12.464 -0.5634 -0.6797 -0.1683
   60MPD2    H7  943   0.247   1.579  12.505 -1.9001 -0.4839 -0.7098
   61TMC2    C1  944   3.634   3.503  15.689  0.1014 -0.4837  0.9078
   61TMC2    C2  945   3.619   3.478  15.819  0.1124  0.9161 -0.2409
   61TMC2    C3  946   3.618   3.587  15.912 -0.9122  0.1267 -0.0712
   61TMC2    C4  947   3.651   3.635  15.650  0.0663  0.2875 -0.8096
   61TMC2    C5  948   3.663   3.738  15.741  0.2300 -0.5032  0.5467
   61TMC2    C6  949   3.641   3.717  15.874  0.3337 -0.0596 -0.4490
   61TMC2     C  950   3.591   3.406  15.587  0.3313 -0.6488 -0.2514
   61TMC2     O  951   3.502   3.329  15.624  0.2656 -0.0491 -0.0235
   61TMC2     H  952   3.604   3.376  15.854 -0.2317  0.6470 -1.1713
   61TMC2    H1  953   3.698   3.660  15.556 -0.7822  0.8413 -1.0803
   61TMC2    H2  954   3.651   3.790  15.953  0.2685  0.0156 -0.5107
   61TMC2    C7  955   3.722   3.871  15.704  0.4942 -0.1302  0.0807
   61TMC2    C8  956   3.584   3.562  16.049  0.0291 -0.0042 -0.7789
   61TMC2    O1  957   3.722   3.906  15.586  0.6897  0.9140  0.1850
   61TMC2    O2  958   3.535   3.652  16.114 -0.4262 -0.2494 -0.4665
   61TMC2    O5  959   3.686   3.485  16.094  0.5526 -0.2172  0.1469
   61TMC2    H5  960   3.749   3.444  16.030  0.0572 -0.0481 -0.4471
   62MPD2     C  961   3.522   3.279  15.320 -0.3048 -0.1508 -0.2388
   62MPD2    C1  962   3.645   3.334  15.357 -0.4241 -0.2453  0.0022
   62MPD2    C2  963   3.744   3.330  15.266  0.1348 -0.2324  0.0155
   62MPD2    C3  964   3.735   3.271  15.148 -0.3986  0.4807  0.2425
   62MPD2    C4  965   3.617   3.210  15.116 -0.6608 -0.0840  0.1557
   62MPD2    C5  966   3.505   3.213  15.198 -0.6139 -0.6940 -0.2748
   62MPD2     H  967   3.832   3.382  15.301  1.9981 -1.9186 -2.1605
   62MPD2    H1  968   3.609   3.162  15.019  0.3430 -2.5786  1.2937
   62MPD2    H2  969   3.436   3.275  15.386  0.4302 -0.6908  0.6923
   62MPD2    H3  970   3.409   3.172  15.167 -1.1206  0.0009  0.3647
   62MPD2     N  971   3.832   3.272  15.048 -0.2807 -0.4097  0.4274
   62MPD2    H5  972   3.811   3.243  14.953 -1.2183 -0.1025  0.5399
   62MPD2    N1  973   3.676   3.405  15.477 -0.0532 -0.3453 -0.2644
   62MPD2    H7  974   3.765   3.452  15.485 -0.7322  0.8512  0.2049
   63TMC2    C1  975   3.314   3.511  10.817 -0.1101 -0.1125  0.3067
   63TMC2    C2  976   3.380   3.612  10.887  0.3971  0.4318 -0.2751
   63TMC2    C3  977   3.485   3.680  10.835 -0.5843 -0.1980 -0.1399
   63TMC2    C4  978   3.363   3.480  10.690 -0.4114 -0.2776 -0.2265
   63TMC2    C5  979   3.474   3.545  10.642  0.0773  0.0716 -0.3102
   63TMC2    C6  980   3.531   3.645  10.712 -0.5284  0.1322  0.6645
   63TMC2     C  981   3.208   3.441  10.877  0.8591 -0.7121  0.7769
   63TMC2     O  982   3.146   3.505  10.965 -0.2112 -0.6235  0.4270
   63TMC2     H  983   3.342   3.644  10.984 -0.8920  0.0057 -0.6277
   63TMC2    H1  984   3.307   3.411  10.628 -1.0234  2.6582 -2.9652
   63TMC2    H2  985   3.604   3.702  10.655  0.1186 -0.4950  0.8630
   63TMC2    C7  986   3.518   3.508  10.509  0.4513  0.0831  0.3308
   63TMC2    C8  987   3.564   3.766  10.912  0.2190 -0.4204  0.2203
   63TMC2    O1  988   3.437   3.460  10.431  0.6081 -0.1759 -0.0303
   63TMC2    O2  989   3.675   3.795  10.875  0.0665  0.3580  0.0922
   63TMC2    O5  990   3.480   3.860  10.960 -0.2656  0.2115 -0.6530
   63TMC2    H5  991   3.410   3.819  11.015  1.9579 -1.5105  0.9024
   64MPD2     C  992   2.889   3.050  10.935 -0.3472  0.2250 -0.1298
   64MPD2    C1  993   2.992   3.005  10.851  1.0030  0.1944 -0.4449
   64MPD2    C2  994   3.091   3.098  10.811 -0.4942  0.3125  0.0923
   64MPD2    C3  995   3.086   3.229  10.860  0.3221 -0.3244  0.2610
   64MPD2    C4  996   2.982   3.264  10.951  0.1573 -0.7279 -0.3142
   64MPD2    C5  997   2.883   3.175  10.981 -0.0087  0.1238  0.0703
   64MPD2     H  998   3.181   3.063  10.761 -0.7564 -1.0208  0.5591
   64MPD2    H1  999   2.973   3.365  10.989 -3.5297 -1.0768 -0.2923
   64MPD2    H2 1000   2.812   2.983  10.972 -0.2283 -0.1279 -0.5246
   64MPD2    H3 1001   2.811   3.201  11.057 -0.0259  1.3927 -0.3912
   64MPD2     N 1002   3.189   3.320  10.816 -0.8878 -0.2266 -0.3193
   64MPD2    H5 1003   3.260   3.289  10.751 -0.1305  1.3893 -0.2509
   64MPD2    N1 1004   3.006   2.867  10.817 -0.1133  0.0080  0.6274
   64MPD2    H7 1005   3.093   2.836  10.775  0.0558 -1.1175  1.8290
   65TMC2    C1 1006   4.485   2.877  15.600  0.1389  0.4756  0.5085
   65TMC2    C2 1007   4.504   2.818  15.478 -0.1956  0.1094 -0.0702
   65TMC2    C3 1008   4.465   2.896  15.373 -0.3281  0.2495 -0.0228
   65TMC2    C4 1009   4.429   2.998  15.616 -0.4988  0.6513  0.2657
   65TMC2    C5 1010   4.388   3.067  15.509 -0.2206  0.1257  0.2243
   65TMC2    C6 1011   4.406   3.020  15.380 -0.5542 -0.6711  0.2547
   65TMC2     C 1012   4.549   2.821  15.715 -0.3228 -0.2094 -0.1063
   65TMC2     O 1013   4.556   2.886  15.818 -0.1368 -0.2070  0.0126
   65TMC2     H 1014   4.555   2.723  15.467 -2.0779 -1.0890  1.7390
   65TMC2    H1 1015   4.415   3.028  15.719  0.4778  1.9227  0.0218
   65TMC2    H2 1016   4.380   3.076  15.291  0.8637 -1.5753 -0.7122
   65TMC2    C7 1017   4.370   3.208  15.529  0.0792  0.0718  0.2528
   65TMC2    C8 1018   4.479   2.841  15.238  0.2374  0.5442  0.8975
   65TMC2    O1 1019   4.370   3.277  15.429 -0.0203  0.3389 -0.6095
   65TMC2    O2 1020   4.500   2.915  15.141 -0.2902  0.2183  0.2835
   65TMC2    O5 1021   4.493   2.704  15.243  0.3740 -0.5001  0.6715
   65TMC2    H5 1022   4.456   2.665  15.325 -1.7136 -1.1825 -0.5939
   66MPD2     C 1023   4.655   2.629  15.931  0.0909  0.4706  0.2213
   66MPD2    C1 1024   4.621   2.594  15.793  0.5469  0.6266  0.1586
   66MPD2    C2 1025   4.632   2.464  15.751 -0.1186  0.2961 -0.4896
   66MPD2    C3 1026   4.652   2.360  15.847  0.1108  0.2281  0.2565
   66MPD2    C4 1027   4.672   2.399  15.978  0.0176 -0.0377  0.1655
   66MPD2    C5 1028   4.675   2.533  16.017  0.2752 -0.2285  0.3286
   66MPD2     H 1029   4.610   2.435  15.649  0.5674  2.8737 -1.3631
   66MPD2    H1 1030   4.668   2.325  16.057  0.8677  1.3935  1.5633
   66MPD2    H2 1031   4.665   2.727  15.976  3.7808 -1.0987  2.7212
   66MPD2    H3 1032   4.685   2.556  16.123  4.8011 -0.5909 -0.0235
   66MPD2     N 1033   4.661   2.225  15.824 -0.1696 -0.3462  0.1539
   66MPD2    H5 1034   4.662   2.160  15.903 -2.1826  0.4050  0.8181
   66MPD2    N1 1035   4.580   2.690  15.697 -0.7925  0.2032 -0.1920
   66MPD2    H7 1036   4.546   2.664  15.605 -2.6237 -0.3492  0.6401
   67TMC2    C1 1037   0.155   1.847  14.290  0.1715  0.0418 -0.8373
   67TMC2    C2 1038   0.044   1.787  14.347  0.2272 -0.3229 -0.1403
   67TMC2    C3 1039   0.036   1.807  14.486 -0.0751  0.3436 -0.1081
   67TMC2    C4 1040   0.249   1.916  14.365 -0.4777 -0.9071  0.1095
   67TMC2    C5 1041   0.228   1.930  14.498 -0.0653 -0.6939 -0.0267
   67TMC2    C6 1042   0.123   1.873  14.561  0.0223  0.0780 -0.8681
   67TMC2     C 1043   0.171   1.818  14.151  0.4864 -1.1260 -1.1549
   67TMC2     O 1044   0.274   1.846  14.089 -0.2005  0.6634  0.4768
   67TMC2     H 1045   4.722   1.707  14.309  0.6479 -1.3507  1.3315
   67TMC2    H1 1046   0.327   1.964  14.306 -1.6551 -0.6746 -1.2623
   67TMC2    H2 1047   0.104   1.879  14.668  0.8626 -2.8569 -0.5575
   67TMC2    C7 1048   0.342   1.970  14.574  0.6885  0.6436  0.7390
   67TMC2    C8 1049   4.675   1.729  14.552  0.2586 -0.3053 -0.1053
   67TMC2    O1 1050   0.445   1.982  14.513  0.2400  0.5315  0.0748
   67TMC2    O2 1051   4.684   1.686  14.668  0.3150 -0.0202  0.2753
   67TMC2    O5 1052   4.570   1.727  14.473  0.2307  0.7722  0.3687
   67TMC2    H5 1053   4.581   1.777  14.389  0.0363  0.7694  0.3425
   68MPD2     C 1054   0.123   1.738  13.862 -0.0219 -0.2636 -0.2454
   68MPD2    C1 1055   0.021   1.771  13.954 -0.1203  0.2646  0.0685
   68MPD2    C2 1056   4.635   1.790  13.917 -0.1807  0.6857  0.1633
   68MPD2    C3 1057   4.607   1.803  13.780 -0.5364 -0.0457 -0.1678
   68MPD2    C4 1058   4.705   1.780  13.689  0.6223 -0.9824  0.1771
   68MPD2    C5 1059   0.093   1.749  13.730  1.1172  0.0146 -0.6631
   68MPD2     H 1060   4.570   1.817  13.999 -0.4323 -0.5151  0.3601
   68MPD2    H1 1061   4.695   1.804  13.584  2.0598  0.2060  0.3053
   68MPD2    H2 1062   0.226   1.724  13.891 -0.3338 -0.2619  0.8597
   68MPD2    H3 1063   0.180   1.735  13.667 -0.1949 -0.2437 -2.4187
   68MPD2     N 1064   4.484   1.849  13.729  0.7797  1.0714  0.2564
   68MPD2    H5 1065   4.469   1.846  13.629 -2.3737  1.3218  0.7131
   68MPD2    N1 1066   0.049   1.796  14.092 -0.4660 -0.5844  0.1893
   68MPD2    H7 1067   4.704   1.807  14.146 -0.4579 -3.3379  0.7614
   69TMC2    C1 1068   2.354   3.209  12.590 -0.8168 -0.1920 -0.3821
   69TMC2    C2 1069   2.336   3.332  12.637 -0.6427  0.7622  0.7558
   69TMC2    C3 1070   2.351   3.438  12.550  0.1487 -0.1492 -0.0183
   69TMC2    C4 1071   2.384   3.197  12.454 -0.1947 -0.6687 -0.1209
   69TMC2    C5 1072   2.399   3.301  12.371 -0.7649 -0.1672  0.2911
   69TMC2    C6 1073   2.374   3.428  12.417 -0.3346 -0.1185 -0.5255
   69TMC2     C 1074   2.399   3.102  12.679 -0.1957  0.5906 -0.2521
   69TMC2     O 1075   2.363   3.118  12.793  0.6131 -0.2911 -0.4803
   69TMC2     H 1076   2.315   3.348  12.743  0.2383  1.4774  0.8235
   69TMC2    H1 1077   2.392   3.096  12.414  2.8573 -0.4392 -0.0719
   69TMC2    H2 1078   2.390   3.520  12.362 -0.4554  0.6871  0.7891
   69TMC2    C7 1079   2.428   3.284  12.231  1.0018 -0.6188 -0.2935
   69TMC2    C8 1080   2.335   3.567  12.611  0.4181 -0.3271  0.6996
   69TMC2    O1 1081   2.378   3.366  12.156 -0.3902  0.2968 -0.2383
   69TMC2    O2 1082   2.264   3.585  12.710 -0.2265  0.3810  0.0657
   69TMC2    O5 1083   2.428   3.656  12.572 -0.5272  0.3875  0.3409
   69TMC2    H5 1084   2.485   3.626  12.497 -0.5717  0.7621  0.1596
   70MPD2     C 1085   2.640   2.843  12.642  0.2201  0.0138 -0.4024
   70MPD2    C1 1086   2.542   2.909  12.708  0.7594  0.7287 -0.0899
   70MPD2    C2 1087   2.481   2.855  12.819 -1.3253  0.1432  0.7269
   70MPD2    C3 1088   2.539   2.743  12.878 -0.0459  0.4962 -0.3216
   70MPD2    C4 1089   2.662   2.701  12.829  0.2488  0.2285 -0.0860
   70MPD2    C5 1090   2.703   2.743  12.712  0.0472 -0.4925  0.9280
   70MPD2     H 1091   2.397   2.906  12.865  0.2310  1.2851  2.2599
   70MPD2    H1 1092   2.727   2.622  12.866  1.0964  0.7620 -0.4519
   70MPD2    H2 1093   2.673   2.873  12.543  0.4945  2.5929  0.4674
   70MPD2    H3 1094   2.780   2.694  12.654  0.0587  2.0405 -1.1691
   70MPD2     N 1095   2.496   2.687  13.001 -0.0957 -0.4824  0.4074
   70MPD2    H5 1096   2.553   2.622  13.055 -1.2602 -0.9687  1.0440
   70MPD2    N1 1097   2.496   3.016  12.634 -0.1611  0.2005  0.3150
   70MPD2    H7 1098   2.537   3.031  12.543  3.2823 -1.0461  1.6628
   71TMC2    C1 1099   4.709   4.408   1.703 -0.1970 -0.1934 -0.8065
   71TMC2    C2 1100   0.075   4.329   1.737 -0.4949  0.7184 -0.0894
   71TMC2    C3 1101   0.106   4.303   1.866  0.0282  0.2303  0.3616
   71TMC2    C4 1102   4.626   4.457   1.797 -0.7736  0.2627  0.0542
   71TMC2    C5 1103   4.644   4.415   1.925  0.3119  0.1961  0.1888
   71TMC2    C6 1104   0.014   4.340   1.960 -0.4458  0.1864  0.0147
   71TMC2     C 1105   4.692   4.466   1.569  0.5722  0.1004  0.0302
   71TMC2     O 1106   4.629   4.569   1.563  0.2158  0.1456 -0.2237
   71TMC2     H 1107   0.151   4.309   1.663  0.6958 -2.0221  1.8280
   71TMC2    H1 1108   4.538   4.513   1.766 -0.1877 -0.6138 -3.2015
   71TMC2    H2 1109   0.035   4.318   2.064  0.3103  0.0459 -0.1691
   71TMC2    C7 1110   4.541   4.425   2.027  0.0593 -0.6026  0.2509
   71TMC2    C8 1111   0.200   4.201   1.888 -0.6051 -0.5139 -0.3744
   71TMC2    O1 1112   4.571   4.415   2.146  0.0348  0.0447 -0.3355
   71TMC2    O2 1113   0.311   4.211   1.840  0.0718 -0.3831 -0.2022
   71TMC2    O5 1114   0.166   4.137   2.003  0.2500  0.1251 -0.2305
   71TMC2    H5 1115   0.072   4.145   2.029  0.0615 -1.3432 -0.4137
   72MPD2     C 1116   4.724   4.380   1.071  0.3414 -0.2823 -0.0172
   72MPD2    C1 1117   4.652   4.480   1.129  0.1355 -0.4713  0.4489
   72MPD2    C2 1118   4.655   4.485   1.267 -0.2476 -0.2872  0.8212
   72MPD2    C3 1119   4.710   4.374   1.335 -0.3912  0.1717 -0.0605
   72MPD2    C4 1120   0.019   4.262   1.268  0.1424  0.0498  0.0452
   72MPD2    C5 1121   0.031   4.271   1.133  0.2810 -0.4518  0.4195
   72MPD2     H 1122   4.608   4.570   1.316 -1.9739 -1.8188  1.8046
   72MPD2    H1 1123   0.050   4.172   1.319 -0.0827  0.2130  0.4800
   72MPD2    H2 1124   4.731   4.375   0.963 -1.3401  0.7601 -0.1737
   72MPD2    H3 1125   0.088   4.194   1.083  0.0837 -1.0838  1.1786
   72MPD2     N 1126   4.715   4.367   1.475 -0.0501 -0.2442 -0.0533
   72MPD2    H5 1127   0.023   4.284   1.508 -1.5010 -0.7586  0.7780
   72MPD2    N1 1128   4.589   4.580   1.052 -0.7158 -0.6874 -0.1566
   72MPD2    H7 1129   4.535   4.651   1.100 -0.4412  0.6912 -1.8617
   73TMC2    C1 1130   4.077   1.103  14.028 -0.7137  0.0566 -0.1410
   73TMC2    C2 1131   4.012   1.159  14.126 -0.6057 -0.3219 -0.5558
   73TMC2    C3 1132   4.023   1.113  14.253  0.2073  0.6792 -0.8246
   73TMC2    C4 1133   4.151   0.988  14.046  0.5546  0.0772  0.4965
   73TMC2    C5 1134   4.181   0.956  14.170  0.1256  0.5014 -0.1252
   73TMC2    C6 1135   4.116   1.014  14.271 -0.1628 -0.7888 -0.3414
   73TMC2     C 1136   4.134   1.186  13.926 -0.6043 -0.7503 -0.0749
   73TMC2     O 1137   4.246   1.156  13.901 -0.3535 -0.5813  0.0524
   73TMC2     H 1138   3.944   1.241  14.108 -0.6709 -0.5408 -1.3241
   73TMC2    H1 1139   4.202   0.941  13.962  1.3303  1.0603  0.4026
   73TMC2    H2 1140   4.141   0.975  14.369 -0.1062  2.4948  0.9436
   73TMC2    C7 1141   4.316   0.918  14.185 -1.3005  0.0937 -0.2681
   73TMC2    C8 1142   3.980   1.205  14.358  0.5554 -0.2803  0.3561
   73TMC2    O1 1143   4.345   0.861  14.288  0.2086 -0.4345  0.0421
   73TMC2    O2 1144   3.986   1.324  14.345 -0.9859  0.3313  0.2041
   73TMC2    O5 1145   3.914   1.124  14.442 -0.0004  0.2754 -0.4737
   73TMC2    H5 1146   3.917   1.029  14.418  1.3152  0.3843 -0.7357
   74MPD2     C 1147   4.173   1.583  13.611  0.0211 -0.2812 -0.0532
   74MPD2    C1 1148   4.267   1.493  13.663 -0.8034  0.3087 -0.3231
   74MPD2    C2 1149   4.226   1.402  13.761  0.1973 -0.3292 -0.9938
   74MPD2    C3 1150   4.096   1.380  13.783  0.8949  0.5071 -1.1423
   74MPD2    C4 1151   3.998   1.459  13.723 -0.2459  0.1386  0.4002
   74MPD2    C5 1152   4.043   1.564  13.645 -0.8097 -0.1115 -0.0272
   74MPD2     H 1153   4.298   1.344  13.816  0.0385 -0.8808 -1.3684
   74MPD2    H1 1154   3.894   1.446  13.751 -0.3215 -0.4146 -0.1541
   74MPD2    H2 1155   4.209   1.666  13.552  0.3003 -0.0631  0.4242
   74MPD2    H3 1156   3.970   1.629  13.597 -1.2489  2.3281  3.8960
   74MPD2     N 1157   4.052   1.282  13.876 -0.2485  0.4000 -1.6464
   74MPD2    H5 1158   3.952   1.287  13.895  0.1158 -1.5115  0.6543
   74MPD2    N1 1159   4.407   1.507  13.626  0.0306 -0.7693  0.7283
   74MPD2    H7 1160   4.437   1.592  13.581 -1.5982 -0.1431  0.8319
   75TMC2    C1 1161   4.297   2.004  13.735 -0.7809 -0.0468 -0.0582
   75TMC2    C2 1162   4.221   2.079  13.822 -0.1929  0.0674 -0.5486
   75TMC2    C3 1163   4.150   2.183  13.767  0.4407  0.4960  1.0647
   75TMC2    C4 1164   4.306   2.025  13.598  0.6541 -0.1707  0.9230
   75TMC2    C5 1165   4.228   2.127  13.557  0.0586 -0.2112 -0.1149
   75TMC2    C6 1166   4.142   2.199  13.637  0.6699  0.2966 -0.2945
   75TMC2     C 1167   4.389   1.916  13.803 -0.1378 -0.0662 -0.5819
   75TMC2     O 1168   4.381   1.925  13.922  1.1109  0.1571 -0.6091
   75TMC2     H 1169   4.202   2.058  13.926 -3.4466 -3.0412 -1.7798
   75TMC2    H1 1170   4.373   1.965  13.538  0.8047  1.3252 -0.4231
   75TMC2    H2 1171   4.070   2.268  13.595  1.4653  0.4048 -1.4941
   75TMC2    C7 1172   4.206   2.133  13.413 -0.3196 -0.3461 -0.2252
   75TMC2    C8 1173   4.033   2.227  13.849  0.0192  0.3181  0.0177
   75TMC2    O1 1174   4.240   2.037  13.348 -0.2616  0.0726  0.2235
   75TMC2    O2 1175   4.042   2.270  13.962  0.0054  0.1330  0.3148
   75TMC2    O5 1176   3.961   2.123  13.821 -0.0937  0.3611  0.0224
   75TMC2    H5 1177   3.978   2.078  13.736  2.6466  1.6162 -0.0874
   76TMC2    C1 1178   3.535   1.976  11.931  0.0328 -0.0446  1.0560
   76TMC2    C2 1179   3.431   1.891  11.968 -0.1763  0.4659 -0.3255
   76TMC2    C3 1180   3.465   1.766  12.007 -0.1005 -0.2996 -0.2995
   76TMC2    C4 1181   3.666   1.934  11.928 -0.2706  0.2714 -0.1102
   76TMC2    C5 1182   3.686   1.806  11.965 -0.0783  0.1404 -0.3175
   76TMC2    C6 1183   3.595   1.718  12.013  0.5773  0.0118 -0.6360
   76TMC2     C 1184   3.490   2.107  11.893  0.3937  0.5998  0.0450
   76TMC2     O 1185   3.367   2.128  11.898 -0.2320 -0.0964 -0.0491
   76TMC2     H 1186   3.328   1.923  11.952 -0.6752 -0.8934  0.1880
   76TMC2    H1 1187   3.745   1.995  11.886 -2.1599  2.6770 -0.1906
   76TMC2    H2 1188   3.622   1.619  12.047  1.9158 -0.0130 -1.7624
   76TMC2    C7 1189   3.823   1.753  11.949 -0.1693  0.5544  0.6466
   76TMC2    C8 1190   3.351   1.693  12.062  0.2294  0.2352 -0.2803
   76TMC2    O1 1191   3.836   1.633  11.926 -0.2628  0.0284  0.1147
   76TMC2    O2 1192   3.235   1.730  12.048  0.2929  0.2004  0.0535
   76TMC2    O5 1193   3.390   1.642  12.178 -0.1214 -0.2228 -0.1493
   76TMC2    H5 1194   3.484   1.634  12.204  0.6844  1.1703 -2.6695
   77MPD2     C 1195   3.573   2.618  11.864 -0.7823 -0.4539  0.4608
   77MPD2    C1 1196   3.461   2.541  11.844 -0.1199  0.0050  0.1912
   77MPD2    C2 1197   3.471   2.405  11.850 -0.6803  0.3445 -0.0933
   77MPD2    C3 1198   3.591   2.338  11.871  0.5117  0.0938 -0.3621
   77MPD2    C4 1199   3.703   2.414  11.869  0.2581 -1.1276 -0.2400
   77MPD2    C5 1200   3.689   2.552  11.861  0.0576 -0.7098 -0.2260
   77MPD2     H 1201   3.377   2.353  11.834  0.2073 -0.9082 -1.3010
   77MPD2    H1 1202   3.804   2.376  11.878  1.0752  0.7963 -1.3006
   77MPD2    H2 1203   3.568   2.726  11.871 -0.7078 -0.2657 -2.3415
   77MPD2    H3 1204   3.778   2.614  11.870  1.6015 -2.7041 -1.6456
   77MPD2     N 1205   3.601   2.201  11.886  0.4711 -0.1905  0.2078
   77MPD2    H5 1206   3.694   2.160  11.886 -0.7825 -3.0536 -2.1615
   77MPD2    N1 1207   3.332   2.594  11.810 -0.2023  0.5822  0.6572
   77MPD2    H7 1208   3.261   2.523  11.793 -1.9789  2.0943  1.8522
   78TMC2    C1 1209   4.357   4.241   1.227  0.3537  0.5577 -0.2994
   78TMC2    C2 1210   4.310   4.329   1.323 -0.0292 -0.6422  0.0064
   78TMC2    C3 1211   4.310   4.279   1.449  1.0038  0.2493  0.0862
   78TMC2    C4 1212   4.399   4.115   1.252 -0.0415  0.7090  0.0501
   78TMC2    C5 1213   4.386   4.068   1.380 -0.0187  0.4517 -0.3979
   78TMC2    C6 1214   4.335   4.145   1.483  0.1802  0.5073  0.1183
   78TMC2     C 1215   4.335   4.275   1.089  0.4488 -0.0563  0.1515
   78TMC2     O 1216   4.341   4.184   1.009  0.2591  0.2903  0.7762
   78TMC2     H 1217   4.311   4.437   1.311  0.7739 -0.6968 -0.4580
   78TMC2    H1 1218   4.434   4.051   1.172 -2.4944  2.9114 -2.8140
   78TMC2    H2 1219   4.336   4.130   1.590  4.1687 -2.3643 -0.3468
   78TMC2    C7 1220   4.513   4.022   1.414  0.1114  0.3596 -0.4869
   78TMC2    C8 1221   4.312   4.379   1.559  0.0509  0.6417  0.1457
   78TMC2    O1 1222   4.595   3.999   1.329  0.2319 -0.3522  0.1398
   78TMC2    O2 1223   4.375   4.361   1.664  0.1489  1.0853 -0.3909
   78TMC2    O5 1224   4.193   4.437   1.550 -0.3961 -0.2093  0.4612
   78TMC2    H5 1225   4.137   4.419   1.472  0.8418 -0.0062 -0.4740
   79MPD1     C 1226   4.184   4.574   0.702 -0.3616 -0.9760 -0.2261
   79MPD1    C1 1227   4.257   4.458   0.699  0.2538 -0.3671 -0.1883
   79MPD1    C2 1228   4.292   4.392   0.820  0.7738  0.0123 -0.1477
   79MPD1    C3 1229   4.262   4.457   0.941  0.3871  0.1486 -0.0444
   79MPD1    C4 1230   4.212   4.589   0.941 -0.3092 -0.1071  0.0012
   79MPD1    C5 1231   4.169   4.646   0.821 -0.3311  0.5221 -0.4222
   79MPD1     H 1232   4.352   4.303   0.809  0.4450 -0.4383  1.6844
   79MPD1    H1 1233   4.196   4.643   1.034  1.0842  0.1451  0.0830
   79MPD1    H2 1234   4.163   4.628   0.611  1.2081  2.4702  1.4779
   79MPD1    H3 1235   4.136   0.009   0.823 -1.4270  0.1835 -1.1449
   79MPD1     N 1236   4.292   4.401   1.065 -0.1323 -0.6912  0.6999
   79MPD1    H5 1237   4.284   4.468   1.141  1.0031  1.8075 -1.3965
   79MPD1    N1 1238   4.277   4.393   0.577 -0.0709  0.7766 -0.1038
   79MPD1    H6 1239   4.353   4.325   0.582  0.9268  2.1094  2.5368
   79MPD1    H7 1240   4.307   4.454   0.501 -0.8777  0.7765 -0.4163
   80TMC2    C1 1241   2.048   2.314  11.662 -0.9964  0.8718  0.5248
   80TMC2    C2 1242   2.044   2.303  11.525  0.2597  0.9306 -0.8680
   80TMC2    C3 1243   1.950   2.221  11.474  0.5908  0.4258  0.9546
   80TMC2    C4 1244   1.958   2.251  11.743  0.4554  0.1296 -0.0067
   80TMC2    C5 1245   1.858   2.177  11.685  0.3944 -0.9317  1.1270
   80TMC2    C6 1246   1.854   2.155  11.545  0.6419 -0.2838  0.3534
   80TMC2     C 1247   2.157   2.390  11.713  0.0129  0.5867 -0.5640
   80TMC2     O 1248   2.231   2.434  11.627  0.1883  0.5903 -0.6356
   80TMC2     H 1249   2.117   2.354  11.462  0.3886  0.9064 -0.7386
   80TMC2    H1 1250   1.971   2.250  11.850  0.2725  1.0078  0.0239
   80TMC2    H2 1251   1.779   2.092  11.499 -0.8291  1.0587  0.9015
   80TMC2    C7 1252   1.771   2.091  11.763  0.1700  0.1641 -0.8047
   80TMC2    C8 1253   1.955   2.201  11.339  0.5367  0.5685 -0.4992
   80TMC2    O1 1254   1.719   1.998  11.703  0.0110  0.6049  0.0203
   80TMC2    O2 1255   1.942   2.094  11.275  0.1212 -0.3249 -0.3131
   80TMC2    O5 1256   1.962   2.324  11.287  0.1494 -0.0705 -0.0268
   80TMC2    H5 1257   1.956   2.404  11.343 -0.9614 -1.5916  2.0606
   81MPD2     C 1258   2.371   2.509  11.881  0.8115  0.1667  0.2579
   81MPD2    C1 1259   2.263   2.448  11.931  0.0979 -0.3246  0.3971
   81MPD2    C2 1260   2.246   2.447  12.069  0.6754 -0.2099 -0.4732
   81MPD2    C3 1261   2.343   2.492  12.153  0.4020  0.5181  0.1193
   81MPD2    C4 1262   2.457   2.550  12.098 -0.3696  0.5631  0.2239
   81MPD2    C5 1263   2.473   2.550  11.961  0.0354 -0.3716  0.4202
   81MPD2     H 1264   2.162   2.390  12.107  1.1132 -1.3912 -1.2646
   81MPD2    H1 1265   2.531   2.612  12.146 -2.4787  1.7317  1.9803
   81MPD2    H2 1266   2.387   2.517  11.774 -0.3760 -0.6878  0.0212
   81MPD2    H3 1267   2.551   2.608  11.912 -0.1360 -0.5134 -0.0219
   81MPD2     N 1268   2.324   2.512  12.291 -1.1976  0.6008 -0.2414
   81MPD2    H5 1269   2.407   2.548  12.337  0.5063 -1.8567 -1.3640
   81MPD2    N1 1270   2.156   2.413  11.849  0.4876 -0.2919  0.1402
   81MPD2    H7 1271   2.081   2.380  11.909  0.9640 -1.6867 -0.0404
   82TMC2    C1 1272   0.322   1.124  10.957 -0.4006  0.0283  0.4881
   82TMC2    C2 1273   0.257   1.230  11.025 -0.2617  0.0229 -0.5766
   82TMC2    C3 1274   0.164   1.200  11.108  0.1865 -0.0306  0.1342
   82TMC2    C4 1275   0.297   0.992  10.983  0.0801 -0.2601 -0.9826
   82TMC2    C5 1276   0.189   0.971  11.069 -0.1413 -0.6077 -1.0676
   82TMC2    C6 1277   0.124   1.073  11.137  0.2847 -0.1216 -0.0876
   82TMC2     C 1278   0.394   1.139  10.835  0.2353 -0.4600  0.3689
   82TMC2     O 1279   0.392   1.042  10.758 -0.3383 -0.2996 -0.1810
   82TMC2     H 1280   0.290   1.332  11.011  2.2632 -0.8415 -0.8285
   82TMC2    H1 1281   0.359   0.910  10.950  0.7249 -1.2244  2.6003
   82TMC2    H2 1282   0.047   1.056  11.211 -0.9533 -2.9336 -2.0281
   82TMC2    C7 1283   0.188   0.849  11.149 -0.2387 -0.3207 -0.4071
   82TMC2    C8 1284   0.125   1.299  11.204 -0.5153  0.4314 -0.4485
   82TMC2    O1 1285   0.151   0.858  11.267  0.3382  0.5723 -0.7676
   82TMC2    O2 1286   0.014   1.308  11.256 -0.4313  0.7163 -0.1159
   82TMC2    O5 1287   0.246   1.356  11.253  0.0389 -0.1256  0.2786
   82TMC2    H5 1288   0.326   1.301  11.237 -0.9480 -1.9529  1.5555
   83MPD2     C 1289   0.578   1.446  10.473  0.6229 -0.3586  0.7071
   83MPD2    C1 1290   0.524   1.320  10.465  0.6798  0.4668  0.8471
   83MPD2    C2 1291   0.476   1.252  10.578 -0.1921  0.2822  0.6925
   83MPD2    C3 1292   0.502   1.310  10.703 -0.1779 -0.0086  0.3714
   83MPD2    C4 1293   0.571   1.433  10.706  0.7132 -0.3284  0.1046
   83MPD2    C5 1294   0.605   1.504  10.591  0.9127 -0.5901  0.2744
   83MPD2     H 1295   0.423   1.158  10.568  2.2117 -0.8261 -1.7714
   83MPD2    H1 1296   0.583   1.475  10.805  0.3001  0.0454 -0.0040
   83MPD2    H2 1297   0.602   1.503  10.384  2.5315 -1.3127  0.6066
   83MPD2    H3 1298   0.631   1.610  10.595 -0.2136 -0.2788 -0.4831
   83MPD2     N 1299   0.453   1.258  10.826  0.6319 -0.1104 -0.2970
   83MPD2    H5 1300   0.472   1.319  10.905  2.8161 -0.0635 -0.8465
   83MPD2    N1 1301   0.506   1.278  10.333  0.6020 -0.2940  0.1407
   83MPD2    H7 1302   0.539   1.342  10.261 -0.8937 -0.4748 -0.7015
   84TMC2    C1 1303   1.265   0.227  10.924 -0.8033  0.0587 -0.4173
   84TMC2    C2 1304   1.169   0.328  10.905  0.1803 -0.5663 -0.6347
   84TMC2    C3 1305   1.187   0.422  10.808  0.6667 -0.4777 -0.0736
   84TMC2    C4 1306   1.377   0.227  10.849  0.2798  0.1037 -0.5709
   84TMC2    C5 1307   1.402   0.330  10.763 -0.4317  1.1617  0.2301
   84TMC2    C6 1308   1.306   0.426  10.740  0.5070 -0.1047  0.0393
   84TMC2     C 1309   1.256   0.137  11.042  0.4666 -0.2876 -0.2562
   84TMC2     O 1310   1.209   0.166  11.149  0.3394  0.4245  0.2183
   84TMC2     H 1311   1.084   0.324  10.973  0.0324 -0.6972 -0.8282
   84TMC2    H1 1312   1.445   0.146  10.874 -0.3895  0.2124  1.6416
   84TMC2    H2 1313   1.324   0.470  10.643  1.7057  0.1922  0.3965
   84TMC2    C7 1314   1.524   0.335  10.689 -0.2542  0.3201 -0.4076
   84TMC2    C8 1315   1.072   0.436  10.725  0.3026 -0.3798 -0.0001
   84TMC2    O1 1316   1.575   0.229  10.655 -0.1377 -0.8872  0.0477
   84TMC2    O2 1317   1.061   0.388  10.611 -0.3370  0.3722 -0.4998
   84TMC2    O5 1318   0.969   0.441  10.812 -0.4953  0.2047  0.1323
   84TMC2    H5 1319   1.008   0.469  10.898  0.1503 -0.1648 -0.0488
   85TMC2    C1 1320   2.337   4.359  16.256  0.0919  0.0843  0.1234
   85TMC2    C2 1321   2.209   4.410  16.256  0.0182  0.0525 -0.5894
   85TMC2    C3 1322   2.189   4.533  16.203  0.3848 -0.2403 -0.0082
   85TMC2    C4 1323   2.440   4.440  16.211 -0.3778  0.0225  1.4339
   85TMC2    C5 1324   2.410   4.567  16.167 -0.1998 -0.2741  0.8011
   85TMC2    C6 1325   2.281   4.618  16.168 -0.3348  0.3778  0.3969
   85TMC2     C 1326   2.363   4.222  16.290  1.1180 -0.1211 -0.1255
   85TMC2     O 1327   2.482   4.194  16.282  0.3529 -0.1384 -0.2615
   85TMC2     H 1328   2.130   4.347  16.295 -0.3960 -0.1260 -1.7241
   85TMC2    H1 1329   2.536   4.396  16.187 -0.0963  1.8078 -0.6723
   85TMC2    H2 1330   2.259   4.724  16.163  0.0308  0.4046 -0.5174
   85TMC2    C7 1331   2.523   4.635  16.100  0.4913 -0.3528  1.0609
   85TMC2    C8 1332   2.051   4.585  16.209 -0.3364  0.4818 -0.1760
   85TMC2    O1 1333   2.625   4.572  16.079 -0.2541 -0.6871  0.0822
   85TMC2    O2 1334   2.029   4.702  16.237 -0.2732  1.1406 -0.3264
   85TMC2    O5 1335   1.968   4.475  16.200 -0.0998 -0.0049  0.3761
   85TMC2    H5 1336   2.011   4.399  16.154  2.9614  1.6149  0.5917
   86MPD2     C 1337   2.275   3.731  16.392  1.1391 -0.3015  0.0475
   86MPD2    C1 1338   2.160   3.784  16.338 -0.1723 -0.2747  0.1151
   86MPD2    C2 1339   2.148   3.926  16.311  0.6802 -0.0996 -0.4821
   86MPD2    C3 1340   2.252   4.010  16.341 -0.2685 -0.0763 -0.1601
   86MPD2    C4 1341   2.367   3.955  16.390  0.1827  0.3337  0.9830
   86MPD2    C5 1342   2.372   3.821  16.418  0.4051  0.1269 -0.6046
   86MPD2     H 1343   2.060   3.964  16.260  0.3120  1.3707  1.2489
   86MPD2    H1 1344   2.461   4.006  16.406  1.3030 -0.7767 -2.1441
   86MPD2    H2 1345   2.294   3.626  16.409  1.8880 -0.3250 -0.8888
   86MPD2    H3 1346   2.468   3.778  16.445 -0.6676 -1.4191  0.7327
   86MPD2     N 1347   2.252   4.149  16.316 -0.0305  0.2822 -0.4409
   86MPD2    H5 1348   2.165   4.191  16.284  1.9302  2.7384 -2.5674
   86MPD2    N1 1349   2.046   3.701  16.304 -0.2311  0.0697 -0.0115
   86MPD2    H7 1350   1.968   3.735  16.248 -0.2899 -0.3359 -0.1733
   87TMC2    C1 1351   0.157   2.418   1.507 -0.2743  0.6241 -0.7967
   87TMC2    C2 1352   0.238   2.382   1.609  0.0564  0.5632  0.0688
   87TMC2    C3 1353   0.218   2.450   1.722  1.1161  0.0548 -0.4182
   87TMC2    C4 1354   0.059   2.514   1.516 -0.5130  0.0220 -0.3433
   87TMC2    C5 1355   0.046   2.575   1.637  0.1098 -0.4450  0.8572
   87TMC2    C6 1356   0.130   2.547   1.738  0.1220 -0.8101 -0.8528
   87TMC2     C 1357   0.155   2.343   1.386  0.1820 -0.7716  0.1748
   87TMC2     O 1358   0.053   2.337   1.324 -0.1860  0.1141 -0.1111
   87TMC2     H 1359   0.315   2.305   1.604 -1.5419 -1.0994  0.8830
   87TMC2    H1 1360   4.727   2.538   1.438  0.1531 -0.1587 -1.0074
   87TMC2    H2 1361   0.143   2.607   1.827 -0.7295 -0.2996 -1.0772
   87TMC2    C7 1362   4.700   2.691   1.640  0.1470 -0.6543 -0.2131
   87TMC2    C8 1363   0.299   2.412   1.837  0.0037  0.3001  0.1618
   87TMC2    O1 1364   4.687   2.754   1.538  0.3031  0.7411  0.3206
   87TMC2    O2 1365   0.406   2.354   1.825  0.5201  0.2900 -0.0653
   87TMC2    O5 1366   0.212   2.384   1.933 -0.6042  0.2379  0.4646
   87TMC2    H5 1367   0.133   2.440   1.921 -0.8159 -0.5135 -1.5043
   88MPD2     C 1368   4.559   2.813   1.949 -0.0315 -0.3653  0.2575
   88MPD2    C1 1369   4.610   2.823   1.826  0.2808 -0.5708  0.6856
   88MPD2    C2 1370   4.606   2.945   1.769  0.0940 -0.2561  0.0680
   88MPD2    C3 1371   4.556   3.054   1.835  0.3967  0.6588 -0.0395
   88MPD2    C4 1372   4.498   3.037   1.953  0.7500 -0.1451  0.6360
   88MPD2    C5 1373   4.487   2.911   2.007 -0.5556  0.3704  0.4243
   88MPD2     H 1374   4.657   2.959   1.674 -0.8164 -0.3807 -0.4344
   88MPD2    H1 1375   4.458   3.123   2.005  0.6271  1.3063 -1.8646
   88MPD2    H2 1376   4.564   2.719   2.003 -1.3003 -0.6718 -0.1537
   88MPD2    H3 1377   4.437   2.893   2.102  1.1978  2.3682  1.7271
   88MPD2     N 1378   4.559   3.183   1.785  0.6266 -0.1124 -0.0533
   88MPD2    H5 1379   4.498   3.255   1.822 -0.8340 -0.1969 -2.3006
   88MPD2    N1 1380   4.659   2.711   1.771  0.6171 -0.0918 -0.0066
   88MPD2    H7 1381   4.693   2.636   1.831 -2.7545 -2.2005 -0.7443
   89TMC2    C1 1382   1.021   0.404   1.316 -0.2286  0.5168 -0.1631
   89TMC2    C2 1383   0.962   0.497   1.399  0.5042  0.0889  0.4172
   89TMC2    C3 1384   0.979   0.628   1.362 -0.4425 -0.4101 -0.0370
   89TMC2    C4 1385   1.088   0.431   1.197 -0.3443  0.0689 -0.2153
   89TMC2    C5 1386   1.081   0.560   1.158  0.5066  0.1490 -0.1780
   89TMC2    C6 1387   1.023   0.654   1.234  0.2330  0.2981 -0.0644
   89TMC2     C 1388   1.009   0.263   1.348  0.7910  0.2116 -0.7810
   89TMC2     O 1389   1.104   0.191   1.310  0.5081 -0.0024 -0.8031
   89TMC2     H 1390   0.901   0.472   1.484  0.6363 -0.6016  0.3083
   89TMC2    H1 1391   1.113   0.350   1.128 -1.7705  0.0811 -0.7531
   89TMC2    H2 1392   1.046   0.756   1.204  0.3236  0.1034 -0.6636
   89TMC2    C7 1393   1.146   0.598   1.035  0.0229 -0.2966 -0.2962
   89TMC2    C8 1394   0.939   0.745   1.443  0.2651  0.3994 -0.1267
   89TMC2    O1 1395   1.226   0.511   0.996  0.3378  0.3919 -0.2535
   89TMC2    O2 1396   0.893   0.836   1.377 -0.0325  0.4529  0.0412
   89TMC2    O5 1397   0.931   0.717   1.569  0.1792 -0.2938  0.8332
   89TMC2    H5 1398   0.990   0.648   1.607 -0.0487 -0.5769  0.6755
   90MPD2     C 1399   0.884   4.659   1.702  0.5325  0.4951 -0.0904
   90MPD2    C1 1400   0.777   0.009   1.688 -0.2669  0.1713  0.5458
   90MPD2    C2 1401   0.787   0.115   1.604  0.5743 -0.4441  1.0197
   90MPD2    C3 1402   0.894   0.127   1.519  0.2858 -0.4292  0.2660
   90MPD2    C4 1403   0.990   0.026   1.525  0.1005 -0.1273 -0.0170
   90MPD2    C5 1404   0.989   4.674   1.619 -0.0227  0.4749 -0.0112
   90MPD2     H 1405   0.703   0.184   1.600  1.2295  0.2231 -1.2932
   90MPD2    H1 1406   1.078   0.017   1.462 -1.3506 -0.9866 -1.9049
   90MPD2    H2 1407   0.871   4.566   1.756  1.1000 -0.2497 -1.2452
   90MPD2    H3 1408   1.070   4.602   1.614 -1.8458 -1.6989  1.9362
   90MPD2     N 1409   0.907   0.237   1.432  0.1469  0.1801  0.0232
   90MPD2    H5 1410   0.840   0.313   1.426  0.0350  0.1631  1.0891
   90MPD2    N1 1411   0.645   4.720   1.734  0.1566  0.7103  0.0088
   90MPD2    H7 1412   0.562   0.019   1.690  0.6487 -1.2085 -2.5526
   91TMC2    C1 1413   2.258   4.600  16.786 -0.2211  0.1030  0.1380
   91TMC2    C2 1414   2.332   4.664  16.883 -0.1517 -0.2477 -0.9298
   91TMC2    C3 1415   2.262   4.721  16.979  0.3562  0.1126 -0.6260
   91TMC2    C4 1416   2.118   4.590  16.784 -0.7991  0.3476 -0.7311
   91TMC2    C5 1417   2.051   4.645  16.891 -0.4281 -0.1779  0.1225
   91TMC2    C6 1418   2.124   4.701  16.990  0.0518 -0.0381 -0.2202
   91TMC2     C 1419   2.328   4.546  16.672  0.0939 -0.6440  0.6352
   91TMC2     O 1420   2.286   4.449  16.617 -0.4703 -0.1755 -0.3430
   91TMC2     H 1421   2.436   4.640  16.901 -0.7847 -1.3271  1.3757
   91TMC2    H1 1422   2.070   4.543  16.699  0.3316  0.9573 -1.6932
   91TMC2    H2 1423   2.080   0.014  17.074 -0.0116  2.6118 -1.9246
   91TMC2    C7 1424   1.906   4.648  16.899 -0.4873 -0.0693 -0.3065
   91TMC2    C8 1425   2.329   0.049  17.087 -0.1889 -0.3478 -0.3176
   91TMC2    O1 1426   1.855   4.640  17.007 -0.2221 -0.2294  0.1903
   91TMC2    O2 1427   2.442   0.091  17.069 -0.1037 -0.3176 -0.4294
   91TMC2    O5 1428   2.300   4.715  17.194 -0.1024 -0.0044  0.2324
   91TMC2    H5 1429   2.204   4.701  17.207 -0.2477  1.2657  0.5392
   92MPD2     C 1430   2.566   4.484  16.512  0.4391 -0.3955 -0.5720
   92MPD2    C1 1431   2.541   4.608  16.565 -0.3267 -0.1077 -0.2840
   92MPD2    C2 1432   2.646   4.697  16.574  0.1077  0.2270 -0.0981
   92MPD2    C3 1433   2.759   4.680  16.501 -0.3128 -0.2386 -0.4530
   92MPD2    C4 1434   2.776   4.556  16.431  0.0937 -0.0752  0.1494
   92MPD2    C5 1435   2.685   4.454  16.449  0.2010  0.4527 -0.1178
   92MPD2     H 1436   2.626   0.049  16.627 -0.6236  1.0214 -1.7261
   92MPD2    H1 1437   2.862   4.518  16.378 -0.4630 -2.1293  0.7019
   92MPD2    H2 1438   2.496   4.402  16.508  0.6630 -0.5030 -2.0978
   92MPD2    H3 1439   2.714   4.360  16.405  0.7332  1.0942 -1.1447
   92MPD2     N 1440   2.862   0.036  16.517 -0.1166  0.0346  0.1927
   92MPD2    H5 1441   2.846   0.115  16.579 -1.7921 -1.8843  2.2075
   92MPD2    N1 1442   2.430   4.634  16.650 -0.0479  0.0812  0.0597
   92MPD2    H7 1443   2.421   4.715  16.710 -0.6165 -0.4298  0.6662
   93TMC2    C1 1444   4.283   0.071  14.286 -0.3065 -0.2548 -0.8219
   93TMC2    C2 1445   4.205   0.150  14.365  0.4128  0.7872  0.4941
   93TMC2    C3 1446   4.255   0.256  14.430 -0.8321  0.1712 -0.1225
   93TMC2    C4 1447   4.418   0.088  14.286  0.0008  0.1328 -0.3598
   93TMC2    C5 1448   4.467   0.206  14.344  0.1012 -0.1724  0.4985
   93TMC2    C6 1449   4.390   0.292  14.418 -0.3933 -0.6336  0.1482
   93TMC2     C 1450   4.236   4.700  14.206  0.3930  0.0360  0.0518
   93TMC2     O 1451   4.318   4.658  14.128  0.4591  0.3247 -0.3467
   93TMC2     H 1452   4.101   0.118  14.368  1.2374 -1.7748  2.4359
   93TMC2    H1 1453   4.481   0.027  14.221 -0.8362  2.2438 -3.1479
   93TMC2    H2 1454   4.438   0.375  14.469  0.2614 -0.5623 -0.5764
   93TMC2    C7 1455   4.603   0.244  14.312  0.3311 -0.2275  0.9945
   93TMC2    C8 1456   4.167   0.338  14.520  0.1254  0.6990  0.6966
   93TMC2    O1 1457   4.675   0.148  14.282  0.5489 -0.1572 -0.5918
   93TMC2    O2 1458   4.193   0.454  14.542 -0.2793 -0.4580  0.1062
   93TMC2    O5 1459   4.053   0.275  14.554  0.3500 -0.3706  0.4054
   93TMC2    H5 1460   4.054   0.178  14.541 -1.2983 -0.4424  0.7789
   94MPD2     C 1461   4.071   4.539  14.007  0.1585  0.6785 -0.6003
   94MPD2    C1 1462   4.033   4.585  14.135 -0.4006 -0.0270 -0.4451
   94MPD2    C2 1463   3.896   4.567  14.171 -0.3731  0.7098 -0.3437
   94MPD2    C3 1464   3.808   4.505  14.088  0.6786  0.1926  0.1842
   94MPD2    C4 1465   3.853   4.452  13.968  0.2978 -0.3668 -0.5758
   94MPD2    C5 1466   3.985   4.470  13.933 -0.3518 -0.3664  0.2878
   94MPD2     H 1467   3.862   4.582  14.273 -0.8925 -1.2927 -0.2208
   94MPD2    H1 1468   3.783   4.415  13.894 -0.8118  1.6112 -0.5190
   94MPD2    H2 1469   4.170   4.553  13.965  0.3725 -0.9154 -0.6081
   94MPD2    H3 1470   4.010   4.432  13.834 -2.1319  0.6653 -0.5631
   94MPD2     N 1471   3.670   4.494  14.109  0.3472  0.6728  0.0525
   94MPD2    H5 1472   3.611   4.476  14.029  1.8198  0.7086 -1.0322
   94MPD2    N1 1473   4.109   4.662  14.219 -0.2154  0.4714 -0.8522
   94MPD2    H7 1474   4.072   4.688  14.310  0.7566 -1.0210 -0.0302
   95TMC2    C1 1475   4.000   1.604  16.373 -0.1147  0.8448 -0.2965
   95TMC2    C2 1476   3.943   1.481  16.390 -0.9221 -0.9090 -0.0378
   95TMC2    C3 1477   3.858   1.469  16.496 -0.0176 -1.3448  0.4294
   95TMC2    C4 1478   3.961   1.713  16.443  0.1986 -0.5076  0.1102
   95TMC2    C5 1479   3.870   1.695  16.543 -0.2969 -1.0758 -0.3876
   95TMC2    C6 1480   3.833   1.571  16.585 -0.1969  0.4788 -0.1279
   95TMC2     C 1481   4.122   1.624  16.292 -0.1290  0.2880  0.3382
   95TMC2     O 1482   4.154   1.740  16.270 -0.1904  0.1874 -0.3537
   95TMC2     H 1483   3.970   1.390  16.339 -0.7282 -1.4197  0.9662
   95TMC2    H1 1484   4.002   1.813  16.437  1.5629 -1.0507  0.3350
   95TMC2    H2 1485   3.745   1.560  16.648  0.0596 -0.9295 -0.0302
   95TMC2    C7 1486   3.862   1.803  16.645  0.7102  0.3930  0.1649
   95TMC2    C8 1487   3.850   1.340  16.559  0.1671  0.3654 -0.1540
   95TMC2    O1 1488   3.900   1.914  16.617  0.1119 -0.4166  0.1527
   95TMC2    O2 1489   3.840   1.328  16.681  0.1230 -0.1435  0.3022
   95TMC2    O5 1490   3.781   1.265  16.476 -0.4794 -0.3629 -0.1803
   95TMC2    H5 1491   3.766   1.307  16.389  0.5391 -0.5597 -0.4551
   96MPD2     C 1492   4.498   1.429  15.994 -0.3744 -0.1161 -0.2208
   96MPD2    C1 1493   4.442   1.554  15.992 -0.5761 -0.0751  0.5366
   96MPD2    C2 1494   4.336   1.583  16.078  0.3823  0.3808 -0.3627
   96MPD2    C3 1495   4.292   1.490  16.165 -0.2512  0.1237  0.4924
   96MPD2    C4 1496   4.351   1.365  16.168 -0.1777  0.0333 -0.1797
   96MPD2    C5 1497   4.447   1.335  16.085  0.7902 -0.3747  0.2813
   96MPD2     H 1498   4.283   1.676  16.066 -0.0964 -0.0216 -1.3322
   96MPD2    H1 1499   4.312   1.291  16.238  0.8786  1.5590  2.0218
   96MPD2    H2 1500   4.570   1.396  15.920  0.1965 -2.3359  1.3384
   96MPD2    H3 1501   4.477   1.231  16.089 -0.0672 -0.5633  1.6748
   96MPD2     N 1502   4.189   1.506  16.258  0.7970  0.7317 -0.2571
   96MPD2    H5 1503   4.161   1.424  16.311 -0.4386  0.9652 -0.5623
   96MPD2    N1 1504   4.504   1.643  15.903 -0.1449  0.5029  0.6416
   96MPD2    H7 1505   4.574   1.608  15.838  0.8954 -1.0383  2.5822
   97TMC2    C1 1506   1.464   0.391   1.188 -0.8100 -0.7878  0.0227
   97TMC2    C2 1507   1.431   0.449   1.307  0.3126  0.4033 -0.0042
   97TMC2    C3 1508   1.434   0.585   1.306  0.3209  0.0952 -0.1611
   97TMC2    C4 1509   1.512   0.468   1.077 -0.1298  0.3612  0.6160
   97TMC2    C5 1510   1.511   0.602   1.085 -0.5298 -0.4663  0.4104
   97TMC2    C6 1511   1.475   0.668   1.198 -0.4368  0.5237 -0.8150
   97TMC2     C 1512   1.451   0.247   1.179  0.0367  0.1456  0.3423
   97TMC2     O 1513   1.458   0.184   1.284 -0.4931  0.7055 -0.0025
   97TMC2     H 1514   1.407   0.385   1.391  0.0910 -1.6747 -1.6542
   97TMC2    H1 1515   1.552   0.419   0.989 -0.4211 -0.3775  0.8852
   97TMC2    H2 1516   1.514   0.766   1.220  0.0482  0.0478  0.4711
   97TMC2    C7 1517   1.562   0.668   0.969  0.0019  0.2153  0.1506
   97TMC2    C8 1518   1.405   0.659   1.423 -0.2626 -0.3165  0.5293
   97TMC2    O1 1519   1.650   0.610   0.909  0.6670 -0.3936 -0.6755
   97TMC2    O2 1520   1.333   0.755   1.418 -0.2384  0.0045 -0.4481
   97TMC2    O5 1521   1.403   0.571   1.528 -0.1770 -0.0421  0.3576
   97TMC2    H5 1522   1.476   0.507   1.520 -0.6988 -0.6775  0.7175
   98MPD2     C 1523   1.423   4.603   0.833 -0.2418 -0.4143  0.5988
   98MPD2    C1 1524   1.462   4.603   0.974 -0.4672 -0.3328  0.6341
   98MPD2    C2 1525   1.465   4.718   1.048  0.3226  0.4704  0.1993
   98MPD2    C3 1526   1.419   0.096   0.987 -0.2322 -0.6284 -0.0866
   98MPD2    C4 1527   1.392   0.102   0.851  0.4895 -0.9688 -0.6060
   98MPD2    C5 1528   1.391   4.730   0.778 -0.7133  0.3969  0.8007
   98MPD2     H 1529   1.486   4.717   1.154 -1.3595 -2.7409  0.4993
   98MPD2    H1 1530   1.367   0.197   0.805 -0.6393 -0.7342  0.4920
   98MPD2    H2 1531   1.429   4.508   0.782 -1.2948 -0.0796 -0.1264
   98MPD2    H3 1532   1.340   0.000   0.683  0.9688 -0.5471 -0.2010
   98MPD2     N 1533   1.419   0.221   1.049 -0.1183  0.6669 -0.2171
   98MPD2    H5 1534   1.409   0.307   0.997  0.5444  1.0569  0.3026
   98MPD2    N1 1535   1.499   4.475   1.028  0.4802  0.3450 -0.2453
   98MPD2    H7 1536   1.508   4.402   0.958  1.2236  1.2584 -1.0934
   99TMC2    C1 1537   0.749   1.691   2.520  0.5861 -0.0854 -0.5328
   99TMC2    C2 1538   0.814   1.686   2.645 -0.1029  0.1656 -1.0055
   99TMC2    C3 1539   0.750   1.741   2.747  0.4070  1.0124 -0.1636
   99TMC2    C4 1540   0.626   1.740   2.498 -0.6157  0.3303  0.1291
   99TMC2    C5 1541   0.555   1.763   2.612 -0.1269 -0.1105 -0.7927
   99TMC2    C6 1542   0.614   1.781   2.734 -0.3758  0.6427  0.8080
   99TMC2     C 1543   0.830   1.634   2.406 -0.5729 -0.5572 -0.4780
   99TMC2     O 1544   0.947   1.607   2.430  0.1408  0.1956 -0.5659
   99TMC2     H 1545   0.918   1.658   2.656  0.1187  0.2353 -2.9411
   99TMC2    H1 1546   0.598   1.733   2.394 -0.7870  0.5837  0.1587
   99TMC2    H2 1547   0.553   1.788   2.823 -2.0865 -1.1584 -0.2026
   99TMC2    C7 1548   0.415   1.795   2.601  0.5803 -0.5922  0.4304
   99TMC2    C8 1549   0.798   1.696   2.877 -0.0598  1.3647 -0.4181
   99TMC2    O1 1550   0.362   1.846   2.699 -0.1613 -0.3081  0.1997
   99TMC2    O2 1551   0.872   1.599   2.889  0.0796 -0.5976  0.0446
   99TMC2    O5 1552   0.816   1.816   2.937 -0.5367 -0.0708  0.6375
   99TMC2    H5 1553   0.756   1.885   2.902  0.2462 -0.8922 -2.3533
  100MPD2     C 1554   0.950   1.542   2.147 -0.0939  0.3622  0.8169
  100MPD2    C1 1555   0.819   1.569   2.163 -0.0468 -0.3144  0.5950
  100MPD2    C2 1556   0.736   1.558   2.055 -0.3995  0.3478  0.3598
  100MPD2    C3 1557   0.779   1.505   1.930 -0.5989  0.0727 -0.4159
  100MPD2    C4 1558   0.916   1.479   1.915  0.1436 -0.0056 -0.0337
  100MPD2    C5 1559   0.996   1.502   2.027  0.8130  0.0041  0.2764
  100MPD2     H 1560   0.634   1.588   2.073 -0.8885  0.4849 -2.6383
  100MPD2    H1 1561   0.965   1.441   1.826  0.1468 -0.4535  0.1630
  100MPD2    H2 1562   1.026   1.557   2.223  0.4409  0.9739  0.1568
  100MPD2    H3 1563   1.100   1.476   2.012  0.5790 -1.0869  0.5138
  100MPD2     N 1564   0.685   1.491   1.831 -0.3789 -0.2147  0.0267
  100MPD2    H5 1565   0.590   1.512   1.859 -0.0609  1.6505 -0.2477
  100MPD2    N1 1566   0.766   1.598   2.289 -0.5307 -1.1751 -0.5866
  100MPD2    H7 1567   0.664   1.597   2.293 -0.4714 -0.8433  1.0595
  101TMC2    C1 1568   1.234   2.491  13.529  0.9615 -0.1532 -0.5109
  101TMC2    C2 1569   1.281   2.453  13.654  0.1111  0.0947 -0.0902
  101TMC2    C3 1570   1.414   2.489  13.682 -0.2922  0.3920  1.0866
  101TMC2    C4 1571   1.311   2.560  13.441 -0.6185 -0.3087 -0.1559
  101TMC2    C5 1572   1.436   2.601  13.489 -1.1112 -0.0904 -0.6336
  101TMC2    C6 1573   1.495   2.571  13.607  0.1536 -0.1790 -0.2076
  101TMC2     C 1574   1.154   2.396  13.457 -0.2588  0.4005  0.0900
  101TMC2     O 1575   1.055   2.357  13.515  0.4332  0.4923  0.1263
  101TMC2     H 1576   1.234   2.380  13.718  0.4961 -0.1526 -0.0925
  101TMC2    H1 1577   1.270   2.598  13.349  0.4883  1.6979  0.1761
  101TMC2    H2 1578   1.591   2.606  13.644  0.2688 -2.9429  2.1075
  101TMC2    C7 1579   1.518   2.651  13.379  0.5236  0.0800 -0.0812
  101TMC2    C8 1580   1.458   2.462  13.816 -0.2854 -0.1082 -0.3894
  101TMC2    O1 1581   1.464   2.650  13.269  0.1869  0.1408 -0.6822
  101TMC2    O2 1582   1.575   2.445  13.853 -0.4053  0.3526  0.5835
  101TMC2    O5 1583   1.365   2.513  13.898 -0.3432  0.5699 -0.2791
  101TMC2    H5 1584   1.287   2.558  13.861 -0.2228  0.6836 -0.3945
  102MPD2     C 1585   1.253   2.244  13.143  0.0194 -0.2487  0.6472
  102MPD2    C1 1586   1.169   2.261  13.247  0.2234  0.7905 -0.4583
  102MPD2    C2 1587   1.060   2.177  13.262  0.0081  0.0713 -0.0135
  102MPD2    C3 1588   1.040   2.072  13.172 -0.1853  0.0171 -0.4246
  102MPD2    C4 1589   1.134   2.058  13.065  0.2355  0.3487 -0.5809
  102MPD2    C5 1590   1.237   2.144  13.049 -0.8098 -0.3895  0.2976
  102MPD2     H 1591   0.984   2.203  13.333 -0.2823 -1.4141  0.2243
  102MPD2    H1 1592   1.117   1.980  12.991  0.3406  0.2587 -0.5100
  102MPD2    H2 1593   1.337   2.311  13.136  1.4794 -2.0027  1.2154
  102MPD2    H3 1594   1.305   2.119  12.969  0.4482 -0.1843  1.3047
  102MPD2     N 1595   0.925   1.983  13.187 -0.5680  0.2249 -0.2893
  102MPD2    H5 1596   0.865   2.001  13.266 -1.3407 -1.9382 -0.4013
  102MPD2    N1 1597   1.213   2.358  13.335  0.2962  0.3803 -0.2058
  102MPD2    H7 1598   1.284   2.423  13.304  0.4655 -1.3849 -3.4776
  103TMC2    C1 1599   4.400   2.196  12.313  0.2598 -0.2975  0.6479
  103TMC2    C2 1600   4.500   2.240  12.239 -0.4605  0.5783 -0.1327
  103TMC2    C3 1601   4.566   2.356  12.260  0.1646 -0.0938  0.4454
  103TMC2    C4 1602   4.361   2.271  12.416 -0.8641  0.0545 -0.0102
  103TMC2    C5 1603   4.435   2.386  12.449  0.5614 -0.7625 -0.2427
  103TMC2    C6 1604   4.542   2.431  12.371  0.0933 -0.1043  0.1714
  103TMC2     C 1605   4.302   2.112  12.248  0.3759  0.2461 -0.2310
  103TMC2     O 1606   4.187   2.154  12.270 -0.2102 -0.2666 -0.0608
  103TMC2     H 1607   4.528   2.184  12.151  0.6234  0.1067  0.5150
  103TMC2    H1 1608   4.269   2.252  12.470 -0.1229 -0.3064  1.1202
  103TMC2    H2 1609   4.595   2.522  12.396  1.1767 -0.5771 -0.4220
  103TMC2    C7 1610   4.397   2.449  12.580 -0.3092  0.7204 -0.4200
  103TMC2    C8 1611   4.671   2.394  12.170 -0.6168  0.0067  0.0126
  103TMC2    O1 1612   4.323   2.381  12.647  0.1417 -0.0272 -0.6442
  103TMC2    O2 1613   0.003   2.313  12.116 -0.0144  0.5903 -0.4457
  103TMC2    O5 1614   4.689   2.528  12.194  0.3070  0.3643 -0.8465
  103TMC2    H5 1615   4.603   2.567  12.220  0.6899  0.2304  0.6400
  104MPD2     C 1616   4.341   1.795  12.040 -0.2044  0.1985  0.1212
  104MPD2    C1 1617   4.275   1.900  12.102  0.2214 -0.3501 -0.0654
  104MPD2    C2 1618   4.137   1.913  12.088  0.1122 -0.5913  0.4037
  104MPD2    C3 1619   4.064   1.824  12.012  0.0910  1.1138  0.2793
  104MPD2    C4 1620   4.132   1.714  11.959  0.0219  0.0458 -0.2564
  104MPD2    C5 1621   4.269   1.695  11.974 -0.1072 -0.1310 -0.3748
  104MPD2     H 1622   4.087   2.000  12.129  0.2508 -1.3366  2.1771
  104MPD2    H1 1623   4.077   1.638  11.905  4.4802 -2.1204 -1.8163
  104MPD2    H2 1624   4.449   1.798  12.042 -0.2472  0.6652  1.8956
  104MPD2    H3 1625   4.317   1.607  11.935 -2.5825 -1.2017 -1.0272
  104MPD2     N 1626   3.921   1.843  11.997 -0.3506 -0.2549 -0.4945
  104MPD2    H5 1627   3.880   1.922  12.044 -1.1264  0.1063 -1.7649
  104MPD2    N1 1628   4.354   1.999  12.174  0.3256 -0.8203  0.5487
  104MPD2    H7 1629   4.455   1.993  12.167  0.2729 -0.5243 -0.5758
  105TMC2    C1 1630   0.101   1.844   0.539 -0.5830  0.0134 -0.1335
  105TMC2    C2 1631   0.089   1.971   0.489  0.2375  0.4126 -0.1720
  105TMC2    C3 1632   0.065   2.071   0.573 -0.0162 -0.3737 -0.5971
  105TMC2    C4 1633   0.094   1.829   0.673  0.6764 -0.7080  0.0461
  105TMC2    C5 1634   0.066   1.930   0.763  0.5117  0.4370  1.3579
  105TMC2    C6 1635   0.051   2.054   0.708 -0.3276 -0.3111 -0.2518
  105TMC2     C 1636   0.148   1.722   0.461 -0.1326  0.3930  0.1229
  105TMC2     O 1637   0.120   1.620   0.516  0.8719 -0.1921  0.0752
  105TMC2     H 1638   0.071   1.978   0.382  0.0621  0.1663 -0.1610
  105TMC2    H1 1639   0.099   1.725   0.705  0.6371 -1.3372 -2.0158
  105TMC2    H2 1640   0.046   2.141   0.774 -2.0560 -0.7910  0.2615
  105TMC2    C7 1641   0.122   1.916   0.893  0.1931 -0.3999  0.0499
  105TMC2    C8 1642   0.115   2.205   0.538 -0.6687  0.4792 -0.0375
  105TMC2    O1 1643   0.170   1.805   0.917 -0.6843  0.5052  0.5488
  105TMC2    O2 1644   0.088   2.301   0.602 -0.5179  0.1799  0.1555
  105TMC2    O5 1645   0.168   2.219   0.413  0.1696  0.3461 -0.2368
  105TMC2    H5 1646   0.203   2.140   0.366 -1.5708 -0.5303 -0.0621
  106MPD2     C 1647   0.344   1.519   0.035  0.6464  0.1235 -0.0361
  106MPD2    C1 1648   0.375   1.653   0.040  0.1354 -1.1017  0.2966
  106MPD2    C2 1649   0.318   1.735   0.130  0.4985 -0.8513  0.4042
  106MPD2    C3 1650   0.251   1.679   0.239  0.8072  0.1521  0.2646
  106MPD2    C4 1651   0.224   1.544   0.233 -0.1087 -0.0402 -0.1599
  106MPD2    C5 1652   0.265   1.465   0.125 -0.1811 -0.1743 -0.6673
  106MPD2     H 1653   0.336   1.842   0.134 -2.3996 -0.2930 -1.0167
  106MPD2    H1 1654   0.176   1.499   0.319  0.9188 -1.1919 -0.1901
  106MPD2    H2 1655   0.365   1.462  17.703  1.9027 -2.6783  2.0662
  106MPD2    H3 1656   0.254   1.357   0.124  0.3008 -0.2442  0.8330
  106MPD2     N 1657   0.202   1.759   0.342  0.1505 -0.1350 -0.4407
  106MPD2    H5 1658   0.217   1.859   0.329 -1.2557 -0.0043 -1.0251
  106MPD2    N1 1659   0.471   1.714  17.717 -0.6692 -0.5846 -0.2096
  106MPD2    H7 1660   0.491   1.812  17.738  0.3096 -0.7306 -0.4665
  107TMC2    C1 1661   1.522   0.046  11.816 -0.7792 -0.1415 -0.6521
  107TMC2    C2 1662   1.580   4.714  11.914 -0.1828 -0.2402 -0.3075
  107TMC2    C3 1663   1.587   4.578  11.913 -0.5200  0.2735  0.0776
  107TMC2    C4 1664   1.480   4.729  11.705 -0.1025  0.1274 -0.8851
  107TMC2    C5 1665   1.489   4.592  11.691  0.5649 -0.2620 -0.0485
  107TMC2    C6 1666   1.538   4.516  11.799  0.3409 -0.3376 -0.1942
  107TMC2     C 1667   1.476   0.177  11.852  0.0474  0.6585  0.4569
  107TMC2     O 1668   1.468   0.205  11.971  0.7155  0.0065  0.7960
  107TMC2     H 1669   1.600   0.026  12.007 -0.1289 -0.4510 -0.2010
  107TMC2    H1 1670   1.431   0.055  11.634  0.3016  1.9490  0.5561
  107TMC2    H2 1671   1.547   4.409  11.781 -1.2777 -0.6815  1.0060
  107TMC2    C7 1672   1.423   4.523  11.576  0.2340  0.1742 -0.0147
  107TMC2    C8 1673   1.698   4.518  11.979 -0.2846 -0.8167 -0.1146
  107TMC2    O1 1674   1.399   4.403  11.594 -0.3686  0.0141  0.1593
  107TMC2    O2 1675   1.739   4.411  11.942 -0.6744  0.3717  0.4767
  107TMC2    O5 1676   1.713   4.575  12.100 -0.1497  0.0479  0.6592
  107TMC2    H5 1677   1.648   4.640  12.134 -1.2255 -0.9349  0.5079
  108MPD2     C 1678   1.458   0.480  11.629 -0.1552  0.4434 -0.2926
  108MPD2    C1 1679   1.446   0.406  11.748 -0.8542 -0.4719  0.5427
  108MPD2    C2 1680   1.412   0.481  11.869 -0.3635 -0.6261 -0.3381
  108MPD2    C3 1681   1.399   0.622  11.853 -0.4697  0.3598  0.1820
  108MPD2    C4 1682   1.402   0.685  11.732  0.5049 -0.5533  0.5008
  108MPD2    C5 1683   1.429   0.613  11.620 -0.0432  0.2478  0.2126
  108MPD2     H 1684   1.384   0.438  11.964 -2.8203  0.0968 -0.7215
  108MPD2    H1 1685   1.374   0.790  11.725 -0.1269 -0.8989 -2.3849
  108MPD2    H2 1686   1.483   0.422  11.541 -0.7990 -2.4403  1.4125
  108MPD2    H3 1687   1.424   0.662  11.524 -0.3427 -1.0499 -0.4325
  108MPD2     N 1688   1.362   0.710  11.958 -0.0312 -0.1667 -0.2287
  108MPD2    H5 1689   1.353   0.807  11.932  2.5425  0.2352  0.3881
  108MPD2    N1 1690   1.466   0.262  11.744 -0.3385  0.5936 -0.1856
  108MPD2    H7 1691   1.508   0.234  11.656  1.5912 -0.0917  0.9531
  109TMC2    C1 1692   0.848   4.662   0.616 -0.8041 -0.3973  1.0636
  109TMC2    C2 1693   0.900   0.043   0.573  0.1987 -0.4601 -0.6675
  109TMC2    C3 1694   1.026   0.036   0.513 -0.4065 -0.2156  0.1401
  109TMC2    C4 1695   0.908   4.542   0.593 -0.3862  0.5827 -0.0506
  109TMC2    C5 1696   1.035   4.545   0.528  0.0144 -0.0527 -0.3228
  109TMC2    C6 1697   1.094   4.663   0.493  0.7053 -0.5067 -0.6514
  109TMC2     C 1698   0.739   4.673   0.711 -1.0616 -0.1807 -0.9462
  109TMC2     O 1699   0.668   0.029   0.689 -0.3390  0.2519  0.5589
  109TMC2     H 1700   0.849   0.135   0.598  1.1971  0.5358 -2.2755
  109TMC2    H1 1701   0.858   4.452   0.626 -0.4897  2.1228  3.9800
  109TMC2    H2 1702   1.189   4.667   0.440  0.8634  1.9816 -0.1956
  109TMC2    C7 1703   1.130   4.444   0.553  0.0907  0.3125  0.4992
  109TMC2    C8 1704   1.079   0.156   0.441  0.1171  0.6768 -0.1799
  109TMC2    O1 1705   1.250   4.468   0.539  0.1744 -0.2299 -0.3205
  109TMC2    O2 1706   1.200   0.175   0.420  0.0665  0.0610  0.4379
  109TMC2    O5 1707   0.977   0.232   0.391 -0.3436  0.2716 -0.0536
  109TMC2    H5 1708   0.890   0.216   0.433 -1.0743  0.3147 -1.5820
  110MPD2     C 1709   0.400   4.520   1.076  0.2435 -0.5971  0.2014
  110MPD2    C1 1710   0.507   4.435   1.065  0.4333 -0.2344 -0.0732
  110MPD2    C2 1711   0.611   4.456   0.982 -0.3449  0.3583  0.2593
  110MPD2    C3 1712   0.613   4.561   0.896 -0.4247  0.2530  0.2036
  110MPD2    C4 1713   0.504   4.653   0.910 -0.2166 -0.5146 -0.7625
  110MPD2    C5 1714   0.407   4.634   1.003 -0.6265  0.7805  0.1957
  110MPD2     H 1715   0.697   4.389   0.986 -1.9344 -1.6395  1.0734
  110MPD2    H1 1716   0.493   4.727   0.831  1.2418 -1.5679 -1.9533
  110MPD2    H2 1717   0.319   4.496   1.144  0.1417  0.6889  0.5253
  110MPD2    H3 1718   0.329   4.709   1.002 -0.9007  0.4962  0.2298
  110MPD2     N 1719   0.722   4.569   0.803  0.4209 -0.2548  0.3912
  110MPD2    H5 1720   0.778   4.484   0.800 -0.9962 -1.0906 -2.0280
  110MPD2    N1 1721   0.507   4.336   1.169  1.0181 -0.3520  0.1875
  110MPD2    H7 1722   0.438   4.342   1.244  0.0058  0.5693 -0.8164
  111TMC2    C1 1723   0.763   2.737  12.079  0.4064  0.3481  0.1251
  111TMC2    C2 1724   0.659   2.756  12.165 -0.5308  0.4024 -0.2254
  111TMC2    C3 1725   0.680   2.832  12.279  0.1162 -0.2437  0.1487
  111TMC2    C4 1726   0.872   2.814  12.089  0.3767 -0.4072  0.2885
  111TMC2    C5 1727   0.902   2.876  12.205  0.2370  0.0280 -1.0707
  111TMC2    C6 1728   0.812   2.879  12.305 -0.2633 -0.6841  0.4027
  111TMC2     C 1729   0.729   2.686  11.948  0.2879  0.1190  0.3294
  111TMC2     O 1730   0.784   2.734  11.851 -0.3027 -0.2450  0.3937
  111TMC2     H 1731   0.564   2.710  12.144 -0.5080  0.1056  0.3349
  111TMC2    H1 1732   0.947   2.800  12.012 -0.2901  0.1160 -0.4518
  111TMC2    H2 1733   0.839   2.924  12.400  0.6127  2.1354 -1.1778
  111TMC2    C7 1734   1.038   2.898  12.242  0.6038 -0.2227  0.2353
  111TMC2    C8 1735   0.579   2.826  12.387 -0.9892 -1.1220  0.3502
  111TMC2    O1 1736   1.067   2.901  12.360 -0.1532  0.2796  0.1403
  111TMC2    O2 1737   0.622   2.845  12.501  0.0921  0.4351  0.0627
  111TMC2    O5 1738   0.460   2.859  12.346  0.5357  0.2733 -0.0847
  111TMC2    H5 1739   0.462   2.872  12.249 -1.3559 -0.5140 -0.2288
  112MPD2     C 1740   0.491   2.372  11.618  0.0007  0.2907  0.5040
  112MPD2    C1 1741   0.569   2.480  11.601 -0.7001  0.3553  0.2995
  112MPD2    C2 1742   0.620   2.538  11.709  0.5489  0.2154  0.4983
  112MPD2    C3 1743   0.592   2.509  11.838  0.2129  0.4318 -0.3137
  112MPD2    C4 1744   0.510   2.401  11.859  0.0428  0.3749 -0.4541
  112MPD2    C5 1745   0.466   2.332  11.745 -0.0363 -0.2686 -0.5949
  112MPD2     H 1746   0.668   2.633  11.686 -2.2439  1.2798 -0.8576
  112MPD2    H1 1747   0.473   2.367  11.955 -2.1030  0.4305 -1.2794
  112MPD2    H2 1748   0.448   2.312  11.539  0.7203  0.7683 -0.2543
  112MPD2    H3 1749   0.411   2.239  11.751 -0.1229 -0.0796  1.5304
  112MPD2     N 1750   0.636   2.585  11.952 -0.1115  0.1477 -0.5096
  112MPD2    H5 1751   0.619   2.551  12.047  0.1835  0.8352 -0.2120
  112MPD2    N1 1752   0.587   2.551  11.477  0.6291 -0.2069  0.0834
  112MPD2    H7 1753   0.633   2.641  11.477 -0.6842  0.4514 -3.0780
  113TMC2    C1 1754   4.201   2.225   0.737  0.5009 -0.0084  0.1348
  113TMC2    C2 1755   4.206   2.329   0.645  0.0846  0.4093 -0.0201
  113TMC2    C3 1756   4.081   2.376   0.599 -0.4662 -0.0351  1.4705
  113TMC2    C4 1757   4.078   2.165   0.773 -0.4026  0.4775  0.6457
  113TMC2    C5 1758   3.962   2.203   0.711  0.3146  0.1503  0.9415
  113TMC2    C6 1759   3.966   2.314   0.631 -0.4660  0.8296  0.4165
  113TMC2     C 1760   4.316   2.178   0.809  0.2071 -0.5140 -0.5919
  113TMC2     O 1761   4.413   2.251   0.809 -0.1074  0.1176 -0.3278
  113TMC2     H 1762   4.297   2.384   0.624  0.5334 -0.7159 -0.9671
  113TMC2    H1 1763   4.081   2.093   0.854  2.9065 -0.4108 -0.2746
  113TMC2    H2 1764   3.871   2.344   0.587 -1.3630  0.4937  2.0921
  113TMC2    C7 1765   3.840   2.167   0.772  0.4190  0.8870 -0.9947
  113TMC2    C8 1766   4.087   2.480   0.497 -0.0467 -0.7373  0.9273
  113TMC2    O1 1767   3.749   2.251   0.757 -0.5385 -0.1429 -0.4828
  113TMC2    O2 1768   4.187   2.529   0.448 -0.1901 -0.4760  0.2658
  113TMC2    O5 1769   3.966   2.528   0.483 -0.3839  0.0509  0.5148
  113TMC2    H5 1770   3.909   2.501   0.557 -1.4432 -2.2921 -1.1524
  114MPD2     C 1771   4.557   1.819   1.077  0.3244  0.4543  0.0494
  114MPD2    C1 1772   4.544   1.958   1.106  0.8635  0.2522 -0.5220
  114MPD2    C2 1773   4.468   2.034   1.017 -0.1640 -0.1889 -0.4319
  114MPD2    C3 1774   4.393   1.973   0.918  1.0260 -0.6789  0.1959
  114MPD2    C4 1775   4.400   1.833   0.898 -0.2394 -0.5461 -0.1831
  114MPD2    C5 1776   4.481   1.758   0.978 -0.1215 -0.2278  0.1549
  114MPD2     H 1777   4.463   2.141   1.030 -1.3030 -0.1577 -1.1346
  114MPD2    H1 1778   4.336   1.786   0.825 -0.5953  0.9229 -0.8094
  114MPD2    H2 1779   4.610   1.754   1.145 -0.3827 -0.4381 -0.2584
  114MPD2    H3 1780   4.478   1.650   0.969 -0.3289 -0.1507 -0.6510
  114MPD2     N 1781   4.299   2.047   0.846  0.5453 -0.2831  0.5646
  114MPD2    H5 1782   4.226   1.994   0.800  1.6588 -0.3743 -1.1020
  114MPD2    N1 1783   4.602   2.016   1.219  0.3122  0.2367  0.1660
  114MPD2    H7 1784   4.586   2.115   1.232 -0.7553 -0.0120  0.7357
  115TMC2    C1 1785   4.677   4.253   0.373 -0.3223 -0.4507 -0.4737
  115TMC2    C2 1786   0.058   4.194   0.347  0.7212 -0.5433 -0.3503
  115TMC2    C3 1787   0.162   4.274   0.328  0.0977 -0.5329  0.7275
  115TMC2    C4 1788   4.672   4.389   0.387  0.2578  0.1805  0.0441
  115TMC2    C5 1789   0.040   4.466   0.362 -0.9703  0.5070 -0.5388
  115TMC2    C6 1790   0.157   4.407   0.332 -0.1919 -0.6633  0.3172
  115TMC2     C 1791   4.567   4.177   0.419 -0.2943  0.8607 -0.0673
  115TMC2     O 1792   4.483   4.238   0.479 -0.3302 -0.0799  0.1220
  115TMC2     H 1793   0.083   4.090   0.364 -1.1725 -0.6411  1.8393
  115TMC2    H1 1794   4.578   4.435   0.411  0.2167  0.4206 -0.5745
  115TMC2    H2 1795   0.247   4.468   0.328  2.2581 -4.2629  0.4463
  115TMC2    C7 1796   0.013   4.603   0.337 -0.3637  0.2956  0.4243
  115TMC2    C8 1797   0.293   4.217   0.295  0.2224  0.6919 -0.5964
  115TMC2    O1 1798   4.667   4.647   0.409 -0.5082 -0.2586 -0.0152
  115TMC2    O2 1799   0.399   4.277   0.310  0.1679  0.5662  0.5036
  115TMC2    O5 1800   0.268   4.103   0.214 -0.2669 -0.1237 -0.0142
  115TMC2    H5 1801   0.175   4.077   0.197 -0.5322  0.5981  0.3222
  116MPD2     C 1802   4.284   3.765   0.473 -0.2810 -0.1386  0.0215
  116MPD2    C1 1803   4.398   3.734   0.402  0.6184 -0.0666  0.3313
  116MPD2    C2 1804   4.498   3.823   0.379 -0.2440 -1.1071 -0.1867
  116MPD2    C3 1805   4.475   3.952   0.424  0.7323  0.3171 -0.7112
  116MPD2    C4 1806   4.365   3.987   0.504 -1.0608 -0.5987  0.2407
  116MPD2    C5 1807   4.272   3.890   0.517  0.0465 -0.1542 -0.0754
  116MPD2     H 1808   4.579   3.800   0.311  0.6463 -1.4968  1.0176
  116MPD2    H1 1809   4.335   4.085   0.541  0.5409 -0.8312  2.1871
  116MPD2    H2 1810   4.203   3.697   0.494  1.0377 -1.7716 -0.1573
  116MPD2    H3 1811   4.188   3.909   0.583 -0.9031  0.9475 -1.5927
  116MPD2     N 1812   4.575   4.047   0.383 -0.0368 -0.0799  0.3453
  116MPD2    H5 1813   4.652   4.008   0.329 -1.5001 -0.9255 -1.1352
  116MPD2    N1 1814   4.388   3.604   0.340  0.5977 -0.6091  0.1131
  116MPD2    H7 1815   4.305   3.550   0.363  0.2236 -0.1781 -0.2254
  117TMC2    C1 1816   3.126   0.575  14.238 -0.4322 -0.0880  0.0656
  117TMC2    C2 1817   3.234   0.498  14.248 -0.5974  0.2561 -0.3709
  117TMC2    C3 1818   3.354   0.547  14.285  0.4475 -0.6565  0.6364
  117TMC2    C4 1819   3.133   0.710  14.260 -0.5234  0.2279 -0.7020
  117TMC2    C5 1820   3.260   0.760  14.279  0.0383 -0.6311  0.0310
  117TMC2    C6 1821   3.371   0.687  14.305 -0.1268  0.2836  0.4399
  117TMC2     C 1822   3.035   0.534  14.134 -0.1902  0.0256  0.2658
  117TMC2     O 1823   3.076   0.462  14.048 -0.2499  0.2010  0.0577
  117TMC2     H 1824   3.226   0.395  14.213  1.5189  0.1842 -0.6201
  117TMC2    H1 1825   3.045   0.774  14.263  0.2482  1.2715 -0.5384
  117TMC2    H2 1826   3.468   0.734  14.316  0.6530 -1.5869  1.5073
  117TMC2    C7 1827   3.291   0.904  14.259  0.3070  0.2391 -0.3738
  117TMC2    C8 1828   3.470   0.472  14.238 -0.2479 -0.3510  0.0644
  117TMC2    O1 1829   3.405   0.945  14.295  0.0783 -0.2866  0.1922
  117TMC2    O2 1830   3.452   0.354  14.207 -0.4009  0.2029 -0.0604
  117TMC2    O5 1831   3.537   0.560  14.153  0.8997  0.4257 -0.2290
  117TMC2    H5 1832   3.540   0.648  14.195 -1.3018  0.2620  0.3057
  118MPD2     C 1833   3.110   1.152  14.056  0.3593 -0.1377  0.0233
  118MPD2    C1 1834   3.210   1.106  14.139 -1.0621  0.0284  0.1738
  118MPD2    C2 1835   3.326   1.189  14.163 -0.4350 -0.5406  0.0162
  118MPD2    C3 1836   3.339   1.313  14.094  0.2627 -0.5732 -0.5570
  118MPD2    C4 1837   3.237   1.343  13.998 -0.0687  0.9230  0.0834
  118MPD2    C5 1838   3.127   1.268  13.988  0.0911 -0.4676 -0.4314
  118MPD2     H 1839   3.413   1.167  14.225  1.9011  0.5088 -2.8496
  118MPD2    H1 1840   3.238   1.440  13.950 -0.0330  1.8106  1.8742
  118MPD2    H2 1841   3.021   1.093  14.036  0.0967  1.1540 -2.6694
  118MPD2    H3 1842   3.053   1.303  13.917  0.6020  0.8723 -0.3186
  118MPD2     N 1843   3.447   1.406  14.105 -0.0276 -0.2249 -0.3308
  118MPD2    H5 1844   3.445   1.499  14.064 -1.6817 -1.5699 -3.2046
  118MPD2    N1 1845   3.200   0.974  14.188 -0.6372  0.2105 -0.2802
  118MPD2    H7 1846   3.121   0.916  14.161 -1.8016  0.4255  2.6674
  119TMC2    C1 1847   1.520   1.825  13.278 -1.1171 -0.3434  0.6945
  119TMC2    C2 1848   1.541   1.885  13.154  0.0939  0.6652 -0.2620
  119TMC2    C3 1849   1.458   1.853  13.047 -0.0643 -0.7426 -0.2575
  119TMC2    C4 1850   1.425   1.728  13.300 -0.0979 -0.3668  0.0519
  119TMC2    C5 1851   1.347   1.697  13.195  0.5038  0.2682  0.3372
  119TMC2    C6 1852   1.357   1.764  13.073  0.4228 -0.1314  0.3723
  119TMC2     C 1853   1.612   1.846  13.386  0.0269 -0.2300 -0.4350
  119TMC2     O 1854   1.569   1.829  13.501  0.0457  0.2828  0.5274
  119TMC2     H 1855   1.618   1.960  13.134  0.9278 -0.3604 -0.8869
  119TMC2    H1 1856   1.421   1.676  13.395 -0.4513 -1.4456 -0.5469
  119TMC2    H2 1857   1.281   1.738  13.000 -3.0690  0.5216  3.8065
  119TMC2    C7 1858   1.227   1.619  13.218 -0.2457  0.1575 -0.9121
  119TMC2    C8 1859   1.476   1.906  12.917 -0.2485 -0.5377 -0.1378
  119TMC2    O1 1860   1.162   1.592  13.117  0.0561  0.1956 -0.2218
  119TMC2    O2 1861   1.523   2.014  12.897  0.0007 -0.3330 -0.2019
  119TMC2    O5 1862   1.439   1.820  12.827  0.4962 -0.4306 -0.0392
  119TMC2    H5 1863   1.441   1.736  12.877  1.5224  0.4709  1.4164
  120MPD2     C 1864   2.056   2.008  13.586  0.1615 -0.0800 -0.1709
  120MPD2    C1 1865   1.940   1.958  13.650  0.1878 -0.0250 -0.2013
  120MPD2    C2 1866   1.823   1.940  13.572 -0.5183  0.7285 -0.1725
  120MPD2    C3 1867   1.831   1.954  13.436  0.2234  0.0081  0.8206
  120MPD2    C4 1868   1.947   2.002  13.383  0.3207  0.0135 -0.4809
  120MPD2    C5 1869   2.059   2.036  13.457  0.3921 -0.0573  0.3884
  120MPD2     H 1870   1.734   1.903  13.621  0.3170 -0.4813  0.4313
  120MPD2    H1 1871   1.954   2.028  13.278  0.2504 -0.9149 -0.7152
  120MPD2    H2 1872   2.141   2.035  13.648  1.6684  1.6209 -2.9563
  120MPD2    H3 1873   2.143   2.073  13.400 -1.2769  0.5897 -1.6581
  120MPD2     N 1874   1.729   1.906  13.350 -0.2036 -0.0381 -0.1530
  120MPD2    H5 1875   1.753   1.909  13.251  0.4216  2.9961  0.0706
  120MPD2    N1 1876   1.953   1.935  13.789  0.2737 -0.2249  0.8220
  120MPD2    H7 1877   2.048   1.953  13.818  0.0631  2.8849 -0.3515
  121TMC2    C1 1878   3.151   3.612  14.585  0.3964 -0.0293  0.1047
  121TMC2    C2 1879   3.145   3.634  14.721 -0.2379  0.3129 -0.2196
  121TMC2    C3 1880   3.020   3.629  14.774 -0.5193 -0.2874 -0.5322
  121TMC2    C4 1881   3.042   3.609  14.505  0.3393  0.3154  0.0813
  121TMC2    C5 1882   2.914   3.601  14.555 -0.1830  0.3289 -0.1090
  121TMC2    C6 1883   2.907   3.606  14.695  0.1217 -0.1939 -0.1743
  121TMC2     C 1884   3.277   3.650  14.531 -1.0611  0.0920  0.0769
  121TMC2     O 1885   3.382   3.622  14.586  0.0961  0.6359 -0.0996
  121TMC2     H 1886   3.226   3.676  14.779 -1.0249  1.0755  0.3226
  121TMC2    H1 1887   3.052   3.602  14.397  0.2348 -2.3715  0.2500
  121TMC2    H2 1888   2.825   3.558  14.747 -0.3295 -0.4648 -1.1229
  121TMC2    C7 1889   2.818   3.509  14.495  0.6319  0.1845  0.2138
  121TMC2    C8 1890   3.021   3.653  14.918 -0.7978 -0.4767  0.0475
  121TMC2    O1 1891   2.862   3.405  14.446 -0.4862 -0.4749 -0.6408
  121TMC2    O2 1892   3.116   3.654  14.991 -0.5562  0.5085  0.4025
  121TMC2    O5 1893   2.911   3.732  14.931  0.7957  0.8827  0.1128
  121TMC2    H5 1894   2.846   3.728  14.858  2.7515  0.4267 -1.5983
  122MPD2     C 1895   3.504   3.714  14.347  0.6949 -0.4616 -0.2224
  122MPD2    C1 1896   3.370   3.757  14.326  0.2862 -0.6815  0.6203
  122MPD2    C2 1897   3.345   3.845  14.228  0.0861  0.6366 -0.6896
  122MPD2    C3 1898   3.445   3.889  14.148 -0.6786  0.1372  0.0051
  122MPD2    C4 1899   3.578   3.846  14.168 -0.5063 -0.1910 -0.6753
  122MPD2    C5 1900   3.606   3.755  14.268 -0.4445  0.1385  0.7011
  122MPD2     H 1901   3.244   3.883  14.215 -0.0783  0.0865 -0.9913
  122MPD2    H1 1902   3.657   3.875  14.099 -0.8420  2.0755 -0.1088
  122MPD2    H2 1903   3.535   3.644  14.424  0.0978 -1.6170 -1.0265
  122MPD2    H3 1904   3.710   3.726  14.280 -0.4023  0.4454  1.0664
  122MPD2     N 1905   3.422   3.993  14.055  0.3106  0.4916  0.1447
  122MPD2    H5 1906   3.509   4.027  14.014  0.1963 -0.2478 -0.6835
  122MPD2    N1 1907   3.265   3.713  14.408 -0.4036 -0.2029  0.1585
  122MPD2    H7 1908   3.170   3.743  14.388 -0.3854  0.1682  0.6404
  123TMC2    C1 1909   1.314   1.298  10.825 -0.0912  0.1464 -0.4289
  123TMC2    C2 1910   1.259   1.419  10.845 -0.1652 -0.0741 -0.2507
  123TMC2    C3 1911   1.313   1.530  10.772  0.6983  0.0011 -0.0685
  123TMC2    C4 1912   1.431   1.285  10.753  0.1530  0.2567 -0.2045
  123TMC2    C5 1913   1.495   1.398  10.691 -0.1943 -0.0321  0.2059
  123TMC2    C6 1914   1.437   1.525  10.710 -0.7678 -0.9248 -1.1960
  123TMC2     C 1915   1.246   1.173  10.849  0.3127 -0.0170  1.1472
  123TMC2     O 1916   1.162   1.179  10.940 -0.1511 -0.0857 -0.0219
  123TMC2     H 1917   1.161   1.425  10.892 -0.7677  1.3347 -1.6724
  123TMC2    H1 1918   1.475   1.187  10.743 -0.0694  0.4113 -2.6399
  123TMC2    H2 1919   1.474   1.614  10.660  3.0403 -1.9755 -0.2668
  123TMC2    C7 1920   1.599   1.371  10.586  0.3422 -0.9909 -0.1975
  123TMC2    C8 1921   1.251   1.659  10.765 -0.4442  1.0679 -0.1418
  123TMC2    O1 1922   1.628   1.255  10.582  0.2540 -0.5753 -0.2831
  123TMC2    O2 1923   1.317   1.761  10.774 -0.0416 -0.4455 -0.3788
  123TMC2    O5 1924   1.120   1.650  10.749  0.1487  0.1191 -0.1998
  123TMC2    H5 1925   1.086   1.562  10.723  1.0342 -0.3101  0.0995
  124MPD2     C 1926   1.047   0.742  10.648  0.4733 -0.5208 -0.1664
  124MPD2    C1 1927   1.145   0.794  10.565 -0.5356 -0.2153 -0.4929
  124MPD2    C2 1928   1.222   0.897  10.607  0.4594 -0.5207  0.0860
  124MPD2    C3 1929   1.196   0.967  10.728  0.5686  0.2912 -0.5778
  124MPD2    C4 1930   1.100   0.911  10.805 -0.0327 -0.0554  0.5403
  124MPD2    C5 1931   1.032   0.797  10.774  0.0257  0.0795  0.3574
  124MPD2     H 1932   1.291   0.955  10.547 -0.7434 -0.3566 -1.1568
  124MPD2    H1 1933   1.079   0.952  10.904  0.6847 -1.6438  1.3623
  124MPD2    H2 1934   0.980   0.666  10.610 -1.9351  1.5677 -0.0582
  124MPD2    H3 1935   0.957   0.749  10.835 -2.4605  0.9449 -1.9973
  124MPD2     N 1936   1.261   1.091  10.744 -0.6958  0.8858 -0.3122
  124MPD2    H5 1937   1.306   1.135  10.664 -2.6049  0.5699 -1.5809
  124MPD2    N1 1938   1.170   0.725  10.441  0.5277 -0.0243  0.4105
  124MPD2    H7 1939   1.098   0.656  10.420 -0.5008  1.8412 -2.2517
  125TMC2    C1 1940   2.505   2.328   9.869  0.4481  0.0831  1.1297
  125TMC2    C2 1941   2.537   2.455   9.834  0.5141  0.5374  0.2248
  125TMC2    C3 1942   2.571   2.483   9.700 -0.6787 -0.8277 -0.1773
  125TMC2    C4 1943   2.523   2.228   9.779  0.0131  0.5398  0.2759
  125TMC2    C5 1944   2.569   2.256   9.653  0.0172  0.7156  0.0234
  125TMC2    C6 1945   2.585   2.380   9.606  0.7218 -0.3044 -0.4452
  125TMC2     C 1946   2.440   2.317   9.993 -0.7446 -0.7934  0.1449
  125TMC2     O 1947   2.407   2.418  10.052  0.2492 -0.0578 -0.0999
  125TMC2     H 1948   2.549   2.530   9.911  2.1074  2.5490 -1.9943
  125TMC2    H1 1949   2.476   2.136   9.812 -0.0279  0.0502 -1.1034
  125TMC2    H2 1950   2.635   2.400   9.512  1.9260  3.5464  0.9966
  125TMC2    C7 1951   2.577   2.147   9.566  0.4227  0.3060 -0.7876
  125TMC2    C8 1952   2.628   2.615   9.668  0.0918  0.4237  0.1951
  125TMC2    O1 1953   2.498   2.053   9.583 -0.2424 -0.3002  0.5039
  125TMC2    O2 1954   2.719   2.628   9.588 -0.3325 -0.7377  0.4505
  125TMC2    O5 1955   2.579   2.709   9.749  0.6174 -0.0233  0.1243
  125TMC2    H5 1956   2.492   2.690   9.791  0.4680 -0.5407 -0.4182
  126MPD1     C 1957   2.172   2.074  10.341  0.5765 -0.2169 -0.5280
  126MPD1    C1 1958   2.240   1.984  10.266  0.4447 -0.0243  0.5626
  126MPD1    C2 1959   2.313   2.025  10.169 -0.2038  0.3612  0.0457
  126MPD1    C3 1960   2.338   2.163  10.157  0.8660 -0.0866  0.6341
  126MPD1    C4 1961   2.293   2.254  10.248 -0.6199 -0.1344 -0.4493
  126MPD1    C5 1962   2.202   2.208  10.343 -0.4638 -0.2058  0.2886
  126MPD1     H 1963   2.353   1.955  10.097  1.6009  0.5314  0.8633
  126MPD1    H1 1964   2.296   2.360  10.228 -0.5019  0.1674  1.1154
  126MPD1    H2 1965   2.109   2.032  10.419 -1.6016  2.8882 -0.6176
  126MPD1    H3 1966   2.158   2.278  10.413 -0.8375  0.7855 -0.9260
  126MPD1     N 1967   2.404   2.190  10.035  0.3991  0.1699 -0.3294
  126MPD1    H5 1968   2.428   2.111   9.976  0.5140  2.6506 -3.5809
  126MPD1    N1 1969   2.213   1.851  10.271 -0.5772  0.2435  0.6326
  126MPD1    H6 1970   2.164   1.825  10.356  0.4816 -2.2403  0.4971
  126MPD1    H7 1971   2.297   1.798  10.248 -0.4121  0.3365  1.0169
  127TMC2    C1 1972   3.461   1.730   9.756  0.0979 -0.0015  0.5007
  127TMC2    C2 1973   3.499   1.641   9.855 -0.4342 -0.7386  0.6129
  127TMC2    C3 1974   3.443   1.520   9.856 -0.1114  0.6256  0.6060
  127TMC2    C4 1975   3.376   1.697   9.655  0.2119 -0.0035 -0.1783
  127TMC2    C5 1976   3.316   1.576   9.659 -0.6193 -0.0800 -0.0922
  127TMC2    C6 1977   3.347   1.483   9.758  0.5884  0.2467  0.3878
  127TMC2     C 1978   3.504   1.871   9.768 -0.1191  0.2357 -0.5679
  127TMC2     O 1979   3.521   1.935   9.665  0.6024 -0.0959  0.3401
  127TMC2     H 1980   3.578   1.664   9.925  1.1169  0.1124 -1.4021
  127TMC2    H1 1981   3.358   1.780   9.587 -0.4764  0.9396  1.1667
  127TMC2    H2 1982   3.297   1.387   9.771 -0.0718  0.9008  2.6906
  127TMC2    C7 1983   3.178   1.576   9.622  0.1307 -0.4005  0.0283
  127TMC2    C8 1984   3.464   1.439   9.971  0.2279  0.1758 -0.1632
  127TMC2    O1 1985   3.146   1.679   9.560 -0.5094  0.2231 -0.5019
  127TMC2    O2 1986   3.380   1.355  10.009 -0.8407  0.1404  0.0773
  127TMC2    O5 1987   3.592   1.428   9.993  0.0381  0.6217 -0.0674
  127TMC2    H5 1988   3.641   1.478   9.924 -0.3659 -2.0856 -2.3366
  128MPD2     C 1989   3.614   2.018  10.081 -1.0194  0.7326  0.1044
  128MPD2    C1 1990   3.584   2.023   9.955 -0.0352 -0.2708  0.0351
  128MPD2    C2 1991   3.618   2.145   9.888  0.0516 -0.0155 -0.0130
  128MPD2    C3 1992   3.685   2.245   9.951  0.2400  0.7404  0.5043
  128MPD2    C4 1993   3.706   2.235  10.080  0.4138 -0.1896 -0.5504
  128MPD2    C5 1994   3.657   2.125  10.151 -0.5679 -0.2418  0.3381
  128MPD2     H 1995   3.598   2.153   9.782  1.1276 -0.8124 -0.2830
  128MPD2    H1 1996   3.757   2.308  10.142  0.2060 -2.0864  1.8249
  128MPD2    H2 1997   3.592   1.926  10.134  0.1280  0.2870 -0.1759
  128MPD2    H3 1998   3.682   2.120  10.256 -2.0180  2.8260  0.8283
  128MPD2     N 1999   3.709   2.374   9.886 -0.3969 -0.8813 -0.2582
  128MPD2    H5 2000   3.684   2.379   9.788 -0.1074 -0.7687 -0.3268
  128MPD2    N1 2001   3.521   1.909   9.897 -0.1584 -0.3089 -0.3364
  128MPD2    H7 2002   3.484   1.843   9.965  1.1237 -0.5685  0.1070
  129TMC2    C1 2003   2.383   3.044   0.961  0.0842 -0.3406 -0.4310
  129TMC2    C2 2004   2.521   3.053   0.957 -0.1314  0.9195 -0.5969
  129TMC2    C3 2005   2.594   2.988   1.052  0.3762 -0.8089  0.0427
  129TMC2    C4 2006   2.315   2.983   1.061 -0.0166 -0.2753 -0.5830
  129TMC2    C5 2007   2.394   2.931   1.162 -0.0285 -0.1451 -0.0552
  129TMC2    C6 2008   2.526   2.944   1.162 -0.7332 -0.4071 -0.7994
  129TMC2     C 2009   2.300   3.140   0.889 -0.0007  0.0145  0.1341
  129TMC2     O 2010   2.188   3.103   0.872  0.1384  0.4169 -0.6548
  129TMC2     H 2011   2.561   3.092   0.865 -1.9379 -0.6409 -2.0358
  129TMC2    H1 2012   2.207   2.975   1.063 -0.1036  0.1057 -3.4291
  129TMC2    H2 2013   2.576   2.899   1.247 -1.2574 -1.4890 -1.0751
  129TMC2    C7 2014   2.327   2.843   1.261 -0.3984 -0.9239  0.2932
  129TMC2    C8 2015   2.739   2.994   1.039  0.1229  0.0649  0.4321
  129TMC2    O1 2016   2.206   2.848   1.265 -0.2744  0.4295  0.5329
  129TMC2    O2 2017   2.796   3.084   0.979  0.6434  0.1408 -0.3991
  129TMC2    O5 2018   2.790   2.888   1.102 -0.4482 -0.1904  0.0208
  129TMC2    H5 2019   2.726   2.815   1.118  1.2247 -1.3712  1.2620
  130MPD2     C 2020   2.222   3.324   0.667 -0.0180 -0.2044 -0.3680
  130MPD2    C1 2021   2.328   3.345   0.752 -0.2196  0.4680  0.0400
  130MPD2    C2 2022   2.407   3.462   0.752 -0.0159  0.5020 -0.1849
  130MPD2    C3 2023   2.374   3.552   0.658 -0.4072 -0.3391 -0.1447
  130MPD2    C4 2024   2.266   3.536   0.576 -0.0064 -0.6912  0.1017
  130MPD2    C5 2025   2.190   3.419   0.573  0.3302  0.2377  0.7674
  130MPD2     H 2026   2.491   3.475   0.819  0.0751  2.5533 -0.7056
  130MPD2    H1 2027   2.242   3.613   0.503  2.2890  0.4926  0.5920
  130MPD2    H2 2028   2.166   3.231   0.658  0.0813 -0.1286 -1.7899
  130MPD2    H3 2029   2.103   3.398   0.511  1.9956 -0.1073 -1.4168
  130MPD2     N 2030   2.454   3.664   0.654 -0.3359  0.0358  0.4401
  130MPD2    H5 2031   2.511   3.682   0.736  0.8977  0.0851 -0.4399
  130MPD2    N1 2032   2.371   3.243   0.842 -0.5333 -0.1410  0.6846
  130MPD2    H7 2033   2.452   3.264   0.899  1.7378 -1.5768 -1.9966
  131TMC2    C1 2034   1.928   1.262   9.783 -0.2673 -0.2943 -0.0751
  131TMC2    C2 2035   1.928   1.381   9.853 -0.0094 -0.4204  0.0267
  131TMC2    C3 2036   2.028   1.469   9.815 -0.4077 -0.4838  0.8705
  131TMC2    C4 2037   2.015   1.234   9.679  0.7625 -0.0117  0.6857
  131TMC2    C5 2038   2.106   1.326   9.644 -0.2833 -1.0581 -0.1735
  131TMC2    C6 2039   2.117   1.447   9.713 -0.0390  0.6106 -0.2871
  131TMC2     C 2040   1.825   1.167   9.810 -0.0784  0.6323  0.1452
  131TMC2     O 2041   1.761   1.183   9.912 -0.5475 -0.0512  0.2008
  131TMC2     H 2042   1.880   1.390   9.950  0.7639 -0.0221  0.3754
  131TMC2    H1 2043   2.013   1.138   9.627  0.2308  2.3816 -3.7014
  131TMC2    H2 2044   2.194   1.522   9.701  1.6987 -1.0231  0.7352
  131TMC2    C7 2045   2.177   1.315   9.519  0.0364  0.0030 -0.2616
  131TMC2    C8 2046   2.021   1.599   9.873  0.2156 -0.3668  0.0300
  131TMC2    O1 2047   2.192   1.205   9.470 -0.0483 -0.4665  0.8143
  131TMC2    O2 2048   2.111   1.651   9.940  0.0170  0.4921  0.3734
  131TMC2    O5 2049   1.898   1.626   9.897 -0.0270 -0.3236 -0.1833
  131TMC2    H5 2050   1.829   1.566   9.859 -0.8547  0.2444  0.4195
  132MPD2     C 2051   1.724   0.892   9.582 -0.3134  0.1677 -0.0370
  132MPD2    C1 2052   1.719   0.962   9.702  0.3661  0.5851 -0.9057
  132MPD2    C2 2053   1.629   0.930   9.798 -0.1606 -0.8076  0.2159
  132MPD2    C3 2054   1.553   0.815   9.779 -0.3676  0.2975  0.1021
  132MPD2    C4 2055   1.555   0.746   9.662  0.4968  0.1162  0.2455
  132MPD2    C5 2056   1.637   0.789   9.558  0.1680  0.2132 -0.3456
  132MPD2     H 2057   1.632   0.988   9.890  0.0141 -0.8732  0.2505
  132MPD2    H1 2058   1.497   0.655   9.649  0.9314 -0.1168 -0.0650
  132MPD2    H2 2059   1.795   0.912   9.503  0.3185 -1.6555  0.0519
  132MPD2    H3 2060   1.631   0.742   9.461 -0.8143 -2.0467  0.8265
  132MPD2     N 2061   1.468   0.781   9.885 -0.2818 -0.1655  0.2587
  132MPD2    H5 2062   1.484   0.828   9.974  3.8263 -0.5921 -0.2425
  132MPD2    N1 2063   1.816   1.066   9.712  0.2315 -0.0843  0.4347
  132MPD2    H7 2064   1.878   1.084   9.634 -0.1038  0.6535  0.3331
  133TMC2    C1 2065   1.329   2.599  10.442  0.0321  0.3286  0.0742
  133TMC2    C2 2066   1.462   2.595  10.422 -0.4452 -0.6582 -0.3198
  133TMC2    C3 2067   1.532   2.710  10.426 -0.0151 -0.4760 -0.3631
  133TMC2    C4 2068   1.267   2.720  10.478 -0.3829 -0.3613 -0.5839
  133TMC2    C5 2069   1.350   2.828  10.500  0.3486 -0.5003  0.3321
  133TMC2    C6 2070   1.483   2.822  10.474  0.5270  0.0426  0.5435
  133TMC2     C 2071   1.255   2.494  10.382 -0.7212 -0.0905 -0.5829
  133TMC2     O 2072   1.303   2.433  10.284 -0.1525  0.3164  0.3116
  133TMC2     H 2073   1.503   2.500  10.388  0.9921 -0.5260  1.0527
  133TMC2    H1 2074   1.160   2.718  10.491 -0.4385 -1.9031 -1.3070
  133TMC2    H2 2075   1.549   2.901  10.508  0.2891 -0.5594  2.3883
  133TMC2    C7 2076   1.310   2.929  10.602  0.2043 -0.4500  0.2436
  133TMC2    C8 2077   1.667   2.699  10.402  0.4752 -0.1093  0.1129
  133TMC2    O1 2078   1.403   2.998  10.639 -0.0795 -0.2589 -0.3084
  133TMC2    O2 2079   1.727   2.594  10.397 -0.1121  0.6694 -0.1541
  133TMC2    O5 2080   1.724   2.814  10.360 -0.1486 -0.3510  0.6052
  133TMC2    H5 2081   1.659   2.887  10.352  0.3308 -0.3626 -3.5267
  134MPD2     C 2082   0.900   2.439  10.479 -0.3776 -0.7855 -0.1258
  134MPD2    C1 2083   1.013   2.430  10.405  0.0652 -0.6413 -0.0821
  134MPD2    C2 2084   1.002   2.361  10.283 -0.0213 -0.1137  0.2597
  134MPD2    C3 2085   0.883   2.311  10.240 -0.3946  0.4213  0.2077
  134MPD2    C4 2086   0.772   2.320  10.324 -0.0198  0.1017  1.2102
  134MPD2    C5 2087   0.780   2.386  10.442  0.0865 -0.5604  0.7498
  134MPD2     H 2088   1.092   2.345  10.224 -0.5499  2.1686 -1.1491
  134MPD2    H1 2089   0.678   2.274  10.295  0.0446  0.3963  0.5362
  134MPD2    H2 2090   0.898   2.510  10.562 -2.0299 -1.0912  0.0838
  134MPD2    H3 2091   0.693   2.407  10.505 -0.8899 -3.9707  0.5463
  134MPD2     N 2092   0.872   2.242  10.112  0.1929 -0.1703 -0.3963
  134MPD2    H5 2093   0.783   2.197  10.093 -0.0277  0.4090 -0.7508
  134MPD2    N1 2094   1.134   2.490  10.447 -0.6489  0.1226  0.0578
  134MPD2    H7 2095   1.139   2.526  10.542  1.9088 -0.9939  0.3233
  135TMC2    C1 2096   2.750   3.419   9.875 -0.5591 -0.1697 -0.5630
  135TMC2    C2 2097   2.823   3.511   9.938  0.5547  0.2312 -0.6834
  135TMC2    C3 2098   2.760   3.606  10.013 -0.6576 -0.3334 -0.0291
  135TMC2    C4 2099   2.613   3.407   9.902  0.1958  0.6222 -0.0788
  135TMC2    C5 2100   2.553   3.501   9.982 -0.2159  0.2695  0.6377
  135TMC2    C6 2101   2.623   3.608  10.027  0.8672  0.6444  0.3783
  135TMC2     C 2102   2.794   3.351   9.759 -0.3853 -0.3901 -0.8028
  135TMC2     O 2103   2.737   3.245   9.738  0.0720 -0.1010 -0.5627
  135TMC2     H 2104   2.930   3.514   9.920  0.5290 -0.3248 -0.9273
  135TMC2    H1 2105   2.554   3.336   9.845 -0.1968  0.1521  0.9052
  135TMC2    H2 2106   2.577   3.683  10.090 -1.1185  0.1424 -0.4701
  135TMC2    C7 2107   2.406   3.525   9.972  0.2299 -0.0520  0.0063
  135TMC2    C8 2108   2.833   3.688  10.105 -0.5784  0.5416  0.2417
  135TMC2    O1 2109   2.382   3.642   9.948 -0.8106 -0.1008 -0.1985
  135TMC2    O2 2110   2.789   3.786  10.158  0.3833  0.0525 -0.9688
  135TMC2    O5 2111   2.945   3.625  10.141 -0.1575  0.0742  0.0959
  135TMC2    H5 2112   2.968   3.537  10.105  0.1747 -0.2570  1.1410
  136MPD2     C 2113   2.878   3.284   9.487  0.1992  0.0414 -0.3029
  136MPD2    C1 2114   2.924   3.392   9.555 -0.2765 -0.3934 -0.3468
  136MPD2    C2 2115   3.026   3.469   9.508 -0.2026  0.5588 -0.8629
  136MPD2    C3 2116   3.078   3.446   9.381 -0.5193 -0.5202  0.1138
  136MPD2    C4 2117   3.033   3.334   9.314 -0.2289 -0.2983  0.1228
  136MPD2    C5 2118   2.924   3.269   9.358 -0.0441 -1.0088  0.2867
  136MPD2     H 2119   3.060   3.555   9.566 -0.5842  0.7134 -0.8681
  136MPD2    H1 2120   3.071   3.307   9.216  0.8788  2.3159 -0.1670
  136MPD2    H2 2121   2.801   3.217   9.524  2.5062 -1.2913  2.1012
  136MPD2    H3 2122   2.881   3.198   9.288 -2.4011 -0.3138  1.0199
  136MPD2     N 2123   3.188   3.511   9.326 -0.4570 -1.0296 -0.0771
  136MPD2    H5 2124   3.223   3.470   9.240 -0.0955 -0.7380 -0.0674
  136MPD2    N1 2125   2.883   3.422   9.689  0.6055 -0.3524  0.1839
  136MPD2    H7 2126   2.910   3.516   9.718 -1.7411 -0.4871  2.7385
  137TMC2    C1 2127   3.195   2.597   9.396 -0.2140  0.1697  0.2279
  137TMC2    C2 2128   3.294   2.686   9.379 -0.8672  0.4930  0.1195
  137TMC2    C3 2129   3.342   2.701   9.250 -0.0071 -0.1136 -0.0406
  137TMC2    C4 2130   3.129   2.539   9.289 -0.2707  0.1351  0.7848
  137TMC2    C5 2131   3.188   2.554   9.162 -0.1532  0.9170 -1.0082
  137TMC2    C6 2132   3.296   2.630   9.141  0.3569 -0.3355 -0.1961
  137TMC2     C 2133   3.147   2.559   9.530 -0.3827  0.8972 -0.1571
  137TMC2     O 2134   3.190   2.624   9.625  0.9017 -0.4913  0.0783
  137TMC2     H 2135   3.344   2.726   9.466  0.9111 -0.0008 -0.6702
  137TMC2    H1 2136   3.043   2.474   9.300 -1.2007  1.4717  1.4820
  137TMC2    H2 2137   3.346   2.630   9.044  1.3059 -1.6171  0.2858
  137TMC2    C7 2138   3.111   2.497   9.051 -0.6792  0.2278  0.1023
  137TMC2    C8 2139   3.444   2.800   9.229  0.3873  0.2590  0.4466
  137TMC2    O1 2140   3.168   2.508   8.943 -0.1520 -0.0468 -0.1869
  137TMC2    O2 2141   3.509   2.847   9.321 -0.1286  1.4344 -0.2592
  137TMC2    O5 2142   3.414   2.856   9.118  0.6161  0.2051 -0.2224
  137TMC2    H5 2143   3.350   2.804   9.065  0.9123 -1.6560  1.2332
  138MPD2     C 2144   2.964   2.247   9.617  0.7437 -0.2489  0.2220
  138MPD2    C1 2145   3.012   2.376   9.637 -0.1579 -0.3644 -0.6448
  138MPD2    C2 2146   2.989   2.440   9.759 -0.1834  0.0400  0.3988
  138MPD2    C3 2147   2.919   2.369   9.858  0.0481 -0.3570  0.3133
  138MPD2    C4 2148   2.865   2.246   9.828  0.6784 -0.2069  0.0692
  138MPD2    C5 2149   2.892   2.179   9.709 -0.3835 -0.7970  0.5743
  138MPD2     H 2150   3.035   2.536   9.781  1.0424 -0.7611  1.3344
  138MPD2    H1 2151   2.800   2.185   9.889  1.3862 -0.8929  0.1446
  138MPD2    H2 2152   2.984   2.196   9.523 -2.4045  0.1574 -0.6695
  138MPD2    H3 2153   2.855   2.078   9.697 -0.0206 -0.7409 -0.9957
  138MPD2     N 2154   2.898   2.434   9.984  0.2658 -0.6208 -0.0583
  138MPD2    H5 2155   2.950   2.521   9.991  2.0221 -1.6441 -0.2561
  138MPD2    N1 2156   3.081   2.439   9.529  0.4060  0.3681  0.4087
  138MPD2    H7 2157   3.072   2.398   9.437 -1.2570  0.8090  0.3655
  139TMC2    C1 2158   2.335   1.157  13.514  0.0645 -0.2768  0.1551
  139TMC2    C2 2159   2.356   1.191  13.388 -0.7630  0.5109 -0.8382
  139TMC2    C3 2160   2.274   1.284  13.329  0.5495 -0.2546 -0.7332
  139TMC2    C4 2161   2.233   1.218  13.580 -0.8476  0.8964 -0.5875
  139TMC2    C5 2162   2.152   1.312  13.517  0.7091  0.3964 -0.7865
  139TMC2    C6 2163   2.173   1.351  13.389 -0.1955 -0.1183 -0.6476
  139TMC2     C 2164   2.423   1.062  13.579 -0.3421  0.4407  0.2213
  139TMC2     O 2165   2.485   0.991  13.509 -0.5414 -0.3545  0.0594
  139TMC2     H 2166   2.440   1.152  13.331  1.0126 -1.6678  3.2563
  139TMC2    H1 2167   2.198   1.188  13.678  1.1727  3.0213  0.7870
  139TMC2    H2 2168   2.124   1.441  13.353 -0.2399  0.2669  0.3573
  139TMC2    C7 2169   2.105   1.419  13.604  0.1861 -0.6553 -0.2133
  139TMC2    C8 2170   2.299   1.309  13.196  0.4433 -0.1545 -0.0950
  139TMC2    O1 2171   2.112   1.536  13.565 -0.5552  0.0918 -0.0508
  139TMC2    O2 2172   2.402   1.271  13.144 -0.4396  0.4802 -0.3185
  139TMC2    O5 2173   2.174   1.315  13.138 -0.6475 -0.0199 -0.3455
  139TMC2    H5 2174   2.100   1.291  13.198 -0.8062  1.6735  0.1405
  140MPD2     C 2175   2.511   1.041  13.938  0.2939  1.0547 -0.1156
  140MPD2    C1 2176   2.528   1.023  13.803  0.1586  0.2538 -0.3806
  140MPD2    C2 2177   2.650   0.961  13.768 -0.5955  0.2183 -0.3631
  140MPD2    C3 2178   2.747   0.935  13.865 -1.0101  0.3872  0.3430
  140MPD2    C4 2179   2.718   0.936  14.001  0.1732  0.1558 -0.3463
  140MPD2    C5 2180   2.602   0.995  14.030 -0.0396  0.3525  0.0091
  140MPD2     H 2181   2.678   0.941  13.665 -3.3978 -0.0282 -1.0896
  140MPD2    H1 2182   2.786   0.907  14.081 -2.7392  0.1406  2.1488
  140MPD2    H2 2183   2.425   1.083  13.988 -0.2237 -0.4215  0.2348
  140MPD2    H3 2184   2.566   0.999  14.132  0.1416  0.2480  0.0789
  140MPD2     N 2185   2.878   0.902  13.820 -0.6071 -0.2528  0.2966
  140MPD2    H5 2186   2.890   0.901  13.719  1.9849  1.3630  0.5699
  140MPD2    N1 2187   2.431   1.083  13.714 -0.4169 -0.5331  0.3463
  140MPD2    H7 2188   2.385   1.164  13.753 -0.4821 -0.4712  0.1425
  141TMC2    C1 2189   3.700   2.560  13.989  0.0471 -0.0646 -0.0730
  141TMC2    C2 2190   3.762   2.484  14.081 -0.3804  0.5280  0.0045
  141TMC2    C3 2191   3.758   2.529  14.209  0.0359  0.4285 -0.2803
  141TMC2    C4 2192   3.630   2.678  14.011 -0.1463 -0.5129 -0.3761
  141TMC2    C5 2193   3.636   2.722  14.140 -0.0257  0.0467  0.4947
  141TMC2    C6 2194   3.700   2.649  14.236 -0.0433 -0.0632  0.2812
  141TMC2     C 2195   3.743   2.549  13.848  0.2444 -0.3889 -0.9500
  141TMC2     O 2196   3.770   2.652  13.787  0.0158  0.1569  0.5659
  141TMC2     H 2197   3.815   2.394  14.052  1.7517  1.9862 -0.6181
  141TMC2    H1 2198   3.610   2.746  13.929 -0.6437 -2.0322 -1.5112
  141TMC2    H2 2199   3.699   2.688  14.337 -0.6751 -0.3737  0.3919
  141TMC2    C7 2200   3.633   2.867  14.145 -0.0429 -0.5189 -0.0647
  141TMC2    C8 2201   3.855   2.498  14.315 -0.2417  0.7374  0.2588
  141TMC2    O1 2202   3.590   2.928  14.047  0.0330 -0.5362 -0.3932
  141TMC2    O2 2203   3.924   2.588  14.355 -0.5946 -0.4632 -0.0254
  141TMC2    O5 2204   3.904   2.376  14.279 -0.0315  0.1195 -0.5488
  141TMC2    H5 2205   3.832   2.309  14.279  1.0616 -1.0644 -1.2675
  142TMC2    C1 2206   1.851   0.784  10.021 -0.2993  0.4097  0.2087
  142TMC2    C2 2207   1.946   0.801   9.931  0.4923  0.7752 -0.9408
  142TMC2    C3 2208   2.023   0.913   9.943  0.8237 -0.3589  0.1322
  142TMC2    C4 2209   1.843   0.876  10.120 -0.1521  0.2382 -0.2586
  142TMC2    C5 2210   1.916   0.988  10.122  0.3015 -0.3497 -0.3952
  142TMC2    C6 2211   2.011   1.010  10.031  0.3775  0.5596  0.5049
  142TMC2     C 2212   1.780   0.655  10.025 -0.4849  0.9008 -0.3752
  142TMC2     O 2213   1.811   0.567   9.947 -0.1741 -0.1323  0.4922
  142TMC2     H 2214   1.980   0.731   9.856 -1.5537  0.4102 -1.5239
  142TMC2    H1 2215   1.777   0.852  10.202 -1.1604 -2.0600 -1.7387
  142TMC2    H2 2216   2.083   1.091  10.034 -0.8884  1.7048 -0.0964
  142TMC2    C7 2217   1.867   1.096  10.209  0.5379  0.7235 -0.0101
  142TMC2    C8 2218   2.140   0.903   9.854 -0.4590  0.3899  0.7640
  142TMC2    O1 2219   1.759   1.068  10.260  0.1298  0.4986 -0.1647
  142TMC2    O2 2220   2.137   0.870   9.736 -0.2235 -0.0445 -0.1187
  142TMC2    O5 2221   2.243   0.894   9.939 -0.8360 -0.0172 -0.4392
  142TMC2    H5 2222   2.206   0.907  10.030  2.8269  0.0923  1.0181
  143MPD2     C 2223   1.495   0.317  10.290  0.2568  0.5587  0.5500
  143MPD2    C1 2224   1.579   0.289  10.180  0.0224  0.5644 -0.2791
  143MPD2    C2 2225   1.643   0.395  10.118  0.4346 -0.0275  0.6678
  143MPD2    C3 2226   1.624   0.527  10.170 -0.2718  0.2938  0.0617
  143MPD2    C4 2227   1.539   0.543  10.275 -0.0299  0.1543  0.1661
  143MPD2    C5 2228   1.481   0.438  10.337  0.6913  0.2814 -0.0177
  143MPD2     H 2229   1.709   0.370  10.036  0.8448 -0.3645  1.1003
  143MPD2    H1 2230   1.523   0.642  10.317 -0.4386  0.5940 -1.0363
  143MPD2    H2 2231   1.446   0.242  10.350 -0.7771  0.7549 -0.0579
  143MPD2    H3 2232   1.423   0.454  10.426 -0.9861 -0.1833 -1.0360
  143MPD2     N 2233   1.687   0.642  10.127 -0.5154  0.1162  0.0892
  143MPD2    H5 2234   1.655   0.725  10.175  2.3586  1.8589 -1.0309
  143MPD2    N1 2235   1.586   0.149  10.142  0.2521 -0.3840  0.0281
  143MPD2    H7 2236   1.529   0.089  10.201  0.3621 -0.0315  0.4986
  144TMC2    C1 2237   4.581   0.986   0.948  0.1532  0.0903 -0.2519
  144TMC2    C2 2238   4.625   0.904   0.843 -0.6740  0.9201 -0.0154
  144TMC2    C3 2239   0.017   0.872   0.841  0.0700  0.7429 -0.2922
  144TMC2    C4 2240   4.665   1.035   1.049  0.7083  0.2852  0.4746
  144TMC2    C5 2241   0.055   0.991   1.047 -0.0447  0.3316  0.0345
  144TMC2    C6 2242   0.102   0.907   0.942  0.6665 -0.3883 -0.2513
  144TMC2     C 2243   4.445   1.033   0.943  0.5630  0.2515 -0.0745
  144TMC2     O 2244   4.359   0.956   0.907  0.0124  0.0196 -0.0090
  144TMC2     H 2245   4.555   0.868   0.769 -0.6553 -0.1933  0.5051
  144TMC2    H1 2246   4.625   1.083   1.137 -0.0193  2.0113 -0.8008
  144TMC2    H2 2247   0.208   0.888   0.930  1.4306  2.5873  1.9839
  144TMC2    C7 2248   0.140   1.005   1.170  0.0463  0.0016 -0.4111
  144TMC2    C8 2249   0.080   0.798   0.728  0.7113  0.4002  0.7842
  144TMC2    O1 2250   0.241   0.939   1.177 -0.0871 -0.6602 -0.1825
  144TMC2    O2 2251   0.163   0.713   0.744  0.5878  0.8266 -0.1831
  144TMC2    O5 2252   0.056   0.869   0.617  0.5926 -0.5807 -0.5958
  144TMC2    H5 2253   0.002   0.948   0.637  0.4157 -1.1051  0.9953
  145MPD2     C 2254   4.104   1.422   0.969  0.1038  0.0177 -0.0709
  145MPD2    C1 2255   4.088   1.283   0.946  0.3905 -0.2455 -0.8205
  145MPD2    C2 2256   4.197   1.198   0.955 -0.1741 -0.1259 -0.2743
  145MPD2    C3 2257   4.323   1.258   0.970  0.1394 -0.2378 -0.4559
  145MPD2    C4 2258   4.332   1.391   0.994  0.2625 -0.1744 -0.2531
  145MPD2    C5 2259   4.222   1.477   1.005  0.1072 -0.0777 -0.8277
  145MPD2     H 2260   4.184   1.093   0.933  1.3427 -0.5167  0.7183
  145MPD2    H1 2261   4.427   1.436   1.021  0.2517 -0.5766  0.4661
  145MPD2    H2 2262   4.017   1.487   0.968 -0.1131 -0.3142 -1.6598
  145MPD2    H3 2263   4.237   1.584   1.008 -0.2675 -0.0723  1.0516
  145MPD2     N 2264   4.440   1.172   0.971  0.0899 -0.4005  0.1977
  145MPD2    H5 2265   4.534   1.210   0.974  0.2109 -0.8285  1.8029
  145MPD2    N1 2266   3.959   1.231   0.924  0.4109 -0.7188 -0.0564
  145MPD2    H7 2267   3.959   1.132   0.905  1.8083 -0.1683 -2.9604
  146TMC2    C1 2268   1.277   3.425  12.343 -0.4987  0.1795 -0.5826
  146TMC2    C2 2269   1.226   3.412  12.214  0.3831  0.6122 -0.2162
  146TMC2    C3 2270   1.312   3.361  12.116  0.6719  0.3846 -0.1474
  146TMC2    C4 2271   1.407   3.401  12.371  0.1270  0.2824 -0.1608
  146TMC2    C5 2272   1.479   3.332  12.274 -1.0162 -0.6435 -0.4094
  146TMC2    C6 2273   1.440   3.325  12.138 -0.1717  0.3681  0.0671
  146TMC2     C 2274   1.200   3.500  12.435  0.0573  1.2126  0.2345
  146TMC2     O 2275   1.136   3.593  12.386  1.1179 -0.0398 -0.5877
  146TMC2     H 2276   1.130   3.450  12.183  0.9091  1.5989 -0.6168
  146TMC2    H1 2277   1.446   3.421  12.470 -2.2694  2.9652  0.2422
  146TMC2    H2 2278   1.501   3.264  12.073 -1.2200  0.9035 -1.4311
  146TMC2    C7 2279   1.623   3.311  12.303  0.6762 -0.0689 -0.2992
  146TMC2    C8 2280   1.244   3.297  12.012 -0.3890  0.2120  0.2502
  146TMC2    O1 2281   1.698   3.321  12.206 -0.3256 -0.0254 -0.6908
  146TMC2    O2 2282   1.126   3.261  12.027  0.3801 -0.2014 -0.2092
  146TMC2    O5 2283   1.319   3.293  11.897 -0.0792 -0.9039 -0.4656
  146TMC2    H5 2284   1.404   3.341  11.905 -1.4802  1.4164  0.6533
  147MPD2     C 2285   1.998   3.241  12.636 -0.6569  0.1096 -0.2766
  147MPD2    C1 2286   1.881   3.229  12.700 -0.5576 -0.1675  0.3034
  147MPD2    C2 2287   1.765   3.250  12.630  0.0584  0.4066  0.3712
  147MPD2    C3 2288   1.770   3.281  12.495  0.7492  0.2679  0.1116
  147MPD2    C4 2289   1.892   3.285  12.426 -0.4365 -0.6641 -0.2106
  147MPD2    C5 2290   2.003   3.267  12.505 -0.1123 -0.6622 -0.0154
  147MPD2     H 2291   1.667   3.242  12.675  0.5603 -0.4016  1.3006
  147MPD2    H1 2292   1.903   3.316  12.322 -3.5862  0.9210 -0.0726
  147MPD2    H2 2293   2.092   3.221  12.688  0.4414  0.3744 -2.1623
  147MPD2    H3 2294   2.098   3.289  12.457 -0.5151 -1.4330 -1.1666
  147MPD2     N 2295   1.643   3.293  12.437  0.4983 -0.6560  0.6492
  147MPD2    H5 2296   1.566   3.277  12.502 -1.2384 -0.4467 -1.3505
  147MPD2    N1 2297   1.896   3.184  12.839 -0.1061  0.1898  0.5106
  147MPD2    H7 2298   1.989   3.188  12.880  0.4492 -0.0565 -0.7443
  148TMC2    C1 2299   0.496   2.140  10.658 -0.5303  0.0312  0.2051
  148TMC2    C2 2300   0.527   2.235  10.753 -0.5173  0.6512  0.2967
  148TMC2    C3 2301   0.608   2.204  10.866  0.9448 -0.1021 -0.3196
  148TMC2    C4 2302   0.554   2.014  10.661 -0.2406  1.0368 -0.4081
  148TMC2    C5 2303   0.648   1.999  10.766 -0.2034 -0.6450  0.6446
  148TMC2    C6 2304   0.667   2.080  10.880  0.7863  0.5073 -0.3225
  148TMC2     C 2305   0.386   2.170  10.572  0.3867 -0.0373  0.6238
  148TMC2     O 2306   0.318   2.267  10.602  0.4332  0.5598  0.2511
  148TMC2     H 2307   0.485   2.332  10.731  0.0869  0.6951 -0.6425
  148TMC2    H1 2308   0.532   1.936  10.590 -1.5401 -1.1989  2.4804
  148TMC2    H2 2309   0.745   2.066  10.954  1.4941 -2.0822 -1.5379
  148TMC2    C7 2310   0.727   1.871  10.774 -0.8277  0.1820  0.2735
  148TMC2    C8 2311   0.675   2.314  10.936 -0.2053 -0.2053 -1.2907
  148TMC2    O1 2312   0.750   1.819  10.666 -0.6038 -0.1712  0.9207
  148TMC2    O2 2313   0.660   2.431  10.898 -0.2373  0.0769  0.0331
  148TMC2    O5 2314   0.721   2.273  11.057  0.4338  0.2503 -0.1622
  148TMC2    H5 2315   0.689   2.182  11.076  0.6930  0.1900 -0.0206
  149MPD2     C 2316   0.149   2.138  10.402  0.0141  0.1097  0.7037
  149MPD2    C1 2317   0.268   2.082  10.377 -0.0167  0.0137 -0.2086
  149MPD2    C2 2318   0.281   1.999  10.267 -0.0495  0.4150 -0.2912
  149MPD2    C3 2319   0.172   1.977  10.188  0.9848  0.1137 -0.2664
  149MPD2    C4 2320   0.047   2.027  10.219  0.0187  0.2147  0.3336
  149MPD2    C5 2321   0.035   2.113  10.327  0.2292  0.2514 -0.5718
  149MPD2     H 2322   0.373   1.944  10.253 -0.8290 -0.3750 -2.4020
  149MPD2    H1 2323   4.709   2.022  10.144  0.0439  1.9251  0.1817
  149MPD2    H2 2324   0.142   2.210  10.482  1.4602  1.5528 -0.4653
  149MPD2    H3 2325   4.681   2.165  10.340  0.6215  0.9876 -0.6230
  149MPD2     N 2326   0.170   1.894  10.072 -0.0454  0.2083  0.2860
  149MPD2    H5 2327   0.083   1.873  10.024 -0.2307  1.7349 -0.0378
  149MPD2    N1 2328   0.381   2.092  10.459  1.0722 -0.0331 -0.6519
  149MPD2    H7 2329   0.466   2.040  10.438  1.2571  1.1535 -2.8729
  150TMC2    C1 2330   3.028   1.950  12.217  0.5046 -0.4566 -0.1572
  150TMC2    C2 2331   2.979   2.027  12.111 -0.4204  0.2334  0.1918
  150TMC2    C3 2332   3.028   2.152  12.083  0.1829  0.2389 -1.3080
  150TMC2    C4 2333   3.149   1.984  12.274 -0.1558 -0.0252 -0.3633
  150TMC2    C5 2334   3.205   2.096  12.228 -0.6540  0.3278 -0.0121
  150TMC2    C6 2335   3.145   2.180  12.136  0.6753 -0.3455  0.1095
  150TMC2     C 2336   2.968   1.837  12.283 -0.0468  0.2210  0.7952
  150TMC2     O 2337   3.047   1.756  12.340 -0.4148  0.8267 -0.1802
  150TMC2     H 2338   2.881   2.016  12.066 -0.2005 -2.1806  0.2978
  150TMC2    H1 2339   3.197   1.919  12.346  0.2107  1.0402  0.3533
  150TMC2    H2 2340   3.195   2.276  12.132  1.8627 -0.9930 -0.4240
  150TMC2    C7 2341   3.348   2.119  12.243 -0.0813 -0.3870  0.2332
  150TMC2    C8 2342   2.989   2.212  11.958 -0.1750  0.0294 -0.1899
  150TMC2    O1 2343   3.394   2.227  12.207  0.0027  0.7940  0.1467
  150TMC2    O2 2344   2.891   2.169  11.890 -0.0861 -0.0949  0.1319
  150TMC2    O5 2345   3.033   2.340  11.951  0.4289 -0.4697 -0.1780
  150TMC2    H5 2346   3.081   2.372  12.031 -1.0096  1.3255 -0.0407
  151MPD2     C 2347   2.580   1.512  12.306  0.3991 -0.6289  0.1109
  151MPD2    C1 2348   2.526   1.644  12.315  0.5710  0.0669  0.6979
  151MPD2    C2 2349   2.618   1.748  12.309 -0.7035  0.0037  0.0991
  151MPD2    C3 2350   2.750   1.723  12.297  0.1410  0.6790  0.5804
  151MPD2    C4 2351   2.807   1.596  12.297 -0.5530 -0.2381 -0.1196
  151MPD2    C5 2352   2.715   1.493  12.293  0.3731 -0.8007  0.3881
  151MPD2     H 2353   2.596   1.854  12.311 -2.6318 -0.4611  2.8668
  151MPD2    H1 2354   2.914   1.579  12.284 -0.2914  0.1973  1.4819
  151MPD2    H2 2355   2.512   1.430  12.322  1.0787 -0.7438  2.5000
  151MPD2    H3 2356   2.755   1.392  12.289  1.3206 -0.3867 -0.5238
  151MPD2     N 2357   2.832   1.841  12.287 -0.1437  0.3940  0.0505
  151MPD2    H5 2358   2.780   1.927  12.277 -1.4053 -0.3426  0.2606
  151MPD2    N1 2359   2.378   1.661  12.330  0.1247  0.1546 -0.6526
  151MPD2    H7 2360   2.322   1.577  12.322 -0.3408  0.5833 -1.9352
  152TMC2    C1 2361   2.670   1.637  12.676  0.5892  0.2493  0.7425
  152TMC2    C2 2362   2.747   1.525  12.647  0.1692 -0.4973 -1.3955
  152TMC2    C3 2363   2.876   1.546  12.603  0.2449  0.1288 -0.3292
  152TMC2    C4 2364   2.735   1.757  12.698  0.1342 -0.2706 -0.1531
  152TMC2    C5 2365   2.864   1.777  12.657  0.1349  0.4993  0.1284
  152TMC2    C6 2366   2.942   1.667  12.624  0.3109  0.2855 -0.4622
  152TMC2     C 2367   2.520   1.638  12.686 -0.2997  0.6850  0.3148
  152TMC2     O 2368   2.469   1.750  12.681  0.5498  0.5077  0.9880
  152TMC2     H 2369   2.688   1.436  12.631  1.2775 -1.4076 -0.4425
  152TMC2    H1 2370   2.674   1.840  12.729  0.3232 -0.0434 -0.3928
  152TMC2    H2 2371   3.042   1.675  12.582  0.3039  0.1270 -0.5107
  152TMC2    C7 2372   2.921   1.912  12.660 -0.6351  0.6764 -0.5435
  152TMC2    C8 2373   2.953   1.437  12.563  0.4379 -0.0684  0.0290
  152TMC2    O1 2374   2.837   2.002  12.668 -0.5110 -0.2481 -0.1286
  152TMC2    O2 2375   2.891   1.336  12.531 -0.0150  0.7627 -0.3629
  152TMC2    O5 2376   3.047   1.436  12.657 -0.0769 -0.3616  0.0937
  152TMC2    H5 2377   3.099   1.517  12.676 -0.8813  0.2665 -0.3893
  153MPD2     C 2378   2.285   1.358  12.717  0.2243  0.0775 -0.3223
  153MPD2    C1 2379   2.319   1.487  12.694 -0.7664 -0.1487  0.2061
  153MPD2    C2 2380   2.218   1.583  12.692  0.1853 -0.1956  0.3719
  153MPD2    C3 2381   2.084   1.552  12.693  0.2798 -0.2999 -0.0699
  153MPD2    C4 2382   2.060   1.416  12.716  0.8109  0.1941 -0.5428
  153MPD2    C5 2383   2.158   1.322  12.728 -0.1732 -0.8698 -0.7040
  153MPD2     H 2384   2.247   1.686  12.672 -1.5665  0.5428  1.6036
  153MPD2    H1 2385   1.956   1.385  12.722  0.5133  1.0716 -1.0010
  153MPD2    H2 2386   2.348   1.270  12.721 -1.3645 -1.2423 -3.8690
  153MPD2    H3 2387   2.142   1.214  12.728 -0.2579 -0.8604  0.9669
  153MPD2     N 2388   1.983   1.647  12.692  0.1000  0.0530 -0.3057
  153MPD2    H5 2389   2.007   1.741  12.664  0.7454  0.5969  2.0089
  153MPD2    N1 2390   2.456   1.511  12.686  0.4406  0.0205 -0.2238
  153MPD2    H7 2391   2.515   1.429  12.685  1.2222  0.5703  0.8521
  154TMC2    C1 2392   0.141   2.534   1.001  0.8783 -0.2447 -0.3400
  154TMC2    C2 2393   0.212   2.454   0.907 -0.1892  0.0368 -0.5871
  154TMC2    C3 2394   0.338   2.423   0.949 -0.1153 -0.7976  0.7196
  154TMC2    C4 2395   0.188   2.561   1.123 -0.2570  0.4005 -0.5733
  154TMC2    C5 2396   0.315   2.526   1.154  0.0043 -0.0825  0.5249
  154TMC2    C6 2397   0.394   2.460   1.066 -0.0964  0.0926  0.4275
  154TMC2     C 2398   4.739   2.579   0.976  0.1661  0.5010 -0.2445
  154TMC2     O 2399   4.670   2.602   1.072  0.3567 -0.0737  0.3057
  154TMC2     H 2400   0.170   2.416   0.814 -0.5413  0.0544 -0.4354
  154TMC2    H1 2401   0.134   2.627   1.191  0.0085  1.6483 -1.5760
  154TMC2    H2 2402   0.495   2.427   1.087 -1.2767 -3.1194  1.1066
  154TMC2    C7 2403   0.383   2.582   1.273 -0.6859  0.9518  0.8078
  154TMC2    C8 2404   0.432   2.360   0.854  0.5894  0.2315  0.1462
  154TMC2    O1 2405   0.483   2.519   1.303  0.2413 -0.2507 -0.5398
  154TMC2    O2 2406   0.509   2.272   0.886  0.4322 -0.0224  0.7507
  154TMC2    O5 2407   0.384   2.383   0.730  0.3608 -0.4420  0.7057
  154TMC2    H5 2408   0.317   2.454   0.718 -0.4658 -1.5439 -1.2374
  155MPD2     C 2409   4.608   2.677   0.644 -0.0454  0.1962  0.5762
  155MPD2    C1 2410   4.602   2.625   0.770 -0.0175 -0.1795  0.0601
  155MPD2    C2 2411   4.478   2.624   0.836  0.8661 -0.3716 -0.0598
  155MPD2    C3 2412   4.362   2.668   0.767  0.0871  0.9971 -0.1951
  155MPD2    C4 2413   4.375   2.706   0.638 -1.1132  0.3745 -0.1728
  155MPD2    C5 2414   4.493   2.721   0.573 -0.0839  0.4639 -0.2003
  155MPD2     H 2415   4.455   2.586   0.934 -0.1084  0.6868  0.1113
  155MPD2    H1 2416   4.296   2.761   0.588  0.2567 -0.0489 -2.7848
  155MPD2    H2 2417   4.705   2.689   0.597 -0.3670  0.9367  0.0943
  155MPD2    H3 2418   4.504   2.779   0.482  1.3970 -0.3256 -0.5115
  155MPD2     N 2419   4.240   2.680   0.836  0.6136  0.4475  0.1461
  155MPD2    H5 2420   4.235   2.645   0.931 -2.4381  0.4970  0.0292
  155MPD2    N1 2421   4.723   2.592   0.835 -0.0811  0.4215  0.6289
  155MPD2    H7 2422   0.074   2.598   0.789 -0.8556 -1.7481 -1.2061
  156TMC2    C1 2423   3.049   4.018  12.451 -0.1801 -0.0841 -0.3638
  156TMC2    C2 2424   3.090   3.884  12.450 -0.8273  0.3842 -0.5415
  156TMC2    C3 2425   3.051   3.801  12.355 -0.8701  0.1174  0.4666
  156TMC2    C4 2426   2.966   4.068  12.356 -0.6786 -0.2045 -0.3900
  156TMC2    C5 2427   2.922   3.974  12.261 -0.2845 -0.8193 -0.5390
  156TMC2    C6 2428   2.961   3.841  12.256 -0.3395 -0.5512  0.6331
  156TMC2     C 2429   3.099   4.111  12.551  0.1211  0.3756 -0.2925
  156TMC2     O 2430   3.018   4.194  12.600  0.0200 -0.5988 -0.1904
  156TMC2     H 2431   3.149   3.842  12.530  1.0682  0.1163 -2.0778
  156TMC2    H1 2432   2.924   4.167  12.361 -0.0310  0.1595 -2.1164
  156TMC2    H2 2433   2.921   3.764  12.192 -0.6760  0.4792 -0.3972
  156TMC2    C7 2434   2.862   4.020  12.140 -0.2732 -0.0769 -0.3635
  156TMC2    C8 2435   3.065   3.666  12.383 -0.7309  0.2999 -0.0744
  156TMC2    O1 2436   2.886   4.138  12.110 -0.2026  0.2749 -0.2414
  156TMC2    O2 2437   2.970   3.589  12.379  0.3216 -0.2543  0.3213
  156TMC2    O5 2438   3.203   3.639  12.375 -0.5131  0.2638 -0.2714
  156TMC2    H5 2439   3.259   3.714  12.346  0.6262 -0.9340 -1.1837
  157MPD2     C 2440   3.364   4.062  12.783  0.5859  0.3360  0.1074
  157MPD2    C1 2441   3.273   4.129  12.710  0.0249  0.1100  0.5377
  157MPD2    C2 2442   3.248   4.263  12.734 -0.0812 -0.3008  0.7013
  157MPD2    C3 2443   3.327   4.330  12.826 -0.2175  0.0259  0.0869
  157MPD2    C4 2444   3.417   4.261  12.905  0.6711 -0.0888 -0.3941
  157MPD2    C5 2445   3.434   4.129  12.884 -0.4068  0.5458  0.1605
  157MPD2     H 2446   3.182   4.322  12.672 -1.7743 -0.4633  2.3343
  157MPD2    H1 2447   3.478   4.312  12.979 -2.1240  2.2513  0.3505
  157MPD2    H2 2448   3.385   3.959  12.755 -0.2245 -0.4331  2.3478
  157MPD2    H3 2449   3.512   4.074  12.936  0.1938 -0.4851 -1.7883
  157MPD2     N 2450   3.300   4.470  12.830 -0.4801 -0.4320  0.4345
  157MPD2    H5 2451   3.228   4.508  12.769 -0.1459  0.3621  0.5309
  157MPD2    N1 2452   3.216   4.069  12.600  0.5110  0.9990  0.9728
  157MPD2    H7 2453   3.262   3.983  12.572 -0.3184 -0.0871  2.9285
  158TMC2    C1 2454   2.868   3.086  13.786  0.2890  0.1570 -0.7369
  158TMC2    C2 2455   2.880   3.168  13.675 -0.5013 -0.0992  0.6113
  158TMC2    C3 2456   2.769   3.207  13.611  0.0815 -0.0863  0.2199
  158TMC2    C4 2457   2.751   3.043  13.829 -0.4645 -0.4613 -0.0502
  158TMC2    C5 2458   2.640   3.086  13.765  0.5947 -0.0272 -0.1829
  158TMC2    C6 2459   2.645   3.186  13.670 -0.3733 -0.0992  0.1843
  158TMC2     C 2460   2.984   3.079  13.871 -0.3708 -0.5693 -0.6733
  158TMC2     O 2461   3.063   3.177  13.859 -0.4421 -0.3998  0.2563
  158TMC2     H 2462   2.978   3.197  13.639 -0.4708 -0.6591  0.2361
  158TMC2    H1 2463   2.755   2.971  13.909  1.2622 -1.4223 -0.9868
  158TMC2    H2 2464   2.553   3.218  13.624 -0.3780 -0.3835 -0.0011
  158TMC2    C7 2465   2.515   3.013  13.776 -0.4615  0.1587 -0.2852
  158TMC2    C8 2466   2.790   3.344  13.575 -0.0183 -0.5078  0.4765
  158TMC2    O1 2467   2.419   3.078  13.745 -0.1700  0.0066  0.3120
  158TMC2    O2 2468   2.734   3.439  13.635 -0.6063 -0.7928 -0.7197
  158TMC2    O5 2469   2.871   3.349  13.469  0.2411 -0.1295 -0.5938
  158TMC2    H5 2470   2.886   3.255  13.445 -0.0558  0.2927 -2.3742
  159MPD2     C 2471   3.296   2.893  14.234 -0.0805 -0.2465 -0.2732
  159MPD2    C1 2472   3.221   2.783  14.185 -0.4660  0.1287  0.1642
  159MPD2    C2 2473   3.116   2.811  14.098 -0.0277  0.1155 -0.7520
  159MPD2    C3 2474   3.092   2.942  14.049 -0.7737  0.5354 -0.2569
  159MPD2    C4 2475   3.172   3.047  14.092 -0.0501 -0.9783 -0.1044
  159MPD2    C5 2476   3.275   3.016  14.178  0.0282 -0.4918 -0.4443
  159MPD2     H 2477   3.049   2.729  14.074 -1.1408  0.2751  1.8230
  159MPD2    H1 2478   3.152   3.147  14.056  0.1286 -0.5204  1.0735
  159MPD2    H2 2479   3.384   2.876  14.296  0.3025 -0.5213 -0.8824
  159MPD2    H3 2480   3.345   3.096  14.200  0.8753 -1.2689 -0.3058
  159MPD2     N 2481   2.990   2.965  13.956  0.6167 -0.6957  0.0868
  159MPD2    H5 2482   2.927   2.888  13.935  1.3070 -2.0810  3.1441
  159MPD2    N1 2483   3.269   2.656  14.220  0.6396 -0.3863  0.2572
  159MPD2    H7 2484   3.340   2.645  14.291 -0.2042 -1.1294  0.9848
  160TMC2    C1 2485   3.133   1.357   1.432 -0.4142 -0.2438 -0.3831
  160TMC2    C2 2486   3.210   1.279   1.516 -0.2172 -0.4949  0.4017
  160TMC2    C3 2487   3.331   1.338   1.551  0.1458  0.2252 -0.6188
  160TMC2    C4 2488   3.167   1.480   1.380 -0.7002  0.0775  0.2835
  160TMC2    C5 2489   3.290   1.529   1.421  0.0316  0.2197  0.2050
  160TMC2    C6 2490   3.367   1.460   1.506 -1.2501  0.4625  0.1156
  160TMC2     C 2491   3.007   1.286   1.399 -0.8406 -0.0995  0.2038
  160TMC2     O 2492   2.997   1.164   1.420 -0.4111  0.0699 -0.1777
  160TMC2     H 2493   3.172   1.190   1.565 -0.5634  0.0485  1.1172
  160TMC2    H1 2494   3.107   1.527   1.304 -1.4430  1.9256  1.9954
  160TMC2    H2 2495   3.456   1.517   1.530 -0.6367 -1.0015  1.3156
  160TMC2    C7 2496   3.334   1.654   1.368 -0.8223  0.8840  0.3527
  160TMC2    C8 2497   3.407   1.299   1.667 -0.6823 -0.0736 -0.1635
  160TMC2    O1 2498   3.458   1.661   1.355 -0.2648 -0.1074 -0.1507
  160TMC2    O2 2499   3.529   1.304   1.663  0.5322  0.4373 -0.3801
  160TMC2    O5 2500   3.329   1.220   1.742 -0.0082  0.1560 -0.2727
  160TMC2    H5 2501   3.233   1.236   1.725 -0.4357 -0.7212  1.2871
  161MPD2     C 2502   2.726   1.220   1.327  0.8020  0.2068  0.2530
  161MPD2    C1 2503   2.774   1.350   1.329 -0.4321 -0.6356  0.6017
  161MPD2    C2 2504   2.692   1.457   1.285 -0.2939  0.5773  0.3364
  161MPD2    C3 2505   2.561   1.431   1.239  0.3696 -0.3330  0.3980
  161MPD2    C4 2506   2.516   1.303   1.240  0.0906  0.1328  0.1138
  161MPD2    C5 2507   2.597   1.206   1.287  0.1704 -0.6898 -0.7431
  161MPD2     H 2508   2.721   1.561   1.284  1.8147  0.0015  1.7436
  161MPD2    H1 2509   2.423   1.273   1.192  0.2703  0.2199 -0.2794
  161MPD2    H2 2510   2.785   1.134   1.357 -0.5476 -1.0788 -0.7257
  161MPD2    H3 2511   2.558   1.105   1.295 -1.2116 -0.2143 -1.4645
  161MPD2     N 2512   2.461   1.526   1.202 -0.6099 -0.9013 -0.1530
  161MPD2    H5 2513   2.369   1.492   1.176 -1.0149  2.6599 -3.2178
  161MPD2    N1 2514   2.913   1.379   1.359  0.8964 -0.1044  0.5095
  161MPD2    H7 2515   2.939   1.477   1.355 -0.0171  0.1001 -0.5444
  162TMC2    C1 2516   1.080   3.427   1.402 -0.6285  0.6838 -0.2213
  162TMC2    C2 2517   0.977   3.484   1.470  0.9647 -0.5265  0.0787
  162TMC2    C3 2518   0.995   3.517   1.600 -0.4017  0.3008  0.2163
  162TMC2    C4 2519   1.191   3.391   1.461  0.6458 -0.0115  0.1572
  162TMC2    C5 2520   1.215   3.433   1.582  0.5317  0.8425  0.8201
  162TMC2    C6 2521   1.121   3.496   1.655  0.2569  0.1381  0.0496
  162TMC2     C 2522   1.054   3.364   1.274 -0.2732  0.2130 -0.0347
  162TMC2     O 2523   1.130   3.279   1.234 -0.5342 -0.4408 -0.1172
  162TMC2     H 2524   0.876   3.495   1.433  0.6219  0.2258  1.2430
  162TMC2    H1 2525   1.272   3.343   1.407 -0.1925  1.3823 -2.3744
  162TMC2    H2 2526   1.147   3.533   1.753  1.1486  0.3905 -0.2823
  162TMC2    C7 2527   1.346   3.420   1.646  0.0624 -0.4483  0.7486
  162TMC2    C8 2528   0.897   3.583   1.674  0.2492  0.3546 -0.5716
  162TMC2    O1 2529   1.369   3.508   1.731  0.3851 -0.2048  0.2872
  162TMC2    O2 2530   0.926   3.665   1.763  0.5537 -0.4330  0.9752
  162TMC2    O5 2531   0.779   3.532   1.650  0.3684  0.0971 -0.0316
  162TMC2    H5 2532   0.781   3.443   1.608 -1.7399 -0.3682  0.8609
  163MPD2     C 2533   0.820   3.374   0.807  0.5526 -0.1641 -0.4587
  163MPD2    C1 2534   0.914   3.292   0.854 -0.3412 -0.4305 -0.0409
  163MPD2    C2 2535   0.965   3.310   0.983 -0.0767  0.1776 -0.5290
  163MPD2    C3 2536   0.910   3.405   1.068 -0.1530  0.6162  0.4233
  163MPD2    C4 2537   0.810   3.489   1.020  0.0672  0.1655  0.1706
  163MPD2    C5 2538   0.762   3.473   0.892 -0.3275  0.1008  0.1552
  163MPD2     H 2539   1.037   3.241   1.025  0.1341 -0.9692 -2.7627
  163MPD2    H1 2540   0.764   3.562   1.086  0.7051  0.8607 -0.1568
  163MPD2    H2 2541   0.778   3.362   0.708  0.2926  1.6789 -0.5845
  163MPD2    H3 2542   0.687   3.536   0.846 -0.0709 -0.2514 -0.7317
  163MPD2     N 2543   0.949   3.423   1.206 -0.4976 -0.4247  0.1192
  163MPD2    H5 2544   0.897   3.498   1.251  1.0959  1.6983 -1.6328
  163MPD2    N1 2545   0.963   3.194   0.763 -0.5317  0.0694  0.6397
  163MPD2    H7 2546   0.916   3.196   0.673 -0.3497 -0.7129  0.5335
  164TMC2    C1 2547   1.244   1.741  11.182 -1.0481  0.3752 -0.5847
  164TMC2    C2 2548   1.327   1.835  11.124 -0.3982 -0.2134  0.0360
  164TMC2    C3 2549   1.265   1.953  11.091  0.1637 -0.7917  0.5907
  164TMC2    C4 2550   1.119   1.778  11.238  0.1524 -0.2230  0.9000
  164TMC2    C5 2551   1.073   1.905  11.217  0.3668 -0.4206 -0.7848
  164TMC2    C6 2552   1.149   1.998  11.152  0.4573  0.3613  0.0393
  164TMC2     C 2553   1.276   1.603  11.151  0.1953 -0.3029  0.1977
  164TMC2     O 2554   1.194   1.518  11.160 -0.0091  0.6249  0.6908
  164TMC2     H 2555   1.433   1.821  11.105 -0.2504  2.1106 -0.7594
  164TMC2    H1 2556   1.058   1.696  11.272  0.3771  0.1430  2.1732
  164TMC2    H2 2557   1.116   2.100  11.137 -2.0379 -0.3664  0.6134
  164TMC2    C7 2558   0.935   1.929  11.238  0.0470  0.1770  0.2484
  164TMC2    C8 2559   1.355   2.057  11.053  0.2099 -0.8826 -0.9342
  164TMC2    O1 2560   0.882   1.999  11.155 -1.0684 -0.1848 -0.2944
  164TMC2    O2 2561   1.412   2.075  10.947 -0.0355 -0.0740  0.2808
  164TMC2    O5 2562   1.399   2.103  11.172 -0.4487 -0.3932  0.3967
  164TMC2    H5 2563   1.337   2.084  11.246 -0.6175 -2.3292 -0.2521
  165TMC2    C1 2564   3.257   0.505   1.870  0.1336  0.1183  0.2692
  165TMC2    C2 2565   3.328   0.488   1.988 -0.4754  0.6154 -0.0235
  165TMC2    C3 2566   3.407   0.588   2.038 -0.3022  0.1759 -0.3826
  165TMC2    C4 2567   3.272   0.612   1.791  0.0914  0.5167 -0.1426
  165TMC2    C5 2568   3.363   0.710   1.832  0.6977 -0.3909  0.2892
  165TMC2    C6 2569   3.431   0.700   1.950 -0.5198 -0.1094 -0.7356
  165TMC2     C 2570   3.182   0.389   1.819 -0.1836  0.3252  1.1744
  165TMC2     O 2571   3.204   0.280   1.871  0.3347  0.1662  0.7337
  165TMC2     H 2572   3.308   0.404   2.053 -1.1369  0.4302 -0.4649
  165TMC2    H1 2573   3.228   0.604   1.692  1.7071  0.6271 -0.8743
  165TMC2    H2 2574   3.497   0.782   1.975 -0.9051  0.3784 -1.3292
  165TMC2    C7 2575   3.405   0.809   1.732 -0.5359 -0.4612  0.0190
  165TMC2    C8 2576   3.499   0.548   2.141 -0.0074  0.0718 -0.2474
  165TMC2    O1 2577   3.513   0.866   1.755 -0.4618 -0.4561 -0.6872
  165TMC2    O2 2578   3.492   0.433   2.188 -0.1409 -0.5981 -0.6360
  165TMC2    O5 2579   3.563   0.652   2.193 -0.1843 -0.0371  0.4427
  165TMC2    H5 2580   3.540   0.731   2.140  0.6575  0.7367  1.2326
  166MPD2     C 2581   2.893   0.138   1.478 -0.2135 -0.0453  0.3685
  166MPD2    C1 2582   2.999   0.092   1.551 -0.4577  0.3283  0.2925
  166MPD2    C2 2583   3.069   0.180   1.628  0.7807 -0.0322 -0.1181
  166MPD2    C3 2584   3.037   0.315   1.637 -0.0835 -0.4058 -0.2503
  166MPD2    C4 2585   2.939   0.361   1.561  0.3269 -0.2328  0.7144
  166MPD2    C5 2586   2.866   0.273   1.483  0.3380  0.2402 -0.9863
  166MPD2     H 2587   3.143   0.141   1.697  0.8117 -0.0001 -0.1331
  166MPD2    H1 2588   2.910   0.465   1.553 -0.1886 -0.3165  1.5056
  166MPD2    H2 2589   2.845   0.076   1.403  0.7857  1.2677 -1.3579
  166MPD2    H3 2590   2.783   0.314   1.426 -1.4492 -0.9136  0.7725
  166MPD2     N 2591   3.100   0.414   1.716 -0.1741  0.2806  0.3135
  166MPD2    H5 2592   3.079   0.510   1.694 -1.3209 -0.1993 -0.6572
  166MPD2    N1 2593   3.032   4.694   1.539 -0.4466 -0.1418 -0.6505
  166MPD2    H7 2594   2.980   4.640   1.470  1.1437 -0.1247 -1.8464
  167TMC2    C1 2595   1.097   2.394  12.735  0.2989 -0.1398  0.4027
  167TMC2    C2 2596   1.078   2.451  12.855  0.1988  0.3356 -0.1379
  167TMC2    C3 2597   0.987   2.386  12.939  0.0642 -0.3604 -0.3411
  167TMC2    C4 2598   1.044   2.271  12.695  0.0561 -0.1298  0.0248
  167TMC2    C5 2599   0.955   2.213  12.779 -0.6653  0.0923 -0.2063
  167TMC2    C6 2600   0.921   2.273  12.899  0.6046  0.2953  0.1712
  167TMC2     C 2601   1.177   2.456  12.641  0.7605 -0.1714 -0.2927
  167TMC2     O 2602   1.265   2.526  12.681  0.3444  0.5736  0.0267
  167TMC2     H 2603   1.126   2.545  12.876 -3.2696  1.3900  2.9334
  167TMC2    H1 2604   1.078   2.227  12.602  0.4472  1.0502 -0.4033
  167TMC2    H2 2605   0.854   2.224  12.969  2.3235 -0.8973  0.9972
  167TMC2    C7 2606   0.885   2.084  12.739 -0.0801 -0.1792  0.1921
  167TMC2    C8 2607   0.920   2.455  13.048 -0.5574  0.3761  0.0614
  167TMC2    O1 2608   0.780   2.076  12.801 -0.3020 -0.2380 -0.4022
  167TMC2    O2 2609   0.799   2.450  13.054 -0.0704 -0.0587 -0.0073
  167TMC2    O5 2610   1.006   2.539  13.119  0.3124 -0.1063 -0.4041
  167TMC2    H5 2611   1.100   2.513  13.110  0.2172  0.0751 -1.9933
  168MPD2     C 2612   1.286   2.562  12.388 -0.5807 -0.3148 -0.3003
  168MPD2    C1 2613   1.169   2.486  12.390  0.2002  0.6021  1.7622
  168MPD2    C2 2614   1.097   2.461  12.268  0.2865 -0.0803  0.2301
  168MPD2    C3 2615   1.135   2.509  12.145 -0.5917 -0.6285 -0.2588
  168MPD2    C4 2616   1.247   2.592  12.145 -0.4052 -0.5023 -0.1015
  168MPD2    C5 2617   1.322   2.607  12.263  0.3495 -0.1765 -0.1796
  168MPD2     H 2618   0.999   2.415  12.277  0.1642  0.3476  1.1404
  168MPD2    H1 2619   1.282   2.652  12.062 -1.4033  0.3032  0.0532
  168MPD2    H2 2620   1.344   2.599  12.472 -1.4498  0.7746 -0.1790
  168MPD2    H3 2621   1.408   2.672  12.251 -1.0076  1.5140 -0.8721
  168MPD2     N 2622   1.051   2.480  12.033 -0.6552  0.4333 -0.1854
  168MPD2    H5 2623   0.994   2.398  12.054 -0.6270  0.9156  1.7409
  168MPD2    N1 2624   1.121   2.437  12.511  0.4922  0.4092  0.4401
  168MPD2    H7 2625   1.032   2.388  12.511  0.6585  0.1007 -0.4383
  169MPD1     C 2626   2.340   1.036   8.917 -0.1889  0.2901 -0.1785
  169MPD1    C1 2627   2.303   1.016   9.043  0.7994  0.1403  0.3893
  169MPD1    C2 2628   2.397   1.032   9.142  0.0680 -0.4682  0.0787
  169MPD1    C3 2629   2.524   1.081   9.113  0.8510  0.4740  0.2743
  169MPD1    C4 2630   2.556   1.105   8.980  0.3171  0.4543 -0.9156
  169MPD1    C5 2631   2.462   1.089   8.883 -1.0935 -0.6446 -0.1527
  169MPD1     H 2632   2.378   1.025   9.249 -2.9501  0.4219 -0.3911
  169MPD1    H1 2633   2.650   1.140   8.940 -1.1332  2.6729 -2.3987
  169MPD1    H2 2634   2.273   1.009   8.836  0.8686  0.3355 -1.0651
  169MPD1    H3 2635   2.484   1.105   8.778 -1.7036 -0.0312 -0.1849
  169MPD1     N 2636   2.614   1.096   9.224  0.0609  0.0902 -0.4337
  169MPD1    H5 2637   2.588   1.056   9.314 -4.0958  5.0049  0.5342
  169MPD1    N1 2638   2.175   0.967   9.075 -0.0564  0.1488  0.0089
  169MPD1    H6 2639   2.116   0.991   8.996 -0.5657  0.0429  0.3529
  169MPD1    H7 2640   2.142   1.019   9.156  1.7894 -0.6831  1.2947
  170MPD1     C 2641   2.253   4.658  13.492 -0.2891  0.2258 -0.4872
  170MPD1    C1 2642   2.212   4.732  13.596 -0.4067  0.3093 -0.2714
  170MPD1    C2 2643   2.099   4.699  13.676  0.0692  0.2028  0.1460
  170MPD1    C3 2644   2.020   4.593  13.645 -0.0724 -0.2977  0.3771
  170MPD1    C4 2645   2.064   4.514  13.539  0.4028  0.7514 -0.1509
  170MPD1    C5 2646   2.176   4.548  13.470 -0.2783 -0.9168  0.0310
  170MPD1     H 2647   2.062   0.024  13.754  1.4208  0.7149  0.3708
  170MPD1    H1 2648   2.003   4.428  13.514  0.0831  1.5075 -1.9222
  170MPD1    H2 2649   2.339   4.678  13.429  0.3828  0.0781  0.3783
  170MPD1    H3 2650   2.216   4.497  13.383 -0.1828  1.3453 -1.2530
  170MPD1     N 2651   1.902   4.574  13.730  0.0726 -0.3894  0.1759
  170MPD1    H5 2652   1.879   4.640  13.803 -0.3308 -0.5664  0.2053
  170MPD1    N1 2653   2.272   0.117  13.624  0.7694  0.7357 -0.0478
  170MPD1    H6 2654   2.252   0.164  13.712 -0.4188 -0.6297  0.4029
  170MPD1    H7 2655   2.374   0.108  13.620  0.8631  1.7301  0.1485
  171MPD1     C 2656   4.438   0.856  15.726  0.0730  0.9500 -0.4170
  171MPD1    C1 2657   4.485   0.871  15.853 -0.4439 -0.0274  0.4224
  171MPD1    C2 2658   4.599   0.798  15.886 -0.6022  0.5088  0.1151
  171MPD1    C3 2659   4.673   0.728  15.792  0.2017  0.1248 -0.0969
  171MPD1    C4 2660   4.638   0.745  15.658 -0.2703  0.1114 -0.0010
  171MPD1    C5 2661   4.517   0.809  15.627 -0.1246 -0.1733  0.3635
  171MPD1     H 2662   4.624   0.792  15.992 -0.4057 -0.4179  0.0123
  171MPD1    H1 2663   4.695   0.693  15.581 -2.3486  0.9479 -2.1031
  171MPD1    H2 2664   4.356   0.913  15.683  0.6586  3.1104  1.3266
  171MPD1    H3 2665   4.496   0.817  15.521  0.9479  1.2366  0.2595
  171MPD1     N 2666   0.045   0.648  15.822  0.0421 -0.0388  0.6588
  171MPD1    H5 2667   0.084   0.588  15.750 -1.1566  1.1687 -1.0274
  171MPD1    N1 2668   4.402   0.939  15.946 -0.1272 -0.4613  0.1637
  171MPD1    H6 2669   4.460   0.985  16.015 -1.0734  1.2652 -0.1909
  171MPD1    H7 2670   4.361   1.014  15.891  1.3849 -0.1327 -0.5320
  172MPD1     C 2671   3.567   0.617   0.933 -0.5516  0.6247  0.1363
  172MPD1    C1 2672   3.633   0.729   0.994  0.1327 -0.7876 -0.4573
  172MPD1    C2 2673   3.727   0.795   0.927  0.2449  0.7657 -0.3705
  172MPD1    C3 2674   3.793   0.729   0.818  0.2394 -0.1289  0.5477
  172MPD1    C4 2675   3.737   0.617   0.768  0.2314  0.0762  0.3685
  172MPD1    C5 2676   3.614   0.570   0.811  0.1135 -0.7418 -0.5396
  172MPD1     H 2677   3.772   0.884   0.969  1.3181 -1.1417  2.5129
  172MPD1    H1 2678   3.797   0.563   0.695  0.4408  1.4673 -0.4837
  172MPD1    H2 2679   3.475   0.581   0.978 -0.3052  0.8320  0.8015
  172MPD1    H3 2680   3.574   0.480   0.765 -0.7831 -0.1373 -0.9367
  172MPD1     N 2681   3.921   0.761   0.766 -0.2693 -0.0493  0.4778
  172MPD1    H5 2682   3.958   0.709   0.687 -2.2090 -1.1217  0.2605
  172MPD1    N1 2683   3.566   0.792   1.106  0.2154  0.0685  0.1335
  172MPD1    H6 2684   3.620   0.870   1.143 -0.7851  0.1341  1.4668
  172MPD1    H7 2685   3.552   0.724   1.180  2.2172 -0.7483 -0.2371
  173MPD1     C 2686   1.101   0.224  14.342 -0.3058 -0.4399 -0.9968
  173MPD1    C1 2687   0.990   0.155  14.362 -0.8421  0.1105  0.0163
  173MPD1    C2 2688   0.973   0.094  14.483 -0.4776  0.4913 -0.5937
  173MPD1    C3 2689   1.075   0.082  14.570  0.0941 -0.2066 -0.3528
  173MPD1    C4 2690   1.192   0.140  14.534  0.0665  0.1528 -0.9004
  173MPD1    C5 2691   1.210   0.209  14.420 -0.5538  0.3152  0.7213
  173MPD1     H 2692   0.877   0.054  14.513 -0.4701  0.8068 -0.1540
  173MPD1    H1 2693   1.279   0.141  14.599 -0.7308 -0.2462  0.1613
  173MPD1    H2 2694   1.108   0.285  14.252  0.9718 -1.7051 -1.7488
  173MPD1    H3 2695   1.303   0.264  14.407 -0.9944  0.0154 -3.8014
  173MPD1     N 2696   1.061   0.005  14.685 -0.0931 -0.5967 -0.0788
  173MPD1    H5 2697   0.962   4.728  14.701 -0.0906  0.2027  0.8009
  173MPD1    N1 2698   0.877   0.162  14.278 -0.6940 -0.1598  0.4187
  173MPD1    H6 2699   0.909   0.186  14.185 -1.4045 -1.0433 -0.0521
  173MPD1    H7 2700   0.831   0.073  14.264  0.3732 -0.6247 -0.0795
  174MPD1     C 2701   0.852   3.821  14.597  0.3655  0.3622 -0.2155
  174MPD1    C1 2702   0.778   3.929  14.558  0.2083  0.9821 -0.2634
  174MPD1    C2 2703   0.810   4.049  14.620 -0.1221 -0.1889  0.0285
  174MPD1    C3 2704   0.929   4.066  14.695  0.0684  0.3135 -0.2465
  174MPD1    C4 2705   1.006   3.960  14.723 -0.2845  0.2032  1.0384
  174MPD1    C5 2706   0.962   3.839  14.682  0.2308  0.5105 -0.2531
  174MPD1     H 2707   0.745   4.135  14.609  1.0843  0.4879 -1.7695
  174MPD1    H1 2708   1.101   3.975  14.773 -0.9641 -1.5971  2.8775
  174MPD1    H2 2709   0.831   3.718  14.569 -0.1417  0.0617  1.2564
  174MPD1    H3 2710   1.008   3.751  14.725 -0.8078  0.7560  1.3200
  174MPD1     N 2711   0.949   4.193  14.751  0.7319  0.4462  0.8504
  174MPD1    H5 2712   0.876   4.262  14.738 -1.3902 -2.0576 -0.3171
  174MPD1    N1 2713   0.649   3.914  14.500  0.5566 -0.2218  0.1870
  174MPD1    H6 2714   0.629   4.001  14.450  0.8569  0.7816  1.8259
  174MPD1    H7 2715   0.637   3.837  14.435  0.3698 -2.0241  2.3557
  175MPD1     C 2716   3.789   0.799  16.338 -0.9351  0.3478  0.0146
  175MPD1    C1 2717   3.811   0.740  16.457  0.3156 -0.2500  0.1057
  175MPD1    C2 2718   3.796   0.815  16.574 -0.4001 -0.4352  0.3412
  175MPD1    C3 2719   3.729   0.936  16.574 -0.0201  0.0251 -0.5930
  175MPD1    C4 2720   3.683   0.985  16.451 -0.3351  0.3735 -0.3574
  175MPD1    C5 2721   3.723   0.923  16.339 -0.0728 -0.0620  0.0944
  175MPD1     H 2722   3.826   0.763  16.664  1.6076  1.9042  1.0152
  175MPD1    H1 2723   3.631   1.078  16.435  1.8580  1.0886 -3.2717
  175MPD1    H2 2724   3.819   0.756  16.243 -0.0718 -0.7859  0.7958
  175MPD1    H3 2725   3.694   0.970  16.246 -0.0963  1.3479  0.8278
  175MPD1     N 2726   3.716   1.009  16.687  0.1136  0.0326 -0.3566
  175MPD1    H5 2727   3.643   1.078  16.669  0.8000  0.3685 -1.8075
  175MPD1    N1 2728   3.896   0.626  16.455  0.0595 -0.3937  0.1057
  175MPD1    H6 2729   3.889   0.569  16.539  1.4579 -0.6299  0.0568
  175MPD1    H7 2730   3.875   0.561  16.379  1.1153 -0.2977 -0.2691
  176MPD1     C 2731   0.452   3.537   0.133 -0.6872 -0.2315  0.2382
  176MPD1    C1 2732   0.476   3.602   0.009  0.1377 -0.3509  0.3641
  176MPD1    C2 2733   0.592   3.683  17.752 -0.1579  1.1327  0.3888
  176MPD1    C3 2734   0.669   3.705   0.101  0.6808  0.4596  0.3675
  176MPD1    C4 2735   0.647   3.635   0.222  0.0742  0.2644 -0.1892
  176MPD1    C5 2736   0.543   3.549   0.235 -0.6218  0.4231  0.4555
  176MPD1     H 2737   0.615   3.735  17.659 -0.4675 -0.1622 -0.4101
  176MPD1    H1 2738   0.715   3.652   0.305  0.0773  0.4809 -0.2361
  176MPD1    H2 2739   0.365   3.477   0.159 -0.3768 -1.8694 -2.5647
  176MPD1    H3 2740   0.529   3.490   0.325 -3.4004 -0.3817 -0.5112
  176MPD1     N 2741   0.775   3.795   0.081  0.0822 -0.3954  0.2572
  176MPD1    H5 2742   0.799   3.828  17.746 -1.4033 -2.1500 -0.7504
  176MPD1    N1 2743   0.373   3.608  17.672  0.1436  0.1533  0.4612
  176MPD1    H6 2744   0.408   3.631  17.579  0.7218 -3.8961 -0.3048
  176MPD1    H7 2745   0.322   3.520  17.673 -0.6175  0.5724 -0.5020
  177MPD1     C 2746   4.000   3.256  10.307 -0.4201  0.0879  0.8248
  177MPD1    C1 2747   4.005   3.126  10.351 -0.5794 -0.1066  0.0069
  177MPD1    C2 2748   3.977   3.030  10.257 -0.0284  0.5844  0.5911
  177MPD1    C3 2749   3.943   3.060  10.129  0.3772 -0.2317 -0.2128
  177MPD1    C4 2750   3.945   3.194  10.079 -0.0350  0.4404 -0.3059
  177MPD1    C5 2751   3.963   3.289  10.178  0.8284  0.4682  0.3757
  177MPD1     H 2752   3.989   2.926  10.285  1.8068 -0.0107 -2.5140
  177MPD1    H1 2753   3.918   3.214   9.976 -0.3991 -0.0153 -0.2992
  177MPD1    H2 2754   4.020   3.338  10.374  0.3190  1.1444 -0.6759
  177MPD1    H3 2755   3.967   3.393  10.147 -3.7843  0.4736 -0.1304
  177MPD1     N 2756   3.922   2.956  10.036  0.0674 -0.4355  0.0668
  177MPD1    H5 2757   3.945   2.864  10.072  0.1631 -1.0532 -1.5466
  177MPD1    N1 2758   4.056   3.097  10.476 -0.1374  0.4125  0.0950
  177MPD1    H6 2759   4.154   3.122  10.486 -0.3904  0.3724  2.5690
  177MPD1    H7 2760   4.048   2.997  10.494  1.0118  0.2216 -0.4382
  178MPD1     C 2761   1.286   3.863   0.252 -0.5524  0.6071  1.1254
  178MPD1    C1 2762   1.349   3.981   0.238 -0.7570  0.0664  0.1807
  178MPD1    C2 2763   1.419   4.009   0.119  0.9032 -0.3531  0.1275
  178MPD1    C3 2764   1.417   3.920   0.015 -0.6484 -0.6809  0.0679
  178MPD1    C4 2765   1.369   3.795   0.040 -0.0282 -0.1680 -0.0876
  178MPD1    C5 2766   1.310   3.766   0.163  0.3918 -0.3944  0.8095
  178MPD1     H 2767   1.455   4.111   0.114 -1.8826  0.6131 -0.3015
  178MPD1    H1 2768   1.386   3.712  17.730 -0.7289  0.1726 -0.6722
  178MPD1    H2 2769   1.218   3.845   0.334 -0.3550 -0.3200  1.0856
  178MPD1    H3 2770   1.286   3.661   0.180  0.9886 -0.2298  2.6129
  178MPD1     N 2771   1.493   3.933  17.655  0.8493  0.1866 -0.0769
  178MPD1    H5 2772   1.495   3.852  17.594 -1.4563  0.2114 -0.1783
  178MPD1    N1 2773   1.319   4.089   0.325  0.1245 -0.5009  0.5173
  178MPD1    H6 2774   1.299   4.065   0.422 -0.3426  1.9170  1.0184
  178MPD1    H7 2775   1.380   4.170   0.316 -1.1711  0.2928 -1.1129
  179MPD1     C 2776   1.435   2.624  16.335  0.1085 -0.4006  0.1309
  179MPD1    C1 2777   1.376   2.550  16.432  0.4632 -0.1372 -0.5729
  179MPD1    C2 2778   1.319   2.428  16.404  0.0803 -0.4023 -0.1309
  179MPD1    C3 2779   1.333   2.372  16.278 -0.1599  1.1130  0.2358
  179MPD1    C4 2780   1.403   2.451  16.187  0.2934  0.7015  0.2039
  179MPD1    C5 2781   1.456   2.567  16.210  0.5465  0.5334  0.1304
  179MPD1     H 2782   1.267   2.367  16.477  1.0662  0.9527  1.7129
  179MPD1    H1 2783   1.406   2.413  16.086 -1.4838 -1.1763  0.8440
  179MPD1    H2 2784   1.467   2.723  16.363 -0.4482 -0.8470  2.3122
  179MPD1    H3 2785   1.503   2.622  16.130  2.0641 -0.5644  0.2696
  179MPD1     N 2786   1.281   2.241  16.239  0.4915  0.2542  0.3677
  179MPD1    H5 2787   1.279   2.218  16.140 -1.9878 -0.7652  0.6551
  179MPD1    N1 2788   1.347   2.612  16.557  0.2472  0.4672  0.0362
  179MPD1    H6 2789   1.416   2.680  16.587  0.5085  0.0169  0.4619
  179MPD1    H7 2790   1.332   2.545  16.633 -1.9343  0.1421 -0.6679
  180MPD1     C 2791   0.589   3.011  15.355 -0.3988 -0.0155  0.0297
  180MPD1    C1 2792   0.690   3.036  15.265  0.9260 -0.4498 -0.0686
  180MPD1    C2 2793   0.655   3.001  15.134  0.3334  0.1963  0.4218
  180MPD1    C3 2794   0.532   2.958  15.096 -0.0694 -0.4028  0.9182
  180MPD1    C4 2795   0.430   2.956  15.189  0.1598  0.0259  0.5536
  180MPD1    C5 2796   0.458   2.985  15.323 -0.3279 -0.2444 -0.3543
  180MPD1     H 2797   0.734   3.010  15.061  2.0829 -0.5568  2.2240
  180MPD1    H1 2798   0.332   2.917  15.161 -0.0486  1.6625 -1.0022
  180MPD1    H2 2799   0.601   3.028  15.461 -3.2539 -0.5294  0.4212
  180MPD1    H3 2800   0.383   2.967  15.399  0.7561 -0.6375  0.6296
  180MPD1     N 2801   0.514   2.928  14.958  0.1122  0.5564 -0.0101
  180MPD1    H5 2802   0.595   2.939  14.898  0.4070  2.8679  0.7993
  180MPD1    N1 2803   0.822   3.066  15.311  0.4234 -0.2117  1.0321
  180MPD1    H6 2804   0.829   3.123  15.396 -0.5963  0.9113  0.3551
  180MPD1    H7 2805   0.890   3.095  15.242 -1.3007  0.4685 -0.3647
  181MPD1     C 2806   2.641   0.128  10.509 -0.3125 -0.1989 -0.4572
  181MPD1    C1 2807   2.725   0.234  10.525  0.6294  0.4257 -0.5432
  181MPD1    C2 2808   2.863   0.214  10.513 -0.3044  0.3446 -0.1165
  181MPD1    C3 2809   2.914   0.091  10.464 -0.1903 -0.2834 -0.0335
  181MPD1    C4 2810   2.826   4.733  10.436 -0.2357 -0.1280  0.1194
  181MPD1    C5 2811   2.693   0.005  10.468 -0.0578  0.0874 -0.2744
  181MPD1     H 2812   2.926   0.300  10.534  2.2306 -1.4104 -0.5848
  181MPD1    H1 2813   2.860   4.641  10.390 -3.0267 -0.9502 -0.2968
  181MPD1    H2 2814   2.535   0.135  10.532 -0.8900  1.5531 -3.6508
  181MPD1    H3 2815   2.634   4.658  10.442 -0.4690  0.8051 -1.7237
  181MPD1     N 2816   3.057   0.076  10.437 -0.0469 -0.6198 -0.0340
  181MPD1    H5 2817   3.077   4.723  10.403 -1.4123 -0.1369 -2.1604
  181MPD1    N1 2818   2.675   0.348  10.591  0.4566  0.2122 -0.6058
  181MPD1    H6 2819   2.727   0.431  10.564  0.4030  0.0770 -1.1226
  181MPD1    H7 2820   2.578   0.359  10.562  0.3999  1.0903 -0.0855
  182MPD1     C 2821   4.028   0.205   1.670 -0.0024 -0.2326  0.3940
  182MPD1    C1 2822   4.035   0.075   1.623  0.2792  0.2148  0.5971
  182MPD1    C2 2823   3.932   0.033   1.540 -0.4828 -0.4379  0.4633
  182MPD1    C3 2824   3.851   0.122   1.480  0.7495  0.5596 -0.2992
  182MPD1    C4 2825   3.847   0.248   1.529  0.0564 -0.5987 -0.1849
  182MPD1    C5 2826   3.933   0.290   1.625 -1.1720 -0.7256 -0.0338
  182MPD1     H 2827   3.941   4.670   1.507  1.5721 -0.3551  0.7723
  182MPD1    H1 2828   3.761   0.309   1.509 -0.2234 -0.2357  2.1051
  182MPD1    H2 2829   4.093   0.241   1.750 -1.0381  0.0566  1.1038
  182MPD1    H3 2830   3.921   0.390   1.664  0.2492 -1.5627  2.5016
  182MPD1     N 2831   3.752   0.081   1.384 -0.2245  0.8107 -0.1586
  182MPD1    H5 2832   3.704   0.157   1.336  1.3043  1.2515 -0.9854
  182MPD1    N1 2833   4.121   4.722   1.670 -0.2981 -0.0498 -0.5217
  182MPD1    H6 2834   4.213   0.026   1.674 -1.0611  1.3069  1.8410
  182MPD1    H7 2835   4.139   4.637   1.617  0.8667 -1.0225  1.4650
  183MPD1     C 2836   0.302   0.458   9.609  0.2191  0.1974 -0.3816
  183MPD1    C1 2837   0.186   0.399   9.570  0.4364 -0.5363  0.7911
  183MPD1    C2 2838   0.162   0.271   9.618  0.3410  0.2668  0.3890
  183MPD1    C3 2839   0.243   0.212   9.716  0.0745  0.1382 -0.3495
  183MPD1    C4 2840   0.347   0.280   9.763  0.1515 -0.4071  0.0182
  183MPD1    C5 2841   0.382   0.399   9.706 -0.1708 -0.0531  0.5425
  183MPD1     H 2842   0.082   0.206   9.583  0.5251 -0.6945  1.7446
  183MPD1    H1 2843   0.418   0.249   9.839 -0.0285 -1.8403 -0.4040
  183MPD1    H2 2844   0.319   0.560   9.577  0.7090  0.4761  0.7667
  183MPD1    H3 2845   0.463   0.463   9.740  2.3919 -3.0202  0.0398
  183MPD1     N 2846   0.193   0.094   9.770  0.0346  0.0246  0.0346
  183MPD1    H5 2847   0.112   0.048   9.729  1.0567 -1.1764 -0.6312
  183MPD1    N1 2848   0.116   0.455   9.466 -0.0220 -0.0877  0.3634
  183MPD1    H6 2849   0.116   0.557   9.463  1.7192 -0.1766 -2.7895
  183MPD1    H7 2850   0.020   0.423   9.455  0.3482 -0.0665 -2.9463
  184MPD1     C 2851   2.794   1.738   9.983  0.1572  0.2179  0.3350
  184MPD1    C1 2852   2.882   1.812  10.067 -0.3513 -0.9090 -0.1697
  184MPD1    C2 2853   2.987   1.879  10.015  0.0152 -0.5141  0.5733
  184MPD1    C3 2854   3.022   1.871   9.882 -0.9224 -0.6316 -0.3662
  184MPD1    C4 2855   2.950   1.778   9.805  0.5165 -0.0398 -0.5313
  184MPD1    C5 2856   2.832   1.725   9.847  0.1264  0.4880  0.1754
  184MPD1     H 2857   3.038   1.937  10.091 -0.8246  0.8408  0.0922
  184MPD1    H1 2858   2.968   1.765   9.699 -1.3622 -0.3658 -0.7997
  184MPD1    H2 2859   2.711   1.681  10.024 -1.9116  1.5738 -2.0055
  184MPD1    H3 2860   2.776   1.670   9.773  0.8383  2.0891 -1.5572
  184MPD1     N 2861   3.110   1.954   9.816  0.0820 -0.3198  0.1603
  184MPD1    H5 2862   3.112   1.934   9.717 -1.9284 -0.5352  0.1596
  184MPD1    N1 2863   2.841   1.845  10.198 -0.7060  0.2981  0.0398
  184MPD1    H6 2864   2.787   1.772  10.244  0.3679  1.7751  3.5806
  184MPD1    H7 2865   2.916   1.877  10.259 -1.4550  0.1924  1.0077
  185MPD1     C 2866   3.418   1.793   9.075 -0.5697  0.1661  0.1647
  185MPD1    C1 2867   3.502   1.900   9.098 -0.3241 -0.1510  0.2923
  185MPD1    C2 2868   3.472   1.987   9.213  0.1291 -0.6820  0.3674
  185MPD1    C3 2869   3.355   1.965   9.290 -0.4149 -0.0914  0.3397
  185MPD1    C4 2870   3.274   1.857   9.256  0.7989 -0.0509 -0.2434
  185MPD1    C5 2871   3.307   1.771   9.155 -0.1644 -0.0446  0.6721
  185MPD1     H 2872   3.537   2.072   9.228 -2.8952  1.5725  0.6221
  185MPD1    H1 2873   3.176   1.835   9.298  0.1385  1.3864 -1.0338
  185MPD1    H2 2874   3.441   1.721   8.998  1.8186  0.9848  0.1220
  185MPD1    H3 2875   3.231   1.699   9.130 -0.2122  0.2373  0.0030
  185MPD1     N 2876   3.322   2.039   9.399  0.2655 -0.6114  0.1529
  185MPD1    H5 2877   3.248   2.009   9.462 -1.9182  2.0843 -1.1236
  185MPD1    N1 2878   3.618   1.909   9.028 -0.3841 -0.3025  0.0272
  185MPD1    H6 2879   3.617   1.877   8.932 -0.7865  0.6743 -0.2897
  185MPD1    H7 2880   3.651   2.005   9.017 -2.7312  0.3848 -0.8615
  186MPD1     C 2881   1.697   1.992  15.961  0.6829 -0.1156  0.1348
  186MPD1    C1 2882   1.679   2.114  15.899 -0.0952 -0.4866 -0.0522
  186MPD1    C2 2883   1.728   2.230  15.972  0.1373  0.5561  0.2473
  186MPD1    C3 2884   1.784   2.222  16.100 -0.2978 -0.4606  0.2466
  186MPD1    C4 2885   1.805   2.092  16.144  0.0325 -0.0004  0.1803
  186MPD1    C5 2886   1.757   1.980  16.083  0.8621  1.0467  0.7647
  186MPD1     H 2887   1.696   2.324  15.927 -0.4459  0.1578 -0.1776
  186MPD1    H1 2888   1.848   2.078  16.243  0.8866 -2.1737 -0.4898
  186MPD1    H2 2889   1.641   1.911  15.915 -0.0035 -0.8791  2.3081
  186MPD1    H3 2890   1.750   1.887  16.138  0.1234  2.1415  2.5177
  186MPD1     N 2891   1.823   2.323  16.185  0.5400  0.1068  0.4550
  186MPD1    H5 2892   1.821   2.301  16.284 -1.0170 -2.1871 -0.0844
  186MPD1    N1 2893   1.592   2.135  15.788  0.4446  0.2347  0.3189
  186MPD1    H6 2894   1.606   2.215  15.728 -2.3148  0.6532  0.2247
  186MPD1    H7 2895   1.604   2.058  15.723 -2.0463 -1.3593  1.7217
  187MPD1     C 2896   0.487   0.388   0.083 -0.0876  0.3016 -0.5503
  187MPD1    C1 2897   0.492   0.268   0.148  0.3720 -0.9437  0.3829
  187MPD1    C2 2898   0.567   0.160   0.096 -0.2244  0.4144  0.8543
  187MPD1    C3 2899   0.635   0.176  17.733  0.3372  0.0656  0.5913
  187MPD1    C4 2900   0.639   0.298  17.673 -0.1874  0.0203 -0.6496
  187MPD1    C5 2901   0.554   0.393  17.719 -0.0895  0.1912  0.4011
  187MPD1     H 2902   0.578   0.062   0.141 -2.5848 -0.5298 -0.6232
  187MPD1    H1 2903   0.697   0.318  17.583  0.3625 -0.3631 -0.3794
  187MPD1    H2 2904   0.431   0.473   0.121 -0.8409  0.1252 -1.2431
  187MPD1    H3 2905   0.547   0.485  17.663 -0.6336  0.7235  1.3418
  187MPD1     N 2906   0.695   0.074  17.659  0.3041  0.6972  0.3086
  187MPD1    H5 2907   0.748   0.094  17.574  0.1122  0.9857  0.2558
  187MPD1    N1 2908   0.440   0.256   0.282 -0.0135 -0.1893  1.0085
  187MPD1    H6 2909   0.422   0.163   0.319  1.6373 -0.5748  0.8594
  187MPD1    H7 2910   0.351   0.304   0.286 -1.3942 -2.6275 -0.4994
  188MPD1     C 2911   1.184   2.476  11.071 -0.2893 -1.1171  0.7872
  188MPD1    C1 2912   1.072   2.393  11.065 -0.0075 -0.0883 -0.4991
  188MPD1    C2 2913   1.060   2.308  10.953  0.0082 -1.1359 -0.2690
  188MPD1    C3 2914   1.166   2.283  10.876 -0.2228 -0.6352  0.5446
  188MPD1    C4 2915   1.287   2.341  10.915 -0.7647  0.5103 -0.6731
  188MPD1    C5 2916   1.291   2.445  11.007  0.5564  0.0771  0.1115
  188MPD1     H 2917   0.977   2.238  10.951  0.9770 -2.2592 -1.0726
  188MPD1    H1 2918   1.378   2.327  10.858 -1.7029 -2.5051 -1.3838
  188MPD1    H2 2919   1.189   2.552  11.148  2.0748 -0.8878  0.4037
  188MPD1    H3 2920   1.385   2.498  11.025  1.1231 -0.7694 -0.3679
  188MPD1     N 2921   1.167   2.200  10.759  0.6378  0.0307 -0.4884
  188MPD1    H5 2922   1.259   2.184  10.720  1.3172 -1.3719  1.7140
  188MPD1    N1 2923   0.951   2.430  11.127 -0.5674  0.9859  1.2133
  188MPD1    H6 2924   0.882   2.355  11.132  0.2848  0.0670 -0.3168
  188MPD1    H7 2925   0.966   2.460  11.223 -2.5622 -0.0494  1.8553
  189MPD1     C 2926   2.760   0.595   0.703 -0.0338  0.9063 -0.1317
  189MPD1    C1 2927   2.650   0.521   0.665  0.2912  0.0876 -0.4077
  189MPD1    C2 2928   2.534   0.588   0.625  0.5231 -0.3029  0.2815
  189MPD1    C3 2929   2.527   0.727   0.618 -0.3450 -0.3023 -0.5750
  189MPD1    C4 2930   2.647   0.801   0.653  0.2776 -1.0211 -0.0643
  189MPD1    C5 2931   2.755   0.737   0.698  0.2675 -0.4643 -0.0079
  189MPD1     H 2932   2.446   0.529   0.600  0.2907  0.2084 -0.1385
  189MPD1    H1 2933   2.651   0.909   0.654  0.6201 -1.0451  1.6665
  189MPD1    H2 2934   2.844   0.544   0.748  0.7562 -0.6264 -3.3328
  189MPD1    H3 2935   2.842   0.795   0.725 -1.2714  1.8637 -0.0517
  189MPD1     N 2936   2.406   0.785   0.575 -0.0837  0.5028  0.6007
  189MPD1    H5 2937   2.323   0.728   0.571  1.3688 -1.7850  3.1579
  189MPD1    N1 2938   2.643   0.384   0.697 -0.2919  0.0882 -0.0242
  189MPD1    H6 2939   2.592   0.314   0.643 -0.3776 -0.3931  0.6812
  189MPD1    H7 2940   2.733   0.340   0.713  1.6371  3.2912 -2.1417
  190MPD1     C 2941   0.967   3.430  15.586 -0.0451  0.6856  0.4844
  190MPD1    C1 2942   1.088   3.387  15.534 -0.8014 -0.6209 -0.5699
  190MPD1    C2 2943   1.205   3.422  15.600  0.1669  0.0590 -0.5290
  190MPD1    C3 2944   1.208   3.511  15.702  0.4685 -0.5211  0.0672
  190MPD1    C4 2945   1.091   3.563  15.742 -0.3700 -0.3762 -0.1735
  190MPD1    C5 2946   0.970   3.511  15.696  0.1448  0.1084 -0.0884
  190MPD1     H 2947   1.297   3.376  15.566  1.5416  1.5726  1.1732
  190MPD1    H1 2948   1.085   3.647  15.811  0.7419  0.3666 -0.9902
  190MPD1    H2 2949   0.872   3.400  15.542  0.2579  1.0489 -0.3943
  190MPD1    H3 2950   0.879   3.544  15.746  0.1926  2.2246 -1.4071
  190MPD1     N 2951   1.337   3.552  15.752  0.3010  0.4131 -0.0976
  190MPD1    H5 2952   1.414   3.512  15.700  0.3146 -0.4139  0.5649
  190MPD1    N1 2953   1.092   3.294  15.436  0.1558 -0.0776  0.8218
  190MPD1    H6 2954   1.022   3.317  15.365 -0.5929  2.0347  2.2402
  190MPD1    H7 2955   1.183   3.297  15.390  0.2449  0.2950  1.0219
  191MPD1     C 2956   1.285   4.437  12.090 -0.5161  0.8161 -0.3283
  191MPD1    C1 2957   1.257   4.532  12.184  1.2208  0.2844 -0.1939
  191MPD1    C2 2958   1.211   4.656  12.134 -0.3785  0.0975  0.8545
  191MPD1    C3 2959   1.192   4.687  12.001  0.5393  0.0469 -0.8923
  191MPD1    C4 2960   1.229   4.584  11.915  0.2483 -0.5564  0.3917
  191MPD1    C5 2961   1.275   4.463  11.958  0.5846  0.5498 -1.2202
  191MPD1     H 2962   1.191   4.734  12.207  1.4553  1.7703 -0.4497
  191MPD1    H1 2963   1.208   4.595  11.809 -0.6001 -0.5150  0.5615
  191MPD1    H2 2964   1.317   4.335  12.105  0.9994  1.5190  1.1810
  191MPD1    H3 2965   1.301   4.388  11.884  2.0946 -0.6885  0.5764
  191MPD1     N 2966   1.146   0.076  11.968 -0.5163 -0.1978  0.4504
  191MPD1    H5 2967   1.130   0.139  12.046 -0.5255 -0.8741  0.9945
  191MPD1    N1 2968   1.252   4.504  12.319  0.2989  0.0109 -0.3928
  191MPD1    H6 2969   1.328   4.449  12.359  1.4657  1.0151 -1.2266
  191MPD1    H7 2970   1.248   4.590  12.374 -1.0153 -0.7263  0.6652
  192MPD1     C 2971   1.185   0.923  11.273  0.5152  0.2191  0.1372
  192MPD1    C1 2972   1.195   0.790  11.243  0.1284 -0.3014 -0.3670
  192MPD1    C2 2973   1.163   0.695  11.340 -0.4329 -0.2223 -0.1090
  192MPD1    C3 2974   1.137   0.742  11.472 -0.5634 -0.2226 -0.4562
  192MPD1    C4 2975   1.145   0.877  11.502  0.3046 -0.3441 -0.2191
  192MPD1    C5 2976   1.174   0.968  11.404  0.1051 -0.2366  0.1765
  192MPD1     H 2977   1.163   0.591  11.309  1.1800 -0.9021  2.1227
  192MPD1    H1 2978   1.130   0.919  11.601  1.2862 -0.5340  0.0125
  192MPD1    H2 2979   1.201   0.991  11.190 -2.5330 -2.3561 -2.5523
  192MPD1    H3 2980   1.170   1.076  11.416 -1.1226 -0.4492  1.7558
  192MPD1     N 2981   1.084   0.661  11.574 -0.3946  0.2711  0.2949
  192MPD1    H5 2982   1.056   0.705  11.661 -0.7562 -0.9144  0.7794
  192MPD1    N1 2983   1.218   0.758  11.108 -0.0388  0.2538 -0.2104
  192MPD1    H6 2984   1.289   0.817  11.065  0.5290 -0.9305 -0.8935
  192MPD1    H7 2985   1.256   0.664  11.107 -0.2776  0.1648 -1.0974
  193MPD1     C 2986   4.423   0.919  16.720  0.4719  0.6805 -0.6889
  193MPD1    C1 2987   4.497   0.806  16.671 -0.3629  0.0104 -0.7180
  193MPD1    C2 2988   4.635   0.812  16.685 -0.8416  0.3600 -0.4063
  193MPD1    C3 2989   4.691   0.909  16.758 -0.0234 -0.7645  0.2264
  193MPD1    C4 2990   4.629   1.011  16.807  0.4034 -0.7048  0.1383
  193MPD1    C5 2991   4.494   1.012  16.796 -0.4130 -0.1822 -0.3647
  193MPD1     H 2992   4.687   0.727  16.642 -1.1357 -0.7261  1.3597
  193MPD1    H1 2993   4.681   1.081  16.873 -0.5592  0.6672 -0.5548
  193MPD1    H2 2994   4.316   0.926  16.706  0.5544  0.1208 -1.6118
  193MPD1    H3 2995   4.438   1.075  16.864  1.9431 -1.2930  2.6079
  193MPD1     N 2996   0.087   0.906  16.791  0.5947  0.0283  0.2993
  193MPD1    H5 2997   0.121   0.975  16.857 -2.1099 -0.1643  1.8717
  193MPD1    N1 2998   4.423   0.711  16.594 -0.5296  0.4311  0.5352
  193MPD1    H6 2999   4.322   0.698  16.604 -0.6030  1.2551  0.8999
  193MPD1    H7 3000   4.483   0.629  16.590 -1.2551 -0.1506  1.4631
  194MPD1     C 3001   2.281   3.568  17.343 -0.9416 -0.3809  0.0593
  194MPD1    C1 3002   2.320   3.511  17.224 -0.3225 -0.4338 -0.8327
  194MPD1    C2 3003   2.430   3.428  17.218 -0.3525  0.5523  0.5836
  194MPD1    C3 3004   2.506   3.405  17.333  0.1797 -0.4735 -0.0498
  194MPD1    C4 3005   2.473   3.472  17.446  0.1401 -0.4370  0.2977
  194MPD1    C5 3006   2.364   3.548  17.451 -0.3500  0.3777  0.2141
  194MPD1     H 3007   2.456   3.378  17.126  1.9109  0.4937  1.2543
  194MPD1    H1 3008   2.542   3.465  17.530  2.4677 -0.7931 -1.6611
  194MPD1    H2 3009   2.199   3.638  17.349 -0.1141  0.6691 -1.0843
  194MPD1    H3 3010   2.334   3.603  17.539  2.0387  2.0172 -0.0084
  194MPD1     N 3011   2.618   3.319  17.349  0.9346  0.1104 -0.5254
  194MPD1    H5 3012   2.664   3.298  17.437  0.1375 -0.5320 -0.2580
  194MPD1    N1 3013   2.242   3.526  17.106  0.2308  0.2087  0.6370
  194MPD1    H6 3014   2.181   3.606  17.093 -0.7843 -0.9546 -1.7183
  194MPD1    H7 3015   2.302   3.515  17.025  0.0711  0.5830  0.4704
  195MPD1     C 3016   4.699   0.512   0.852  0.4519  0.3015 -0.0100
  195MPD1    C1 3017   0.010   0.421   0.942  0.0014 -0.4903 -0.1065
  195MPD1    C2 3018   0.050   0.296   0.892 -0.5822  0.6604  1.2735
  195MPD1    C3 3019   0.045   0.262   0.758  0.1082 -0.6065 -0.4613
  195MPD1    C4 3020   4.730   0.354   0.676  0.0016 -0.0708  0.3270
  195MPD1    C5 3021   4.680   0.471   0.725 -0.5367 -0.3710 -0.1635
  195MPD1     H 3022   0.092   0.225   0.962 -0.6194 -0.9307 -0.3152
  195MPD1    H1 3023   4.724   0.332   0.570 -4.8053 -1.3281  0.8972
  195MPD1    H2 3024   4.658   0.608   0.881  1.1192  0.2594  1.0729
  195MPD1    H3 3025   4.633   0.536   0.651  0.5106 -0.7497 -1.1599
  195MPD1     N 3026   0.086   0.135   0.705  0.3815 -0.3029  0.7890
  195MPD1    H5 3027   0.091   0.117   0.605  0.8678  0.1458  0.7325
  195MPD1    N1 3028   0.041   0.454   1.072  0.3943 -0.2663  0.4447
  195MPD1    H6 3029   4.725   0.529   1.110  1.6180  0.6093  0.5283
  195MPD1    H7 3030   0.030   0.373   1.133 -1.1684  0.1825  0.7529
  196MPD1     C 3031   4.206   4.684   0.073 -0.1236  0.2563 -0.1860
  196MPD1    C1 3032   4.130   4.731   0.178  0.5181 -0.5900 -0.1373
  196MPD1    C2 3033   4.187   4.740   0.307 -0.2388  0.0559  0.6015
  196MPD1    C3 3034   4.322   4.710   0.328 -0.0777  0.0275  0.1013
  196MPD1    C4 3035   4.398   4.669   0.220 -0.4003 -0.1174 -0.1342
  196MPD1    C5 3036   4.342   4.664   0.097  1.2620  0.1278  0.6229
  196MPD1     H 3037   4.117   0.027   0.385 -0.4860  0.1455  0.3520
  196MPD1    H1 3038   4.506   4.657   0.225 -0.2101  2.0794  1.2136
  196MPD1    H2 3039   4.170   4.670  17.729 -0.7883  1.5378 -0.1251
  196MPD1    H3 3040   4.400   4.629   0.012  1.8469  2.8044 -0.0767
  196MPD1     N 3041   4.388   0.001   0.448  0.1694  0.2668 -0.6374
  196MPD1    H5 3042   4.484   4.708   0.457  0.1350  0.3210 -0.0963
  196MPD1    N1 3043   4.002   0.049   0.147 -0.3322 -0.4530 -0.5860
  196MPD1    H6 3044   3.937   0.060   0.224  0.4570 -2.1880  0.3254
  196MPD1    H7 3045   3.952   0.004   0.070 -2.6615  0.3844  0.4528
  197MPD1     C 3046   3.716   1.248   0.027 -0.2257 -0.7299 -0.0445
  197MPD1    C1 3047   3.844   1.306   0.054  0.4921 -0.4104  0.0414
  197MPD1    C2 3048   3.902   1.398  17.724  0.3207  0.0745 -0.1855
  197MPD1    C3 3049   3.832   1.427  17.609 -0.0126 -0.6949  0.1323
  197MPD1    C4 3050   3.711   1.372  17.582  0.6474  0.4803 -0.6031
  197MPD1    C5 3051   3.655   1.283  17.669  1.3148  0.0424  0.1927
  197MPD1     H 3052   3.999   1.434  17.754 -0.1190  0.9389  0.2015
  197MPD1    H1 3053   3.664   1.393  17.487 -3.4841 -1.2090  1.0874
  197MPD1    H2 3054   3.675   1.162   0.077 -0.5167  0.6637  2.0935
  197MPD1    H3 3055   3.555   1.257  17.639  1.1077  1.6538 -0.5594
  197MPD1     N 3056   3.878   1.516  17.510  0.3458 -0.0328  0.1704
  197MPD1    H5 3057   3.831   1.525  17.420 -1.0056 -1.1194  0.7722
  197MPD1    N1 3058   3.894   1.296   0.187  0.7603  0.4121  0.0182
  197MPD1    H6 3059   3.873   1.205   0.228  2.0781 -0.5321 -1.3726
  197MPD1    H7 3060   3.995   1.311   0.186  0.8797 -0.4991 -3.3305
  198MPD1     C 3061   0.684   4.254  15.788  0.3349 -0.1671 -0.4994
  198MPD1    C1 3062   0.801   4.234  15.735 -0.3252 -0.2144 -0.1694
  198MPD1    C2 3063   0.915   4.287  15.785 -0.2225 -0.1261  0.1175
  198MPD1    C3 3064   0.906   4.343  15.912  0.0430 -0.4247 -0.0400
  198MPD1    C4 3065   0.785   4.376  15.973  0.9351  0.8433 -0.6032
  198MPD1    C5 3066   0.678   4.320  15.910  0.1848  0.0667 -0.0446
  198MPD1     H 3067   1.013   4.280  15.739  0.2493 -2.1587  1.4538
  198MPD1    H1 3068   0.772   4.426  16.068  1.2428  0.1024 -0.1654
  198MPD1    H2 3069   0.589   4.214  15.754  0.7185  0.7749 -2.6798
  198MPD1    H3 3070   0.576   4.335  15.941  1.1928  0.1988  3.1956
  198MPD1     N 3071   1.026   4.386  15.968 -0.0956  0.3370 -0.2721
  198MPD1    H5 3072   1.107   4.370  15.910  0.6414 -0.6433  1.0150
  198MPD1    N1 3073   0.809   4.156  15.619 -0.2501  0.1368  0.2872
  198MPD1    H6 3074   0.887   4.091  15.615 -1.0517 -0.7959 -0.5667
  198MPD1    H7 3075   0.735   4.092  15.589  1.0114 -2.4115  2.5893
  199MPD1     C 3076   4.056   0.559   9.750 -0.2048  0.1825  0.6860
  199MPD1    C1 3077   3.948   0.649   9.734  0.1214 -0.6655 -0.7035
  199MPD1    C2 3078   3.852   0.654   9.835  0.1180  0.2661  1.1764
  199MPD1    C3 3079   3.862   0.574   9.949 -0.0520  0.0937  0.7036
  199MPD1    C4 3080   3.971   0.488   9.966 -0.5444 -0.1794 -0.4966
  199MPD1    C5 3081   4.056   0.477   9.860 -0.1532  0.4477 -0.8028
  199MPD1     H 3082   3.776   0.728   9.816  0.2980 -0.0941 -1.0248
  199MPD1    H1 3083   3.977   0.429  10.057 -2.8138  2.5194  1.4240
  199MPD1    H2 3084   4.130   0.551   9.672 -1.4024  2.6527 -0.7115
  199MPD1    H3 3085   4.135   0.405   9.872  0.9661  1.6594 -0.9473
  199MPD1     N 3086   3.763   0.552  10.046  0.2713  0.4219 -0.2690
  199MPD1    H5 3087   3.773   0.469  10.104 -2.1746  1.6013  1.8308
  199MPD1    N1 3088   3.955   0.744   9.631 -0.3007  0.0568  0.0369
  199MPD1    H6 3089   3.857   0.759   9.609 -0.1695 -1.8758 -1.8863
  199MPD1    H7 3090   3.995   0.700   9.548 -1.8205  2.3313 -1.8807
  200MPD1     C 3091   1.547   1.427  15.808  0.6050  0.0214  0.5095
  200MPD1    C1 3092   1.627   1.491  15.897 -0.9097 -1.0255 -0.5195
  200MPD1    C2 3093   1.764   1.494  15.875 -0.7110  0.3269  0.6401
  200MPD1    C3 3094   1.822   1.420  15.775 -0.9510  0.1515 -0.2125
  200MPD1    C4 3095   1.739   1.352  15.683  0.4779 -0.3469  0.3574
  200MPD1    C5 3096   1.605   1.367  15.701 -0.0292 -0.2718  0.1042
  200MPD1     H 3097   1.831   1.547  15.942 -0.4768 -2.0004  2.2591
  200MPD1    H1 3098   1.770   1.291  15.599 -1.0063 -0.0949 -0.3733
  200MPD1    H2 3099   1.439   1.422  15.812  0.7801 -1.8998  2.4498
  200MPD1    H3 3100   1.541   1.330  15.622  0.9718  0.5370 -1.0880
  200MPD1     N 3101   1.964   1.412  15.772 -0.2274  0.0010  0.5360
  200MPD1    H5 3102   2.012   1.470  15.840  0.0686 -0.0802  0.3986
  200MPD1    N1 3103   1.577   1.584  15.991  0.2344 -0.1703 -0.1601
  200MPD1    H6 3104   1.483   1.564  16.024  0.0203 -0.3328 -0.8689
  200MPD1    H7 3105   1.636   1.591  16.074  0.5774  1.5327 -0.5501
  201MPD1     C 3106   0.991   4.020  13.584 -0.7293 -0.5103 -0.1247
  201MPD1    C1 3107   0.926   4.034  13.704 -0.7627 -0.2639 -0.3428
  201MPD1    C2 3108   0.794   4.009  13.708  0.2419  0.0491 -0.2155
  201MPD1    C3 3109   0.726   3.975  13.592 -0.2369  0.0048 -0.3358
  201MPD1    C4 3110   0.794   3.948  13.479  0.0207  0.1433 -0.3536
  201MPD1    C5 3111   0.931   3.968  13.474  0.1624 -0.0608  0.1567
  201MPD1     H 3112   0.739   4.033  13.798  0.6178 -0.0804  0.0496
  201MPD1    H1 3113   0.748   3.917  13.386  0.0028  0.3463 -0.4118
  201MPD1    H2 3114   1.094   4.055  13.577 -0.0618 -2.3656  0.1426
  201MPD1    H3 3115   0.980   3.947  13.380 -0.1044  2.1917 -0.5089
  201MPD1     N 3116   0.584   3.975  13.600 -0.3081  0.3161 -0.2176
  201MPD1    H5 3117   0.544   4.005  13.688 -1.1907 -0.9172 -0.1891
  201MPD1    N1 3118   0.990   4.050  13.826  0.0688  0.5709  0.1137
  201MPD1    H6 3119   0.931   4.108  13.885  0.8629 -0.9154  2.3394
  201MPD1    H7 3120   1.079   4.100  13.820  0.8724 -1.2087 -2.8105
  202MPD1     C 3121   4.020   4.009   9.531 -0.4299  0.6614  0.3984
  202MPD1    C1 3122   3.984   3.886   9.589 -0.2403 -0.4593 -0.4401
  202MPD1    C2 3123   4.092   3.801   9.604  0.2284 -0.2031 -0.1258
  202MPD1    C3 3124   4.218   3.848   9.614  0.2000  0.4057  0.4634
  202MPD1    C4 3125   4.237   3.978   9.583  0.1660  0.0556  0.0614
  202MPD1    C5 3126   4.138   4.060   9.530 -1.0118  0.6293 -1.1230
  202MPD1     H 3127   4.061   3.701   9.632  1.6627 -0.9644 -1.2562
  202MPD1    H1 3128   4.336   4.021   9.587 -0.0275  0.3606  1.4383
  202MPD1    H2 3129   3.944   4.079   9.500 -0.7743 -0.3844 -1.1187
  202MPD1    H3 3130   4.166   4.158   9.492 -0.8155  0.4658 -1.4017
  202MPD1     N 3131   4.320   3.765   9.662  0.0449 -0.1627  1.0649
  202MPD1    H5 3132   4.407   3.809   9.690 -0.6988  1.4481  0.8454
  202MPD1    N1 3133   3.862   3.838   9.555 -0.5213  0.1374  0.3184
  202MPD1    H6 3134   3.830   3.759   9.611 -1.0637 -0.0591 -0.2626
  202MPD1    H7 3135   3.794   3.913   9.565  0.3113  0.5668  2.9029
  203MPD1     C 3136   3.273   0.638  13.056  0.2066  0.0353 -0.4345
  203MPD1    C1 3137   3.299   0.576  13.175 -0.0761 -0.1411  0.2276
  203MPD1    C2 3138   3.396   0.469  13.169 -0.1489 -0.1949 -0.1765
  203MPD1    C3 3139   3.452   0.415  13.052  0.3375  0.1737 -0.5090
  203MPD1    C4 3140   3.416   0.483  12.933 -0.5516 -0.4390  0.3058
  203MPD1    C5 3141   3.330   0.588  12.943  0.4654 -0.4814 -0.5526
  203MPD1     H 3142   3.435   0.428  13.261 -0.4915 -1.5927 -0.6513
  203MPD1    H1 3143   3.444   0.433  12.841  4.5069  0.0241  1.5635
  203MPD1    H2 3144   3.217   0.730  13.044  0.0274 -0.0187 -0.0110
  203MPD1    H3 3145   3.296   0.633  12.851 -1.3312 -1.9842 -0.6348
  203MPD1     N 3146   3.533   0.299  13.060  0.7188 -0.1387 -0.4296
  203MPD1    H5 3147   3.541   0.251  13.149  1.8690  1.2607  0.2246
  203MPD1    N1 3148   3.281   0.647  13.293 -0.7026 -0.3132 -0.9081
  203MPD1    H6 3149   3.199   0.708  13.294  1.6301  2.7840  1.3504
  203MPD1    H7 3150   3.276   0.587  13.376  0.9930 -2.1986 -2.1717
  204MPD1     C 3151   2.956   1.870   0.145  0.0910  0.0668 -0.1752
  204MPD1    C1 3152   3.038   1.826   0.042 -0.7742 -0.4868  0.1278
  204MPD1    C2 3153   3.048   1.699   0.027  0.3171  0.1816 -0.3058
  204MPD1    C3 3154   2.972   1.604   0.091  0.5058 -0.1976  0.0556
  204MPD1    C4 3155   2.880   1.644   0.186  0.0200 -0.3803  0.3277
  204MPD1    C5 3156   2.882   1.777   0.216 -0.1785 -0.1428  0.6244
  204MPD1     H 3157   3.117   1.662  17.710  0.0126  0.3582 -0.6715
  204MPD1    H1 3158   2.818   1.577   0.243 -1.3015  1.2097  0.7500
  204MPD1    H2 3159   2.940   1.975   0.168 -0.5722 -0.2466  0.8333
  204MPD1    H3 3160   2.805   1.805   0.286 -0.1568  0.7406  0.2992
  204MPD1     N 3161   2.987   1.476   0.041 -0.1560  0.1058  0.4157
  204MPD1    H5 3162   3.024   1.468  17.704 -1.4992  0.1435 -0.1076
  204MPD1    N1 3163   3.135   1.920  17.756  0.3901 -0.1663  0.2385
  204MPD1    H6 3164   3.178   1.914  17.664 -0.2669 -1.0818 -0.0147
  204MPD1    H7 3165   3.087   2.010  17.753  1.6020  0.4650 -0.4132
  205MPD1     C 3166   3.268   0.003  17.097 -0.9595  0.0191 -0.5512
  205MPD1    C1 3167   3.148   4.668  17.106  0.0266 -0.0696  0.2908
  205MPD1    C2 3168   3.072   4.679  17.222 -0.1960 -0.2068 -0.0755
  205MPD1    C3 3169   3.120   0.001  17.340  0.5759  0.7166  0.0309
  205MPD1    C4 3170   3.245   0.059  17.330 -0.0400  0.1904 -0.0075
  205MPD1    C5 3171   3.318   0.063  17.212 -0.5281 -0.0566  0.1805
  205MPD1     H 3172   2.976   4.630  17.222 -0.2470 -0.1200 -1.6409
  205MPD1    H1 3173   3.301   0.099  17.413  0.0592  0.4247 -0.1882
  205MPD1    H2 3174   3.328   0.019  17.009  0.9474 -2.8140  0.2315
  205MPD1    H3 3175   3.409   0.122  17.209  0.0535 -1.1172 -3.4258
  205MPD1     N 3176   3.034   0.020  17.448 -0.1083  0.6896  0.4259
  205MPD1    H5 3177   2.936   4.732  17.445  0.1704 -0.0646 -1.6506
  205MPD1    N1 3178   3.085   4.625  16.983  0.3442 -0.0467 -0.3983
  205MPD1    H6 3179   3.021   4.552  17.013 -0.9713  1.1179 -0.3600
  205MPD1    H7 3180   3.150   4.589  16.914  2.0782  1.9062  0.2215
  206MPD1     C 3181   3.363   2.845  17.141 -0.1290  0.6020 -0.1891
  206MPD1    C1 3182   3.306   2.964  17.175 -1.1305  0.1186 -0.5795
  206MPD1    C2 3183   3.216   3.024  17.089  0.5199 -0.4763  0.1749
  206MPD1    C3 3184   3.206   2.968  16.957  0.0903 -0.3376  0.0258
  206MPD1    C4 3185   3.286   2.863  16.915 -0.7203  0.0119 -0.2447
  206MPD1    C5 3186   3.359   2.795  17.012 -0.0302  0.1813  0.0466
  206MPD1     H 3187   3.168   3.117  17.119 -0.8990 -0.8926 -0.8649
  206MPD1    H1 3188   3.270   2.818  16.818  0.1752 -1.5986  0.3623
  206MPD1    H2 3189   3.433   2.796  17.208  0.7263 -0.4170 -1.8200
  206MPD1    H3 3190   3.405   2.697  16.998 -1.3474 -0.6226  1.3791
  206MPD1     N 3191   3.115   3.026  16.864  0.5238  0.2539  0.0683
  206MPD1    H5 3192   3.124   2.980  16.775 -1.4033  0.8932 -0.4439
  206MPD1    N1 3193   3.323   3.010  17.314  0.2380  0.2877 -0.3901
  206MPD1    H6 3194   3.304   3.109  17.327  1.2259  0.3001  0.9427
  206MPD1    H7 3195   3.413   2.992  17.358 -0.2822  0.7228  0.8497
  207MPD1     C 3196   1.669   4.086   9.405  0.7479  0.0663 -0.1160
  207MPD1    C1 3197   1.610   4.207   9.383  0.9702 -0.1367 -0.3047
  207MPD1    C2 3198   1.597   4.295   9.494  0.1051 -0.6804  0.1892
  207MPD1    C3 3199   1.632   4.262   9.621  0.1892 -0.0409  0.6225
  207MPD1    C4 3200   1.677   4.134   9.641  0.3971  0.1531  0.0869
  207MPD1    C5 3201   1.694   4.052   9.535  0.1759  0.0123 -0.9827
  207MPD1     H 3202   1.570   4.398   9.476 -1.7685 -1.3188 -0.6676
  207MPD1    H1 3203   1.714   4.103   9.738 -0.9536  0.9178  0.8569
  207MPD1    H2 3204   1.694   4.014   9.328 -1.9884 -0.3140 -0.6255
  207MPD1    H3 3205   1.734   3.951   9.545 -0.3145 -0.2010 -1.1637
  207MPD1     N 3206   1.621   4.344   9.733 -0.2837  0.4674  0.0984
  207MPD1    H5 3207   1.664   4.306   9.817 -2.0133 -0.5679  0.5007
  207MPD1    N1 3208   1.613   4.259   9.255 -0.0875  0.5861  0.2673
  207MPD1    H6 3209   1.539   4.322   9.226 -1.3115 -0.0355  2.0490
  207MPD1    H7 3210   1.600   4.185   9.187  0.1839  1.2065 -0.4625
  208MPD1     C 3211   3.125   3.081   0.371 -0.1951 -0.3357 -0.1163
  208MPD1    C1 3212   3.045   3.154   0.288 -0.1261  1.2958 -0.4452
  208MPD1    C2 3213   3.050   3.291   0.301  0.2322  0.1177  1.1946
  208MPD1    C3 3214   3.126   3.352   0.399  0.3372  0.3737 -0.3158
  208MPD1    C4 3215   3.217   3.273   0.467 -0.4423 -0.0262 -0.6254
  208MPD1    C5 3216   3.207   3.137   0.461 -0.8456  0.6518 -0.3310
  208MPD1     H 3217   2.987   3.353   0.238  0.6969 -1.7511 -1.1126
  208MPD1    H1 3218   3.281   3.311   0.545 -1.7827 -1.0985  0.9818
  208MPD1    H2 3219   3.123   2.972   0.370 -0.3471 -0.3347 -0.0100
  208MPD1    H3 3220   3.267   3.068   0.519  1.2689  0.1394 -3.1437
  208MPD1     N 3221   3.123   3.492   0.428  0.4126 -0.1473 -0.1921
  208MPD1    H5 3222   3.058   3.546   0.371 -0.2701 -1.3319 -0.5304
  208MPD1    N1 3223   2.976   3.086   0.181  0.5418 -0.4010 -0.3213
  208MPD1    H6 3224   3.027   3.092   0.093 -0.4167  2.2823 -0.6808
  208MPD1    H7 3225   2.969   2.987   0.203  0.4680 -0.3376 -0.0588
  209MPD1     C 3226   1.473   3.434  11.022  0.1464  0.2076 -0.1208
  209MPD1    C1 3227   1.574   3.483  10.937 -1.0016 -0.7930 -0.2956
  209MPD1    C2 3228   1.604   3.621  10.939  0.4835 -0.5802 -0.0896
  209MPD1    C3 3229   1.529   3.705  11.020  0.1243 -0.4328  0.8027
  209MPD1    C4 3230   1.437   3.654  11.111  0.3986 -1.0669  0.2700
  209MPD1    C5 3231   1.409   3.523  11.103 -0.9909 -1.1135 -0.0851
  209MPD1     H 3232   1.679   3.661  10.871 -0.3390  2.0866  0.5772
  209MPD1    H1 3233   1.365   3.715  11.164  0.8192 -0.3143 -0.0341
  209MPD1    H2 3234   1.444   3.330  11.016  1.2113 -0.1133  0.2504
  209MPD1    H3 3235   1.324   3.486  11.158 -0.8237  1.8147  2.1165
  209MPD1     N 3236   1.552   3.841  11.012 -0.9671 -0.5351 -0.3588
  209MPD1    H5 3237   1.610   3.861  10.931 -0.4298  1.4916  0.5274
  209MPD1    N1 3238   1.644   3.387  10.861  0.1723  0.2244  0.4389
  209MPD1    H6 3239   1.605   3.294  10.849 -2.6823  1.5500 -0.5043
  209MPD1    H7 3240   1.688   3.419  10.774 -0.3346 -1.0462 -0.2857
  210MPD1     C 3241   1.860   4.524  11.651  0.0967  0.1299  1.0282
  210MPD1    C1 3242   1.815   4.605  11.551  0.4568  0.1498 -0.5923
  210MPD1    C2 3243   1.764   4.548  11.431 -0.1679 -0.1273 -0.8454
  210MPD1    C3 3244   1.752   4.408  11.425 -0.4074  0.2020 -0.1127
  210MPD1    C4 3245   1.789   4.328  11.529 -0.3459  0.1658  2.0400
  210MPD1    C5 3246   1.838   4.385  11.640  0.7635  0.1140  0.9309
  210MPD1     H 3247   1.743   4.607  11.343  0.6830 -0.1195 -1.0428
  210MPD1    H1 3248   1.782   4.219  11.532  0.8743  0.0856  2.1909
  210MPD1    H2 3249   1.899   4.557  11.747 -1.1736 -0.9664  1.9264
  210MPD1    H3 3250   1.875   4.329  11.725  2.0328 -1.0278 -0.3890
  210MPD1     N 3251   1.699   4.328  11.315  0.2596  0.3072  0.3171
  210MPD1    H5 3252   1.697   4.226  11.321  0.8808  0.2834  0.1084
  210MPD1    N1 3253   1.830   4.738  11.559  0.0800  0.1386 -0.0764
  210MPD1    H6 3254   1.774   0.057  11.498  0.2348 -0.7154 -1.0452
  210MPD1    H7 3255   1.849   0.029  11.654 -0.2765  0.5555 -0.1437
  211MPD1     C 3256   3.734   0.271  17.071 -0.6057 -0.3637  0.1199
  211MPD1    C1 3257   3.627   0.343  17.123 -0.4263  0.2575  0.0150
  211MPD1    C2 3258   3.505   0.335  17.059  0.0712 -0.4226 -0.0700
  211MPD1    C3 3259   3.496   0.250  16.945  0.3480 -0.3914 -0.2706
  211MPD1    C4 3260   3.601   0.176  16.901  0.0431 -0.1957  0.4130
  211MPD1    C5 3261   3.721   0.187  16.959  0.3233 -0.4206  0.1640
  211MPD1     H 3262   3.413   0.379  17.096  0.0537 -0.8711  0.4289
  211MPD1    H1 3263   3.588   0.106  16.820  1.0529  0.6797 -0.5228
  211MPD1    H2 3264   3.833   0.276  17.114 -0.7088  0.4678  0.2533
  211MPD1    H3 3265   3.802   0.130  16.916  0.3362  1.2825 -2.0775
  211MPD1     N 3266   3.373   0.250  16.875  0.5316 -0.1641  0.6003
  211MPD1    H5 3267   3.306   0.316  16.914 -0.4940 -0.8469 -0.0038
  211MPD1    N1 3268   3.636   0.430  17.232  0.1408  0.3853  0.6003
  211MPD1    H6 3269   3.724   0.480  17.224  0.9999 -1.2380 -0.2096
  211MPD1    H7 3270   3.561   0.497  17.221  0.8721  0.8715 -1.5070
  212MPD1     C 3271   2.535   3.669  16.755 -0.6400  0.3426 -0.7442
  212MPD1    C1 3272   2.611   3.570  16.813  0.2442  0.8104 -0.6220
  212MPD1    C2 3273   2.553   3.451  16.852 -0.6738 -0.5308  0.9022
  212MPD1    C3 3274   2.423   3.423  16.833  0.2108 -0.3406  0.3175
  212MPD1    C4 3275   2.343   3.519  16.775  0.3956 -0.1071 -0.1868
  212MPD1    C5 3276   2.399   3.641  16.739  0.1176 -0.6219 -0.2085
  212MPD1     H 3277   2.618   3.377  16.895  0.9407  0.1828 -0.3039
  212MPD1    H1 3278   2.238   3.500  16.757  0.4158 -1.4074  1.0566
  212MPD1    H2 3279   2.578   3.761  16.717 -0.3042  1.3234  1.9954
  212MPD1    H3 3280   2.332   3.715  16.696 -2.4374 -2.9867 -0.3055
  212MPD1     N 3281   2.364   3.304  16.876 -0.4469  0.5658 -0.3767
  212MPD1    H5 3282   2.264   3.296  16.887 -0.7581  2.0397 -2.0260
  212MPD1    N1 3283   2.752   3.583  16.822 -0.7425 -0.2397  0.4061
  212MPD1    H6 3284   2.775   3.682  16.833  1.4801 -0.5293 -1.6272
  212MPD1    H7 3285   2.793   3.513  16.883 -1.2345 -0.2429  0.7312
  213MPD1     C 3286   0.057   3.606  15.917  0.4107  0.0092 -0.4792
  213MPD1    C1 3287   4.727   3.515  15.843  0.2382  0.9827  0.1788
  213MPD1    C2 3288   4.727   3.523  15.702 -0.0089 -0.4050  0.4822
  213MPD1    C3 3289   0.023   3.647  15.640 -0.5296 -0.0714  0.0279
  213MPD1    C4 3290   0.064   3.753  15.725  0.4008  0.4459  0.6823
  213MPD1    C5 3291   0.085   3.720  15.857 -0.4017 -0.3846 -0.4194
  213MPD1     H 3292   4.716   3.430  15.649  1.7294 -0.5907  0.4342
  213MPD1    H1 3293   0.084   3.854  15.688  1.0610  0.5604  1.3343
  213MPD1    H2 3294   0.050   3.603  16.025  0.0393 -0.2225 -0.5095
  213MPD1    H3 3295   0.124   3.801  15.918 -0.2199 -0.8961  0.1341
  213MPD1     N 3296   0.023   3.654  15.494  0.4282 -0.1655  0.0568
  213MPD1    H5 3297   0.014   3.568  15.441  0.6027  0.5763 -1.1796
  213MPD1    N1 3298   4.715   3.389  15.905  0.1240  0.9294 -0.6110
  213MPD1    H6 3299   4.635   3.336  15.869 -1.2825  1.9154  1.0674
  213MPD1    H7 3300   4.690   3.399  16.003 -0.9899 -0.3639 -0.7693
  214MPD1     C 3301   4.384   3.171  14.884 -0.2500  0.3099 -0.6396
  214MPD1    C1 3302   4.491   3.214  14.814  0.3993  0.7168  0.0874
  214MPD1    C2 3303   4.577   3.299  14.876  0.5238  0.3061 -0.4176
  214MPD1    C3 3304   4.565   3.345  15.010  0.2011 -0.2296  0.0318
  214MPD1    C4 3305   4.463   3.283  15.080  0.0229 -0.4606 -0.3046
  214MPD1    C5 3306   4.371   3.196  15.018  0.1725  0.7292  0.4556
  214MPD1     H 3307   4.656   3.343  14.816  0.1769  2.2719  0.5515
  214MPD1    H1 3308   4.445   3.314  15.182 -1.9416  0.2815 -0.8746
  214MPD1    H2 3309   4.305   3.120  14.830  0.6486 -1.7012 -0.0573
  214MPD1    H3 3310   4.290   3.142  15.065 -0.0794  0.0635 -0.7551
  214MPD1     N 3311   4.640   3.451  15.059 -0.4374 -0.5799  0.1739
  214MPD1    H5 3312   4.605   3.472  15.153  1.4690  1.8003  0.3502
  214MPD1    N1 3313   4.510   3.180  14.677  0.2863  0.0920  0.2288
  214MPD1    H6 3314   4.610   3.164  14.662  0.2587  0.9021 -0.8061
  214MPD1    H7 3315   4.460   3.099  14.642  0.5938 -0.3214  0.7386
  215MPD1     C 3316   1.380   3.765  10.629 -0.3525  0.3166 -0.2608
  215MPD1    C1 3317   1.319   3.709  10.741  0.5313 -0.3112 -0.5494
  215MPD1    C2 3318   1.253   3.791  10.826 -0.4693 -0.9564 -0.2829
  215MPD1    C3 3319   1.245   3.929  10.806  0.5147  0.0306  0.9456
  215MPD1    C4 3320   1.313   3.987  10.706  1.0909  0.2714  0.7543
  215MPD1    C5 3321   1.380   3.902  10.616 -0.3697  0.0807 -0.2050
  215MPD1     H 3322   1.208   3.746  10.914  0.6876  1.4929  1.5791
  215MPD1    H1 3323   1.322   4.093  10.686  0.8438 -0.2647 -2.1178
  215MPD1    H2 3324   1.440   3.706  10.561  0.9980  2.8879 -1.3143
  215MPD1    H3 3325   1.420   3.950  10.528 -1.0040 -0.3806 -0.7405
  215MPD1     N 3326   1.169   4.002  10.896 -0.7056  0.1313 -0.0350
  215MPD1    H5 3327   1.105   3.948  10.954 -1.4916  0.1043 -0.9277
  215MPD1    N1 3328   1.305   3.570  10.753 -0.2121 -0.3610  0.2416
  215MPD1    H6 3329   1.384   3.519  10.714 -0.1697  2.1759 -2.9359
  215MPD1    H7 3330   1.309   3.547  10.852 -3.4192 -2.5913 -0.1513
  216MPD1     C 3331   2.462   3.142  17.560  0.3045 -0.5918 -0.3279
  216MPD1    C1 3332   2.591   3.130  17.612 -0.1759  0.7954 -0.2866
  216MPD1    C2 3333   2.647   3.004  17.588  0.5502 -0.1222 -0.0972
  216MPD1    C3 3334   2.578   2.899  17.522 -0.4034 -0.0753  0.7525
  216MPD1    C4 3335   2.461   2.925  17.457 -0.1627 -1.1763  0.2774
  216MPD1    C5 3336   2.401   3.045  17.485 -0.3454  0.4671 -0.4263
  216MPD1     H 3337   2.746   2.982  17.626  1.2987 -0.6327 -2.2959
  216MPD1    H1 3338   2.401   2.852  17.403  0.5328  0.0258 -2.1093
  216MPD1    H2 3339   2.404   3.230  17.586  1.5534  0.2550 -0.3896
  216MPD1    H3 3340   2.297   3.060  17.459 -0.1478  0.4465 -1.2159
  216MPD1     N 3341   2.639   2.773  17.524 -0.2266 -0.1983 -0.1420
  216MPD1    H5 3342   2.729   2.774  17.572 -1.7024  1.2742  2.5815
  216MPD1    N1 3343   2.660   3.240  17.672 -0.9786 -0.3283  0.3095
  216MPD1    H6 3344   2.735   3.212  17.735 -1.7347 -2.5665  0.2022
  216MPD1    H7 3345   2.603   3.311  17.717  0.3504  0.1240  1.2814
  217MPD1     C 3346   3.904   4.323   9.269  0.3442 -0.8336  0.1416
  217MPD1    C1 3347   3.775   4.324   9.310  0.4998 -0.2496 -0.4070
  217MPD1    C2 3348   3.711   4.204   9.306 -0.5590  0.4373  0.4315
  217MPD1    C3 3349   3.761   4.092   9.239 -0.0169 -0.5329 -0.0726
  217MPD1    C4 3350   3.881   4.102   9.174  0.6959 -0.1956  0.0339
  217MPD1    C5 3351   3.950   4.213   9.196 -0.1783  0.8356 -0.2779
  217MPD1     H 3352   3.607   4.205   9.339 -0.3992  0.8225  0.9167
  217MPD1    H1 3353   3.931   4.020   9.123  0.6125  0.0709 -0.4846
  217MPD1    H2 3354   3.966   4.411   9.258  0.4238 -0.8766  0.2444
  217MPD1    H3 3355   4.050   4.219   9.153 -1.0933  1.4200 -2.3098
  217MPD1     N 3356   3.694   3.969   9.228  0.4520  0.3694 -0.4282
  217MPD1    H5 3357   3.736   3.902   9.164 -0.2495 -0.8838  0.4405
  217MPD1    N1 3358   3.715   4.436   9.371 -0.2722  0.4140  0.6357
  217MPD1    H6 3359   3.751   4.524   9.334 -1.3243  0.2751 -0.7190
  217MPD1    H7 3360   3.614   4.423   9.372 -0.2734  0.4585  2.0971
  218MPD1     C 3361   0.333   0.443  12.828 -0.4937 -0.1781 -0.1781
  218MPD1    C1 3362   0.320   0.402  12.697  0.0989 -0.2700  0.0634
  218MPD1    C2 3363   0.432   0.346  12.637 -0.2871 -0.2306  0.6772
  218MPD1    C3 3364   0.557   0.347  12.696  0.5070  0.3525 -0.5116
  218MPD1    C4 3365   0.564   0.403  12.824 -0.8504  0.1856  0.1807
  218MPD1    C5 3366   0.451   0.452  12.887 -0.4053  0.4859  0.4636
  218MPD1     H 3367   0.417   0.314  12.534 -2.6337  2.1005  0.2763
  218MPD1    H1 3368   0.659   0.413  12.874 -1.3646  3.0046  0.5698
  218MPD1    H2 3369   0.251   0.477  12.890 -0.1769 -0.6496  0.5002
  218MPD1    H3 3370   0.457   0.490  12.988  1.8095  2.1605 -0.2871
  218MPD1     N 3371   0.673   0.297  12.626 -0.1623 -0.1505 -0.4112
  218MPD1    H5 3372   0.652   0.269  12.531  1.0988 -2.8356  0.0936
  218MPD1    N1 3373   0.194   0.388  12.639 -0.7625  0.0272  0.5938
  218MPD1    H6 3374   0.131   0.460  12.674 -0.6901  1.2223 -1.7407
  218MPD1    H7 3375   0.196   0.387  12.537  1.4625  0.0156  0.6357
  219MPD1     C 3376   0.630   4.529  11.893 -0.6516  0.1810  0.2473
  219MPD1    C1 3377   0.651   4.663  11.890 -0.0956  0.5923 -0.3837
  219MPD1    C2 3378   0.716   4.720  12.006  0.1087 -0.2495  0.0388
  219MPD1    C3 3379   0.769   4.640  12.104  0.2062  0.9697 -0.3737
  219MPD1    C4 3380   0.736   4.508  12.105 -0.3884 -0.8669  0.3904
  219MPD1    C5 3381   0.669   4.452  11.992 -0.0026  0.7213 -0.0832
  219MPD1     H 3382   0.746   0.085  12.006  1.8706 -0.7416 -0.5920
  219MPD1    H1 3383   0.770   4.436  12.179  1.8933 -0.2226 -0.0594
  219MPD1    H2 3384   0.578   4.488  11.807  0.0839 -0.6763  0.2103
  219MPD1    H3 3385   0.669   4.344  11.986  1.3965  0.7076  0.2289
  219MPD1     N 3386   0.837   4.683  12.217  0.2939 -0.0723 -0.1217
  219MPD1    H5 3387   0.838   4.623  12.299  0.5592  1.8351  1.2681
  219MPD1    N1 3388   0.631   4.733  11.771  0.1368 -0.4690  0.3273
  219MPD1    H6 3389   0.555   4.691  11.717  0.4124 -2.7154  1.7032
  219MPD1    H7 3390   0.588   0.081  11.796  2.9136  0.9145  0.2663
  220MPD1     C 3391   0.466   3.298  10.289 -0.4041 -0.8773 -0.0664
  220MPD1    C1 3392   0.357   3.331  10.223  0.0591 -0.1769  1.0902
  220MPD1    C2 3393   0.285   3.443  10.267 -0.0555 -0.4358  0.1880
  220MPD1    C3 3394   0.335   3.530  10.360  0.0436 -0.8748  0.2914
  220MPD1    C4 3395   0.458   3.503  10.421  0.6644 -0.4283 -0.4278
  220MPD1    C5 3396   0.520   3.384  10.386  0.2242 -0.1355  0.2877
  220MPD1     H 3397   0.200   3.473  10.208  0.3498  1.5987  0.6503
  220MPD1    H1 3398   0.508   3.560  10.498 -0.7982 -2.4072  2.0151
  220MPD1    H2 3399   0.528   3.212  10.265  0.9357 -0.0053  0.2790
  220MPD1    H3 3400   0.615   3.357  10.430  0.0739 -0.9307  0.1175
  220MPD1     N 3401   0.256   3.646  10.396  0.0759  0.4356 -0.1580
  220MPD1    H5 3402   0.160   3.643  10.363  0.2356 -0.8838 -0.5117
  220MPD1    N1 3403   0.288   3.234  10.147  0.3521 -0.2578 -0.1848
  220MPD1    H6 3404   0.359   3.190  10.088  0.5447 -0.5710  0.2751
  220MPD1    H7 3405   0.218   3.279  10.090 -0.3592  0.2530  1.0951
  221MPD1     C 3406   3.767   3.463  16.591 -0.5158  0.4492 -0.4206
  221MPD1    C1 3407   3.715   3.527  16.699  0.4997  0.4685 -0.0585
  221MPD1    C2 3408   3.584   3.588  16.687  0.1070  0.3579 -0.3583
  221MPD1    C3 3409   3.524   3.581  16.563  0.5029  0.3837 -0.5944
  221MPD1    C4 3410   3.585   3.516  16.455  0.3790 -0.3746 -0.8826
  221MPD1    C5 3411   3.708   3.458  16.469  0.0064  0.4451  0.1902
  221MPD1     H 3412   3.542   3.629  16.778 -1.0635 -1.3246 -0.1529
  221MPD1    H1 3413   3.532   3.501  16.361 -1.8869 -0.1905  0.3737
  221MPD1    H2 3414   3.870   3.427  16.592 -0.8946 -0.5751  1.1063
  221MPD1    H3 3415   3.752   3.409  16.382  2.4028  0.5758  1.3230
  221MPD1     N 3416   3.393   3.640  16.543 -0.6794  0.5929  0.2595
  221MPD1    H5 3417   3.342   3.609  16.461 -0.0128 -0.2480  0.1587
  221MPD1    N1 3418   3.768   3.506  16.822  0.3178 -0.3355 -0.0191
  221MPD1    H6 3419   3.869   3.493  16.818  0.1219 -1.0680 -2.2821
  221MPD1    H7 3420   3.742   3.575  16.893  1.5285 -1.1918  1.2680
  222MPD1     C 3421   1.946   3.534  17.517  0.3218 -0.5337  0.2793
  222MPD1    C1 3422   1.897   3.476  17.637 -0.6040  0.0674  0.2214
  222MPD1    C2 3423   1.837   3.559  17.735 -0.1920 -0.4686  0.4352
  222MPD1    C3 3424   1.815   3.694  17.714  0.3590 -0.1142  0.4685
  222MPD1    C4 3425   1.870   3.743  17.592 -0.6629  0.5962 -0.2025
  222MPD1    C5 3426   1.940   3.669  17.504 -0.4633 -0.4071 -0.5020
  222MPD1     H 3427   1.818   3.509   0.072 -0.1795 -1.0767  0.1187
  222MPD1    H1 3428   1.880   3.850  17.579 -0.5158  0.6509  0.3500
  222MPD1    H2 3429   1.999   3.470  17.449  0.2745  0.2226 -0.4685
  222MPD1    H3 3430   1.969   3.714  17.410 -1.1575  1.7370  0.3195
  222MPD1     N 3431   1.761   3.785   0.049  1.0510 -0.1418  0.0264
  222MPD1    H5 3432   1.755   3.884   0.028 -0.7291 -0.3464 -0.4589
  222MPD1    N1 3433   1.929   3.340  17.668 -0.1945  0.4692  0.2835
  222MPD1    H6 3434   1.920   3.283  17.584  0.0612  0.9545 -0.0693
  222MPD1    H7 3435   1.871   3.306  17.745 -2.0390  1.7139 -0.5464
  223MPD1     C 3436   1.731   3.829   1.119 -0.0465  0.0398 -1.1908
  223MPD1    C1 3437   1.799   3.937   1.063  0.0094 -0.0803  0.1195
  223MPD1    C2 3438   1.773   3.973   0.929  0.0460 -0.3093 -0.0170
  223MPD1    C3 3439   1.683   3.909   0.859  0.1350 -0.4167  0.0755
  223MPD1    C4 3440   1.616   3.798   0.916  0.6078 -0.9654 -0.3253
  223MPD1    C5 3441   1.644   3.760   1.043 -0.0947  0.1337 -0.4476
  223MPD1     H 3442   1.830   4.059   0.899 -1.2139  0.9882  1.3344
  223MPD1    H1 3443   1.545   3.743   0.857  0.8023 -0.9358 -0.5852
  223MPD1    H2 3444   1.742   3.805   1.224 -0.6405  0.0151 -1.1337
  223MPD1    H3 3445   1.592   3.673   1.080  0.0166  1.8943  3.8035
  223MPD1     N 3446   1.677   3.938   0.719 -0.8180  0.2886  0.3617
  223MPD1    H5 3447   1.734   4.017   0.689  0.4939 -0.8643 -0.1856
  223MPD1    N1 3448   1.878   4.018   1.146  0.7992 -0.5631 -0.4320
  223MPD1    H6 3449   1.947   4.073   1.096  2.0022 -1.6383  0.0620
  223MPD1    H7 3450   1.911   3.960   1.223 -1.5141 -0.3515  0.7163
  224MPD1     C 3451   4.294   4.643   9.416 -0.3782 -0.2886  0.0538
  224MPD1    C1 3452   4.375   4.551   9.465  0.0411  0.2251 -0.2408
  224MPD1    C2 3453   4.321   4.457   9.553  0.0150 -0.5237 -0.1540
  224MPD1    C3 3454   4.186   4.455   9.588 -0.3167  0.2699 -0.3005
  224MPD1    C4 3455   4.104   4.541   9.522  0.9477 -0.0654 -0.0561
  224MPD1    C5 3456   4.159   4.631   9.435 -0.0791  0.1877 -0.0304
  224MPD1     H 3457   4.393   4.397   9.609 -0.7699 -0.4042  0.9732
  224MPD1    H1 3458   4.000   4.544   9.549  0.6776  0.4945 -1.1631
  224MPD1    H2 3459   4.332   4.723   9.353  2.1542  1.0032  3.2006
  224MPD1    H3 3460   4.087   4.700   9.392  2.0023  2.2511 -0.1688
  224MPD1     N 3461   4.122   4.376   9.689 -0.2569  0.1268  0.0033
  224MPD1    H5 3462   4.022   4.388   9.703 -0.2019  1.0991 -0.4270
  224MPD1    N1 3463   4.509   4.575   9.466  0.7683 -0.2314 -0.1449
  224MPD1    H6 3464   4.558   4.487   9.482 -0.8262 -0.7371  1.8756
  224MPD1    H7 3465   4.537   4.602   9.372  0.2989 -1.1656 -0.5540
  225MPD1     C 3466   0.704   1.112  12.375  0.6076 -0.4250  0.0365
  225MPD1    C1 3467   0.675   0.995  12.447 -0.1938 -0.5381 -0.1835
  225MPD1    C2 3468   0.552   0.937  12.434 -0.7713  0.1368 -0.6411
  225MPD1    C3 3469   0.456   0.988  12.344  0.3419 -0.3964  0.4309
  225MPD1    C4 3470   0.494   1.090  12.261  0.0908  0.3951 -0.1927
  225MPD1    C5 3471   0.613   1.154  12.281  0.1822 -0.1893 -0.2244
  225MPD1     H 3472   0.537   0.853  12.501  3.0587 -0.9261 -1.1208
  225MPD1    H1 3473   0.424   1.134  12.190 -1.2237 -0.0125  0.8532
  225MPD1    H2 3474   0.803   1.155  12.375  0.8242 -0.9310 -0.4317
  225MPD1    H3 3475   0.636   1.244  12.225 -0.1730 -0.0046 -0.0742
  225MPD1     N 3476   0.329   0.933  12.325 -0.2063 -0.4300 -0.1033
  225MPD1    H5 3477   0.260   0.991  12.278 -1.0024  0.0052  1.6213
  225MPD1    N1 3478   0.750   0.968  12.558  0.7508 -0.0758 -0.9656
  225MPD1    H6 3479   0.723   0.876  12.595  0.1332  2.0096  3.6843
  225MPD1    H7 3480   0.851   0.977  12.552  0.8000 -0.7709 -1.2008
  226MPD1     C 3481   4.377   0.264   9.093 -0.1561  0.3215 -0.0687
  226MPD1    C1 3482   4.427   0.263   9.223  0.1738  0.3821  0.6650
  226MPD1    C2 3483   4.330   0.249   9.327  0.4718  0.0630 -0.9281
  226MPD1    C3 3484   4.196   0.253   9.302 -0.2925  0.6287  0.3206
  226MPD1    C4 3485   4.151   0.268   9.172  0.2935  0.6578 -0.2830
  226MPD1    C5 3486   4.239   0.276   9.070  0.3832 -0.2540 -0.7182
  226MPD1     H 3487   4.371   0.239   9.426 -0.4866  0.3884 -0.4961
  226MPD1    H1 3488   4.047   0.244   9.150 -0.0465  0.6293  1.3372
  226MPD1    H2 3489   4.441   0.275   9.006 -0.4399  0.2738 -0.2853
  226MPD1    H3 3490   4.195   0.271   8.971 -1.4119  0.3449  0.0506
  226MPD1     N 3491   4.114   0.234   9.412 -0.2398  0.0482 -0.4834
  226MPD1    H5 3492   4.157   0.220   9.503 -1.0448  0.0401 -0.1086
  226MPD1    N1 3493   4.571   0.255   9.247 -1.0417  0.0202 -0.6129
  226MPD1    H6 3494   4.633   0.311   9.189 -1.4156  1.5997  0.5287
  226MPD1    H7 3495   4.598   0.278   9.343 -1.2506  0.8866 -0.7638
  227MPD1     C 3496   3.153   0.512   9.791  0.2038  0.2312  0.2250
  227MPD1    C1 3497   3.162   0.379   9.797  0.2069 -0.4054  0.4594
  227MPD1    C2 3498   3.289   0.327   9.782 -0.8672  0.2246  0.4399
  227MPD1    C3 3499   3.405   0.408   9.761  0.2182 -0.1324 -0.3138
  227MPD1    C4 3500   3.382   0.547   9.754  0.2363 -0.2045 -1.1466
  227MPD1    C5 3501   3.261   0.597   9.768  0.2983 -0.6517 -0.7906
  227MPD1     H 3502   3.301   0.219   9.791  2.2836  0.6049  0.6619
  227MPD1    H1 3503   3.458   0.624   9.753 -0.9241  0.9544 -0.7462
  227MPD1    H2 3504   3.057   0.561   9.800 -0.7950 -1.0536 -3.5301
  227MPD1    H3 3505   3.241   0.703   9.772 -1.9049 -1.0975  0.2300
  227MPD1     N 3506   3.538   0.345   9.748  0.0644  0.1823 -0.5941
  227MPD1    H5 3507   3.552   0.249   9.776 -1.6842  0.6318  1.8204
  227MPD1    N1 3508   3.050   0.299   9.829  0.2607 -1.0603  0.2442
  227MPD1    H6 3509   2.964   0.340   9.796  1.4076  0.8981 -0.2881
  227MPD1    H7 3510   3.061   0.207   9.785 -1.5149 -0.1122 -2.1564
  228MPD1     C 3511   2.600   3.005  13.292 -0.6077 -0.2536 -0.1809
  228MPD1    C1 3512   2.567   3.048  13.175 -0.0510 -0.1911 -0.0594
  228MPD1    C2 3513   2.437   3.092  13.151  0.5763  0.5207  0.2713
  228MPD1    C3 3514   2.332   3.080  13.244 -0.9982  0.3007  0.1598
  228MPD1    C4 3515   2.368   3.032  13.372  0.8217  0.6108  0.9979
  228MPD1    C5 3516   2.504   2.996  13.389 -1.0310  0.4759 -0.4336
  228MPD1     H 3517   2.418   3.120  13.048  4.2685  2.2004  0.0731
  228MPD1    H1 3518   2.299   3.025  13.455 -0.4825  0.2858 -0.1219
  228MPD1    H2 3519   2.699   2.965  13.312 -1.5813 -1.6517  1.7511
  228MPD1    H3 3520   2.536   2.962  13.486 -1.1153  1.5464 -0.0285
  228MPD1     N 3521   2.200   3.123  13.205  0.0306 -0.0707 -0.0445
  228MPD1    H5 3522   2.166   3.130  13.110 -0.0039  1.6911  0.1116
  228MPD1    N1 3523   2.667   3.056  13.074 -0.6892  0.1718 -0.4324
  228MPD1    H6 3524   2.745   2.990  13.079 -0.2716  0.6721 -0.2971
  228MPD1    H7 3525   2.628   3.040  12.982  0.8772 -0.2820 -1.0199
  229MPD1     C 3526   0.745   2.351  15.510  0.5322 -0.6235  0.0224
  229MPD1    C1 3527   0.778   2.437  15.616 -0.1941  0.6466  0.1630
  229MPD1    C2 3528   0.887   2.516  15.620  0.8891  0.4858  0.1374
  229MPD1    C3 3529   0.973   2.511  15.515 -0.2208  0.2745 -0.7272
  229MPD1    C4 3530   0.931   2.436  15.409  0.4213  0.7441 -0.1566
  229MPD1    C5 3531   0.829   2.347  15.398 -0.1138 -0.1390  0.2903
  229MPD1     H 3532   0.915   2.583  15.700 -0.8839  0.4129  0.7933
  229MPD1    H1 3533   0.982   2.444  15.314 -0.7078  1.4437 -0.7071
  229MPD1    H2 3534   0.667   2.276  15.510  0.5862 -0.6806 -0.8334
  229MPD1    H3 3535   0.796   2.312  15.301 -0.4838  1.3096 -0.1011
  229MPD1     N 3536   1.092   2.582  15.507  0.2537  0.1835  0.2649
  229MPD1    H5 3537   1.150   2.559  15.427 -0.0733  2.0519 -0.5196
  229MPD1    N1 3538   0.701   2.413  15.732 -0.9032 -0.2764  1.0052
  229MPD1    H6 3539   0.694   2.498  15.788  1.0982  1.3147 -1.1883
  229MPD1    H7 3540   0.604   2.388  15.717 -0.7878  0.4055 -0.8497
  230MPD1     C 3541   1.868   3.306  15.538  0.3037  0.5426  0.0502
  230MPD1    C1 3542   1.863   3.223  15.433 -0.5374  0.1339 -0.1049
  230MPD1    C2 3543   1.783   3.104  15.452 -0.2328  1.1835  0.4934
  230MPD1    C3 3544   1.721   3.068  15.569  0.0551 -0.1381 -0.2220
  230MPD1    C4 3545   1.727   3.159  15.667  0.3070 -0.6159 -0.0027
  230MPD1    C5 3546   1.800   3.276  15.652 -0.1389  0.0738  0.3431
  230MPD1     H 3547   1.784   3.044  15.362  1.8039  0.8038  0.7808
  230MPD1    H1 3548   1.684   3.135  15.763 -0.7841 -2.6541 -0.9978
  230MPD1    H2 3549   1.916   3.403  15.539  2.1406 -0.3548  0.3939
  230MPD1    H3 3550   1.823   3.341  15.736  1.5770  0.7617 -0.6522
  230MPD1     N 3551   1.642   2.953  15.564  0.1242  0.2659 -0.2942
  230MPD1    H5 3552   1.650   2.895  15.482 -0.7552 -2.4431  1.5201
  230MPD1    N1 3553   1.957   3.226  15.326  0.7372  0.7037  0.2682
  230MPD1    H6 3554   1.923   3.162  15.254  1.4998 -0.8636  1.2833
  230MPD1    H7 3555   1.949   3.320  15.289  0.2168 -0.0848 -1.6351
  231MPD1     C 3556   4.099   3.902  15.608  0.6135 -0.0941 -0.3993
  231MPD1    C1 3557   4.087   3.907  15.473  0.3770  0.4130 -0.0578
  231MPD1    C2 3558   4.200   3.941  15.405 -0.2574  0.7615  0.2913
  231MPD1    C3 3559   4.323   3.968  15.467  0.1686 -0.7202 -0.1678
  231MPD1    C4 3560   4.330   3.961  15.603  0.5153 -0.6755 -0.0711
  231MPD1    C5 3561   4.221   3.915  15.675 -0.5939  0.5159 -0.0242
  231MPD1     H 3562   4.182   3.952  15.299 -3.2485 -0.4388  0.6831
  231MPD1    H1 3563   4.432   3.969  15.639  0.0123  1.8946  0.7690
  231MPD1    H2 3564   4.015   3.884  15.673  1.2671  0.0710  0.4901
  231MPD1    H3 3565   4.228   3.893  15.781  0.7916 -1.0979 -0.4471
  231MPD1     N 3566   4.428   4.012  15.386 -0.0998  0.7943  0.2226
  231MPD1    H5 3567   4.406   4.019  15.288 -2.1025 -1.3316  0.5105
  231MPD1    N1 3568   3.969   3.881  15.414 -0.2422 -0.4834  0.3362
  231MPD1    H6 3569   3.885   3.872  15.471 -0.9729  1.9738 -0.3666
  231MPD1    H7 3570   3.951   3.943  15.336 -0.6929  0.4920  1.2314
  232MPD1     C 3571   1.633   2.702   0.587  0.4641 -0.2430  0.4193
  232MPD1    C1 3572   1.595   2.758   0.463  0.1587  0.4133  0.6142
  232MPD1    C2 3573   1.488   2.690   0.401 -0.5178 -0.0924 -0.2235
  232MPD1    C3 3574   1.439   2.566   0.438 -0.5860 -0.7411 -0.0696
  232MPD1    C4 3575   1.488   2.511   0.554 -0.0383 -0.1018 -0.3038
  232MPD1    C5 3576   1.579   2.581   0.630 -0.4670  0.4243 -0.1356
  232MPD1     H 3577   1.439   2.739   0.317 -0.5740  2.5617  1.3776
  232MPD1    H1 3578   1.456   2.410   0.581  0.4078  0.1831  1.3127
  232MPD1    H2 3579   1.708   2.738   0.656  0.6342  1.7394 -0.8060
  232MPD1    H3 3580   1.614   2.536   0.722  0.6816 -0.4698 -1.0093
  232MPD1     N 3581   1.361   2.501   0.344  1.2095 -0.8677 -0.2122
  232MPD1    H5 3582   1.339   2.543   0.254  1.9918 -0.4561 -0.2086
  232MPD1    N1 3583   1.655   2.879   0.423 -0.0236 -0.8086 -0.4253
  232MPD1    H6 3584   1.626   2.897   0.327 -1.8402  4.1611  1.0751
  232MPD1    H7 3585   1.756   2.871   0.432  0.1757  1.2673 -0.7926
  233MPD1     C 3586   2.646   4.627   0.874  0.5756 -0.8240  0.3850
  233MPD1    C1 3587   2.778   4.597   0.905  0.2602  0.0565  0.1092
  233MPD1    C2 3588   2.852   4.700   0.953  0.4061 -0.5972 -0.0729
  233MPD1    C3 3589   2.810   0.086   0.955 -0.0573  0.4136 -0.1677
  233MPD1    C4 3590   2.684   0.119   0.907  0.1447 -0.1417  0.4383
  233MPD1    C5 3591   2.597   0.016   0.882 -0.4445  0.3998 -0.0843
  233MPD1     H 3592   2.942   4.665   1.003 -0.0723 -2.2798 -0.3790
  233MPD1    H1 3593   2.648   0.220   0.890  0.0553 -0.5042 -1.5370
  233MPD1    H2 3594   2.573   4.548   0.862 -2.6590  1.6059  4.1510
  233MPD1    H3 3595   2.493   0.026   0.856 -1.0741 -0.3851  2.0912
  233MPD1     N 3596   2.883   0.199   1.005  0.2460  0.6318 -0.0355
  233MPD1    H5 3597   2.843   0.292   0.999 -1.5353 -0.1954 -1.0321
  233MPD1    N1 3598   2.815   4.465   0.929 -0.3756 -0.7901 -0.1658
  233MPD1    H6 3599   2.769   4.398   0.869 -0.9246 -0.8993  0.3762
  233MPD1    H7 3600   2.914   4.456   0.908  0.4466  1.2036  2.7912
  234MPD1     C 3601   4.147   2.311   9.595  0.1000 -0.1522  0.2149
  234MPD1    C1 3602   4.128   2.393   9.487 -0.7139  0.0040 -0.1676
  234MPD1    C2 3603   4.138   2.530   9.505  0.2395  0.4904  0.0927
  234MPD1    C3 3604   4.151   2.587   9.624 -0.2115  0.9929  0.4626
  234MPD1    C4 3605   4.187   2.507   9.730  0.4161  0.0734 -0.4798
  234MPD1    C5 3606   4.180   2.370   9.719  0.3226  0.0075  0.2681
  234MPD1     H 3607   4.146   2.594   9.418 -0.0345 -0.4134 -0.6083
  234MPD1    H1 3608   4.210   2.542   9.830 -0.4992 -0.8654  0.0556
  234MPD1    H2 3609   4.142   2.204   9.579 -2.0594 -0.2958  1.7048
  234MPD1    H3 3610   4.203   2.317   9.811 -0.9430  0.4195  0.8099
  234MPD1     N 3611   4.156   2.726   9.626 -0.4003 -0.4800  0.0863
  234MPD1    H5 3612   4.153   2.769   9.534 -0.2039  1.4923  0.9958
  234MPD1    N1 3613   4.133   2.346   9.354  0.0411 -0.4258  0.7809
  234MPD1    H6 3614   4.104   2.250   9.341  3.6864 -1.7283  2.2930
  234MPD1    H7 3615   4.098   2.410   9.283  2.7660 -0.2833 -0.4507
  235MPD1     C 3616   1.205   4.584  10.026 -0.3085  0.9065  0.2898
  235MPD1    C1 3617   1.245   4.650   9.917  0.5512  0.3494 -0.6101
  235MPD1    C2 3618   1.251   0.053   9.928 -0.2732  0.6830  0.2962
  235MPD1    C3 3619   1.218   0.115  10.051 -0.2575 -0.0263  0.3705
  235MPD1    C4 3620   1.185   0.035  10.159 -0.0972  0.4219 -0.1360
  235MPD1    C5 3621   1.187   4.642  10.149 -0.7056  0.5075 -0.3611
  235MPD1     H 3622   1.277   0.124   9.850  0.4065  0.2923  0.1668
  235MPD1    H1 3623   1.156   0.077  10.254 -2.6178 -0.5075 -0.4758
  235MPD1    H2 3624   1.190   4.476  10.032 -0.7465  1.0172  1.1419
  235MPD1    H3 3625   1.153   4.583  10.233 -1.6153  1.1882 -0.2480
  235MPD1     N 3626   1.221   0.252  10.055  0.1705  0.0205 -0.1706
  235MPD1    H5 3627   1.262   0.303   9.977  1.2356 -0.4106  0.1049
  235MPD1    N1 3628   1.255   4.584   9.789 -1.4844 -0.2009 -0.3507
  235MPD1    H6 3629   1.258   4.485   9.812 -1.3688 -0.5607 -1.9265
  235MPD1    H7 3630   1.340   4.617   9.744 -0.9589 -0.2844  0.5768
  236MPD1     C 3631   4.372   1.353   9.425  0.0684  0.0600  0.4247
  236MPD1    C1 3632   4.399   1.490   9.433 -0.3085 -0.2830 -0.3249
  236MPD1    C2 3633   4.501   1.537   9.512  0.2891 -0.1598  0.3068
  236MPD1    C3 3634   4.583   1.447   9.578  0.1152  0.4045 -0.2660
  236MPD1    C4 3635   4.566   1.313   9.556  0.0468  0.0524  0.3335
  236MPD1    C5 3636   4.454   1.262   9.489  0.4100 -0.0497  0.0559
  236MPD1     H 3637   4.512   1.644   9.521  0.1230  0.0354 -1.9518
  236MPD1    H1 3638   4.624   1.238   9.609 -2.0704 -0.0357  2.5450
  236MPD1    H2 3639   4.282   1.318   9.375 -0.6125  0.6087  1.2619
  236MPD1    H3 3640   4.435   1.156   9.474 -2.7656  0.1139  2.9136
  236MPD1     N 3641   4.699   1.484   9.658 -0.5602  0.4592 -0.0172
  236MPD1    H5 3642   0.022   1.414   9.696  0.0783  0.8266 -0.3898
  236MPD1    N1 3643   4.299   1.584   9.391  0.0311  0.1242  0.3947
  236MPD1    H6 3644   4.348   1.670   9.365  0.2414  0.3107  1.3858
  236MPD1    H7 3645   4.244   1.548   9.314  2.0593 -0.5582 -0.7471
  237MPD1     C 3646   0.805   0.550  15.010 -0.1124  0.0091 -0.0943
  237MPD1    C1 3647   0.778   0.522  15.147  0.7405 -0.9832  0.4662
  237MPD1    C2 3648   0.644   0.493  15.187 -0.0872 -0.6087  0.2604
  237MPD1    C3 3649   0.538   0.515  15.100  0.3433  0.3549  0.4516
  237MPD1    C4 3650   0.563   0.529  14.963 -0.2026 -0.0017  0.3134
  237MPD1    C5 3651   0.696   0.551  14.927 -0.6630 -0.4061 -0.0159
  237MPD1     H 3652   0.623   0.476  15.291  1.2549 -0.4395  0.5682
  237MPD1    H1 3653   0.492   0.527  14.881  2.0378 -0.1930 -1.6231
  237MPD1    H2 3654   0.903   0.575  14.970  0.8073 -0.4970  1.8349
  237MPD1    H3 3655   0.717   0.575  14.823  0.5941  0.1667  0.3712
  237MPD1     N 3656   0.402   0.504  15.128 -0.0207 -0.3321 -0.2762
  237MPD1    H5 3657   0.339   0.567  15.079 -0.6560 -0.4057  0.4357
  237MPD1    N1 3658   0.891   0.519  15.230  0.4060 -0.2909 -0.6263
  237MPD1    H6 3659   0.964   0.563  15.174 -1.2490  1.5803 -1.2999
  237MPD1    H7 3660   0.872   0.551  15.325 -0.8170 -0.3238 -0.8571
  238MPD1     C 3661   1.016   3.970  15.882 -0.3113 -0.9289 -0.1795
  238MPD1    C1 3662   1.137   3.993  15.810 -0.1434 -0.2953  0.2459
  238MPD1    C2 3663   1.145   3.956  15.682 -0.4606 -0.5089 -0.6402
  238MPD1    C3 3664   1.047   3.881  15.617  0.0680  0.5606 -0.2517
  238MPD1    C4 3665   0.939   3.846  15.695  0.1504  0.1626  0.3028
  238MPD1    C5 3666   0.922   3.895  15.819  0.3261  0.2136  0.1178
  238MPD1     H 3667   1.221   4.009  15.625 -1.8799  1.2359 -0.9214
  238MPD1    H1 3668   0.866   3.775  15.658  0.9138 -0.6064  0.2683
  238MPD1    H2 3669   0.988   4.003  15.982 -2.1609 -3.8377  0.2448
  238MPD1    H3 3670   0.837   3.859  15.877  1.0855  2.1126  2.3941
  238MPD1     N 3671   1.053   3.846  15.480  0.1249 -0.0316 -0.4972
  238MPD1    H5 3672   0.971   3.797  15.446  0.9416 -0.5469 -1.7209
  238MPD1    N1 3673   1.236   4.077  15.870 -0.3652 -0.2425 -0.8464
  238MPD1    H6 3674   1.214   4.072  15.969  0.0718 -2.8609 -0.8650
  238MPD1    H7 3675   1.329   4.035  15.860 -0.0333  0.9712 -2.8888
  239MPD1     C 3676   1.925   0.007  15.526 -0.5331 -0.2935 -0.6370
  239MPD1    C1 3677   2.029   0.054  15.446 -0.1540  0.0674  0.5777
  239MPD1    C2 3678   2.001   0.094  15.316 -0.2664 -0.3517 -0.0298
  239MPD1    C3 3679   1.875   0.073  15.261  0.3353 -0.1158  0.9341
  239MPD1    C4 3680   1.776   0.017  15.341 -0.4140  0.3183 -0.5577
  239MPD1    C5 3681   1.799   4.736  15.474  0.5863 -0.3293 -0.3729
  239MPD1     H 3682   2.085   0.118  15.251 -1.1647  0.8474 -0.7226
  239MPD1    H1 3683   1.676   0.008  15.301 -1.2294  2.1395  1.0405
  239MPD1    H2 3684   1.937   4.709  15.627  2.2648 -0.7160 -1.1148
  239MPD1    H3 3685   1.716   4.716  15.541  1.4585  0.2826  0.8941
  239MPD1     N 3686   1.844   0.097  15.125  0.4143 -0.0301  0.3208
  239MPD1    H5 3687   1.751   0.083  15.087  0.5178 -2.4173  0.9719
  239MPD1    N1 3688   2.157   0.049  15.503 -0.7626 -0.1797 -0.0695
  239MPD1    H6 3689   2.153   0.050  15.605 -1.0361 -0.7987 -0.0776
  239MPD1    H7 3690   2.210   0.128  15.466  1.1990 -1.8647 -0.8466
  240MPD1     C 3691   1.236   4.467  14.474  0.4675 -0.3156 -0.1388
  240MPD1    C1 3692   1.264   4.345  14.539  0.9504 -0.9635  0.2509
  240MPD1    C2 3693   1.189   4.237  14.503 -0.4490  0.2975 -0.3250
  240MPD1    C3 3694   1.083   4.236  14.412  0.5817  0.5605 -0.0124
  240MPD1    C4 3695   1.049   4.359  14.354 -0.1683 -1.1956 -0.7358
  240MPD1    C5 3696   1.121   4.474  14.394  0.5929 -0.1765 -0.6902
  240MPD1     H 3697   1.215   4.135  14.531 -0.7148  1.0537  2.6795
  240MPD1    H1 3698   0.977   4.382  14.276 -0.6438 -1.6280 -0.4201
  240MPD1    H2 3699   1.295   4.553  14.500  1.2459 -0.6946 -0.6526
  240MPD1    H3 3700   1.112   4.551  14.319  0.5121  0.8765  0.3892
  240MPD1     N 3701   1.034   4.109  14.374  0.0135 -0.0765 -0.3787
  240MPD1    H5 3702   1.076   4.026  14.416 -1.7319 -0.0617  1.4008
  240MPD1    N1 3703   1.389   4.324  14.607 -0.2738  0.4531  0.0401
  240MPD1    H6 3704   1.394   4.243  14.669  0.8111 -1.4052 -2.4796
  240MPD1    H7 3705   1.411   4.402  14.668 -1.1644 -1.4781  2.8604
  241MPD1     C 3706   1.178   3.305  14.723  0.3558 -0.5819 -0.3201
  241MPD1    C1 3707   1.061   3.287  14.646  0.0036  0.2575  0.1226
  241MPD1    C2 3708   1.042   3.375  14.548 -1.0334 -0.0559  0.2888
  241MPD1    C3 3709   1.113   3.494  14.535  0.7221  1.3023 -0.3677
  241MPD1    C4 3710   1.218   3.510  14.621  0.0786  0.0753 -0.4208
  241MPD1    C5 3711   1.253   3.413  14.707 -0.1429  0.5771  0.1655
  241MPD1     H 3712   0.958   3.362  14.481  0.7014 -2.4416 -1.4287
  241MPD1    H1 3713   1.279   3.599  14.615  0.9697 -0.4919  0.2021
  241MPD1    H2 3714   1.207   3.244  14.808 -3.7870  0.0032  1.5414
  241MPD1    H3 3715   1.331   3.426  14.782 -0.0937 -1.6225  0.4948
  241MPD1     N 3716   1.086   3.595  14.443 -0.0996 -0.5256  0.2597
  241MPD1    H5 3717   1.154   3.670  14.431 -0.0498 -0.5525  0.3741
  241MPD1    N1 3718   0.975   3.176  14.660 -0.4140 -0.6073  0.0003
  241MPD1    H6 3719   0.989   3.124  14.747  0.5751 -0.3528 -0.0121
  241MPD1    H7 3720   0.878   3.201  14.646  0.1822  0.4284 -2.1833
  242MPD1     C 3721   0.389   2.750  15.831 -0.0376  0.6653 -0.0866
  242MPD1    C1 3722   0.353   2.641  15.757  0.2331  0.7159  0.3578
  242MPD1    C2 3723   0.423   2.622  15.637 -0.6208  0.3903 -0.0111
  242MPD1    C3 3724   0.519   2.711  15.588 -0.1737 -0.1460 -0.2308
  242MPD1    C4 3725   0.557   2.816  15.667  0.3935 -0.4958 -0.6824
  242MPD1    C5 3726   0.494   2.831  15.791  0.7864 -0.5407  0.1981
  242MPD1     H 3727   0.382   2.544  15.575  1.2046  0.3219 -1.1236
  242MPD1    H1 3728   0.635   2.881  15.628  0.6793 -0.1671  0.4277
  242MPD1    H2 3729   0.340   2.773  15.924  1.4287  1.1927  0.5488
  242MPD1    H3 3730   0.534   2.917  15.844 -1.1519 -0.1220  0.9616
  242MPD1     N 3731   0.577   2.702  15.456  0.1432 -0.0914 -0.2938
  242MPD1    H5 3732   0.648   2.770  15.432  0.2390 -0.3656 -0.7859
  242MPD1    N1 3733   0.248   2.561  15.805 -0.0204  0.5066 -0.0816
  242MPD1    H6 3734   0.274   2.463  15.818 -1.6922  0.0544 -0.1883
  242MPD1    H7 3735   0.215   2.591  15.896 -1.0800 -0.6324 -0.0930
  243MPD1     C 3736   2.683   2.413   0.135  0.1073  0.1741  0.8402
  243MPD1    C1 3737   2.592   2.308   0.122  0.4432 -0.3757 -0.1582
  243MPD1    C2 3738   2.630   2.195   0.050 -0.4045  0.0279 -0.2707
  243MPD1    C3 3739   2.761   2.186   0.002 -0.5556 -0.3994 -0.6796
  243MPD1    C4 3740   2.852   2.289   0.024 -0.0816 -0.1794 -0.3692
  243MPD1    C5 3741   2.809   2.404   0.088 -0.1982 -0.0058  0.6912
  243MPD1     H 3742   2.553   2.122   0.029 -1.5018  0.9578  0.5483
  243MPD1    H1 3743   2.957   2.275   0.001 -0.1938  0.8988 -1.5599
  243MPD1    H2 3744   2.665   2.498   0.200  0.5335  0.4817  0.5596
  243MPD1    H3 3745   2.886   2.473   0.119  0.5759 -0.2500 -0.7042
  243MPD1     N 3746   2.789   2.069  17.681 -0.6959  0.9133 -0.5348
  243MPD1    H5 3747   2.719   1.996  17.691  0.0763  0.3376  0.5786
  243MPD1    N1 3748   2.462   2.341   0.142  0.1215 -0.1624  0.1100
  243MPD1    H6 3749   2.410   2.256   0.164  2.1710 -1.0658  1.4101
  243MPD1    H7 3750   2.447   2.408   0.218  0.1840  0.6491 -0.6017
  244MPD1     C 3751   2.566   1.321   0.186  1.1591  0.2523 -0.1538
  244MPD1    C1 3752   2.546   1.447   0.222 -0.1584 -0.4705 -0.0541
  244MPD1    C2 3753   2.562   1.544   0.126  0.5617 -0.3528 -0.6713
  244MPD1    C3 3754   2.601   1.510  17.755 -0.1021  0.6028 -0.0276
  244MPD1    C4 3755   2.602   1.376  17.717 -0.7405  0.6272  0.1164
  244MPD1    C5 3756   2.593   1.284   0.053 -0.5326  0.5989 -0.4983
  244MPD1     H 3757   2.568   1.648   0.157 -0.6174 -0.6685  0.6154
  244MPD1    H1 3758   2.624   1.336  17.618 -0.0868 -0.6276  0.7767
  244MPD1    H2 3759   2.568   1.247   0.265 -0.6488  0.5213  0.1594
  244MPD1    H3 3760   2.610   1.181   0.023  2.8570  1.3858 -1.2367
  244MPD1     N 3761   2.649   1.614  17.678  0.4242  0.1047 -0.6347
  244MPD1    H5 3762   2.638   1.709  17.711 -1.0043 -1.0428  2.1840
  244MPD1    N1 3763   2.524   1.475   0.361 -0.5999 -0.2869  0.1507
  244MPD1    H6 3764   2.506   1.392   0.417  0.2638 -1.4870 -1.3337
  244MPD1    H7 3765   2.449   1.543   0.361  0.1246  0.5163 -0.3175
  245MPD1     C 3766   4.690   1.799  12.677  0.2206  0.5736 -0.3380
  245MPD1    C1 3767   4.599   1.787  12.778  0.2499 -0.2436  0.7432
  245MPD1    C2 3768   4.618   1.848  12.897  0.2822  0.2947  0.5890
  245MPD1    C3 3769   4.718   1.948  12.907 -0.1137  0.1572 -0.1433
  245MPD1    C4 3770   0.061   1.966  12.804  0.4728  0.0611  0.7623
  245MPD1    C5 3771   0.048   1.893  12.691  0.1415 -1.0622 -0.2421
  245MPD1     H 3772   4.553   1.822  12.980  0.9595 -2.3991  0.2890
  245MPD1    H1 3773   0.142   2.038  12.798 -1.5504  2.5101  2.6818
  245MPD1    H2 3774   4.693   1.736  12.589 -1.5118  0.2476 -0.1694
  245MPD1    H3 3775   0.120   1.893  12.610 -1.3072  1.2638 -1.4908
  245MPD1     N 3776   4.721   2.023  13.022  0.3265  0.3609  0.2504
  245MPD1    H5 3777   4.646   2.000  13.086 -0.3843  2.2641  0.1243
  245MPD1    N1 3778   4.490   1.697  12.760  0.3381 -0.3435  0.5867
  245MPD1    H6 3779   4.469   1.686  12.661  2.8273 -1.0237  0.1346
  245MPD1    H7 3780   4.403   1.733  12.799  0.2848 -0.1574  0.2983
  246MPD1     C 3781   0.958   3.214  10.842 -0.3188 -0.0547 -0.0480
  246MPD1    C1 3782   0.893   3.118  10.765 -0.6029  0.6249  0.0075
  246MPD1    C2 3783   0.961   3.025  10.695 -0.0111  0.6569 -0.4244
  246MPD1    C3 3784   1.102   3.024  10.708  0.2817 -0.1111 -0.2720
  246MPD1    C4 3785   1.170   3.115  10.784  0.2629 -0.4633  0.0388
  246MPD1    C5 3786   1.096   3.208  10.854  0.2287 -0.1216 -0.1518
  246MPD1     H 3787   0.898   2.961  10.635  0.2822  1.2644 -1.3797
  246MPD1    H1 3788   1.277   3.126  10.773  0.5213 -1.1157  1.9212
  246MPD1    H2 3789   0.915   3.300  10.892  1.5770  0.3056  0.9632
  246MPD1    H3 3790   1.146   3.296  10.891 -1.1947  0.4717  0.3432
  246MPD1     N 3791   1.173   2.943  10.615 -0.1823  0.2811 -0.4004
  246MPD1    H5 3792   1.116   2.888  10.552  0.3348  0.8323 -1.3421
  246MPD1    N1 3793   0.756   3.132  10.737 -0.4719 -0.6177  0.1072
  246MPD1    H6 3794   0.704   3.047  10.720 -0.2935 -0.5348 -0.8457
  246MPD1    H7 3795   0.715   3.175  10.819 -1.4049 -0.8464 -0.2439
  247MPD1     C 3796   3.746   1.979  17.111 -0.3213 -0.2508 -0.2653
  247MPD1    C1 3797   3.845   2.023  17.019 -0.0009 -0.0758  1.0811
  247MPD1    C2 3798   3.855   1.963  16.895 -0.1656  0.0193  0.3387
  247MPD1    C3 3799   3.786   1.846  16.875  0.0074 -0.1319 -0.5032
  247MPD1    C4 3800   3.702   1.798  16.969  0.2296  0.7137 -0.4223
  247MPD1    C5 3801   3.676   1.867  17.084 -0.4084 -0.2390  0.3583
  247MPD1     H 3802   3.929   2.002  16.826 -1.3848 -1.7877 -2.0041
  247MPD1    H1 3803   3.668   1.697  16.950 -0.9175  0.8103  1.1103
  247MPD1    H2 3804   3.739   2.029  17.208  1.7491 -2.2220  0.9091
  247MPD1    H3 3805   3.602   1.828  17.154  1.4763 -1.4572  1.6649
  247MPD1     N 3806   3.799   1.774  16.760 -0.1455 -0.0348  0.1945
  247MPD1    H5 3807   3.749   1.686  16.776  0.3303  0.3669  3.8639
  247MPD1    N1 3808   3.909   2.144  17.033  0.1966 -0.2173 -0.2642
  247MPD1    H6 3809   3.996   2.151  16.981  2.0177 -3.7293  2.3138
  247MPD1    H7 3810   3.914   2.177  17.129  2.3998  0.1550 -0.5120
  248MPD1     C 3811   0.386   2.815   1.724  0.4901  0.4706 -0.5138
  248MPD1    C1 3812   0.307   2.889   1.648 -0.2301  0.6263  0.6998
  248MPD1    C2 3813   0.290   2.846   1.516 -0.6606  0.3032  0.1424
  248MPD1    C3 3814   0.339   2.727   1.469  0.0467 -0.3326 -0.3394
  248MPD1    C4 3815   0.425   2.657   1.546  0.3630  0.0397 -0.3837
  248MPD1    C5 3816   0.441   2.695   1.678  0.5671 -0.2448 -0.3108
  248MPD1     H 3817   0.241   2.909   1.443 -1.8591  0.3292  0.9683
  248MPD1    H1 3818   0.471   2.564   1.513  2.4811  0.7204  0.6800
  248MPD1    H2 3819   0.413   2.838   1.826 -0.0163  2.1962 -0.7702
  248MPD1    H3 3820   0.503   2.636   1.745  0.5650  0.9179  0.7258
  248MPD1     N 3821   0.312   2.685   1.335 -0.0386  0.6280 -0.1117
  248MPD1    H5 3822   0.242   2.723   1.273 -0.4355 -0.0421 -0.0797
  248MPD1    N1 3823   0.263   3.014   1.697  0.4622 -0.1402  0.5773
  248MPD1    H6 3824   0.230   2.999   1.792  0.1720  0.2451  0.5389
  248MPD1    H7 3825   0.188   3.051   1.639  1.6889 -0.7307 -1.3905
  249MPD1     C 3826   1.926   4.369  10.325  0.1604 -0.4892 -0.2990
  249MPD1    C1 3827   1.884   4.476  10.402 -0.2127  0.0386  0.2814
  249MPD1    C2 3828   1.917   4.603  10.364  0.1103 -0.3957 -0.1527
  249MPD1    C3 3829   1.983   4.623  10.245 -0.0872 -0.0326  0.7005
  249MPD1    C4 3830   2.009   4.512  10.160  0.0858  0.2101 -0.0288
  249MPD1    C5 3831   1.985   4.385  10.209  0.2497 -0.0331  0.0180
  249MPD1     H 3832   1.889   4.691  10.421  0.9234  0.4465 -1.0553
  249MPD1    H1 3833   2.065   4.540  10.071  0.2892  1.7133  0.5575
  249MPD1    H2 3834   1.899   4.273  10.366 -2.2803  0.3775  0.1309
  249MPD1    H3 3835   2.024   4.297  10.158  0.0018 -0.0042 -0.2248
  249MPD1     N 3836   2.012   0.020  10.201 -0.0015  0.4374 -0.0837
  249MPD1    H5 3837   1.994   0.095  10.266 -1.3359  1.1836 -1.3152
  249MPD1    N1 3838   1.821   4.454  10.524 -0.5164 -0.2195 -0.4398
  249MPD1    H6 3839   1.745   4.521  10.530 -0.5584 -0.2183 -0.9861
  249MPD1    H7 3840   1.787   4.358  10.535 -1.0243 -0.1020 -0.9612
  250MPD2     C 3841   2.265   0.956  13.143  0.7218 -0.2026 -0.2321
  250MPD2    C1 3842   2.374   0.882  13.135 -0.1433 -0.1149 -0.1833
  250MPD2    C2 3843   2.371   0.754  13.181 -0.6315  0.5658 -0.3188
  250MPD2    C3 3844   2.263   0.702  13.243 -0.0799 -0.9901 -0.3657
  250MPD2    C4 3845   2.146   0.775  13.251 -0.1680  0.2997 -0.2979
  250MPD2    C5 3846   2.157   0.902  13.209  0.1043  0.1214 -0.4218
  250MPD2     H 3847   2.460   0.695  13.158  2.3304  4.9161  0.0044
  250MPD2    H1 3848   2.054   0.736  13.294 -1.0266 -0.3993 -2.7408
  250MPD2    H2 3849   2.275   1.058  13.108 -0.8574 -0.5641 -1.7408
  250MPD2    H3 3850   2.068   0.963  13.219  0.9074  1.2981 -0.4989
  250MPD2     N 3851   2.266   0.569  13.302 -0.0838  0.9735 -0.0235
  250MPD2    H5 3852   2.174   0.539  13.334 -0.8895  2.9206 -0.5171
  250MPD2    N1 3853   2.483   0.950  13.073  0.4044 -0.1250 -0.7724
  250MPD2    H7 3854   2.468   1.046  13.044 -0.6844  0.2889  1.1281
  251TMC3    C1 3855   2.698   0.993  12.975 -1.2293  0.0568 -0.3466
  251TMC3    C2 3856   2.666   1.122  12.958 -0.0719 -0.0867 -0.0520
  251TMC3    C3 3857   2.770   1.218  12.939 -0.4938 -0.7636  0.4272
  251TMC3    C4 3858   2.828   0.946  12.960  0.6087  0.2668  0.2691
  251TMC3    C5 3859   2.925   1.043  12.954  0.1393 -0.9327  0.4379
  251TMC3    C6 3860   2.901   1.179  12.948 -0.6680 -0.0335  0.1366
  251TMC3     C 3861   2.606   0.897  13.038  0.7146  0.4785 -0.8020
  251TMC3     O 3862   2.638   0.782  13.063  0.3866  0.3593 -0.1597
  251TMC3     H 3863   2.563   1.145  12.936 -0.5969 -0.6904  1.7501
  251TMC3    H1 3864   2.863   0.844  12.968  1.9410  0.4625 -3.0098
  251TMC3    H2 3865   2.986   1.245  12.932  0.7462 -1.3782  2.0477
  251TMC3    C7 3866   3.031   1.008  13.041 -0.5769 -0.6692  1.0590
  251TMC3    C8 3867   2.737   1.356  12.945  0.3862 -0.1940  0.1376
  251TMC3    O1 3868   3.002   0.926  13.129  0.6287 -0.3306  0.0649
  251TMC3    O2 3869   2.623   1.393  12.938 -0.2085  0.6603 -0.2231
  252TMC3    C1 3870   2.812   1.130   9.337 -0.8813  0.0402  0.0358
  252TMC3    C2 3871   2.942   1.178   9.335  0.0924  0.2118  0.1700
  252TMC3    C3 3872   3.031   1.127   9.430 -0.2856  0.8009 -0.9534
  252TMC3    C4 3873   2.775   1.035   9.432 -0.3495  0.0580 -0.5983
  252TMC3    C5 3874   2.863   0.994   9.527 -0.1666  0.5641  0.0732
  252TMC3    C6 3875   2.994   1.032   9.526 -0.7884 -0.3244 -0.0418
  252TMC3     C 3876   2.734   1.154   9.213  0.1071  0.3287 -0.1567
  252TMC3     O 3877   2.784   1.210   9.119 -0.2575 -0.2207 -0.0368
  252TMC3     H 3878   2.966   1.247   9.254 -0.5459 -2.5574 -2.3947
  252TMC3    H1 3879   2.676   0.991   9.431 -0.7450  0.9496 -0.7277
  252TMC3    H2 3880   3.064   0.986   9.595 -0.0531 -0.3412 -0.8080
  252TMC3    C7 3881   2.812   0.895   9.618 -0.0708  0.0611  0.9139
  252TMC3    C8 3882   3.166   1.177   9.429 -0.5804  0.1845 -0.3189
  252TMC3    O1 3883   2.719   0.828   9.584  0.5170 -0.4443  0.6849
  252TMC3    O2 3884   3.205   1.228   9.327  0.2450  0.1334  0.3912
  253MPD2     C 3885   4.189   0.535  15.249 -0.4351 -0.0805  0.4175
  253MPD2    C1 3886   4.051   0.520  15.261 -0.2245 -0.7129  0.3433
  253MPD2    C2 3887   3.986   0.547  15.386  0.4452  0.2502  0.1587
  253MPD2    C3 3888   4.063   0.581  15.497 -0.9418  0.1614  0.2578
  253MPD2    C4 3889   4.201   0.589  15.479 -0.4153  0.1078 -0.2537
  253MPD2    C5 3890   4.260   0.563  15.363 -0.0707 -0.0309  0.0389
  253MPD2     H 3891   3.878   0.540  15.384  0.4754 -0.3588  0.6376
  253MPD2    H1 3892   4.275   0.601  15.556 -0.0535 -1.6847 -0.3085
  253MPD2    H2 3893   4.242   0.522  15.155 -2.7365 -1.4424 -0.6940
  253MPD2    H3 3894   4.365   0.584  15.353 -0.4114  2.1867  1.0613
  253MPD2     N 3895   4.006   0.614  15.621  0.3201 -0.1824  0.0163
  253MPD2    H5 3896   4.070   0.661  15.685 -0.6915  2.1678 -0.7113
  253MPD2    N1 3897   3.969   0.487  15.149  0.3879 -0.5772 -0.2362
  253MPD2    H7 3898   3.871   0.478  15.175  1.1495 -2.1068  2.0803
  254TMC3    C1 3899   3.855   0.631  15.791 -0.1247  0.1302 -0.5408
  254TMC3    C2 3900   3.722   0.648  15.829  0.5913 -0.0736  0.1074
  254TMC3    C3 3901   3.681   0.599  15.952 -0.0494 -0.0370  0.4616
  254TMC3    C4 3902   3.952   0.576  15.875  0.7974  0.3712 -0.6717
  254TMC3    C5 3903   3.903   0.548  15.998 -0.5728 -0.3024 -0.3664
  254TMC3    C6 3904   3.773   0.555  16.035 -0.2843 -0.4533 -0.6469
  254TMC3     C 3905   3.872   0.619  15.650  0.1408 -0.2974 -1.0288
  254TMC3     O 3906   3.774   0.580  15.587 -0.7958 -0.4877 -0.2931
  254TMC3     H 3907   3.651   0.685  15.756 -1.6773 -1.1166  1.7618
  254TMC3    H1 3908   4.050   0.545  15.842  0.3355 -0.9566 -0.7820
  254TMC3    H2 3909   3.735   0.536  16.135 -2.6790  0.3762 -1.3950
  254TMC3    C7 3910   3.991   0.544  16.116 -0.8480  0.2314  0.5164
  254TMC3    C8 3911   3.575   0.672  16.025  0.1027 -0.4491  0.0459
  254TMC3    O1 3912   3.940   0.491  16.211 -0.5497  0.1260 -0.2817
  254TMC3    O2 3913   3.505   0.602  16.103 -0.1342  0.3704  0.0603
  255MPD2     C 3914   2.049   2.667  10.442  0.2318 -0.0110  0.0377
  255MPD2    C1 3915   2.089   2.656  10.312  0.1121 -0.6481  0.7155
  255MPD2    C2 3916   2.215   2.615  10.281  0.3785 -0.3529 -0.6191
  255MPD2    C3 3917   2.304   2.577  10.385 -0.2235  0.4214  0.1872
  255MPD2    C4 3918   2.260   2.572  10.514 -0.7169  0.2620 -0.5565
  255MPD2    C5 3919   2.134   2.621  10.546  0.7367  0.5421  0.6262
  255MPD2     H 3920   2.252   2.623  10.179 -1.7360  1.0299 -1.2859
  255MPD2    H1 3921   2.321   2.540  10.598  0.4544  1.0760 -1.0888
  255MPD2    H2 3922   1.954   2.708  10.477  1.7404  1.5207  2.2741
  255MPD2    H3 3923   2.094   2.613  10.646  3.2521 -2.8177  1.3733
  255MPD2     N 3924   2.443   2.551  10.352 -0.4423 -0.3411 -0.0807
  255MPD2    H5 3925   2.465   2.553  10.253 -0.9389 -2.0196 -0.2247
  255MPD2    N1 3926   1.993   2.698  10.210  0.3961 -0.1329  0.3598
  255MPD2    H7 3927   1.917   2.757  10.240  0.6113  1.1058 -1.5875
  256TMC3    C1 3928   1.900   2.720   9.996 -0.0297 -0.1040 -0.5962
  256TMC3    C2 3929   1.922   2.855   9.972 -0.3904 -0.6244  0.1803
  256TMC3    C3 3930   1.871   2.904   9.857 -0.0481 -0.2558  0.4352
  256TMC3    C4 3931   1.855   2.637   9.896  0.1528  0.0113  0.2863
  256TMC3    C5 3932   1.813   2.690   9.773  0.1218 -0.2755  0.4050
  256TMC3    C6 3933   1.803   2.828   9.765  0.1959  0.0938  0.0065
  256TMC3     C 3934   2.014   2.672  10.077  0.2385  0.1158 -0.0317
  256TMC3     O 3935   2.101   2.612  10.016 -0.1411  0.9462  0.2523
  256TMC3     H 3936   1.970   2.908  10.054  1.0705 -0.0354 -1.0554
  256TMC3    H1 3937   1.876   2.532   9.910 -1.7928 -0.2244  1.3855
  256TMC3    H2 3938   1.774   2.883   9.676  1.1244 -1.2465 -1.1264
  256TMC3    C7 3939   1.811   2.607   9.656 -0.0061 -0.8078  0.7908
  256TMC3    C8 3940   1.868   3.045   9.828  0.5153 -0.6059 -0.2832
  256TMC3    O1 3941   1.835   2.657   9.543 -0.1267  0.4202 -0.4171
  256TMC3    O2 3942   1.767   3.088   9.774  0.1840 -0.5333  0.1084
  257MPD2     C 3943   1.168   0.246  13.377  0.0529 -0.4410  0.2132
  257MPD2    C1 3944   1.273   0.176  13.324 -0.2927  0.2451  0.2724
  257MPD2    C2 3945   1.346   0.091  13.408  0.0321  0.2546 -0.2613
  257MPD2    C3 3946   1.323   0.082  13.546 -0.5512 -0.0429  1.3061
  257MPD2    C4 3947   1.214   0.153  13.595  0.0535  0.0534 -0.4416
  257MPD2    C5 3948   1.140   0.235  13.513 -0.0768 -0.5019 -0.0178
  257MPD2     H 3949   1.420   0.022  13.369 -3.1994 -1.6735 -3.0341
  257MPD2    H1 3950   1.192   0.154  13.701 -1.3810 -2.0836 -0.7158
  257MPD2    H2 3951   1.106   0.314  13.321  0.0543 -0.7572 -0.1744
  257MPD2    H3 3952   1.052   0.281  13.558 -0.1220  0.6022 -1.2288
  257MPD2     N 3953   1.404   4.735  13.628  0.1702 -0.1637 -0.0398
  257MPD2    H5 3954   1.487   4.696  13.586 -0.9539  1.2738 -3.5775
  257MPD2    N1 3955   1.308   0.192  13.190  0.8679  0.3706  0.5165
  257MPD2    H7 3956   1.394   0.155  13.152  0.8973 -1.2033  2.1285
  258TMC3    C1 3957   1.481   4.611  13.824  0.2029  0.3742 -0.3003
  258TMC3    C2 3958   1.578   4.551  13.750  0.4656  0.1846 -0.2872
  258TMC3    C3 3959   1.702   4.523  13.799  0.6602  0.1608  0.1503
  258TMC3    C4 3960   1.512   4.644  13.948  0.2396  0.4022 -0.4712
  258TMC3    C5 3961   1.634   4.605  14.004  0.5684 -0.1396 -0.0528
  258TMC3    C6 3962   1.731   4.551  13.929 -0.4938  0.0596  0.1221
  258TMC3     C 3963   1.382   4.695  13.760 -0.4046  0.3990 -0.2827
  258TMC3     O 3964   1.305   0.004  13.841 -0.6942 -0.5310 -0.2621
  258TMC3     H 3965   1.557   4.508  13.652  1.0685  0.8997 -0.7348
  258TMC3    H1 3966   1.433   4.686  14.010  1.1039 -2.4092  2.5427
  258TMC3    H2 3967   1.822   4.511  13.971 -2.3366 -2.5641  1.5993
  258TMC3    C7 3968   1.633   4.569  14.141 -0.1115  0.0436  0.5677
  258TMC3    C8 3969   1.802   4.490  13.701 -0.7948 -0.5977  0.8048
  258TMC3    O1 3970   1.527   4.545  14.196  0.2417 -0.2975 -0.4462
  258TMC3    O2 3971   1.781   4.428  13.594 -0.6673  0.5867  0.2310
  259MPD2     C 3972   0.926   2.612   1.066 -0.0768  0.3492  1.1270
  259MPD2    C1 3973   0.881   2.486   1.045  0.2247 -0.2813  0.3770
  259MPD2    C2 3974   0.820   2.460   0.926  0.6287 -0.0272 -0.8797
  259MPD2    C3 3975   0.775   2.565   0.840  0.1227 -0.4628  0.0630
  259MPD2    C4 3976   0.820   2.687   0.862 -0.3306 -0.1805 -0.4977
  259MPD2    C5 3977   0.897   2.710   0.973  0.3354 -0.1323  0.1531
  259MPD2     H 3978   0.799   2.354   0.911 -0.7611 -0.2136  2.3389
  259MPD2    H1 3979   0.811   2.774   0.798 -0.2624  0.5937  0.5426
  259MPD2    H2 3980   0.993   2.637   1.147  0.0935  0.4272  0.9613
  259MPD2    H3 3981   0.950   2.804   0.991  0.4438 -0.2702  0.5523
  259MPD2     N 3982   0.708   2.524   0.721 -0.0798 -0.3982  0.3267
  259MPD2    H5 3983   0.697   2.426   0.698  0.1723 -0.4701  0.5132
  259MPD2    N1 3984   0.922   2.390   1.142  0.5542 -0.6093  0.2582
  259MPD2    H7 3985   0.947   2.421   1.235  0.2936  0.1792  0.0619
  260TMC3    C1 3986   0.610   2.559   0.511  0.5689  0.3722 -0.4479
  260TMC3    C2 3987   0.564   2.652   0.419 -0.1512  0.1365  0.0010
  260TMC3    C3 3988   0.505   2.605   0.305 -0.0132 -0.0399 -0.4075
  260TMC3    C4 3989   0.578   2.431   0.492 -0.0530 -0.1538 -0.5599
  260TMC3    C5 3990   0.518   2.383   0.384  0.0320 -0.1633 -0.3523
  260TMC3    C6 3991   0.487   2.468   0.284  0.0346 -0.5123 -0.8749
  260TMC3     C 3992   0.656   2.613   0.633 -0.0270 -0.0920 -0.1780
  260TMC3     O 3993   0.633   2.735   0.651 -0.2302  0.4107 -0.0781
  260TMC3     H 3994   0.564   2.758   0.439  0.4993  0.0204  0.5959
  260TMC3    H1 3995   0.620   2.358   0.561  2.7688 -0.7467 -2.9295
  260TMC3    H2 3996   0.455   2.434   0.185 -0.8834  0.7010 -0.9856
  260TMC3    C7 3997   0.509   2.236   0.374 -0.1784  0.0665  0.4131
  260TMC3    C8 3998   0.536   2.681   0.188  0.3780 -0.7383 -0.0940
  260TMC3    O1 3999   0.492   2.177   0.271  0.6586  0.0099 -0.3806
  260TMC3    O2 4000   0.496   2.798   0.187 -0.2534 -0.3511 -0.5379
  261MPD2     C 4001   2.193   0.035  12.835 -0.0287  0.8984 -0.0724
  261MPD2    C1 4002   2.199   0.160  12.893 -0.5220  0.2164  0.3034
  261MPD2    C2 4003   2.170   0.272  12.820  0.2553 -0.1884 -0.3597
  261MPD2    C3 4004   2.140   0.264  12.686  0.3182 -0.5685 -1.0282
  261MPD2    C4 4005   2.122   0.141  12.627  0.3521  0.7050  0.2041
  261MPD2    C5 4006   2.162   0.031  12.699 -0.2741  0.5491 -0.5244
  261MPD2     H 4007   2.177   0.365  12.875 -1.1177 -0.6638  0.6190
  261MPD2    H1 4008   2.105   0.133  12.520 -1.4159  0.3415  0.5136
  261MPD2    H2 4009   2.222   4.681  12.882 -1.3985 -0.1687 -1.3669
  261MPD2    H3 4010   2.157   4.673  12.654  0.9992  0.5951 -0.7591
  261MPD2     N 4011   2.151   0.386  12.613  0.0364 -0.6064 -0.2559
  261MPD2    H5 4012   2.143   0.471  12.668 -0.1416 -0.7111 -0.1224
  261MPD2    N1 4013   2.245   0.177  13.026  0.2783 -0.3104 -0.0586
  261MPD2    H7 4014   2.259   0.275  13.049 -1.0045  0.7455 -3.7491
  262TMC3    C1 4015   2.194   0.544  12.437  0.6152  0.0840 -0.2538
  262TMC3    C2 4016   2.101   0.633  12.492  0.4316 -0.2243 -0.0280
  262TMC3    C3 4017   2.106   0.760  12.444 -0.2591  0.3838 -0.3634
  262TMC3    C4 4018   2.280   0.580  12.337 -0.0671  0.7336  0.5823
  262TMC3    C5 4019   2.271   0.710  12.290  0.0623  0.3566  1.3055
  262TMC3    C6 4020   2.191   0.803  12.351 -0.7834  0.2432  0.1442
  262TMC3     C 4021   2.188   0.402  12.483  0.3057  0.2674  0.4893
  262TMC3     O 4022   2.247   0.331  12.405 -0.6621  0.2724  0.1113
  262TMC3     H 4023   2.017   0.590  12.546 -0.2006  0.6322 -0.3252
  262TMC3    H1 4024   2.352   0.508  12.299 -1.6560 -0.0313 -0.9692
  262TMC3    H2 4025   2.180   0.899  12.303 -1.8358 -0.0082 -0.1337
  262TMC3    C7 4026   2.307   0.723  12.150  0.1137  0.2890  0.8427
  262TMC3    C8 4027   1.998   0.843  12.499  0.2207 -0.1208 -0.5539
  262TMC3    O1 4028   2.312   0.621  12.082  0.5106 -0.1099  0.7649
  262TMC3    O2 4029   1.905   0.792  12.558 -0.1115  0.0867 -0.3562
  263MPD2     C 4030   2.945   4.652  11.785 -0.2316 -0.2700 -0.1750
  263MPD2    C1 4031   3.074   4.645  11.836  0.0561 -0.1955 -0.1665
  263MPD2    C2 4032   3.179   4.682  11.754  0.4167 -0.5651 -0.7300
  263MPD2    C3 4033   3.159   4.705  11.622 -0.1806  1.2248  0.4375
  263MPD2    C4 4034   3.031   4.727  11.579 -0.1904  0.5247  1.5262
  263MPD2    C5 4035   2.921   4.710  11.659  0.2008  0.9109 -0.5098
  263MPD2     H 4036   3.284   4.679  11.783  0.1334 -0.2544  0.3139
  263MPD2    H1 4037   3.013   0.012  11.475  1.7435  2.0156  1.5481
  263MPD2    H2 4038   2.866   4.627  11.855 -0.9350  1.9995 -0.1587
  263MPD2    H3 4039   2.818   4.734  11.636  0.5133  0.9784 -1.8424
  263MPD2     N 4040   3.270   4.716  11.539 -0.1440  0.1502 -0.1253
  263MPD2    H5 4041   3.360   4.735  11.582 -0.3457  1.3100 -0.2124
  263MPD2    N1 4042   3.079   4.610  11.972 -0.2388  0.2671  0.7293
  263MPD2    H7 4043   3.001   4.562  12.014 -0.1590  0.6576  1.3219
  264TMC3    C1 4044   3.387   0.042  11.344  0.1490 -0.5412 -0.5903
  264TMC3    C2 4045   3.475   0.111  11.424  0.0241  0.3218 -0.5706
  264TMC3    C3 4046   3.607   0.123  11.373  0.7046  0.6309  0.4595
  264TMC3    C4 4047   3.415   0.009  11.216  0.1559  0.4806  0.6565
  264TMC3    C5 4048   3.536   0.043  11.166 -0.5651 -0.2294  0.0570
  264TMC3    C6 4049   3.642   0.087  11.242 -0.3831 -0.0588  0.0191
  264TMC3     C 4050   3.265   4.721  11.403 -0.3137 -0.7785 -0.3591
  264TMC3     O 4051   3.186   4.671  11.330 -0.0623  0.0726  0.0767
  264TMC3     H 4052   3.452   0.143  11.525 -1.4444 -1.8433 -0.2152
  264TMC3    H1 4053   3.333   4.715  11.154  0.1933  4.4330 -1.5844
  264TMC3    H2 4054   3.737   0.117  11.200 -0.0095  0.6509  1.3772
  264TMC3    C7 4055   3.568   4.727  11.039  0.3450 -0.2886 -0.1107
  264TMC3    C8 4056   3.701   0.199  11.448  0.7464 -0.4844 -0.3344
  264TMC3    O1 4057   3.488   4.649  10.990 -0.0652  0.2634 -0.6253
  264TMC3    O2 4058   3.794   0.245  11.387 -0.0754  0.3123  0.0018
  265MPD2     C 4059   0.340   4.668  15.815 -0.6716  0.2777 -0.0499
  265MPD2    C1 4060   0.428   0.021  15.780 -0.3984 -0.1025 -0.3867
  265MPD2    C2 4061   0.528   4.720  15.691 -0.0668  0.3088 -1.2850
  265MPD2    C3 4062   0.541   4.592  15.644 -0.2446  0.2977  0.1798
  265MPD2    C4 4063   0.439   4.505  15.678  0.5696 -0.5841  0.1909
  265MPD2    C5 4064   0.345   4.544  15.766  0.6110 -0.1204  0.1453
  265MPD2     H 4065   0.593   0.062  15.660  1.2575  1.0279  3.2693
  265MPD2    H1 4066   0.423   4.410  15.629 -0.5965 -0.7763  0.9596
  265MPD2    H2 4067   0.255   4.684  15.879 -1.3086 -0.2128 -0.7663
  265MPD2    H3 4068   0.269   4.473  15.795  3.6666 -3.4193  0.0776
  265MPD2     N 4069   0.636   4.551  15.552 -0.1430 -0.5289 -0.0943
  265MPD2    H5 4070   0.632   4.463  15.501  3.2293 -0.0432 -1.2548
  265MPD2    N1 4071   0.429   0.163  15.815 -0.4898 -0.5163 -0.3193
  265MPD2    H7 4072   0.516   0.212  15.798 -0.4957  0.3448  2.1455
  266TMC3    C1 4073   0.335   0.369  15.880  0.4995  0.1884 -0.5141
  266TMC3    C2 4074   0.441   0.392  15.968  0.2783  0.0823 -0.2506
  266TMC3    C3 4075   0.435   0.507  16.043 -0.3340 -0.3494 -0.0342
  266TMC3    C4 4076   0.223   0.442  15.875  0.6365 -0.1756  0.3569
  266TMC3    C5 4077   0.221   0.561  15.946  0.1228  0.3136  0.0571
  266TMC3    C6 4078   0.330   0.593  16.019 -0.2225  0.2540 -0.5684
  266TMC3     C 4079   0.316   0.235  15.846  0.5486  0.2341 -0.0083
  266TMC3     O 4080   0.202   0.195  15.862  0.0015  0.5596  0.1836
  266TMC3     H 4081   0.519   0.318  15.983  0.1640  0.2013  0.9182
  266TMC3    H1 4082   0.144   0.410  15.808  0.1353  1.6522  0.0639
  266TMC3    H2 4083   0.341   0.695  16.057  2.3204 -0.3232  0.2530
  266TMC3    C7 4084   0.105   0.644  15.947  0.4223  0.0335  0.8137
  266TMC3    C8 4085   0.564   0.549  16.099 -0.1358  0.1806  0.1938
  266TMC3    O1 4086   0.102   0.724  16.041 -0.2288  0.7502 -0.4082
  266TMC3    O2 4087   0.659   0.476  16.095  0.5539 -0.2763 -0.2111
  267MPD2     C 4088   3.400   2.266   0.071  0.1596 -1.2758  0.2188
  267MPD2    C1 4089   3.371   2.401   0.061  0.8795 -0.2699  0.5351
  267MPD2    C2 4090   3.277   2.444  17.726  0.4780 -0.8702 -0.4677
  267MPD2    C3 4091   3.212   2.351  17.648  0.0641  0.5683  0.0321
  267MPD2    C4 4092   3.253   2.211  17.650 -0.2712 -0.2085  0.3449
  267MPD2    C5 4093   3.348   2.176  17.740  0.2781  0.1055 -0.4015
  267MPD2     H 4094   3.264   2.552  17.727  1.6815 -0.7367  1.6341
  267MPD2    H1 4095   3.208   2.136  17.587  0.6851 -2.1457  1.9694
  267MPD2    H2 4096   3.481   2.232   0.134  1.5402 -0.0969 -0.9302
  267MPD2    H3 4097   3.379   2.073  17.754  0.7783  0.0584 -1.8466
  267MPD2     N 4098   3.108   2.381  17.557 -0.0937  0.4092 -0.1534
  267MPD2    H5 4099   3.062   2.300  17.518 -2.1380  0.5152  2.0235
  267MPD2    N1 4100   3.440   2.496   0.143 -0.5218 -0.0252 -0.4204
  267MPD2    H7 4101   3.429   2.596   0.131 -2.3704 -0.0469  1.0218
  268TMC3    C1 4102   3.574   2.589   0.305  0.4226 -0.5857  0.6691
  268TMC3    C2 4103   3.528   2.710   0.256  0.2454 -0.0038  0.1745
  268TMC3    C3 4104   3.533   2.812   0.344  0.4409  0.3171  0.2825
  268TMC3    C4 4105   3.632   2.572   0.424  0.5246 -0.2424 -0.3474
  268TMC3    C5 4106   3.640   2.686   0.506  0.3859  0.0116  0.3980
  268TMC3    C6 4107   3.582   2.803   0.472  0.3923  0.1123 -0.8672
  268TMC3     C 4108   3.516   2.467   0.254  0.9128  0.1310 -0.9977
  268TMC3     O 4109   3.536   2.363   0.320 -0.4203 -0.1313  0.3520
  268TMC3     H 4110   3.512   2.733   0.152  1.6982  2.9141  0.5996
  268TMC3    H1 4111   3.666   2.479   0.466  0.1159 -0.1252  0.2417
  268TMC3    H2 4112   3.586   2.892   0.532 -0.6585 -1.4022  1.4376
  268TMC3    C7 4113   3.689   2.672   0.638 -0.1789  0.2640 -0.3204
  268TMC3    C8 4114   3.502   2.946   0.290 -0.8092  0.1176  0.6403
  268TMC3    O1 4115   3.715   2.559   0.675 -0.3056  0.6502 -0.1574
  268TMC3    O2 4116   3.556   3.035   0.356 -0.0168 -0.2056  0.5312
  269MPD2     C 4117   3.360   1.132  15.477 -0.4859 -0.0153 -0.1764
  269MPD2    C1 4118   3.265   1.165  15.570 -0.0986 -0.1216  0.3922
  269MPD2    C2 4119   3.190   1.282  15.558 -0.7711 -0.2093 -0.5061
  269MPD2    C3 4120   3.220   1.379  15.465  0.2885  0.4726  0.2086
  269MPD2    C4 4121   3.327   1.353  15.378 -0.0081 -0.1534 -0.1694
  269MPD2    C5 4122   3.395   1.231  15.386 -0.3578  1.1633 -0.7894
  269MPD2     H 4123   3.115   1.302  15.633 -0.6293  2.0545 -0.9745
  269MPD2    H1 4124   3.366   1.425  15.307 -0.9926 -0.3695 -0.9353
  269MPD2    H2 4125   3.401   1.032  15.473 -0.6746 -0.0150 -1.8451
  269MPD2    H3 4126   3.467   1.219  15.305 -0.3512  1.3190 -0.8054
  269MPD2     N 4127   3.150   1.501  15.470  0.4823 -0.2782 -0.2031
  269MPD2    H5 4128   3.097   1.521  15.555  0.1103 -0.1421 -0.4647
  269MPD2    N1 4129   3.233   1.060  15.659 -0.0017 -0.0216 -0.2851
  269MPD2    H7 4130   3.299   0.985  15.643 -0.3258 -0.5246  0.7368
  270TMC3    C1 4131   3.109   0.924  15.791 -0.5529 -0.0082  0.2232
  270TMC3    C2 4132   2.978   0.882  15.791 -0.6872  0.5234 -0.2973
  270TMC3    C3 4133   2.947   0.754  15.819  0.1418  0.2932 -0.0544
  270TMC3    C4 4134   3.215   0.836  15.825  0.1257  0.5739  0.0191
  270TMC3    C5 4135   3.177   0.708  15.849 -0.2607 -0.5568  0.1859
  270TMC3    C6 4136   3.044   0.671  15.845  0.1675  0.0001  0.1586
  270TMC3     C 4137   3.127   1.055  15.740 -0.7653 -0.0232 -0.0973
  270TMC3     O 4138   3.035   1.130  15.758  0.0316  0.1314 -0.7652
  270TMC3     H 4139   2.899   0.949  15.758 -1.1400 -1.1246 -2.5327
  270TMC3    H1 4140   3.319   0.866  15.824  0.0231  0.9223 -0.2914
  270TMC3    H2 4141   2.997   0.577  15.872  0.7759 -0.4984 -0.5464
  270TMC3    C7 4142   3.269   0.608  15.795 -0.9695  0.1876  0.2167
  270TMC3    C8 4143   2.837   0.696  15.754 -0.0473  0.1892  0.0927
  270TMC3    O1 4144   3.385   0.646  15.774  0.3772  0.3481  0.3048
  270TMC3    O2 4145   2.777   0.611  15.812 -0.4210 -0.6211 -0.2642
  271MPD2     C 4146   2.066   0.542  14.179  0.8165  0.9058  0.5517
  271MPD2    C1 4147   2.039   0.538  14.309  0.7081 -0.7086  0.0121
  271MPD2    C2 4148   1.912   0.571  14.359 -0.0846 -0.1748  0.0633
  271MPD2    C3 4149   1.804   0.584  14.273 -0.2722 -0.1254 -0.1961
  271MPD2    C4 4150   1.830   0.570  14.139  0.2884  0.5388 -0.2375
  271MPD2    C5 4151   1.960   0.554  14.096  0.4159 -0.1820  0.1382
  271MPD2     H 4152   1.914   0.592  14.466  2.4143 -1.3671  0.2552
  271MPD2    H1 4153   1.757   0.574  14.059  0.7950  1.3721 -0.6577
  271MPD2    H2 4154   2.166   0.532  14.136  0.3628 -0.1098 -0.2540
  271MPD2    H3 4155   1.972   0.539  13.989  1.1648 -2.8092  0.6053
  271MPD2     N 4156   1.674   0.590  14.323  0.4196  0.2760  0.1142
  271MPD2    H5 4157   1.604   0.602  14.250  1.8440 -0.4042 -1.3686
  271MPD2    N1 4158   2.139   0.513  14.402  0.3381  0.5225  0.3522
  271MPD2    H7 4159   2.102   0.502  14.496 -1.7330 -0.1809 -0.5530
  272TMC3    C1 4160   2.352   0.465  14.499  0.7180  0.0070  0.0746
  272TMC3    C2 4161   2.486   0.487  14.470 -0.3774 -0.1680 -0.3054
  272TMC3    C3 4162   2.582   0.495  14.566 -1.1185 -0.3986 -0.4815
  272TMC3    C4 4163   2.307   0.478  14.621  0.5941  0.6468 -0.2649
  272TMC3    C5 4164   2.401   0.501  14.720  0.1660 -0.0793  0.5944
  272TMC3    C6 4165   2.542   0.503  14.698 -0.6169 -0.2436  0.2239
  272TMC3     C 4166   2.269   0.470  14.376  0.1618 -0.7059  0.6667
  272TMC3     O 4167   2.324   0.463  14.265  0.6978 -0.3991  0.7245
  272TMC3     H 4168   2.519   0.488  14.367 -1.0336  2.3215 -0.4976
  272TMC3    H1 4169   2.204   0.466  14.653  0.8509  2.1329  1.1674
  272TMC3    H2 4170   2.616   0.527  14.774  0.8192 -0.6308 -1.0652
  272TMC3    C7 4171   2.344   0.549  14.846  0.4727  0.7668  0.1117
  272TMC3    C8 4172   2.723   0.483  14.531 -0.2461  0.3009 -0.2298
  272TMC3    O1 4173   2.255   0.485  14.900  0.3451  0.3355 -0.1675
  272TMC3    O2 4174   2.753   0.505  14.414 -0.0991  0.4276 -0.3221
  273MPD2     C 4175   3.664   3.340  12.486  0.0117  0.7306 -0.8958
  273MPD2    C1 4176   3.674   3.281  12.362  0.2417 -0.9369  0.3349
  273MPD2    C2 4177   3.557   3.259  12.292 -0.3286  0.5586 -0.0179
  273MPD2    C3 4178   3.440   3.308  12.340 -0.1864 -0.2304  0.5178
  273MPD2    C4 4179   3.430   3.372  12.455  0.1966  0.3485  0.3724
  273MPD2    C5 4180   3.544   3.386  12.531  0.0602  0.0075  0.3325
  273MPD2     H 4181   3.565   3.207  12.197  0.8347 -0.4755  0.6522
  273MPD2    H1 4182   3.336   3.413  12.490 -0.8434 -0.5963 -1.3350
  273MPD2    H2 4183   3.745   3.364  12.555 -0.7231  2.1058 -0.5072
  273MPD2    H3 4184   3.530   3.437  12.626  1.1402 -1.3844  1.2434
  273MPD2     N 4185   3.322   3.293  12.266  0.1046  0.1148 -0.2135
  273MPD2    H5 4186   3.237   3.343  12.288 -0.5734 -0.9495 -0.4387
  273MPD2    N1 4187   3.807   3.247  12.317 -0.6312  0.4907 -0.3349
  273MPD2    H7 4188   3.879   3.261  12.387 -1.0990 -1.3677  0.5169
  274TMC3    C1 4189   3.215   3.273  12.049 -0.9390 -0.3255 -0.5060
  274TMC3    C2 4190   3.166   3.195  11.945 -0.0406  0.3842  0.3604
  274TMC3    C3 4191   3.099   3.245  11.845  0.4671 -0.9819  0.1479
  274TMC3    C4 4192   3.194   3.408  12.045  0.0272  0.4141 -0.1837
  274TMC3    C5 4193   3.148   3.455  11.926 -0.3103 -0.0442 -0.7709
  274TMC3    C6 4194   3.090   3.382  11.826 -0.2293  0.5659 -0.2562
  274TMC3     C 4195   3.316   3.217  12.150 -0.0319 -0.1707  0.4916
  274TMC3     O 4196   3.383   3.129  12.102 -0.0016  0.4067 -0.4335
  274TMC3     H 4197   3.168   3.087  11.950  0.8759  0.3488 -0.7380
  274TMC3    H1 4198   3.224   3.478  12.123 -0.1587  1.4552 -1.0395
  274TMC3    H2 4199   3.026   3.433  11.755 -1.4183 -0.3372  0.1799
  274TMC3    C7 4200   3.148   3.600  11.924 -0.2778 -0.0754 -0.2146
  274TMC3    C8 4201   3.049   3.159  11.739  0.3366  0.5975  0.0154
  274TMC3    O1 4202   3.081   3.654  12.015  0.5381  0.5814  0.4848
  274TMC3    O2 4203   3.094   3.047  11.726  0.2766 -0.2266 -0.1523
  275MPD2     C 4204   3.914   1.899  14.603 -0.2651 -0.3445 -0.1201
  275MPD2    C1 4205   3.913   1.762  14.636  0.3800 -0.0827 -0.3021
  275MPD2    C2 4206   3.798   1.690  14.615 -0.1743  1.0193 -0.2056
  275MPD2    C3 4207   3.678   1.756  14.579  0.5061 -0.4622  0.5586
  275MPD2    C4 4208   3.685   1.886  14.537 -0.7740  0.3068 -0.0468
  275MPD2    C5 4209   3.807   1.954  14.545  0.1279  0.6371 -0.0424
  275MPD2     H 4210   3.799   1.586  14.645 -2.0210  1.4499  1.3557
  275MPD2    H1 4211   3.598   1.941  14.504 -1.3943  0.1794  1.3619
  275MPD2    H2 4212   3.999   1.963  14.622  0.0438 -0.0958 -2.3246
  275MPD2    H3 4213   3.804   2.057  14.512  0.2544  0.6540  0.0001
  275MPD2     N 4214   3.549   1.697  14.581 -0.6609 -0.0681  0.0744
  275MPD2    H5 4215   3.466   1.754  14.571 -1.0090 -0.6614 -0.4473
  275MPD2    N1 4216   4.038   1.712  14.687  0.6547 -0.0242  0.0032
  275MPD2    H7 4217   4.121   1.770  14.690  1.5527 -1.3351  0.6791
  276TMC3    C1 4218   4.196   1.544  14.731  0.3536 -0.2971 -0.0725
  276TMC3    C2 4219   4.246   1.432  14.675  0.1116 -0.3030 -0.3293
  276TMC3    C3 4220   4.386   1.408  14.689 -0.0921 -1.3139  0.5866
  276TMC3    C4 4221   4.269   1.625  14.816  0.5374 -0.3261  0.0918
  276TMC3    C5 4222   4.406   1.594  14.823 -0.3248  0.0120  0.4843
  276TMC3    C6 4223   4.465   1.496  14.756  0.2824 -0.1436 -0.2771
  276TMC3     C 4224   4.065   1.579  14.683  0.5436 -0.1838 -0.1689
  276TMC3     O 4225   3.990   1.488  14.652 -0.0948  0.0589 -0.1255
  276TMC3     H 4226   4.187   1.368  14.609  0.6948 -0.5118 -0.6449
  276TMC3    H1 4227   4.208   1.701  14.863 -1.8262 -2.2869  0.1671
  276TMC3    H2 4228   4.572   1.483  14.767 -0.0153 -1.0204  1.5402
  276TMC3    C7 4229   4.472   1.657  14.933  0.5145 -0.0299 -0.6088
  276TMC3    C8 4230   4.430   1.277  14.718 -1.0896  0.1529  0.6805
  276TMC3    O1 4231   4.405   1.713  15.021  0.5192 -0.1626 -0.2373
  276TMC3    O2 4232   4.541   1.261  14.765 -0.5277 -0.1738 -0.5021
  277MPD2     C 4233   0.845   0.191  13.355  0.7668  1.0120 -0.6525
  277MPD2    C1 4234   0.766   0.302  13.397 -0.0501 -0.2198  0.1316
  277MPD2    C2 4235   0.710   0.297  13.528 -0.5984  0.1970  0.7634
  277MPD2    C3 4236   0.743   0.197  13.618 -0.1703 -0.3569  0.1433
  277MPD2    C4 4237   0.809   0.087  13.561  0.3002  0.6256  0.2298
  277MPD2    C5 4238   0.856   0.081  13.433 -0.0675  0.2105  0.1668
  277MPD2     H 4239   0.656   0.382  13.568  1.5821  1.6772  0.5637
  277MPD2    H1 4240   0.842   0.010  13.630  2.2912 -0.3885 -1.8565
  277MPD2    H2 4241   0.894   0.180  13.258  1.2429 -1.6783 -0.1121
  277MPD2    H3 4242   0.910   4.735  13.398 -1.5278 -0.6761  0.0940
  277MPD2     N 4243   0.688   0.194  13.748  0.2122  0.1491 -0.1724
  277MPD2    H5 4244   0.626   0.271  13.770 -1.3303 -1.2781  0.4805
  277MPD2    N1 4245   0.743   0.409  13.310 -1.1759 -0.2369  0.3768
  277MPD2    H7 4246   0.807   0.423  13.232  0.7299 -5.0552  1.0743
  278TMC3    C1 4247   0.643   0.121  13.969  0.7909 -0.0071  0.1255
  278TMC3    C2 4248   0.611   0.006  14.033 -0.0251 -0.2050 -0.2224
  278TMC3    C3 4249   0.539   0.013  14.151  0.6169 -0.1858  0.3895
  278TMC3    C4 4250   0.624   0.249  14.013 -0.3489 -0.6500 -0.3308
  278TMC3    C5 4251   0.557   0.253  14.134 -0.3224  0.0351 -0.2411
  278TMC3    C6 4252   0.516   0.137  14.202  0.6188  0.4149  0.0941
  278TMC3     C 4253   0.711   0.097  13.839  0.2870  0.5620  0.0870
  278TMC3     O 4254   0.760   4.724  13.832  0.4471 -0.0461 -0.4344
  278TMC3     H 4255   0.635   4.645  13.999 -1.6679 -1.0042  0.9831
  278TMC3    H1 4256   0.674   0.337  13.972 -2.0829  0.6025  0.2501
  278TMC3    H2 4257   0.466   0.139  14.298 -1.3572  0.5971 -0.9529
  278TMC3    C7 4258   0.480   0.375  14.169 -0.0580 -0.0589  0.1478
  278TMC3    C8 4259   0.405   4.700  14.128 -0.6672  0.2573 -0.0880
  278TMC3    O1 4260   0.520   0.477  14.117  0.1713 -0.4673  0.5824
  278TMC3    O2 4261   0.320   0.036  14.169 -0.2063 -0.5282  1.2784
  279MPD2     C 4262   4.300   0.420   0.392 -0.1978 -0.5812 -0.3543
  279MPD2    C1 4263   4.367   0.535   0.413 -0.6001  0.5617  0.1189
  279MPD2    C2 4264   4.457   0.567   0.317 -0.1695  0.1628  0.3326
  279MPD2    C3 4265   4.481   0.498   0.203 -0.2320 -0.5733 -0.2611
  279MPD2    C4 4266   4.412   0.385   0.185 -0.1013  0.1756 -0.2550
  279MPD2    C5 4267   4.320   0.339   0.281 -0.1942 -0.4552  0.0668
  279MPD2     H 4268   4.521   0.653   0.338  0.8898 -0.9164  1.5000
  279MPD2    H1 4269   4.428   0.334   0.090  4.1681 -0.6056  0.8574
  279MPD2    H2 4270   4.216   0.389   0.453  0.4201 -1.3448  0.1100
  279MPD2    H3 4271   4.278   0.241   0.260 -1.9019  0.3914 -0.4624
  279MPD2     N 4272   4.554   0.551   0.092 -0.3088  0.5232 -0.2257
  279MPD2    H5 4273   4.536   0.502   0.005  0.5937 -0.3978  0.0995
  279MPD2    N1 4274   4.337   0.614   0.528  0.0247 -0.3592 -0.2355
  279MPD2    H7 4275   4.245   0.601   0.569  1.0148  0.1006  2.1831
  280TMC3    C1 4276   4.308   0.830   0.607 -0.3133 -0.1144 -0.0848
  280TMC3    C2 4277   4.185   0.799   0.664 -0.1235 -0.5758  0.2263
  280TMC3    C3 4278   4.103   0.905   0.704  0.4387  0.1094 -0.2434
  280TMC3    C4 4279   4.336   0.958   0.589 -0.3860 -0.4918  0.2761
  280TMC3    C5 4280   4.253   1.060   0.620 -0.1148 -0.0351  0.3332
  280TMC3    C6 4281   4.135   1.035   0.686 -0.2918  0.1854  0.0308
  280TMC3     C 4282   4.398   0.734   0.547  0.2251 -0.0534  0.1449
  280TMC3     O 4283   4.513   0.773   0.524 -0.6065 -0.2219  0.2391
  280TMC3     H 4284   4.166   0.702   0.709  1.6366 -0.5177  1.0916
  280TMC3    H1 4285   4.431   0.983   0.543 -0.8141  0.6677  0.0147
  280TMC3    H2 4286   4.069   1.114   0.720  0.5983  0.5774  0.8571
  280TMC3    C7 4287   4.314   1.193   0.616  0.7051  0.0062 -0.1950
  280TMC3    C8 4288   3.994   0.875   0.798 -0.5047 -0.4273  0.4080
  280TMC3    O1 4289   4.436   1.200   0.598  0.2045  0.7118 -0.0657
  280TMC3    O2 4290   3.970   0.957   0.885 -0.2639 -0.2843 -0.0420
  281TMC3    C1 4291   3.098   0.838  13.824 -0.2428 -0.1908 -0.3188
  281TMC3    C2 4292   3.125   0.948  13.741  0.0562  0.3911  0.0292
  281TMC3    C3 4293   3.226   0.932  13.652 -0.4141  0.3032  0.1164
  281TMC3    C4 4294   3.169   0.723  13.828  0.2484 -0.0423  0.2068
  281TMC3    C5 4295   3.261   0.713  13.729  0.0902 -0.5785  0.5722
  281TMC3    C6 4296   3.283   0.810  13.636  0.1796  0.6415  0.3127
  281TMC3     C 4297   2.978   0.851  13.904  0.5753  0.5593  0.3975
  281TMC3     O 4298   2.988   0.844  14.025 -0.1280  0.3635 -0.2663
  281TMC3     H 4299   3.075   1.045  13.745  1.4450  1.0768  0.8348
  281TMC3    H1 4300   3.135   0.645  13.896 -0.4469 -0.6183 -0.8040
  281TMC3    H2 4301   3.359   0.801  13.559 -1.6114 -1.0372 -1.2559
  281TMC3    C7 4302   3.336   0.589  13.707 -0.2554 -0.1977  0.3996
  281TMC3    C8 4303   3.243   1.024  13.536 -0.0678 -0.2141  0.1180
  281TMC3    O1 4304   3.428   0.594  13.625 -0.2439  0.5710  0.3242
  281TMC3    O2 4305   3.151   1.107  13.531 -0.6801 -0.3952 -0.1692
  282MPD2     C 4306   0.568   2.154  15.001  0.0153 -0.5466  0.4314
  282MPD2    C1 4307   0.436   2.130  15.025  0.0265 -0.2448  0.2698
  282MPD2    C2 4308   0.359   2.068  14.927 -0.5232  0.4134 -0.3029
  282MPD2    C3 4309   0.411   2.036  14.805  0.0855  0.1233 -0.3716
  282MPD2    C4 4310   0.542   2.058  14.782  0.5124 -0.1479 -0.8584
  282MPD2    C5 4311   0.622   2.114  14.878  0.1365 -0.2782  0.7045
  282MPD2     H 4312   0.253   2.045  14.938 -0.6271  1.5957  1.2854
  282MPD2    H1 4313   0.580   2.027  14.685  0.6368 -0.7361 -0.6224
  282MPD2    H2 4314   0.633   2.205  15.072  2.3554  0.9179 -2.7763
  282MPD2    H3 4315   0.723   2.133  14.842  0.2302 -3.5477 -0.7209
  282MPD2     N 4316   0.318   2.004  14.702 -0.1764 -0.2473  0.4188
  282MPD2    H5 4317   0.221   2.002  14.730 -0.2851  0.0475  0.0582
  282MPD2    N1 4318   0.368   2.179  15.137 -0.7489  1.2621 -0.3401
  282MPD2    H7 4319   0.268   2.187  15.126 -1.0047 -2.4532 -0.8779
  283TMC3    C1 4320   0.338   2.251  15.363 -0.2808 -0.2057 -0.5015
  283TMC3    C2 4321   0.236   2.339  15.332  0.1402  0.1490 -1.1788
  283TMC3    C3 4322   0.171   2.396  15.437  0.4011 -0.2206 -1.0600
  283TMC3    C4 4323   0.361   2.211  15.492 -0.4343 -0.0954 -0.5587
  283TMC3    C5 4324   0.293   2.267  15.591 -0.8997 -0.6810 -0.6830
  283TMC3    C6 4325   0.191   2.356  15.573 -0.2597  0.7236  0.6443
  283TMC3     C 4326   0.425   2.198  15.260 -0.0281  0.0040 -0.4837
  283TMC3     O 4327   0.540   2.179  15.292 -0.0724 -1.1389 -0.2629
  283TMC3     H 4328   0.216   2.369  15.229  2.6985 -0.9641 -1.9894
  283TMC3    H1 4329   0.427   2.126  15.502 -1.1041 -0.5863 -0.3227
  283TMC3    H2 4330   0.131   2.393  15.655 -1.1372  3.1312 -1.0953
  283TMC3    C7 4331   0.280   2.202  15.719 -0.0946  0.2455 -0.2454
  283TMC3    C8 4332   0.126   2.531  15.416  0.6357  0.0975  0.2289
  283TMC3    O1 4333   0.268   2.279  15.811 -0.3425  0.0453 -0.3457
  283TMC3    O2 4334   0.089   2.548  15.302  0.2122 -0.3156  0.4099
  284MPD2     C 4335   3.517   1.276  12.112  0.2591 -0.2316 -0.4755
  284MPD2    C1 4336   3.576   1.288  11.987  0.0649 -0.0484  0.1837
  284MPD2    C2 4337   3.701   1.234  11.961  0.7515  0.3567 -0.1804
  284MPD2    C3 4338   3.778   1.166  12.058  0.5332 -0.6529 -0.1688
  284MPD2    C4 4339   3.714   1.152  12.176 -0.3932  0.4026 -0.5437
  284MPD2    C5 4340   3.591   1.205  12.203  1.0722 -0.3762 -0.2339
  284MPD2     H 4341   3.740   1.259  11.863  1.4681 -1.8237 -0.4613
  284MPD2    H1 4342   3.747   1.086  12.256 -0.9747  1.0140  0.1968
  284MPD2    H2 4343   3.425   1.324  12.143 -0.2433  0.4652 -2.9952
  284MPD2    H3 4344   3.545   1.190  12.301  0.5364 -2.2531 -0.7655
  284MPD2     N 4345   3.900   1.106  12.033 -0.1094  0.3537 -0.3784
  284MPD2    H5 4346   3.936   1.034  12.094 -4.3472 -2.0285 -0.6350
  284MPD2    N1 4347   3.515   1.351  11.884 -0.2231  0.0501  0.1505
  284MPD2    H7 4348   3.562   1.353  11.794  1.8677 -1.5415  1.1946
  285TMC3    C1 4349   3.359   1.435  11.742 -0.9926 -0.2010 -0.4385
  285TMC3    C2 4350   3.415   1.351  11.641  0.2899 -0.3654  0.3293
  285TMC3    C3 4351   3.452   1.403  11.519 -0.2409  0.0070 -0.0511
  285TMC3    C4 4352   3.336   1.571  11.723  0.3361 -0.0069 -0.3780
  285TMC3    C5 4353   3.384   1.620  11.600  0.0590 -0.2090 -0.9197
  285TMC3    C6 4354   3.440   1.536  11.505 -0.0724 -0.6528  0.8256
  285TMC3     C 4355   3.388   1.393  11.873  0.1011  0.5770  0.0201
  285TMC3     O 4356   3.314   1.418  11.966 -0.0314  0.2520  0.1338
  285TMC3     H 4357   3.423   1.245  11.664 -1.1458 -0.7555 -0.9223
  285TMC3    H1 4358   3.305   1.636  11.803  0.7802  0.1991 -0.3728
  285TMC3    H2 4359   3.476   1.590  11.418 -0.7590  1.9983  2.1866
  285TMC3    C7 4360   3.432   1.756  11.605  0.1019  0.3818  0.1228
  285TMC3    C8 4361   3.551   1.320  11.455  0.3176 -0.3216  0.4371
  285TMC3    O1 4362   3.361   1.851  11.637 -0.4361 -0.0956 -0.1114
  285TMC3    O2 4363   3.611   1.239  11.526  0.2185 -0.1531  0.2686
  286MPD2     C 4364   4.189   1.105   1.576 -0.3147  0.3160  0.6867
  286MPD2    C1 4365   4.119   1.053   1.466 -0.0848 -0.0278 -0.3164
  286MPD2    C2 4366   4.140   0.920   1.437  1.4928 -0.1619 -0.4746
  286MPD2    C3 4367   4.209   0.841   1.529  0.6066  0.7166 -0.3735
  286MPD2    C4 4368   4.277   0.889   1.634  0.4158 -0.4616  0.7128
  286MPD2    C5 4369   4.262   1.023   1.664 -1.0686  0.1575 -0.2723
  286MPD2     H 4370   4.111   0.887   1.338  0.5971 -1.5844  0.2663
  286MPD2    H1 4371   4.349   0.827   1.686  0.7347 -2.0457 -1.6404
  286MPD2    H2 4372   4.183   1.206   1.614 -0.1724  1.3438 -2.0345
  286MPD2    H3 4373   4.308   1.059   1.755  0.4783 -0.1815 -0.9156
  286MPD2     N 4374   4.237   0.711   1.501 -0.7853  1.1681 -0.0996
  286MPD2    H5 4375   4.313   0.676   1.558 -0.2579  1.3689 -0.6859
  286MPD2    N1 4376   4.048   1.140   1.380 -0.1550 -0.3220 -0.2095
  286MPD2    H7 4377   3.976   1.098   1.322 -0.5028  0.7954 -0.5908
  287TMC3    C1 4378   4.208   0.506   1.389  0.6125 -0.3956  0.7586
  287TMC3    C2 4379   4.117   0.419   1.332 -0.2292 -0.1244 -0.3050
  287TMC3    C3 4380   4.169   0.295   1.291  0.3835  0.5145  0.4464
  287TMC3    C4 4381   4.332   0.465   1.425  0.4693 -0.1115  0.7832
  287TMC3    C5 4382   4.374   0.347   1.381  0.3014  0.0729  0.8314
  287TMC3    C6 4383   4.295   0.256   1.317 -0.2498 -0.3246  0.0528
  287TMC3     C 4384   4.151   0.633   1.429 -0.5305 -0.0401  0.5134
  287TMC3     O 4385   4.036   0.662   1.395 -0.2743  0.0144 -0.2263
  287TMC3     H 4386   4.017   0.455   1.312  0.0441  1.0605  0.4500
  287TMC3    H1 4387   4.406   0.531   1.471  1.8691 -0.8629 -0.4036
  287TMC3    H2 4388   4.333   0.158   1.288 -1.2962  0.0651 -2.6802
  287TMC3    C7 4389   4.509   0.302   1.427 -0.3652 -0.0242  0.1713
  287TMC3    C8 4390   4.083   0.202   1.210  0.1220  0.5100 -0.3789
  287TMC3    O1 4391   4.539   0.336   1.538 -0.6736 -0.0852 -0.1908
  287TMC3    O2 4392   4.127   0.089   1.202 -0.6045  0.2282 -0.1088
  288TMC3    C1 4393   1.027   4.366  14.866  0.0687 -0.2421  0.0666
  288TMC3    C2 4394   0.905   4.408  14.910  0.5155 -0.1298  0.4710
  288TMC3    C3 4395   0.891   4.540  14.946  0.1247  0.2607 -0.1541
  288TMC3    C4 4396   1.131   4.459  14.834 -0.3900 -0.1790 -0.5114
  288TMC3    C5 4397   1.100   4.590  14.851 -0.2950 -0.2298  0.6756
  288TMC3    C6 4398   0.980   4.632  14.908  0.1008  0.3194  0.0673
  288TMC3     C 4399   1.052   4.235  14.829 -0.2401  0.0022  0.4857
  288TMC3     O 4400   1.158   4.185  14.862  0.3578  0.7290  0.1456
  288TMC3     H 4401   0.836   4.336  14.952 -1.4737  0.9210 -0.9888
  288TMC3    H1 4402   1.223   4.421  14.791 -0.2127 -0.1571 -0.1458
  288TMC3    H2 4403   0.969   4.737  14.933  0.0355  1.1717 -3.5644
  288TMC3    C7 4404   1.164   4.683  14.761 -0.1171  0.2372 -0.0609
  288TMC3    C8 4405   0.791   4.589  15.035  0.3962  0.3904  0.2368
  288TMC3    O1 4406   1.283   4.680  14.739  0.0729 -0.5741 -0.3841
  288TMC3    O2 4407   0.799   4.707  15.063 -0.4892  0.1159 -0.1741
  289MPD2     C 4408   0.609   3.487  13.816  0.5499  0.4318  0.4925
  289MPD2    C1 4409   0.608   3.614  13.867  1.0126 -0.3278 -1.2682
  289MPD2    C2 4410   0.487   3.688  13.863 -0.1391  0.0208 -0.0130
  289MPD2    C3 4411   0.370   3.623  13.816  0.5476  0.9399  0.0327
  289MPD2    C4 4412   0.379   3.485  13.785  0.2530 -0.1238  0.1015
  289MPD2    C5 4413   0.499   3.421  13.775  0.2070 -1.3112 -0.2058
  289MPD2     H 4414   0.482   3.790  13.899 -1.8081  0.2791 -0.9769
  289MPD2    H1 4415   0.294   3.426  13.756  0.3129  0.0941 -0.5249
  289MPD2    H2 4416   0.700   3.429  13.827 -0.6866 -1.8615 -1.2536
  289MPD2    H3 4417   0.509   3.316  13.750 -2.6688 -1.8482  0.8794
  289MPD2     N 4418   0.248   3.688  13.808 -0.7042  0.7609 -0.2287
  289MPD2    H5 4419   0.169   3.626  13.793  0.2078 -0.7248  1.0610
  289MPD2    N1 4420   0.724   3.659  13.934  0.3461  0.3358  0.2789
  289MPD2    H7 4421   0.807   3.601  13.925  0.4865  0.7462 -1.1390
  290TMC3    C1 4422   0.082   3.862  13.854 -0.8624 -0.0892 -0.2413
  290TMC3    C2 4423   0.051   3.982  13.917 -0.6467 -0.1802  0.2236
  290TMC3    C3 4424   4.657   4.012  13.925 -0.8389  0.4310  0.3264
  290TMC3    C4 4425   4.730   3.779  13.794  0.1397  0.5066 -0.0707
  290TMC3    C5 4426   4.598   3.825  13.787 -0.2466  0.9098 -0.2948
  290TMC3    C6 4427   4.559   3.941  13.863  0.1572 -0.4246  0.4000
  290TMC3     C 4428   0.222   3.821  13.836 -0.1991 -0.2013  0.0742
  290TMC3     O 4429   0.295   3.912  13.869  0.2377  0.5204 -0.4935
  290TMC3     H 4430   0.118   4.065  13.934 -1.5126  0.4913  0.3737
  290TMC3    H1 4431   0.014   3.691  13.736 -2.0955 -0.3021  0.2140
  290TMC3    H2 4432   4.455   3.972  13.868 -0.1436 -0.9461 -2.6528
  290TMC3    C7 4433   4.486   3.734  13.748 -0.2119 -0.3755  0.6052
  290TMC3    C8 4434   4.619   4.127  14.006 -0.0861 -0.3065 -1.2146
  290TMC3    O1 4435   4.383   3.788  13.734  0.0883  0.0856  0.1989
  290TMC3    O2 4436   4.517   4.187  13.983 -0.0676 -0.3023  0.5015
  291MPD2     C 4437   4.576   3.957   0.732  0.5301 -0.2709  0.3872
  291MPD2    C1 4438   4.713   3.944   0.703  0.1067  0.2073 -0.0057
  291MPD2    C2 4439   0.055   4.059   0.706 -0.0216  0.2151  0.8776
  291MPD2    C3 4440   4.740   4.182   0.736  0.8086 -0.0857 -0.3070
  291MPD2    C4 4441   4.610   4.192   0.768 -0.6448 -0.0592  0.7156
  291MPD2    C5 4442   4.527   4.082   0.766  0.0543 -0.1722 -0.1141
  291MPD2     H 4443   0.157   4.056   0.669  0.1866 -0.6653  1.5446
  291MPD2    H1 4444   4.561   4.286   0.791 -1.7074 -0.2657 -0.6951
  291MPD2    H2 4445   4.508   3.874   0.744  0.4660 -0.0763  1.4141
  291MPD2    H3 4446   4.423   4.088   0.795  0.1901 -2.9864  0.9569
  291MPD2     N 4447   0.082   4.300   0.726  0.5017 -0.4367 -0.4896
  291MPD2    H5 4448   0.032   4.388   0.735  1.9848  0.5352 -1.8644
  291MPD2    N1 4449   0.028   3.823   0.666 -0.1689  0.3094 -0.3337
  291MPD2    H7 4450   0.128   3.809   0.662 -0.5028 -1.4860 -2.3296
  292TMC3    C1 4451   0.040   3.595   0.652  0.6914 -0.1526 -0.4201
  292TMC3    C2 4452   0.139   3.589   0.747 -0.7641  0.2902 -0.3269
  292TMC3    C3 4453   0.213   3.478   0.755  0.1106  0.5053  0.1491
  292TMC3    C4 4454   0.000   3.497   0.575 -0.6126  0.6136 -0.1220
  292TMC3    C5 4455   0.073   3.378   0.584 -0.4965  0.7504  0.4180
  292TMC3    C6 4456   0.181   3.370   0.668  0.0622 -0.0785  0.1199
  292TMC3     C 4457   4.696   3.715   0.662 -0.0512  0.0931  0.0730
  292TMC3     O 4458   4.575   3.690   0.674 -0.0542  0.0573  0.0646
  292TMC3     H 4459   0.158   3.665   0.822  1.3848 -1.2573  0.7043
  292TMC3    H1 4460   4.653   3.509   0.512 -0.0472 -3.5144 -1.6984
  292TMC3    H2 4461   0.218   3.270   0.689 -1.7180 -0.3193  2.1251
  292TMC3    C7 4462   0.024   3.264   0.510  0.3438 -0.3947 -0.4542
  292TMC3    C8 4463   0.291   3.447   0.864  0.2358  0.6640 -0.9199
  292TMC3    O1 4464   0.095   3.168   0.497  0.7252 -0.7545 -0.7124
  292TMC3    O2 4465   0.366   3.349   0.848 -0.6167  0.0209 -0.2540
  293MPD2     C 4466   1.894   0.179  13.004  0.4774  0.7306  0.1580
  293MPD2    C1 4467   1.844   0.062  13.051  0.5151  0.4101 -0.1450
  293MPD2    C2 4468   1.788   0.065  13.172 -0.2124 -0.4046 -0.0926
  293MPD2    C3 4469   1.769   0.184  13.242  0.6849  0.4589 -0.7585
  293MPD2    C4 4470   1.825   0.305  13.191 -0.1457 -0.2270  0.3136
  293MPD2    C5 4471   1.887   0.295  13.071  0.1378 -0.2610  0.0849
  293MPD2     H 4472   1.754   4.713  13.218  0.2179 -1.6176 -2.1649
  293MPD2    H1 4473   1.806   0.402  13.236 -2.1861 -0.6716  0.3912
  293MPD2    H2 4474   1.932   0.195  12.903  0.9547 -2.9974 -0.2670
  293MPD2    H3 4475   1.918   0.384  13.019 -0.4930 -0.9540 -1.4733
  293MPD2     N 4476   1.700   0.185  13.367 -0.7860  0.0910  0.0330
  293MPD2    H5 4477   1.670   0.093  13.396 -1.1652  0.0488 -0.4900
  293MPD2    N1 4478   1.852   4.695  12.967 -0.4924 -0.2891  0.2720
  293MPD2    H7 4479   1.911   4.701  12.884 -1.0394  1.9077  0.0403
  294TMC3    C1 4480   1.810   4.475  12.889 -0.4026  0.2986 -0.1955
  294TMC3    C2 4481   1.691   4.447  12.812  0.2618  0.3500 -0.5975
  294TMC3    C3 4482   1.712   4.406  12.686  0.2006  0.9216 -0.7150
  294TMC3    C4 4483   1.930   4.476  12.831 -0.1592 -0.1055 -0.1287
  294TMC3    C5 4484   1.939   4.422  12.703 -0.4377  0.3612  1.1855
  294TMC3    C6 4485   1.837   4.393  12.629 -0.6433  0.1105 -0.1105
  294TMC3     C 4486   1.794   4.570  12.997  0.2859 -0.5000  0.0587
  294TMC3     O 4487   1.725   4.534  13.089 -0.2864  0.2636  0.1858
  294TMC3     H 4488   1.591   4.450  12.855  1.4090  1.6366  2.0047
  294TMC3    H1 4489   2.022   4.477  12.888 -0.9404 -0.9229  1.1364
  294TMC3    H2 4490   1.854   4.328  12.544  1.5063 -0.5586  0.8580
  294TMC3    C7 4491   2.074   4.418  12.641  0.8561  0.0077 -0.5488
  294TMC3    C8 4492   1.590   4.371  12.609  0.5724  0.3016  0.0797
  294TMC3    O1 4493   2.167   4.417  12.717 -0.1469 -0.5001 -0.0859
  294TMC3    O2 4494   1.483   4.424  12.645  0.3782 -0.0932 -0.3577
  295MPD2     C 4495   2.691   4.712   0.540 -0.6988 -0.2871 -0.5871
  295MPD2    C1 4496   2.573   4.641   0.551  0.3560  0.3252 -0.4604
  295MPD2    C2 4497   2.577   4.506   0.561 -0.1936 -1.1123  0.1732
  295MPD2    C3 4498   2.691   4.437   0.575  0.7321  0.3060  0.1711
  295MPD2    C4 4499   2.806   4.506   0.577 -0.5979 -0.3285 -0.2179
  295MPD2    C5 4500   2.806   4.644   0.550 -0.1303 -0.5389  0.5753
  295MPD2     H 4501   2.476   4.471   0.574 -0.4283 -0.8089 -0.8379
  295MPD2    H1 4502   2.903   4.460   0.593  0.1084  1.8265  1.8728
  295MPD2    H2 4503   2.697   0.080   0.533  1.7356 -0.4300 -0.5751
  295MPD2    H3 4504   2.898   4.702   0.547 -0.9934  0.8350  0.9053
  295MPD2     N 4505   2.689   4.302   0.592  0.2810  0.3784  0.1490
  295MPD2    H5 4506   2.781   4.259   0.586  0.5588  1.0038 -0.0099
  295MPD2    N1 4507   2.451   4.704   0.522  0.2255 -0.6544 -0.0587
  295MPD2    H7 4508   2.379   4.635   0.502 -0.5876  0.0460  0.4172
  296TMC3    C1 4509   2.620   4.074   0.602 -0.1337 -0.0222  0.1126
  296TMC3    C2 4510   2.721   4.043   0.692 -0.3169 -0.4950  0.1917
  296TMC3    C3 4511   2.744   3.913   0.719  0.2491 -0.6402 -0.5529
  296TMC3    C4 4512   2.529   3.984   0.557  0.0212  0.8376 -0.1230
  296TMC3    C5 4513   2.560   3.851   0.594  0.0277  0.0421  0.0755
  296TMC3    C6 4514   2.663   3.814   0.671  0.6037  0.0959  0.2974
  296TMC3     C 4515   2.582   4.214   0.579 -0.0430  0.4734 -0.1829
  296TMC3     O 4516   2.468   4.232   0.528  0.1234  0.0610 -0.2005
  296TMC3     H 4517   2.776   4.121   0.743 -1.6779  0.8647 -0.4401
  296TMC3    H1 4518   2.448   4.013   0.491  0.0614 -1.0013 -0.9876
  296TMC3    H2 4519   2.694   3.710   0.677  3.3095  0.7364 -2.1083
  296TMC3    C7 4520   2.472   3.747   0.546  0.2005 -0.2525 -0.0867
  296TMC3    C8 4521   2.851   3.873   0.806  0.2745  0.3166  0.1761
  296TMC3    O1 4522   2.426   3.761   0.430 -0.2597 -0.0568 -0.2017
  296TMC3    O2 4523   2.901   3.761   0.787 -0.3342  1.2284  0.9269
  297MPD2     C 4524   4.056   1.286  17.312 -0.7126  0.1417  0.2032
  297MPD2    C1 4525   4.031   1.241  17.183  0.5702 -0.8671  0.3363
  297MPD2    C2 4526   4.116   1.269  17.081 -0.0522 -0.3343  0.1686
  297MPD2    C3 4527   4.230   1.338  17.104  0.0809  0.0774 -0.4330
  297MPD2    C4 4528   4.257   1.371  17.237  1.4255  0.0312 -0.7702
  297MPD2    C5 4529   4.175   1.341  17.341  0.0524  0.4061 -1.0280
  297MPD2     H 4530   4.093   1.242  16.979  1.9907 -0.2188 -0.3184
  297MPD2    H1 4531   4.350   1.417  17.266 -0.6247  3.5303  0.2195
  297MPD2    H2 4532   3.989   1.257  17.392 -1.5857  1.6900  0.0331
  297MPD2    H3 4533   4.205   1.378  17.439  1.5456 -1.6745 -0.6927
  297MPD2     N 4534   4.325   1.357  16.994  0.0267 -0.5889 -0.2804
  297MPD2    H5 4535   4.306   1.305  16.909 -0.2217 -1.3373  0.2319
  297MPD2    N1 4536   3.923   1.150  17.155 -0.2801 -0.2671  0.3763
  297MPD2    H7 4537   3.917   1.122  17.058  2.5055 -1.2542  0.4854
  298TMC3    C1 4538   3.718   1.062  17.164  0.5675 -0.3641  0.9301
  298TMC3    C2 4539   3.765   1.004  17.048  0.0099  0.0639 -0.2637
  298TMC3    C3 4540   3.701   1.027  16.933  0.1145 -0.4502  0.5096
  298TMC3    C4 4541   3.599   1.128  17.154 -0.0944 -0.5220  0.0276
  298TMC3    C5 4542   3.547   1.162  17.037  0.5845  0.1989  0.5839
  298TMC3    C6 4543   3.593   1.107  16.922  0.4901 -0.0004  0.9839
  298TMC3     C 4544   3.817   1.126  17.243  0.3141 -0.2249 -0.0495
  298TMC3     O 4545   3.792   1.150  17.364 -0.0123  0.0765 -0.2320
  298TMC3     H 4546   3.849   0.935  17.053 -1.7800 -2.1155 -0.3938
  298TMC3    H1 4547   3.587   1.187  17.244  1.7651  0.6327 -0.4658
  298TMC3    H2 4548   3.548   1.119  16.824 -0.7202 -1.9466  1.2951
  298TMC3    C7 4549   3.470   1.285  17.039 -0.4505  0.3238  0.3117
  298TMC3    C8 4550   3.771   0.982  16.816 -0.4968  0.1780  0.1677
  298TMC3    O1 4551   3.437   1.323  17.151 -0.7019  1.1984  0.4174
  298TMC3    O2 4552   3.876   0.919  16.841 -0.5586 -0.1043 -0.3066
  299MPD2     C 4553   0.256   4.484  11.070 -0.2848  0.6708 -0.4348
  299MPD2    C1 4554   0.258   4.622  11.049 -0.1031 -0.0582 -0.1231
  299MPD2    C2 4555   0.150   4.672  10.984 -0.2037  0.6828  0.5324
  299MPD2    C3 4556   0.059   4.593  10.923  0.3922 -0.0324  0.1316
  299MPD2    C4 4557   0.071   4.456  10.925 -0.4270  0.3003 -0.1938
  299MPD2    C5 4558   0.174   4.398  11.001 -0.1876  1.0244 -0.0862
  299MPD2     H 4559   0.141   0.040  10.975 -2.7508  0.5625  1.4845
  299MPD2    H1 4560   0.013   4.393  10.858  2.6802 -2.4381 -0.3333
  299MPD2    H2 4561   0.346   4.445  11.116 -0.2657  0.9003 -0.2774
  299MPD2    H3 4562   0.186   4.290  11.006 -2.0618  0.9139  1.7215
  299MPD2     N 4563   4.697   4.644  10.836 -0.7400  0.1825 -0.0663
  299MPD2    H5 4564   4.647   4.570  10.788  0.9639 -2.3556  2.1346
  299MPD2    N1 4565   0.359   4.692  11.110 -0.0691  0.3754 -0.2041
  299MPD2    H7 4566   0.426   4.642  11.167  2.6848  1.5702 -2.3939
  300TMC3    C1 4567   4.561   0.061  10.734  0.3657 -0.0757  0.6362
  300TMC3    C2 4568   4.568   4.722  10.625  0.0490 -0.2319 -0.4834
  300TMC3    C3 4569   4.455   4.732  10.542  0.3890  0.8329  0.3595
  300TMC3    C4 4570   4.461   0.152  10.766 -0.4442 -1.0372  0.6379
  300TMC3    C5 4571   4.348   0.143  10.687  0.1113 -0.4206 -0.3237
  300TMC3    C6 4572   4.345   0.064  10.572  0.6651  0.3297 -0.1671
  300TMC3     C 4573   4.658   0.034  10.837 -0.5424  0.6164  0.2808
  300TMC3     O 4574   4.680   0.116  10.923 -0.1310  0.2369 -0.5628
  300TMC3     H 4575   4.661   4.676  10.594  1.1711  0.7085  1.4285
  300TMC3    H1 4576   4.461   0.195  10.866 -1.3718 -1.0059  0.6272
  300TMC3    H2 4577   4.253   0.047  10.517  0.6790  2.1086 -0.7511
  300TMC3    C7 4578   4.220   0.149  10.753 -0.9557  1.0099 -0.0219
  300TMC3    C8 4579   4.488   0.006  10.400  0.4225  0.4018 -0.1850
  300TMC3    O1 4580   4.154   0.047  10.761  0.0068  0.7840 -0.0545
  300TMC3    O2 4581   4.603   4.718  10.365 -0.3007 -0.2202 -0.0742
  301MPD2     C 4582   2.016   2.287   1.646  0.0687  0.5550 -0.0773
  301MPD2    C1 4583   1.929   2.237   1.549  0.3651  0.3621 -0.0248
  301MPD2    C2 4584   1.987   2.133   1.476 -0.2576  0.2532 -0.2447
  301MPD2    C3 4585   2.118   2.089   1.488 -0.2437 -0.0287  0.4534
  301MPD2    C4 4586   2.199   2.135   1.585  0.4563  1.1774 -0.1514
  301MPD2    C5 4587   2.142   2.237   1.665 -0.5343 -0.3001  0.9980
  301MPD2     H 4588   1.913   2.100   1.403 -0.7979 -0.8969  0.8310
  301MPD2    H1 4589   2.302   2.102   1.597  0.0186 -0.0973 -0.0105
  301MPD2    H2 4590   1.984   2.361   1.718 -0.0589  0.3833  0.0435
  301MPD2    H3 4591   2.199   2.285   1.744 -0.6094  1.9209 -0.2997
  301MPD2     N 4592   2.183   2.002   1.384 -0.2909 -0.2565  0.0266
  301MPD2    H5 4593   2.278   1.973   1.405  0.7453  2.3299 -1.0797
  301MPD2    N1 4594   1.805   2.293   1.517  0.5259  0.6264  0.6487
  301MPD2    H7 4595   1.743   2.246   1.452  0.1789 -0.9946  2.1325
  302TMC3    C1 4596   2.199   1.883   1.175  0.1125  0.4190 -0.4884
  302TMC3    C2 4597   2.306   1.815   1.224  0.6780 -0.3858  0.0857
  302TMC3    C3 4598   2.362   1.730   1.136 -0.0122  0.4416  0.3274
  302TMC3    C4 4599   2.130   1.845   1.059 -0.0200 -0.2161 -0.0944
  302TMC3    C5 4600   2.176   1.735   0.989  0.4238 -0.7243 -0.1853
  302TMC3    C6 4601   2.295   1.679   1.028  0.0329  0.9078  0.4586
  302TMC3     C 4602   2.112   1.955   1.276  0.1713  0.0374  0.0965
  302TMC3     O 4603   1.994   1.965   1.238  0.3547 -0.1351 -0.2364
  302TMC3     H 4604   2.361   1.842   1.314  1.7348 -2.7153  0.1268
  302TMC3    H1 4605   2.037   1.892   1.029  0.5372  0.4750 -0.7364
  302TMC3    H2 4606   2.326   1.589   0.976  1.9404  1.6317  0.3412
  302TMC3    C7 4607   2.109   1.692   0.863  0.1460 -0.1421  0.3646
  302TMC3    C8 4608   2.480   1.664   1.192  0.7929  0.0546 -0.2717
  302TMC3    O1 4609   2.178   1.624   0.788 -0.0899 -0.1239  0.5647
  302TMC3    O2 4610   2.555   1.732   1.258  0.3559 -0.0861  0.0639
  303MPD2     C 4611   2.388   0.587  10.231 -0.6874  0.1503 -0.6913
  303MPD2    C1 4612   2.368   0.493  10.329 -0.0683  0.3704 -0.2518
  303MPD2    C2 4613   2.379   0.359  10.300  0.2030 -0.3341  0.0469
  303MPD2    C3 4614   2.429   0.324  10.172  0.3333 -0.0969  0.5459
  303MPD2    C4 4615   2.454   0.421  10.080  1.0399  0.0841  0.4854
  303MPD2    C5 4616   2.424   0.552  10.104  0.5376 -0.0739 -0.2634
  303MPD2     H 4617   2.369   0.288  10.381 -0.4475  0.5242  0.7131
  303MPD2    H1 4618   2.489   0.393   9.981  0.5303  0.4116  0.2096
  303MPD2    H2 4619   2.363   0.690  10.252 -2.1997 -0.3609 -0.0611
  303MPD2    H3 4620   2.440   0.622  10.023 -3.0530 -0.3317 -1.1893
  303MPD2     N 4621   2.468   0.195  10.140  0.1222 -0.0134  0.0592
  303MPD2    H5 4622   2.508   0.190  10.046  0.9768 -2.9040  0.5532
  303MPD2    N1 4623   2.330   0.543  10.455 -0.2606 -0.3649 -0.0688
  303MPD2    H7 4624   2.299   0.639  10.453 -0.1272 -0.2563  2.8744
  304TMC3    C1 4625   2.285   0.541  10.687 -0.4739  0.3414  0.1927
  304TMC3    C2 4626   2.152   0.536  10.694 -0.4832 -0.0665 -0.1123
  304TMC3    C3 4627   2.092   0.522  10.814 -0.3134  0.1615  0.2099
  304TMC3    C4 4628   2.364   0.533  10.798 -0.7600 -0.0124 -0.4120
  304TMC3    C5 4629   2.307   0.513  10.919  0.0370  0.4280  0.1674
  304TMC3    C6 4630   2.167   0.515  10.934 -0.0172  0.4566 -0.7377
  304TMC3     C 4631   2.333   0.473  10.572 -0.5886 -0.1329 -0.8124
  304TMC3     O 4632   2.393   0.372  10.613 -0.5650 -0.6251 -0.1300
  304TMC3     H 4633   2.091   0.508  10.609  0.2296  1.5052 -1.1482
  304TMC3    H1 4634   2.472   0.525  10.784 -0.8577 -2.4714  0.2333
  304TMC3    H2 4635   2.109   0.483  11.020 -4.4961  2.6758 -2.9458
  304TMC3    C7 4636   2.343   0.387  10.979 -0.4977 -0.0319 -0.1005
  304TMC3    C8 4637   2.014   0.405  10.800  0.8422  0.3229 -0.0148
  304TMC3    O1 4638   2.288   0.353  11.086 -0.1969 -0.1381 -0.0249
  304TMC3    O2 4639   2.060   0.316  10.734  0.2781 -0.4123  0.0248
  305MPD2     C 4640   0.263   2.064  13.714 -0.1254  0.4776  0.3548
  305MPD2    C1 4641   0.384   2.020  13.742  0.0194 -0.4272  0.4499
  305MPD2    C2 4642   0.454   1.956  13.643 -0.0183 -0.0688  0.2344
  305MPD2    C3 4643   0.399   1.932  13.518  0.1103 -0.2581 -0.8925
  305MPD2    C4 4644   0.277   1.988  13.485 -0.4607 -0.0475 -0.4330
  305MPD2    C5 4645   0.212   2.047  13.587  0.6408  0.0273  0.1793
  305MPD2     H 4646   0.553   1.918  13.665 -0.4740 -2.2938 -1.5608
  305MPD2    H1 4647   0.228   1.974  13.389 -0.0970 -0.1533 -0.6050
  305MPD2    H2 4648   0.196   2.102  13.790  1.7063 -1.4135  2.9383
  305MPD2    H3 4649   0.113   2.087  13.571 -0.5651 -2.7891  0.5828
  305MPD2     N 4650   0.464   1.856  13.421  0.1087 -0.1688  0.2598
  305MPD2    H5 4651   0.427   1.872  13.327 -1.6615 -1.5410  0.7375
  305MPD2    N1 4652   0.438   2.051  13.870  0.1716  0.5690 -0.7193
  305MPD2    H7 4653   0.370   2.092  13.933 -0.3775 -0.0831 -0.8807
  306TMC3    C1 4654   0.596   2.077  14.052  0.4982 -0.1283  0.2684
  306TMC3    C2 4655   0.724   2.073  14.099  0.2263 -0.8512 -0.6951
  306TMC3    C3 4656   0.765   2.139  14.207 -0.3185  0.1387  0.6985
  306TMC3    C4 4657   0.500   2.133  14.130 -0.1397 -0.0131  0.6517
  306TMC3    C5 4658   0.542   2.189  14.247  0.4541 -0.6151 -0.1724
  306TMC3    C6 4659   0.673   2.195  14.287  0.4934  0.3238 -0.3409
  306TMC3     C 4660   0.568   2.026  13.911  0.1065 -0.7827  0.5095
  306TMC3     O 4661   0.667   2.006  13.844  0.2034  0.1047 -0.0907
  306TMC3     H 4662   0.794   2.016  14.039  3.2480  2.5475 -0.3572
  306TMC3    H1 4663   0.400   2.133  14.088 -1.2947 -1.1850  3.4102
  306TMC3    H2 4664   0.706   2.233  14.383 -0.6512  1.4906 -0.4177
  306TMC3    C7 4665   0.432   2.242  14.331 -0.2877 -0.4169  0.0441
  306TMC3    C8 4666   0.886   2.086  14.269 -0.2022  0.5762  0.3442
  306TMC3    O1 4667   0.319   2.211  14.294  0.5157 -0.0204 -0.3647
  306TMC3    O2 4668   0.901   1.961  14.261  0.4076  0.3025  0.2088
  307MPD2     C 4669   3.313   1.183   0.341 -0.0047 -0.1714  0.8476
  307MPD2    C1 4670   3.257   1.284   0.415 -0.3296 -0.9304 -0.3280
  307MPD2    C2 4671   3.178   1.241   0.517 -0.2884  0.2707  0.2728
  307MPD2    C3 4672   3.166   1.109   0.552  0.0876 -0.5527  0.2714
  307MPD2    C4 4673   3.229   1.004   0.486  0.1235  0.3092 -0.1540
  307MPD2    C5 4674   3.300   1.045   0.374 -0.0370  0.6856 -0.5730
  307MPD2     H 4675   3.126   1.320   0.572  0.7643  0.0020  1.6445
  307MPD2    H1 4676   3.220   0.902   0.521 -2.5652  0.9203  0.9650
  307MPD2    H2 4677   3.368   1.201   0.249  2.1120 -0.6175  2.0323
  307MPD2    H3 4678   3.353   0.976   0.309 -0.7813 -0.9643  0.5779
  307MPD2     N 4679   3.101   1.097   0.676  0.1747 -0.0497  0.2995
  307MPD2    H5 4680   3.072   1.187   0.714  1.6214  0.1074  1.0301
  307MPD2    N1 4681   3.278   1.424   0.386 -0.2593 -0.2122 -0.7513
  307MPD2    H7 4682   3.236   1.489   0.452  1.3082  1.6718 -1.6279
  308TMC3    C1 4683   2.820   0.983   0.996  0.2224  0.2346 -0.0843
  308TMC3    C2 4684   2.778   1.112   1.004 -0.4683 -0.7501  0.1514
  308TMC3    C3 4685   2.872   1.206   0.960 -0.1797 -0.0959  0.1667
  308TMC3    C4 4686   2.927   0.941   0.924 -0.6270 -0.1531  0.0743
  308TMC3    C5 4687   3.016   1.036   0.880  0.1657 -0.2517  0.1793
  308TMC3    C6 4688   2.991   1.171   0.899 -0.0960  0.6393  0.0935
  308TMC3     C 4689   2.737   0.873   1.027  0.1969  0.2755  0.4196
  308TMC3     O 4690   2.780   0.756   1.044 -0.1108  0.1672 -0.3637
  308TMC3     H 4691   2.688   1.151   1.050 -0.2130  0.2432 -0.2006
  308TMC3    H1 4692   2.951   0.835   0.914 -1.1897 -0.3963  1.2744
  308TMC3    H2 4693   3.057   1.245   0.856  0.2406 -0.9856 -2.2410
  308TMC3    C7 4694   3.079   0.993   0.755 -0.1706  0.1723 -0.3284
  308TMC3    C8 4695   2.831   1.343   0.968 -0.6682  0.3954 -0.2060
  308TMC3    O1 4696   3.072   0.877   0.728 -0.1927 -0.2543 -0.2400
  308TMC3    O2 4697   2.722   1.368   0.926 -0.6405  0.0535  0.1066
  309MPD2     C 4698   2.457   0.957  17.678 -0.3030  0.2355 -0.4360
  309MPD2    C1 4699   2.429   1.064  17.593  0.0574  0.2288  0.1534
  309MPD2    C2 4700   2.320   1.142  17.611 -0.3028  0.4487 -0.0123
  309MPD2    C3 4701   2.229   1.106  17.709 -0.1590  0.5295 -0.0562
  309MPD2    C4 4702   2.253   1.004   0.031  0.5085  0.4144  0.9639
  309MPD2    C5 4703   2.369   0.936   0.027 -0.2565  0.1844  0.7168
  309MPD2     H 4704   2.301   1.223  17.541 -2.9810  0.4070  0.6514
  309MPD2    H1 4705   2.194   0.975   0.118 -2.0448 -0.1729 -0.9711
  309MPD2    H2 4706   2.543   0.891  17.679 -0.4325  0.0916  1.3825
  309MPD2    H3 4707   2.386   0.855   0.097 -0.2410 -0.9370 -0.5758
  309MPD2     N 4708   2.102   1.169  17.724  0.1165 -0.9508  0.6250
  309MPD2    H5 4709   2.038   1.135   0.037 -1.4945  1.5916  0.3711
  309MPD2    N1 4710   2.519   1.092  17.484 -0.1047 -0.2899 -0.1913
  309MPD2    H7 4711   2.513   1.185  17.444 -1.1058  0.9105  2.7623
  310TMC3    C1 4712   2.585   1.033  17.272 -0.3097 -0.2187 -0.2042
  310TMC3    C2 4713   2.478   1.083  17.211 -0.1846  0.0814 -0.2777
  310TMC3    C3 4714   2.473   1.088  17.072 -0.5512  0.7289  0.1993
  310TMC3    C4 4715   2.687   0.977  17.201  0.0494 -0.3031  0.8121
  310TMC3    C5 4716   2.694   0.991  17.063 -0.7028 -0.3700 -0.6822
  310TMC3    C6 4717   2.577   1.041  16.997 -0.3280  0.5479  0.2668
  310TMC3     C 4718   2.568   0.988  17.407  0.0632  0.2089 -0.1406
  310TMC3     O 4719   2.589   0.873  17.431  0.5596  0.1054 -0.1438
  310TMC3     H 4720   2.403   1.122  17.279 -0.2519  0.2263 -0.4331
  310TMC3    H1 4721   2.764   0.918  17.251  1.2414 -1.0023 -1.8533
  310TMC3    H2 4722   2.564   1.053  16.890 -1.6789  1.6566  0.5596
  310TMC3    C7 4723   2.788   0.916  16.989 -0.9062  0.2580 -0.2576
  310TMC3    C8 4724   2.355   1.138  17.001  0.5647 -0.7802  0.2170
  310TMC3    O1 4725   2.851   0.831  17.056  0.5307  0.0862  0.0819
  310TMC3    O2 4726   2.380   1.164  16.883  0.3936  0.0381  0.0005
  311MPD2     C 4727   4.450   1.694  12.372  0.2439  0.1945  0.2795
  311MPD2    C1 4728   4.440   1.821  12.414  0.1331 -0.0236 -0.0445
  311MPD2    C2 4729   4.335   1.863  12.490 -0.3514 -0.3692  0.5941
  311MPD2    C3 4730   4.228   1.782  12.513  0.0978 -1.3876 -0.2724
  311MPD2    C4 4731   4.227   1.656  12.460  0.7086  0.3578  0.5514
  311MPD2    C5 4732   4.343   1.612  12.399  0.0266  0.0510  0.0967
  311MPD2     H 4733   4.323   1.961  12.534  2.1895  0.6047 -0.8737
  311MPD2    H1 4734   4.146   1.588  12.482  0.7722  0.5032  1.2499
  311MPD2    H2 4735   4.542   1.667  12.321 -0.0869  0.0343 -0.2347
  311MPD2    H3 4736   4.351   1.514  12.354 -0.3432 -0.4833  1.2004
  311MPD2     N 4737   4.116   1.824  12.589 -0.4958 -0.7419 -0.6247
  311MPD2    H5 4738   4.125   1.914  12.636  0.9266 -0.7339 -0.8891
  311MPD2    N1 4739   4.549   1.913  12.398 -0.1903 -0.8965  1.3517
  311MPD2    H7 4740   4.540   1.994  12.459  0.1032 -0.4717  0.8361
  312TMC3    C1 4741   3.920   1.848  12.696  0.3717  0.0254 -0.5553
  312TMC3    C2 4742   3.787   1.845  12.652 -0.2298 -0.2496  0.1642
  312TMC3    C3 4743   3.716   1.963  12.660  0.7688 -0.4377 -0.4433
  312TMC3    C4 4744   3.968   1.962  12.759  0.4637  0.6028  0.0339
  312TMC3    C5 4745   3.892   2.071  12.769 -0.0047 -0.2873  0.3814
  312TMC3    C6 4746   3.765   2.078  12.721 -0.1092  0.0188 -0.4592
  312TMC3     C 4747   4.005   1.757  12.625  0.0387  0.3580 -0.1782
  312TMC3     O 4748   3.967   1.645  12.614 -0.2530 -0.0154  0.1080
  312TMC3     H 4749   3.749   1.763  12.592  0.6621  1.8380 -3.2243
  312TMC3    H1 4750   4.067   1.952  12.800  0.1605 -1.9247  0.1569
  312TMC3    H2 4751   3.709   2.170  12.730 -1.7311 -1.0993  0.9749
  312TMC3    C7 4752   3.942   2.189  12.828 -0.0697 -0.1729  0.0953
  312TMC3    C8 4753   3.576   1.948  12.651  0.2855  0.3873 -0.2574
  312TMC3    O1 4754   3.908   2.302  12.785  0.7577  0.6806  0.1672
  312TMC3    O2 4755   3.531   1.835  12.642 -0.3667 -0.3486  0.0466
  313MPD2     C 4756   3.148   1.118  11.391 -0.2654  0.1445  0.0006
  313MPD2    C1 4757   3.208   1.079  11.272 -0.1830  0.8293  0.2207
  313MPD2    C2 4758   3.326   1.000  11.282  0.0683  0.1970  0.0692
  313MPD2    C3 4759   3.377   0.965  11.404  0.4407  0.4297 -0.1079
  313MPD2    C4 4760   3.331   1.024  11.522  0.0224  0.5290 -0.4675
  313MPD2    C5 4761   3.210   1.093  11.512  0.1682  0.0395 -0.3022
  313MPD2     H 4762   3.375   0.967  11.191 -3.6723 -1.2180 -1.4381
  313MPD2    H1 4763   3.376   0.991  11.614 -4.3418 -2.0717  0.7571
  313MPD2    H2 4764   3.052   1.168  11.386 -0.3462  0.0448  0.5954
  313MPD2    H3 4765   3.156   1.131  11.599  1.0780 -0.6590  0.5694
  313MPD2     N 4766   3.499   0.891  11.401  0.1213 -0.6282  0.0703
  313MPD2    H5 4767   3.542   0.858  11.316 -0.7120 -2.2246  0.2687
  313MPD2    N1 4768   3.155   1.098  11.144 -0.5185 -0.0949 -0.9150
  313MPD2    H7 4769   3.204   1.048  11.070  0.0118 -2.3891  0.9975
  314TMC3    C1 4770   3.021   1.173  10.965 -0.3897 -0.7144 -0.4320
  314TMC3    C2 4771   3.034   1.305  10.925 -0.0617  0.1300 -0.5882
  314TMC3    C3 4772   3.130   1.352  10.840 -0.0752  0.0746 -0.1877
  314TMC3    C4 4773   3.103   1.078  10.908 -0.8518 -0.2106  0.5812
  314TMC3    C5 4774   3.186   1.124  10.811 -0.1880  0.5514  0.0446
  314TMC3    C6 4775   3.211   1.255  10.784  0.2002 -0.3945  0.4863
  314TMC3     C 4776   3.043   1.176  11.112 -0.3615  0.4056 -0.4878
  314TMC3     O 4777   2.982   1.248  11.191 -0.2133 -0.1019  0.2674
  314TMC3     H 4778   2.980   1.373  10.991 -0.7568 -0.8210 -0.1792
  314TMC3    H1 4779   3.090   0.972  10.926  1.4640 -0.9606 -2.2207
  314TMC3    H2 4780   3.300   1.293  10.737  0.1334 -0.4318  0.3287
  314TMC3    C7 4781   3.286   1.028  10.766 -0.5242 -0.3459 -0.0512
  314TMC3    C8 4782   3.195   1.476  10.878  0.4678  0.3558 -0.1233
  314TMC3    O1 4783   3.311   0.952  10.861 -0.1444 -0.3582 -0.1711
  314TMC3    O2 4784   3.317   1.465  10.888 -0.2878 -0.0277 -0.4202
  315MPD2     C 4785   3.325   1.592   0.748  0.4558 -0.3765  0.0713
  315MPD2    C1 4786   3.449   1.542   0.729 -0.2239 -0.2058 -0.1441
  315MPD2    C2 4787   3.536   1.621   0.655  0.5447 -0.2591 -0.0232
  315MPD2    C3 4788   3.502   1.742   0.612  0.8147  0.4816  0.0034
  315MPD2    C4 4789   3.383   1.801   0.646  0.1478  0.6982  0.1468
  315MPD2    C5 4790   3.289   1.723   0.718  0.3518  0.8992 -0.3044
  315MPD2     H 4791   3.628   1.573   0.623  1.5202  1.4564  0.1974
  315MPD2    H1 4792   3.363   1.902   0.613  0.6009  1.3283  1.8211
  315MPD2    H2 4793   3.259   1.541   0.817 -0.0227  1.8649  1.2744
  315MPD2    H3 4794   3.193   1.766   0.743 -0.5248  0.2546 -2.6383
  315MPD2     N 4795   3.607   1.805   0.542 -0.0862 -0.8066  0.3629
  315MPD2    H5 4796   3.690   1.747   0.534  0.2120 -0.4815  1.2020
  315MPD2    N1 4797   3.497   1.412   0.767 -0.4945 -0.2049  0.7686
  315MPD2    H7 4798   3.590   1.382   0.740 -0.6341 -0.2795  0.3749
  316TMC3    C1 4799   3.743   1.983   0.459  0.3042 -0.1283  0.4439
  316TMC3    C2 4800   3.854   1.923   0.513  0.7003 -0.4990  0.5852
  316TMC3    C3 4801   3.976   1.961   0.464 -0.3795  0.1164 -0.2667
  316TMC3    C4 4802   3.748   2.083   0.364 -0.3519 -0.0387 -0.3154
  316TMC3    C5 4803   3.878   2.114   0.317 -0.3661  0.9819 -0.1024
  316TMC3    C6 4804   3.994   2.057   0.370  0.1883 -0.3773 -0.7284
  316TMC3     C 4805   3.611   1.942   0.517  0.0580  0.5788 -0.3273
  316TMC3     O 4806   3.525   2.028   0.515  0.2708 -0.1598  0.2898
  316TMC3     H 4807   3.843   1.846   0.588  1.5023  0.4718  1.6928
  316TMC3    H1 4808   3.657   2.125   0.323 -0.2057  0.7400  0.1796
  316TMC3    H2 4809   4.093   2.076   0.329  0.9631  0.9346  1.7503
  316TMC3    C7 4810   3.901   2.211   0.210  0.6016 -0.0441  0.0663
  316TMC3    C8 4811   4.086   1.882   0.502  0.0569  0.2210  0.0890
  316TMC3    O1 4812   3.997   2.287   0.212 -0.2940  0.8505 -0.2428
  316TMC3    O2 4813   4.188   1.951   0.504  0.0834 -0.5254 -0.7319
  317MPD2     C 4814   1.106   3.660  12.660 -0.4857 -0.0813  0.3038
  317MPD2    C1 4815   1.166   3.539  12.681  0.0978  0.2569 -0.1762
  317MPD2    C2 4816   1.171   3.482  12.799  0.3638  0.1486  0.7874
  317MPD2    C3 4817   1.112   3.535  12.911 -0.1123  0.1806  0.8234
  317MPD2    C4 4818   1.036   3.651  12.892  0.6733  0.1408 -0.3522
  317MPD2    C5 4819   1.031   3.707  12.764  0.2321  0.0223 -0.4457
  317MPD2     H 4820   1.223   3.388  12.814 -1.4793 -1.0216 -0.2150
  317MPD2    H1 4821   0.980   3.697  12.973 -0.0845  0.1563 -0.8943
  317MPD2    H2 4822   1.092   3.700  12.560  1.0524 -1.2462 -0.3605
  317MPD2    H3 4823   0.950   3.775  12.741 -1.1175 -0.4104  3.0391
  317MPD2     N 4824   1.129   3.473  13.036 -0.5203  0.0108 -0.6049
  317MPD2    H5 4825   1.178   3.385  13.024 -0.7096 -0.6701  3.7074
  317MPD2    N1 4826   1.219   3.473  12.571  0.4849 -0.8820 -0.3004
  317MPD2    H7 4827   1.270   3.387  12.589 -2.5075 -2.5150  0.4578
  318TMC3    C1 4828   1.160   3.435  13.260  0.1878  0.7297  0.0663
  318TMC3    C2 4829   1.128   3.306  13.254  0.7682 -0.7751 -0.3182
  318TMC3    C3 4830   1.153   3.232  13.364 -0.4519 -0.1278  0.4312
  318TMC3    C4 4831   1.200   3.497  13.375  0.2223  0.6216 -0.3560
  318TMC3    C5 4832   1.220   3.416  13.479 -0.3100  0.0391  0.2170
  318TMC3    C6 4833   1.193   3.282  13.481  0.3465  0.1637 -0.2687
  318TMC3     C 4834   1.114   3.525  13.159  0.2111 -0.5006 -0.0688
  318TMC3     O 4835   1.094   3.644  13.188 -0.1146  0.3271 -0.2797
  318TMC3     H 4836   1.087   3.265  13.162 -0.9002  1.3773 -0.5167
  318TMC3    H1 4837   1.224   3.602  13.386  0.6015  0.5389 -0.4000
  318TMC3    H2 4838   1.193   3.229  13.575 -2.8879  0.3616 -0.1581
  318TMC3    C7 4839   1.316   3.457  13.586  0.1245 -0.5031  0.6094
  318TMC3    C8 4840   1.096   3.103  13.382 -0.0764  0.4552 -0.7319
  318TMC3    O1 4841   1.341   3.576  13.589 -0.8443  0.2546 -0.3154
  318TMC3    O2 4842   1.156   3.016  13.443 -0.2888 -0.1047 -0.8381
  319MPD2     C 4843   1.805   0.639  15.886  0.4312 -0.1041 -0.7241
  319MPD2    C1 4844   1.790   0.576  16.002  0.0586  0.6626 -0.2458
  319MPD2    C2 4845   1.668   0.522  16.036  0.1733 -0.1096  0.3530
  319MPD2    C3 4846   1.568   0.527  15.937 -0.7790 -0.3370  0.5234
  319MPD2    C4 4847   1.583   0.592  15.818 -0.0393  0.0197  0.1952
  319MPD2    C5 4848   1.702   0.645  15.789  0.2563  0.2468  0.0912
  319MPD2     H 4849   1.645   0.486  16.136 -2.8486 -0.9590 -0.6288
  319MPD2    H1 4850   1.499   0.580  15.751  1.7646  0.7396 -2.1739
  319MPD2    H2 4851   1.899   0.688  15.864  0.9527 -1.3786 -1.3660
  319MPD2    H3 4852   1.726   0.694  15.695 -0.9491  0.2987 -0.1898
  319MPD2     N 4853   1.435   0.493  15.961  0.8686 -0.3928  0.1536
  319MPD2    H5 4854   1.374   0.495  15.880  1.6603 -0.1122 -0.4392
  319MPD2    N1 4855   1.880   0.585  16.110 -0.0410  0.0377  0.5076
  319MPD2    H7 4856   1.853   0.552  16.202  0.4422  0.3982  0.7794
  320TMC3    C1 4857   1.242   0.403  16.052  0.3118  1.0058  0.1856
  320TMC3    C2 4858   1.165   0.468  15.964  0.5600 -0.5398 -0.6948
  320TMC3    C3 4859   1.042   0.420  15.940  0.2964 -0.0464  0.4200
  320TMC3    C4 4860   1.196   0.288  16.119 -0.0850 -0.2015  1.3568
  320TMC3    C5 4861   1.077   0.236  16.085 -0.2823 -0.0692  0.3490
  320TMC3    C6 4862   0.996   0.306  16.002 -0.2961  0.4166  0.3766
  320TMC3     C 4863   1.380   0.431  16.072 -0.0277 -0.3695 -0.6748
  320TMC3     O 4864   1.442   0.403  16.172  0.0959 -0.1788 -0.1206
  320TMC3     H 4865   1.204   0.553  15.908 -0.3403  1.1902  1.3164
  320TMC3    H1 4866   1.273   0.240  16.179 -0.4944 -1.7053  0.6900
  320TMC3    H2 4867   0.888   0.290  16.000 -0.3063  0.2882  2.1175
  320TMC3    C7 4868   1.010   0.142  16.173  0.0925 -0.6678  1.1897
  320TMC3    C8 4869   0.948   0.508  15.869  0.6101  0.1682 -0.0917
  320TMC3    O1 4870   0.917   0.076  16.128  0.1007 -0.0512 -0.1584
  320TMC3    O2 4871   0.983   0.625  15.849 -0.2656  0.6553 -0.3909
  321TMC3    C1 4872   2.066   0.643  16.236 -0.2882 -1.0304  0.1504
  321TMC3    C2 4873   2.186   0.707  16.241 -0.4069  0.3839 -0.4946
  321TMC3    C3 4874   2.281   0.644  16.315  0.5769  0.2313  0.9474
  321TMC3    C4 4875   2.031   0.538  16.316 -0.3455  0.6045  0.3444
  321TMC3    C5 4876   2.131   0.479  16.390  0.3037  0.0752  0.8607
  321TMC3    C6 4877   2.258   0.525  16.377  0.3000 -0.1777 -0.2710
  321TMC3     C 4878   2.005   0.650  16.109 -0.3736  1.0348  0.4509
  321TMC3     O 4879   2.062   0.704  16.017  0.4857  0.3000  0.0894
  321TMC3     H 4880   2.190   0.812  16.215 -2.9680  0.1611 -1.7346
  321TMC3    H1 4881   1.931   0.498  16.327 -0.0688  0.4085  2.1919
  321TMC3    H2 4882   2.337   0.488  16.441  0.8710 -0.0634 -0.9098
  321TMC3    C7 4883   2.092   0.454  16.531  0.0406 -0.0144  0.3379
  321TMC3    C8 4884   2.365   0.737  16.389 -0.7479  0.3507  0.1950
  321TMC3    O1 4885   2.178   0.475  16.617  0.1114  0.0017  0.2403
  321TMC3    O2 4886   2.325   0.855  16.405 -0.2951  0.1422  0.2136
  322MPD2     C 4887   0.503   1.437  13.465 -0.0854 -0.3148  0.9711
  322MPD2    C1 4888   0.487   1.428  13.600  0.4539 -0.2672 -0.1003
  322MPD2    C2 4889   0.450   1.302  13.659 -0.5270 -0.6842  0.6633
  322MPD2    C3 4890   0.443   1.192  13.577 -0.6968 -0.2490 -0.0480
  322MPD2    C4 4891   0.455   1.206  13.436  0.2784  0.0651 -0.1520
  322MPD2    C5 4892   0.483   1.330  13.383 -0.1781 -0.0808 -0.2852
  322MPD2     H 4893   0.431   1.288  13.765 -1.3926  2.5301  0.9390
  322MPD2    H1 4894   0.445   1.118  13.372  1.5492 -0.3385  0.2115
  322MPD2    H2 4895   0.529   1.529  13.414 -0.0085 -1.6311 -1.3501
  322MPD2    H3 4896   0.470   1.351  13.277  1.4827  0.4476 -0.3817
  322MPD2     N 4897   0.436   1.067  13.637 -0.6728 -0.3889  0.0953
  322MPD2    H5 4898   0.431   1.050  13.737 -1.1264 -1.0955 -0.0417
  322MPD2    N1 4899   0.503   1.539  13.687 -0.3552  0.3103  0.0022
  322MPD2    H7 4900   0.553   1.620  13.651  1.0897 -0.1799  0.9038
  323TMC3    C1 4901   0.553   1.645  13.888 -0.5601  0.3323  1.1108
  323TMC3    C2 4902   0.678   1.680  13.836  0.3431  0.2203 -0.5133
  323TMC3    C3 4903   0.766   1.732  13.924 -0.2949  0.5694  0.7183
  323TMC3    C4 4904   0.519   1.656  14.022 -0.2000  0.2295  0.4345
  323TMC3    C5 4905   0.616   1.705  14.108 -0.3894 -0.0916 -1.2427
  323TMC3    C6 4906   0.745   1.740  14.061 -0.0786 -0.2189 -0.0631
  323TMC3     C 4907   0.466   1.550  13.818  0.2395 -0.8981 -0.2116
  323TMC3     O 4908   0.377   1.486  13.873 -0.7262  0.3066  0.1807
  323TMC3     H 4909   0.705   1.655  13.734  1.5041 -0.4247 -0.0396
  323TMC3    H1 4910   0.419   1.629  14.053  0.3297 -1.0648  1.0126
  323TMC3    H2 4911   0.827   1.763  14.129 -0.5265  0.2010  0.3377
  323TMC3    C7 4912   0.592   1.660  14.246 -0.1422 -1.0540  0.0958
  323TMC3    C8 4913   0.900   1.766  13.884 -0.1354 -0.5397  0.4793
  323TMC3    O1 4914   0.522   1.561  14.262  0.6529 -0.2406 -0.1013
  323TMC3    O2 4915   0.981   1.787  13.972 -1.0602  0.0194 -0.4938
  324MPD2     C 4916   1.961   2.773  14.417  0.4055  0.2579  0.2272
  324MPD2    C1 4917   1.915   2.905  14.417 -0.6185  0.0835 -0.0981
  324MPD2    C2 4918   1.793   2.935  14.350 -0.3492  0.2056  0.1347
  324MPD2    C3 4919   1.721   2.829  14.292 -0.0611 -0.1421 -1.3382
  324MPD2    C4 4920   1.772   2.699  14.298  0.7585 -0.5460 -0.2346
  324MPD2    C5 4921   1.885   2.675  14.367 -0.7738 -0.1195 -0.3569
  324MPD2     H 4922   1.756   3.036  14.341 -2.8522 -0.7729 -0.4626
  324MPD2    H1 4923   1.724   2.617  14.247  0.0088 -0.4577  0.3348
  324MPD2    H2 4924   2.054   2.752  14.469  1.8020 -1.2819 -2.8396
  324MPD2    H3 4925   1.918   2.573  14.381  0.8140  0.5168  0.4997
  324MPD2     N 4926   1.596   2.845  14.232  0.7337  0.7028 -0.7073
  324MPD2    H5 4927   1.562   2.756  14.196  1.9610  0.3794 -1.0654
  324MPD2    N1 4928   1.977   3.011  14.496 -0.0833  0.3870 -0.4089
  324MPD2    H7 4929   1.917   3.091  14.515  2.7230  2.1679  0.9929
  325TMC3    C1 4930   1.381   2.927  14.205 -0.7437 -0.4398 -0.1865
  325TMC3    C2 4931   1.319   2.816  14.263 -0.2529 -0.1326  0.0914
  325TMC3    C3 4932   1.184   2.800  14.248 -0.0949  0.3486  0.2032
  325TMC3    C4 4933   1.310   3.022  14.142 -0.3686  0.6487 -0.2785
  325TMC3    C5 4934   1.176   3.003  14.126  0.0812  0.1519  0.5853
  325TMC3    C6 4935   1.114   2.892  14.180 -0.3002  0.7987 -0.0004
  325TMC3     C 4936   1.525   2.961  14.229  0.4463  0.2961 -0.3621
  325TMC3     O 4937   1.561   3.078  14.230 -1.1061 -0.2681 -0.1609
  325TMC3     H 4938   1.372   2.750  14.331 -1.5649  0.8384  2.0319
  325TMC3    H1 4939   1.357   3.117  14.117  0.3213  0.3877  0.0084
  325TMC3    H2 4940   1.008   2.880  14.161  0.3451 -1.0021 -2.5080
  325TMC3    C7 4941   1.091   3.112  14.105 -0.3501  0.4490 -0.2038
  325TMC3    C8 4942   1.154   2.660  14.218 -0.3183 -0.0405 -0.1365
  325TMC3    O1 4943   1.074   3.156  13.993 -0.3140  0.2536 -0.2138
  325TMC3    O2 4944   1.234   2.584  14.272 -0.6809 -0.1561  0.1872
  326MPD2     C 4945   2.793   3.773  11.543  0.2408 -0.4788  0.8282
  326MPD2    C1 4946   2.789   3.812  11.414  0.5320 -0.4213 -0.0514
  326MPD2    C2 4947   2.864   3.918  11.369 -0.0929 -0.4178  0.2951
  326MPD2    C3 4948   2.937   3.996  11.456  0.0601  0.0538 -0.8412
  326MPD2    C4 4949   2.933   3.951  11.589  0.1520  0.8956  0.5931
  326MPD2    C5 4950   2.865   3.841  11.630  0.6982 -0.4832 -0.1944
  326MPD2     H 4951   2.845   3.954  11.268  3.8280  2.0043  0.4283
  326MPD2    H1 4952   2.988   4.006  11.664  0.9351  0.7308  0.1421
  326MPD2    H2 4953   2.725   3.698  11.582  0.9648 -2.6448 -2.1181
  326MPD2    H3 4954   2.870   3.814  11.735 -1.3406 -0.4859 -0.0952
  326MPD2     N 4955   2.992   4.121  11.417 -0.7779 -0.0787  0.7160
  326MPD2    H5 4956   3.008   4.187  11.493  1.8420 -2.2376  2.0302
  326MPD2    N1 4957   2.701   3.754  11.314 -0.3526 -0.1162  0.4998
  326MPD2    H7 4958   2.709   3.802  11.224 -0.0243  0.7206  0.9738
  327TMC3    C1 4959   2.579   3.589  11.205  0.0410  0.0590 -0.0277
  327TMC3    C2 4960   2.635   3.623  11.079  0.6861 -0.8802 -0.4341
  327TMC3    C3 4961   2.657   3.518  10.985 -0.2226 -0.0855  0.5609
  327TMC3    C4 4962   2.519   3.468  11.228 -0.1472 -0.2248  0.3432
  327TMC3    C5 4963   2.539   3.374  11.127  0.1986  0.4363 -0.1816
  327TMC3    C6 4964   2.604   3.396  11.011  0.2427  0.0382 -1.0035
  327TMC3     C 4965   2.652   3.630  11.323  0.3626 -0.7796  0.2193
  327TMC3     O 4966   2.650   3.553  11.420  0.5509 -0.0326 -0.8379
  327TMC3     H 4967   2.688   3.717  11.073 -0.4243 -0.0942  2.2512
  327TMC3    H1 4968   2.482   3.437  11.325  0.7236  1.8554  1.3315
  327TMC3    H2 4969   2.620   3.315  10.941  0.7732  0.5863 -1.5104
  327TMC3    C7 4970   2.576   3.247  11.190  0.1952  0.8960 -0.1553
  327TMC3    C8 4971   2.722   3.548  10.861 -0.1081 -0.3242 -0.6806
  327TMC3    O1 4972   2.563   3.138  11.134  0.4547  0.5380  0.4260
  327TMC3    O2 4973   2.738   3.668  10.844 -0.3292 -0.0770  0.3842
  328MPD2     C 4974   1.140   4.351  17.406 -0.1434  0.5593  0.0848
  328MPD2    C1 4975   1.092   4.223  17.435 -0.0093 -0.1129  0.0197
  328MPD2    C2 4976   0.984   4.183  17.360 -0.0796  0.7616 -0.1825
  328MPD2    C3 4977   0.934   4.267  17.260  0.0539 -0.4250 -0.4708
  328MPD2    C4 4978   0.991   4.395  17.236  0.2690 -0.0757 -0.3965
  328MPD2    C5 4979   1.090   4.438  17.316  0.3334 -0.5789 -0.2958
  328MPD2     H 4980   0.936   4.087  17.369 -3.1988  2.2896 -0.3895
  328MPD2    H1 4981   0.950   4.469  17.170  0.9016  0.8716  0.2722
  328MPD2    H2 4982   1.217   4.393  17.470  0.2706 -0.7503  0.4391
  328MPD2    H3 4983   1.137   4.534  17.296 -1.5407  0.9793  2.8513
  328MPD2     N 4984   0.822   4.235  17.177 -0.1215 -0.1035 -0.0609
  328MPD2    H5 4985   0.778   4.297  17.110  1.8968  1.6880  0.2760
  328MPD2    N1 4986   1.142   4.151  17.546 -0.1172 -0.7479 -0.3472
  328MPD2    H7 4987   1.218   4.198  17.594 -1.4571  0.4461  0.6023
  329TMC3    C1 4988   1.103   4.025  17.741  0.2639  0.2142  0.1848
  329TMC3    C2 4989   1.119   4.142   0.047 -0.1929 -0.8923  0.1521
  329TMC3    C3 4990   1.045   4.159   0.162  0.1487 -0.1194 -0.2318
  329TMC3    C4 4991   1.019   3.926   0.028 -0.8932 -0.7562 -0.4219
  329TMC3    C5 4992   0.955   3.943   0.144  0.3646  0.1966 -0.7674
  329TMC3    C6 4993   0.956   4.062   0.212 -1.2006 -0.2820  0.4694
  329TMC3     C 4994   1.105   4.028  17.595  0.1890  0.3472 -0.0967
  329TMC3     O 4995   1.027   3.949  17.540 -0.1213  0.2049 -0.0373
  329TMC3     H 4996   1.189   4.213   0.004 -2.5214  0.4725 -1.4160
  329TMC3    H1 4997   0.993   3.837  17.728 -2.4783 -2.1239  2.4110
  329TMC3    H2 4998   0.908   4.071   0.309 -0.2228 -0.4617  0.9721
  329TMC3    C7 4999   0.852   3.849   0.187 -0.8085  0.5864  0.1234
  329TMC3    C8 5000   1.028   4.295   0.205  0.2610 -0.3521  0.0424
  329TMC3    O1 5001   0.830   3.850   0.308 -0.3404  0.1824  0.5149
  329TMC3    O2 5002   1.109   4.372   0.161  1.1421 -0.2379 -0.1860
  330TMC3    C1 5003   3.804   2.722   9.655  0.2910 -0.4245  0.7338
  330TMC3    C2 5004   3.780   2.602   9.721 -0.1698  0.4428 -0.7762
  330TMC3    C3 5005   3.800   2.602   9.854  0.3659  0.4520  0.2764
  330TMC3    C4 5006   3.848   2.834   9.719 -0.0728 -0.9407 -0.3693
  330TMC3    C5 5007   3.839   2.831   9.856 -0.3569 -0.0866  0.1801
  330TMC3    C6 5008   3.826   2.720   9.923 -0.2972 -0.2791 -0.5192
  330TMC3     C 5009   3.819   2.715   9.509 -0.2009  0.7793 -0.1823
  330TMC3     O 5010   3.878   2.802   9.454  0.0422  0.1655  0.3779
  330TMC3     H 5011   3.754   2.509   9.672  1.5537 -0.5861  0.2139
  330TMC3    H1 5012   3.837   2.926   9.663  1.2434 -0.5961 -0.0503
  330TMC3    H2 5013   3.836   2.717  10.030  0.0614 -1.0591 -0.5718
  330TMC3    C7 5014   3.862   2.961   9.910 -0.2552  0.4028  0.2443
  330TMC3    C8 5015   3.785   2.481   9.936 -0.1928 -0.2741  0.2540
  330TMC3    O1 5016   3.848   3.061   9.841  0.0616  0.0877  0.3523
  330TMC3    O2 5017   3.842   2.493  10.043  0.3021 -0.1425  0.0715
  331MPD2     C 5018   2.315   2.291  13.093 -0.3394 -0.5910  0.0354
  331MPD2    C1 5019   2.313   2.314  12.959 -0.6439 -0.3749  0.0580
  331MPD2    C2 5020   2.216   2.261  12.883  0.3726 -0.3087 -0.8080
  331MPD2    C3 5021   2.101   2.197  12.930 -0.1363 -0.2406 -1.3933
  331MPD2    C4 5022   2.104   2.177  13.066 -0.0563  0.0531 -0.1470
  331MPD2    C5 5023   2.207   2.230  13.149  0.2148 -0.2118  0.6357
  331MPD2     H 5024   2.224   2.261  12.775 -2.1564  1.4339 -0.9909
  331MPD2    H1 5025   2.024   2.139  13.128  0.7509  1.0971  1.5271
  331MPD2    H2 5026   2.395   2.315  13.162  1.2729 -4.6298 -0.4616
  331MPD2    H3 5027   2.212   2.228  13.258  2.0965 -0.4380  0.5438
  331MPD2     N 5028   1.996   2.144  12.848  0.2866 -0.1065 -0.2407
  331MPD2    H5 5029   1.999   2.161  12.748  0.4254  2.1103  0.1360
  331MPD2    N1 5030   2.433   2.374  12.898  0.7231 -0.2308 -0.1041
  331MPD2    H7 5031   2.512   2.380  12.961  1.3241  2.6688 -1.1310
  332TMC3    C1 5032   1.836   1.976  12.781  0.0532  0.2274  0.0005
  332TMC3    C2 5033   1.833   2.038  12.659  0.6598  0.5850 -0.0978
  332TMC3    C3 5034   1.804   1.949  12.560  0.2144 -0.6704  0.2285
  332TMC3    C4 5035   1.813   1.845  12.803 -0.6931 -0.6352  0.4947
  332TMC3    C5 5036   1.786   1.762  12.700 -0.2118  0.2423  0.6439
  332TMC3    C6 5037   1.772   1.815  12.572  0.5827  0.2505 -0.1693
  332TMC3     C 5038   1.899   2.050  12.891  0.7652 -0.4854 -0.0610
  332TMC3     O 5039   1.880   2.002  13.005  0.0217 -0.4549  0.1012
  332TMC3     H 5040   1.859   2.140  12.635  2.6769 -0.0811 -0.7540
  332TMC3    H1 5041   1.824   1.812  12.906  0.5930 -0.7580  0.3197
  332TMC3    H2 5042   1.787   1.752  12.485  2.0343  1.1475 -0.5763
  332TMC3    C7 5043   1.847   1.631  12.709  0.1726  0.4976 -0.1019
  332TMC3    C8 5044   1.793   2.002  12.427  0.6364 -0.3287  0.7328
  332TMC3    O1 5045   1.788   1.532  12.738  0.1493 -0.2968 -0.1651
  332TMC3    O2 5046   1.872   2.088  12.390 -0.1691 -0.4856 -0.1018
  333MPD2     C 5047   1.688   1.894  11.252  0.5302  0.0005  0.2370
  333MPD2    C1 5048   1.778   1.823  11.179  0.6609 -0.8010  0.2240
  333MPD2    C2 5049   1.785   1.689  11.200 -0.5645  0.3427  0.2222
  333MPD2    C3 5050   1.708   1.633  11.299 -0.2559 -0.2941 -0.4004
  333MPD2    C4 5051   1.611   1.707  11.369  0.4023  1.3744  0.5098
  333MPD2    C5 5052   1.599   1.839  11.350  0.3767  0.1495  0.3284
  333MPD2     H 5053   1.855   1.625  11.148  0.2859  1.2209  0.2911
  333MPD2    H1 5054   1.545   1.666  11.445  1.2950 -1.0315 -0.0353
  333MPD2    H2 5055   1.690   2.002  11.242  1.4658 -0.0459 -0.0460
  333MPD2    H3 5056   1.527   1.899  11.404 -0.9736 -0.6848 -0.5521
  333MPD2     N 5057   1.717   1.493  11.314 -0.2931  0.5584  0.5386
  333MPD2    H5 5058   1.790   1.451  11.257 -0.8001  1.5418 -0.8394
  333MPD2    N1 5059   1.851   1.896  11.086  0.0058  0.8159 -0.1619
  333MPD2    H7 5060   1.833   1.995  11.091  1.6818  1.1297 -0.2018
  334TMC3    C1 5061   2.013   1.952  10.921 -0.1446 -0.4751 -0.7342
  334TMC3    C2 5062   2.098   1.921  10.819  0.4429 -0.2552  0.2702
  334TMC3    C3 5063   2.157   2.022  10.748 -0.4118  0.0080  0.5440
  334TMC3    C4 5064   1.997   2.089  10.954  0.5037 -0.7871 -0.5035
  334TMC3    C5 5065   2.051   2.188  10.877 -0.9164  0.0066  0.1615
  334TMC3    C6 5066   2.128   2.155  10.766 -0.3630  0.1338  0.1714
  334TMC3     C 5067   1.944   1.850  10.999 -0.6884  0.4204  0.5742
  334TMC3     O 5068   1.972   1.732  10.971  0.2739  0.2798  0.0871
  334TMC3     H 5069   2.134   1.820  10.806 -0.4588 -0.7715  1.8125
  334TMC3    H1 5070   1.941   2.119  11.042  1.2288  2.2538 -1.0816
  334TMC3    H2 5071   2.174   2.239  10.714  0.1894 -0.4894 -0.3431
  334TMC3    C7 5072   2.041   2.332  10.905 -0.8484  0.2673 -0.7648
  334TMC3    C8 5073   2.276   1.986  10.680  0.4897 -0.3662 -0.2048
  334TMC3    O1 5074   2.123   2.412  10.856 -0.2452 -0.0668  0.0469
  334TMC3    O2 5075   2.289   1.866  10.640 -0.5991  0.0714  0.5641
  335TMC3    C1 5076   1.652   4.012  17.505 -0.1314  0.3973 -0.3729
  335TMC3    C2 5077   1.581   3.953  17.409 -0.5043  0.0239 -0.0147
  335TMC3    C3 5078   1.642   3.953  17.285 -0.5004 -0.7827 -0.1260
  335TMC3    C4 5079   1.779   4.065  17.488  0.5268 -0.1720 -0.0790
  335TMC3    C5 5080   1.835   4.058  17.361 -0.2884  0.3424  0.4674
  335TMC3    C6 5081   1.766   4.010  17.252 -0.5747  0.3608 -0.5878
  335TMC3     C 5082   1.591   4.022  17.634 -0.3902  0.6237 -0.3183
  335TMC3     O 5083   1.636   4.095  17.721 -0.4316 -0.1709 -0.0869
  335TMC3     H 5084   1.474   3.941  17.417 -0.5562  1.4586  1.4868
  335TMC3    H1 5085   1.834   4.088  17.578 -0.6041 -0.0275  0.5796
  335TMC3    H2 5086   1.812   3.978  17.160 -0.4606  0.0876 -0.4369
  335TMC3    C7 5087   1.985   4.062  17.344 -0.1391  0.4960  0.0253
  335TMC3    C8 5088   1.570   3.897  17.172  0.0682  0.4044 -0.6746
  335TMC3    O1 5089   2.038   4.011  17.245  0.3970  0.1870  0.1209
  335TMC3    O2 5090   1.583   3.938  17.059 -0.2940  0.8321  0.2750
  336MPD2     C 5091   1.300   1.619  16.656 -0.4329 -0.1835  0.1444
  336MPD2    C1 5092   1.207   1.586  16.555  0.4400 -0.3142 -1.0305
  336MPD2    C2 5093   1.197   1.456  16.508  0.5698  0.2107 -0.7203
  336MPD2    C3 5094   1.275   1.362  16.563 -0.7081  0.2580 -0.2742
  336MPD2    C4 5095   1.356   1.393  16.667 -0.2164  0.3281 -0.0799
  336MPD2    C5 5096   1.360   1.515  16.724 -0.5116 -0.6373  0.3091
  336MPD2     H 5097   1.142   1.421  16.422 -1.2081 -0.3902  0.6630
  336MPD2    H1 5098   1.424   1.317  16.704 -0.6586 -0.3987 -0.7571
  336MPD2    H2 5099   1.324   1.724  16.672 -1.8900  0.1421  0.1398
  336MPD2    H3 5100   1.427   1.532  16.807 -0.9993  2.1453  0.1216
  336MPD2     N 5101   1.288   1.235  16.512 -0.0046  0.1443  0.4519
  336MPD2    H5 5102   1.351   1.168  16.555 -0.0458  1.1246  2.0295
  336MPD2    N1 5103   1.141   1.698  16.488 -0.8076  0.6617  0.2436
  336MPD2    H7 5104   1.146   1.787  16.535  0.3201  0.9558 -0.4398
  337TMC3    C1 5105   1.066   1.828  16.306 -0.2459  0.2269 -0.5234
  337TMC3    C2 5106   1.015   1.829  16.173  0.3238 -0.3406 -0.0747
  337TMC3    C3 5107   1.030   1.940  16.100  0.5928 -0.0526  0.4688
  337TMC3    C4 5108   1.133   1.931  16.355 -0.3724 -0.5781 -0.0953
  337TMC3    C5 5109   1.151   2.045  16.273 -0.6439 -1.3499 -0.4990
  337TMC3    C6 5110   1.102   2.048  16.146 -1.1925  0.6843 -0.2743
  337TMC3     C 5111   1.094   1.696  16.354  0.3607  0.3825 -0.8298
  337TMC3     O 5112   1.066   1.600  16.284 -0.1997 -0.1109 -0.5834
  337TMC3     H 5113   0.968   1.743  16.127  2.0318 -0.7121 -1.0953
  337TMC3    H1 5114   1.181   1.931  16.453 -0.5410 -1.8571 -0.0240
  337TMC3    H2 5115   1.115   2.141  16.091 -0.4664  0.0116 -1.2353
  337TMC3    C7 5116   1.227   2.155  16.331  0.2549  0.6668  0.0222
  337TMC3    C8 5117   0.922   1.982  16.010 -0.5828 -0.7917  0.4504
  337TMC3    O1 5118   1.220   2.162  16.454  0.3121  0.3523  0.1621
  337TMC3    O2 5119   0.879   2.096  16.027  0.4226  0.7045 -0.1457
  338MPD2     C 5120   1.296   1.022   1.191  0.2794  0.1816 -0.2154
  338MPD2    C1 5121   1.346   1.111   1.098  0.1824 -0.3676  0.2337
  338MPD2    C2 5122   1.263   1.186   1.019  0.2164 -0.1781  0.9240
  338MPD2    C3 5123   1.130   1.175   1.025  0.0546 -0.1532  0.2727
  338MPD2    C4 5124   1.082   1.079   1.115  0.1752 -0.3201  0.2832
  338MPD2    C5 5125   1.161   1.006   1.197  0.3901  0.1305  0.4813
  338MPD2     H 5126   1.314   1.262   0.962 -0.8252  1.0800  1.6505
  338MPD2    H1 5127   0.978   1.050   1.123 -0.1572  0.0672 -2.4774
  338MPD2    H2 5128   1.362   0.973   1.262  0.1380  2.6699  1.6297
  338MPD2    H3 5129   1.112   0.942   1.269 -1.6951  0.9139 -0.2579
  338MPD2     N 5130   1.040   1.238   0.940 -0.2902 -0.5450  0.4910
  338MPD2    H5 5131   0.943   1.219   0.961  0.1257 -1.6330  1.3782
  338MPD2    N1 5132   1.480   1.136   1.078 -0.0981 -0.2541 -0.5848
  338MPD2    H7 5133   1.510   1.203   1.009 -1.6358  0.3905 -0.6175
  339TMC3    C1 5134   0.961   1.384   0.759 -0.1475 -0.2718 -0.4389
  339TMC3    C2 5135   0.903   1.267   0.713 -0.5611 -0.7040  0.3052
  339TMC3    C3 5136   0.914   1.238   0.582  0.4111  0.6191 -0.2002
  339TMC3    C4 5137   1.001   1.480   0.665  0.2240 -0.1888 -0.0615
  339TMC3    C5 5138   0.995   1.445   0.534 -0.3269  0.0880  0.1517
  339TMC3    C6 5139   0.962   1.318   0.487 -0.3571 -1.2403  0.1854
  339TMC3     C 5140   1.071   1.335   0.842  0.8935  0.1224 -0.0281
  339TMC3     O 5141   1.181   1.371   0.806 -0.3280  0.6049  0.3723
  339TMC3     H 5142   0.830   1.219   0.777 -0.9302  0.0936  0.4868
  339TMC3    H1 5143   1.061   1.567   0.692  0.7365 -0.8205  0.8192
  339TMC3    H2 5144   0.952   1.304   0.380 -1.2430  1.3479 -0.0569
  339TMC3    C7 5145   1.039   1.543   0.431 -0.2524  0.5464  0.0826
  339TMC3    C8 5146   0.944   1.104   0.551  0.6638 -0.3449  0.2629
  339TMC3    O1 5147   1.026   1.656   0.474 -0.3088  0.2049  0.3372
  339TMC3    O2 5148   0.978   1.079   0.434  0.3418 -0.0173 -0.5995
  340MPD2     C 5149   1.715   2.171   9.414  0.2746  0.0115 -0.2098
  340MPD2    C1 5150   1.824   2.254   9.401  0.9281 -0.0148 -0.0684
  340MPD2    C2 5151   1.836   2.360   9.487  0.2720 -0.2097 -0.4476
  340MPD2    C3 5152   1.745   2.378   9.588 -0.8691  0.1121  0.4928
  340MPD2    C4 5153   1.643   2.286   9.609  0.5069  0.5901  0.2773
  340MPD2    C5 5154   1.628   2.179   9.525 -0.5257 -0.2659 -0.2637
  340MPD2     H 5155   1.909   2.439   9.476  0.9302 -0.8362 -0.5792
  340MPD2    H1 5156   1.576   2.301   9.692  0.0164 -0.4047  0.0659
  340MPD2    H2 5157   1.685   2.089   9.350 -0.7925  0.1234  0.1354
  340MPD2    H3 5158   1.553   2.105   9.549  2.2372 -2.4241  1.7163
  340MPD2     N 5159   1.754   2.486   9.680  1.1091 -0.6016 -0.2977
  340MPD2    H5 5160   1.693   2.487   9.761 -1.5817 -0.2690 -2.3533
  340MPD2    N1 5161   1.929   2.218   9.303  0.0705  0.1385  1.0325
  340MPD2    H7 5162   1.916   2.132   9.250 -4.7458  0.2790  2.0110
  341TMC3    C1 5163   2.161   2.207   9.232 -0.5651  0.4253  0.0827
  341TMC3    C2 5164   2.148   2.078   9.183 -0.2828  0.3834 -0.4799
  341TMC3    C3 5165   2.253   2.003   9.141 -0.1825  0.5399  0.4192
  341TMC3    C4 5166   2.282   2.260   9.227 -0.0399 -0.3061 -0.8362
  341TMC3    C5 5167   2.391   2.184   9.173  0.0644  0.2990  0.1216
  341TMC3    C6 5168   2.381   2.058   9.125  0.3680  0.2562 -0.0064
  341TMC3     C 5169   2.056   2.276   9.306 -0.2292 -0.3501  1.1507
  341TMC3     O 5170   2.081   2.380   9.363  0.1323 -0.0789  0.2544
  341TMC3     H 5171   2.054   2.025   9.200  0.7108 -1.0334  0.6334
  341TMC3    H1 5172   2.288   2.357   9.274 -3.1848  0.9036 -2.9295
  341TMC3    H2 5173   2.472   2.003   9.104 -0.6925 -0.4684 -2.7156
  341TMC3    C7 5174   2.518   2.250   9.152  0.7884 -0.3620 -0.4801
  341TMC3    C8 5175   2.250   1.865   9.199  0.2151 -0.7760 -0.2882
  341TMC3    O1 5176   2.550   2.345   9.220  0.0136  0.2425  0.1173
  341TMC3    O2 5177   2.170   1.842   9.289 -0.3950 -0.6295  0.3067
  342MPD2     C 5178   4.544   1.915   0.294 -0.1815  0.6225  0.0520
  342MPD2    C1 5179   4.595   1.919   0.162 -0.0871 -0.4718 -0.3824
  342MPD2    C2 5180   4.601   2.042   0.095  0.1247 -0.4963  0.4887
  342MPD2    C3 5181   4.564   2.161   0.161  0.4153  0.1467 -0.6262
  342MPD2    C4 5182   4.513   2.150   0.288  0.0100 -0.7674 -0.4655
  342MPD2    C5 5183   4.498   2.028   0.354  0.6649 -0.4693 -0.4967
  342MPD2     H 5184   4.644   2.044  17.753  2.3199 -0.6219  1.4242
  342MPD2    H1 5185   4.491   2.236   0.349 -0.6857 -0.4151 -1.2187
  342MPD2    H2 5186   4.541   1.820   0.345 -0.4659  0.6122  0.0203
  342MPD2    H3 5187   4.460   2.032   0.455 -0.5861  1.0677 -1.0184
  342MPD2     N 5188   4.569   2.293   0.114 -0.3041 -0.0521 -0.1413
  342MPD2    H5 5189   4.538   2.366   0.177  0.6103  3.2791 -3.5568
  342MPD2    N1 5190   4.655   1.808   0.097 -0.7023  0.3938 -0.0827
  342MPD2    H7 5191   4.675   1.828  17.757 -0.2430  0.4063  0.0126
  343TMC3    C1 5192   4.714   1.584   0.049 -0.9639  0.7553  1.5475
  343TMC3    C2 5193   0.040   1.630  17.695  0.5538 -0.4571 -0.1797
  343TMC3    C3 5194   0.052   1.536  17.593 -0.1268 -0.6811 -0.4899
  343TMC3    C4 5195   4.645   1.464   0.049 -0.4835 -0.8449 -0.6523
  343TMC3    C5 5196   4.664   1.375  17.705 -0.3365 -0.2980  0.2519
  343TMC3    C6 5197   4.738   1.409  17.598 -0.6976 -0.5192 -0.2901
  343TMC3     C 5198   4.659   1.681   0.143 -0.4333 -0.3595 -0.9511
  343TMC3     O 5199   4.605   1.629   0.240 -0.1476 -0.0914 -0.2607
  343TMC3     H 5200   0.079   1.731  17.689 -1.1951  0.2550  0.3400
  343TMC3    H1 5201   4.583   1.435   0.133 -1.1222 -1.0152 -1.1822
  343TMC3    H2 5202   4.739   1.334  17.519 -2.8781 -0.0138 -0.7907
  343TMC3    C7 5203   4.572   1.268  17.696  0.9065 -0.2316 -0.2028
  343TMC3    C8 5204   0.158   1.569  17.495 -0.1822  0.3582  0.5035
  343TMC3    O1 5205   4.542   1.222  17.587  0.0218 -0.0044  0.1425
  343TMC3    O2 5206   0.211   1.680  17.495  0.0635 -0.5447 -0.1341
  344MPD2     C 5207   0.457   0.467  10.697  0.8905 -0.1979  0.5029
  344MPD2    C1 5208   0.546   0.513  10.792  0.0422 -0.2039  0.4571
  344MPD2    C2 5209   0.607   0.637  10.785 -0.2929 -0.0690 -0.1463
  344MPD2    C3 5210   0.600   0.706  10.660  0.2134 -0.4978 -0.9090
  344MPD2    C4 5211   0.529   0.651  10.560 -0.0558 -0.3591 -0.2458
  344MPD2    C5 5212   0.461   0.536  10.575 -0.0116 -0.5476 -0.4822
  344MPD2     H 5213   0.670   0.671  10.866 -0.5446  0.1127 -0.0296
  344MPD2    H1 5214   0.501   0.707  10.472 -1.7541 -0.6350  0.1182
  344MPD2    H2 5215   0.416   0.367  10.701 -1.3862  0.7459  1.2135
  344MPD2    H3 5216   0.418   0.486  10.489 -0.5836 -1.7011  0.4733
  344MPD2     N 5217   0.650   0.830  10.640  0.1432  0.6935  0.0447
  344MPD2    H5 5218   0.657   0.863  10.544  0.7443  1.1277  0.2383
  344MPD2    N1 5219   0.553   0.430  10.908  0.1499 -0.3399  0.2457
  344MPD2    H7 5220   0.510   0.339  10.900  0.7540 -0.6754  0.8043
  345TMC3    C1 5221   0.774   1.022  10.672  0.5121 -0.2433 -0.0666
  345TMC3    C2 5222   0.778   1.149  10.728 -0.2172  0.6730  0.6697
  345TMC3    C3 5223   0.867   1.230  10.672  0.7411 -0.7494  0.3845
  345TMC3    C4 5224   0.835   0.993  10.551  0.4984 -0.0915  0.1075
  345TMC3    C5 5225   0.912   1.086  10.492  1.0227 -0.4132  0.3563
  345TMC3    C6 5226   0.943   1.206  10.560  0.1344 -0.4561  0.4331
  345TMC3     C 5227   0.701   0.911  10.734  0.0825  0.5973  0.0348
  345TMC3     O 5228   0.683   0.917  10.856 -0.3252  0.7494 -0.4138
  345TMC3     H 5229   0.720   1.165  10.818  1.1267 -0.4392  1.7291
  345TMC3    H1 5230   0.831   0.896  10.503  1.1337  0.0887 -0.3184
  345TMC3    H2 5231   1.003   1.286  10.519  0.0589 -0.5868  0.0738
  345TMC3    C7 5232   0.980   1.070  10.364 -0.1592 -0.1280 -1.0159
  345TMC3    C8 5233   0.896   1.352  10.748  0.2511  0.2855  0.7291
  345TMC3    O1 5234   1.071   1.143  10.333 -0.4310 -0.1030 -0.2375
  345TMC3    O2 5235   0.955   1.443  10.684  0.0991 -0.0231  0.1149
  346MPD2     C 5236   0.505   2.575  14.002  0.0502  0.6544 -0.9939
  346MPD2    C1 5237   0.525   2.710  13.994 -0.4521 -0.0328 -0.1617
  346MPD2    C2 5238   0.478   2.779  14.101 -0.2258  0.0968  0.5523
  346MPD2    C3 5239   0.409   2.724  14.211  0.8550 -0.0899  0.7216
  346MPD2    C4 5240   0.399   2.589  14.218  0.2265 -0.3122  0.3098
  346MPD2    C5 5241   0.446   2.518  14.110 -0.4298  0.2822  0.1985
  346MPD2     H 5242   0.482   2.886  14.089  0.1068  0.1262  0.9481
  346MPD2    H1 5243   0.351   2.536  14.299 -1.1787 -0.0824 -0.3803
  346MPD2    H2 5244   0.539   2.509  13.923  2.3143  2.2602 -1.3383
  346MPD2    H3 5245   0.419   2.414  14.096  2.0343 -0.7977  3.4653
  346MPD2     N 5246   0.381   2.806  14.317  0.6998  0.3761  0.2751
  346MPD2    H5 5247   0.400   2.905  14.302 -1.5935  0.5441 -1.6516
  346MPD2    N1 5248   0.594   2.781  13.897 -0.5465 -0.3916  0.0542
  346MPD2    H7 5249   0.603   2.879  13.921  1.1065 -0.6379  0.4372
  347TMC3    C1 5250   0.346   2.876  14.534  0.4999 -0.2013  0.1761
  347TMC3    C2 5251   0.391   3.000  14.500 -0.4143 -0.8408 -0.6345
  347TMC3    C3 5252   0.472   3.066  14.588  0.3024 -0.2836 -0.5755
  347TMC3    C4 5253   0.343   2.840  14.666 -0.0665  0.2184  0.5657
  347TMC3    C5 5254   0.419   2.912  14.751 -0.2481 -0.8378 -0.0827
  347TMC3    C6 5255   0.479   3.028  14.717  0.3015  0.3346 -0.4483
  347TMC3     C 5256   0.359   2.770  14.444  0.4639  0.0942  0.3372
  347TMC3     O 5257   0.330   2.659  14.487 -0.7454 -0.5923  0.3587
  347TMC3     H 5258   0.367   3.049  14.407  0.3070  1.2715  0.2842
  347TMC3    H1 5259   0.296   2.749  14.701  0.7470 -1.6988 -3.2118
  347TMC3    H2 5260   0.521   3.100  14.787 -1.1031  1.1347 -0.4288
  347TMC3    C7 5261   0.398   2.893  14.895  0.0492 -0.0834  0.2318
  347TMC3    C8 5262   0.587   3.126  14.533 -0.2132 -0.6528  0.3749
  347TMC3    O1 5263   0.307   2.822  14.932 -0.9377 -0.4339  0.0091
  347TMC3    O2 5264   0.689   3.113  14.602  0.2504 -0.1552 -0.0871
  348MPD2     C 5265   4.012   2.643  12.028  0.1803 -0.2458 -0.3580
  348MPD2    C1 5266   4.084   2.689  11.923 -0.1520 -0.1050 -0.0974
  348MPD2    C2 5267   4.040   2.801  11.845 -0.5224 -0.1967  0.3312
  348MPD2    C3 5268   3.920   2.858  11.879 -0.6612  0.4134 -0.1603
  348MPD2    C4 5269   3.852   2.814  11.992 -1.0491  0.7969 -0.0235
  348MPD2    C5 5270   3.894   2.709  12.067 -0.4705  0.5953  0.0209
  348MPD2     H 5271   4.106   2.834  11.766 -0.6831 -2.5479 -0.7805
  348MPD2    H1 5272   3.759   2.854  12.030 -2.0366  0.0792 -1.6988
  348MPD2    H2 5273   4.035   2.548  12.077 -0.8914 -0.2519  0.1307
  348MPD2    H3 5274   3.835   2.669  12.148  1.1950 -0.3503  0.7565
  348MPD2     N 5275   3.875   2.975  11.811  0.7897 -0.0686  0.1480
  348MPD2    H5 5276   3.940   3.021  11.748  0.4054 -1.0209 -0.9512
  348MPD2    N1 5277   4.212   2.624  11.886  0.0652 -0.3253 -0.4018
  348MPD2    H7 5278   4.251   2.657  11.799 -0.3430  0.6248 -0.2220
  349TMC3    C1 5279   4.402   2.495  11.885 -0.4169  0.1251  0.0551
  349TMC3    C2 5280   4.431   2.355  11.905 -0.6454  0.4514 -0.1651
  349TMC3    C3 5281   4.449   2.272  11.798 -0.7241  0.2544  0.6510
  349TMC3    C4 5282   4.411   2.562  11.769  0.3533 -0.0251 -0.1421
  349TMC3    C5 5283   4.428   2.466  11.668  0.2293 -0.1244  0.5016
  349TMC3    C6 5284   4.452   2.330  11.676 -1.0451 -0.6466  0.0124
  349TMC3     C 5285   4.282   2.529  11.960 -0.3058 -0.6973 -0.1513
  349TMC3     O 5286   4.237   2.448  12.042  0.0314  0.1731  0.1918
  349TMC3     H 5287   4.402   2.304  11.996  0.6559 -1.1411 -0.6380
  349TMC3    H1 5288   4.402   2.668  11.752 -2.8818 -0.3723 -0.6076
  349TMC3    H2 5289   4.456   2.273  11.584  0.6110 -1.5520  0.6349
  349TMC3    C7 5290   4.338   2.497  11.560  0.0831 -0.0857 -0.5167
  349TMC3    C8 5291   4.508   2.139  11.824  0.4079 -0.1101  0.4494
  349TMC3    O1 5292   4.286   2.404  11.494 -0.2353 -0.7172  0.3674
  349TMC3    O2 5293   4.530   2.110  11.941  0.4315  0.0284  0.0196
  350MPD2     C 5294   3.819   0.445  10.666 -0.5603 -0.3494  0.4475
  350MPD2    C1 5295   3.687   0.413  10.706 -0.3308 -0.8861  0.4150
  350MPD2    C2 5296   3.646   0.455  10.830  0.2265 -0.1536  0.0394
  350MPD2    C3 5297   3.728   0.523  10.917  0.2306  0.7983  0.0866
  350MPD2    C4 5298   3.857   0.541  10.877 -0.3435  0.5930 -0.0189
  350MPD2    C5 5299   3.903   0.510  10.755  0.3767 -0.5056  0.0039
  350MPD2     H 5300   3.547   0.436  10.868 -0.4213  1.9611 -0.5730
  350MPD2    H1 5301   3.925   0.573  10.955  0.3391  0.9958 -0.7743
  350MPD2    H2 5302   3.859   0.400  10.576 -0.1449  0.0244  0.4446
  350MPD2    H3 5303   4.009   0.521  10.734  0.7349  0.2160  2.2663
  350MPD2     N 5304   3.672   0.546  11.041 -0.1223 -0.8289  0.5137
  350MPD2    H5 5305   3.574   0.532  11.060  0.0658 -1.8076  0.7649
  350MPD2    N1 5306   3.601   0.334  10.629  0.4056  0.3537 -0.4230
  350MPD2    H7 5307   3.513   0.301  10.666  0.6072 -0.4007 -0.6124
  351TMC3    C1 5308   3.523   0.182  10.474 -0.0150  0.2575  0.0891
  351TMC3    C2 5309   3.562   0.073  10.405  0.3135 -0.5790 -0.5377
  351TMC3    C3 5310   3.467   4.729  10.366  0.2294  0.3538  0.2254
  351TMC3    C4 5311   3.391   0.213  10.498 -0.2680  0.3498 -0.5288
  351TMC3    C5 5312   3.301   0.111  10.459 -0.5814 -0.5411 -0.1359
  351TMC3    C6 5313   3.334   0.002  10.388 -0.0204  0.2169 -0.1404
  351TMC3     C 5314   3.625   0.272  10.508  0.0538  0.2386 -0.0025
  351TMC3     O 5315   3.731   0.268  10.447  0.1466 -0.5818  0.6473
  351TMC3     H 5316   3.666   0.050  10.385  0.1096 -1.4359 -0.6130
  351TMC3    H1 5317   3.364   0.298  10.559  0.5972  1.9443 -2.3676
  351TMC3    H2 5318   3.250   4.675  10.374  1.0866 -1.1850  0.0340
  351TMC3    C7 5319   3.160   0.163  10.470 -0.6469  0.0927 -0.1877
  351TMC3    C8 5320   3.522   4.601  10.312  0.4327  0.2188  0.3463
  351TMC3    O1 5321   3.150   0.285  10.486  0.3269 -0.1385 -0.4548
  351TMC3    O2 5322   3.634   4.605  10.259 -0.2443  0.2642 -0.1255
  352MPD2     C 5323   1.400   2.911   0.847 -0.2102 -0.9240 -0.0104
  352MPD2    C1 5324   1.428   2.976   0.964  0.0872 -0.0379 -0.3162
  352MPD2    C2 5325   1.456   2.898   1.076 -0.8443 -0.4331  0.3581
  352MPD2    C3 5326   1.460   2.762   1.070  0.7997  0.4103 -0.2199
  352MPD2    C4 5327   1.430   2.701   0.954  0.1202  0.3457  1.3005
  352MPD2    C5 5328   1.395   2.774   0.846 -0.3957 -0.0900 -0.0490
  352MPD2     H 5329   1.479   2.948   1.169  2.5448 -1.3352 -0.0084
  352MPD2    H1 5330   1.435   2.593   0.944  0.3119  0.4726 -0.0061
  352MPD2    H2 5331   1.380   2.967   0.756 -2.3378 -1.5268  0.0700
  352MPD2    H3 5332   1.397   2.722   0.750 -3.3333  1.2646 -0.8198
  352MPD2     N 5333   1.473   2.681   1.183 -0.3160  0.2832  0.1291
  352MPD2    H5 5334   1.447   2.583   1.175  1.8595 -0.5781  3.7661
  352MPD2    N1 5335   1.419   3.120   0.966  0.4358  0.1012 -0.0014
  352MPD2    H7 5336   1.420   3.162   0.874  2.0423  0.4493  0.1654
  353TMC3    C1 5337   1.501   2.604   1.391  0.2938 -0.1471 -0.1794
  353TMC3    C2 5338   1.609   2.573   1.473  0.6770 -1.0039 -0.3289
  353TMC3    C3 5339   1.635   2.445   1.503 -0.1080  0.6313  0.6164
  353TMC3    C4 5340   1.413   2.512   1.351  0.3487  0.0691 -0.2695
  353TMC3    C5 5341   1.446   2.381   1.395 -0.3192 -0.3019  0.5174
  353TMC3    C6 5342   1.554   2.341   1.469 -0.0871  0.5178  0.2157
  353TMC3     C 5343   1.519   2.716   1.310 -0.5475 -0.0127  0.1309
  353TMC3     O 5344   1.573   2.819   1.348  0.7748  0.5564 -0.2375
  353TMC3     H 5345   1.685   2.648   1.492 -1.2654  1.3812 -1.8685
  353TMC3    H1 5346   1.319   2.535   1.303  0.1540  0.1901  0.1704
  353TMC3    H2 5347   1.564   2.240   1.506 -2.7119 -0.6724 -2.3481
  353TMC3    C7 5348   1.372   2.280   1.317  0.4441  0.8980  0.3362
  353TMC3    C8 5349   1.765   2.420   1.552  0.3367 -0.2668 -0.3870
  353TMC3    O1 5350   1.335   2.319   1.206 -0.2746  0.4729  0.3926
  353TMC3    O2 5351   1.826   2.506   1.615 -0.4132  0.1608 -0.3682
  354TMC3    C1 5352   3.319   4.113  13.898 -0.0218  0.1529 -0.0271
  354TMC3    C2 5353   3.404   4.222  13.898  0.0244  0.0953  0.0934
  354TMC3    C3 5354   3.429   4.291  13.778 -0.0012 -0.0815  0.0573
  354TMC3    C4 5355   3.252   4.081  13.780  0.0924  0.1979  0.2634
  354TMC3    C5 5356   3.289   4.144  13.664 -0.5329  0.2364 -0.0303
  354TMC3    C6 5357   3.373   4.247  13.660  0.2687 -0.2506  0.2812
  354TMC3     C 5358   3.304   4.023  14.005 -0.0168  0.8686 -0.2160
  354TMC3     O 5359   3.200   3.965  14.010 -0.4334  0.6920  0.3052
  354TMC3     H 5360   3.451   4.253  13.990 -1.6438  1.8139  0.3669
  354TMC3    H1 5361   3.182   3.997  13.777 -0.4168  0.6696 -1.0944
  354TMC3    H2 5362   3.401   4.297  13.567  0.4351  0.5695  0.7709
  354TMC3    C7 5363   3.271   4.061  13.544  0.6346  0.2124 -0.0661
  354TMC3    C8 5364   3.489   4.422  13.795 -0.1749 -0.1037  0.3531
  354TMC3    O1 5365   3.188   3.972  13.551  0.4458  0.8069 -0.4231
  354TMC3    O2 5366   3.480   4.482  13.904  0.0635 -0.1907  0.2426
  355MPD2     C 5367   3.790   4.530  12.176 -0.2328 -0.3252 -0.1698
  355MPD2    C1 5368   3.911   4.577  12.114  0.5208  0.5141 -0.6480
  355MPD2    C2 5369   4.035   4.575  12.178 -0.2879 -0.6208 -0.2712
  355MPD2    C3 5370   4.039   4.509  12.302 -0.4195 -0.0662  0.0061
  355MPD2    C4 5371   3.922   4.451  12.354  0.5499  0.3039  0.0718
  355MPD2    C5 5372   3.799   4.462  12.291  0.6915  0.1568 -0.4284
  355MPD2     H 5373   4.129   4.611  12.139  0.6470  1.3754  3.8610
  355MPD2    H1 5374   3.929   4.405  12.452 -1.0073  0.4044  0.2355
  355MPD2    H2 5375   3.695   4.545  12.127  0.6389  1.7123 -1.2212
  355MPD2    H3 5376   3.714   4.425  12.348  0.3514  2.8728  0.7951
  355MPD2     N 5377   4.165   4.501  12.368  0.3582 -0.0246 -0.4520
  355MPD2    H5 5378   4.242   4.552  12.326  0.3634  0.3245 -0.0155
  355MPD2    N1 5379   3.897   4.630  11.986 -0.2446  0.2643  0.4157
  355MPD2    H7 5380   3.803   4.660  11.962  0.4379  0.8948 -1.4290
  356TMC3    C1 5381   4.325   4.496  12.533 -0.3371 -0.2590 -0.0249
  356TMC3    C2 5382   4.406   4.496  12.421  0.4738 -0.8720 -0.2317
  356TMC3    C3 5383   4.485   4.606  12.398  0.0507 -0.0587  0.5102
  356TMC3    C4 5384   4.340   4.597  12.625 -0.3563 -0.0122  0.8799
  356TMC3    C5 5385   4.419   4.706  12.592  0.1909 -0.1516 -0.7429
  356TMC3    C6 5386   4.485   4.716  12.472 -0.6441  0.0475  0.5339
  356TMC3     C 5387   4.189   4.467  12.501 -0.1293 -0.6119 -0.9175
  356TMC3     O 5388   4.113   4.433  12.592 -0.5761  0.0275  0.0980
  356TMC3     H 5389   4.394   4.411  12.354  0.9792 -0.7208 -0.5162
  356TMC3    H1 5390   4.284   4.589  12.718 -0.0890 -0.9166  0.9571
  356TMC3    H2 5391   4.542   0.065  12.447 -1.8794  0.9284  0.8638
  356TMC3    C7 5392   4.472   0.050  12.695 -0.4114  0.1257  0.3723
  356TMC3    C8 5393   4.473   4.630  12.256 -0.3061  0.5645  0.1412
  356TMC3    O1 5394   4.469   0.001  12.812  0.1728  0.2263 -0.4071
  356TMC3    O2 5395   4.371   4.587  12.201  0.1691 -0.1279 -0.1636
  357MPD2     C 5396   3.375   0.262   0.647 -0.1370  0.7108  0.9273
  357MPD2    C1 5397   3.380   0.261   0.784  0.1886  0.3867  0.4413
  357MPD2    C2 5398   3.315   0.366   0.851  0.3095  0.4400  0.8720
  357MPD2    C3 5399   3.238   0.461   0.782  0.3254 -0.2162  0.2829
  357MPD2    C4 5400   3.242   0.459   0.645 -1.1109 -0.2497 -0.0714
  357MPD2    C5 5401   3.306   0.357   0.576 -0.0066  1.1199  0.3515
  357MPD2     H 5402   3.317   0.369   0.959  1.7746  1.0874  0.8265
  357MPD2    H1 5403   3.188   0.532   0.587 -1.0903  1.4243  2.0360
  357MPD2    H2 5404   3.431   0.189   0.590 -1.7614 -0.3314  0.7077
  357MPD2    H3 5405   3.297   0.352   0.469 -1.6296 -0.3024  0.5613
  357MPD2     N 5406   3.185   0.576   0.842  0.4353  0.0317  0.2782
  357MPD2    H5 5407   3.161   0.647   0.773 -1.9712 -0.2984  0.7639
  357MPD2    N1 5408   3.447   0.156   0.850  0.7213 -0.3648 -0.1484
  357MPD2    H7 5409   3.473   0.075   0.794  0.5289  0.5065 -1.5160
  358TMC3    C1 5410   3.529   0.037   1.035  0.0784  0.4350 -0.4417
  358TMC3    C2 5411   3.520   4.653   0.973 -0.4934  0.3925  0.6852
  358TMC3    C3 5412   3.578   4.548   1.039  0.2098 -0.6518 -0.1309
  358TMC3    C4 5413   3.593   0.048   1.155 -0.4051  0.4996 -0.2149
  358TMC3    C5 5414   3.650   4.681   1.216  0.3143  0.0002  0.2659
  358TMC3    C6 5415   3.656   4.562   1.149  0.3702 -0.1745 -0.2186
  358TMC3     C 5416   3.478   0.160   0.982  0.3917  0.1461 -0.8746
  358TMC3     O 5417   3.488   0.264   1.045 -0.5972  0.2872 -0.0957
  358TMC3     H 5418   3.473   4.638   0.876  1.2567  0.9555 -0.2608
  358TMC3    H1 5419   3.581   0.139   1.212  1.9528  1.6040 -1.4643
  358TMC3    H2 5420   3.691   4.471   1.196  1.4507  1.0327  1.2868
  358TMC3    C7 5421   3.736   4.690   1.333 -0.2072 -0.1196  0.0336
  358TMC3    C8 5422   3.577   4.423   0.956 -0.3903  0.0020 -0.1693
  358TMC3    O1 5423   3.796   4.586   1.359  0.2713 -0.2561  0.2017
  358TMC3    O2 5424   3.543   4.430   0.840 -0.3673 -0.2775 -0.8641
  359MPD2     C 5425   4.096   2.590  12.366  0.7438  0.2073  0.7848
  359MPD2    C1 5426   4.017   2.694  12.407 -0.8652 -0.7039 -0.2569
  359MPD2    C2 5427   3.910   2.674  12.496 -0.8733  0.5276 -0.3019
  359MPD2    C3 5428   3.892   2.552  12.557  0.9574 -0.5635 -0.3446
  359MPD2    C4 5429   3.972   2.445  12.513  1.1159 -0.0357 -0.7773
  359MPD2    C5 5430   4.064   2.463  12.415 -0.0314 -0.2434 -0.4526
  359MPD2     H 5431   3.832   2.747  12.515  0.1106  1.2428  0.9552
  359MPD2    H1 5432   3.960   2.345  12.555  0.4612  0.1201 -0.5952
  359MPD2    H2 5433   4.187   2.590  12.308  0.4257 -1.5658  0.2931
  359MPD2    H3 5434   4.124   2.382  12.376 -0.6122 -1.0039  0.2465
  359MPD2     N 5435   3.785   2.527  12.657  0.8715 -0.1652  0.3723
  359MPD2    H5 5436   3.771   2.429  12.680 -1.5127  0.4653  1.5488
  359MPD2    N1 5437   4.027   2.820  12.340  0.1353 -0.1114 -0.4989
  359MPD2    H7 5438   3.948   2.884  12.342  0.1454 -0.1744  2.2073
  360TMC3    C1 5439   4.117   2.996  12.221  0.1486 -0.9981 -0.1487
  360TMC3    C2 5440   4.183   3.013  12.108  0.0551 -0.4890  0.8032
  360TMC3    C3 5441   4.127   3.100  12.019 -0.3927  0.7995  0.5735
  360TMC3    C4 5442   4.003   3.063  12.253 -0.4159  0.5322  0.4749
  360TMC3    C5 5443   3.961   3.165  12.174  0.6845 -0.3010  0.2112
  360TMC3    C6 5444   4.026   3.182  12.056  0.2909 -0.0275  0.1799
  360TMC3     C 5445   4.143   2.869  12.289  0.5084  0.8306  0.6128
  360TMC3     O 5446   4.255   2.823  12.280 -0.2219  0.3317  0.2888
  360TMC3     H 5447   4.251   2.939  12.069 -0.8495 -0.5967 -0.5663
  360TMC3    H1 5448   3.952   3.040  12.346  1.3826 -2.1350  0.8006
  360TMC3    H2 5449   3.967   3.245  11.991  0.4358 -1.6843 -1.5670
  360TMC3    C7 5450   3.835   3.220  12.189  0.0756  0.2521  0.1679
  360TMC3    C8 5451   4.172   3.126  11.882 -0.2449 -0.1905 -0.0508
  360TMC3    O1 5452   3.772   3.242  12.092  0.8109 -0.5529 -0.0577
  360TMC3    O2 5453   4.101   3.201  11.820 -0.5759  0.2229 -0.2685
  361MPD2     C 5454   0.572   2.210  17.035 -0.1583  0.2583  0.1673
  361MPD2    C1 5455   0.610   2.320  17.102  0.5637 -0.2317  0.0562
  361MPD2    C2 5456   0.747   2.340  17.116  0.0474  0.0543 -0.5054
  361MPD2    C3 5457   0.847   2.249  17.074 -0.6889 -0.1786  0.5928
  361MPD2    C4 5458   0.798   2.141  17.004 -0.2666 -1.2655  0.1223
  361MPD2    C5 5459   0.663   2.114  16.993  0.3076  0.3632  0.0053
  361MPD2     H 5460   0.769   2.429  17.173  0.5314 -0.6546  0.4068
  361MPD2    H1 5461   0.862   2.067  16.957  2.0487  1.1019 -0.4806
  361MPD2    H2 5462   0.467   2.196  17.012  0.6381  1.0101 -3.8312
  361MPD2    H3 5463   0.631   2.024  16.942  2.8395 -1.7213  2.1561
  361MPD2     N 5464   0.984   2.258  17.094 -0.0964 -0.5610  0.1842
  361MPD2    H5 5465   1.037   2.172  17.078 -0.7540 -1.2629  1.7895
  361MPD2    N1 5466   0.520   2.421  17.152 -0.0313 -0.1116 -0.2151
  361MPD2    H7 5467   0.559   2.509  17.184 -1.0383  0.6179 -0.9944
  362TMC3    C1 5468   0.327   2.548  17.196  0.5358  0.4640  0.6781
  362TMC3    C2 5469   0.232   2.562  17.295  0.3362 -0.0674 -0.4842
  362TMC3    C3 5470   0.167   2.685  17.298 -0.9923 -0.1524  0.0598
  362TMC3    C4 5471   0.359   2.629  17.093 -1.0805  0.5156 -0.3591
  362TMC3    C5 5472   0.288   2.745  17.104 -0.3085  0.0777  1.0657
  362TMC3    C6 5473   0.186   2.779  17.200  0.2371 -0.3575  0.2001
  362TMC3     C 5474   0.388   2.408  17.178 -0.2967 -0.2073 -0.2238
  362TMC3     O 5475   0.316   2.309  17.186 -0.2069  0.2988 -0.0043
  362TMC3     H 5476   0.206   2.485  17.366  0.9556 -0.8653 -1.1159
  362TMC3    H1 5477   0.441   2.608  17.025 -1.3078 -0.4172 -0.3375
  362TMC3    H2 5478   0.117   2.862  17.186 -0.4594 -1.1768 -1.3093
  362TMC3    C7 5479   0.283   2.835  16.988 -0.0983  0.1838 -0.3588
  362TMC3    C8 5480   0.033   2.668  17.348  0.4860 -0.5756  0.3673
  362TMC3    O1 5481   0.209   2.934  16.993 -0.1092 -0.0824 -0.0838
  362TMC3    O2 5482   4.737   2.550  17.358 -0.3164 -0.4751 -0.4120
  363TMC3    C1 5483   0.158   4.666   9.925 -0.8093  0.0688 -0.7977
  363TMC3    C2 5484   0.210   4.558   9.990 -0.0688  0.2220  0.7302
  363TMC3    C3 5485   0.120   4.459  10.041 -0.4929 -0.5860  0.0493
  363TMC3    C4 5486   0.021   4.682   9.907 -1.1011 -0.6854  0.0744
  363TMC3    C5 5487   4.677   4.585   9.959 -0.7266 -0.0704 -0.0650
  363TMC3    C6 5488   4.724   4.476  10.030 -0.3068  0.5177  0.5217
  363TMC3     C 5489   0.244   0.033   9.884 -0.3525 -0.3372 -0.3014
  363TMC3     O 5490   0.351   0.052   9.931  0.0645 -0.1354  0.0887
  363TMC3     H 5491   0.315   4.530   9.983 -0.0038  0.2737  1.4697
  363TMC3    H1 5492   4.713   0.027   9.861 -2.0352 -1.1970  0.1030
  363TMC3    H2 5493   4.650   4.403  10.061 -0.4218  1.2498  1.9739
  363TMC3    C7 5494   4.538   4.595   9.913 -0.6334 -0.0154 -0.1263
  363TMC3    C8 5495   0.181   4.330  10.071  0.3074  0.5889 -0.0953
  363TMC3    O1 5496   4.511   4.669   9.822  0.1166  0.1305  0.3352
  363TMC3    O2 5497   0.302   4.323  10.090  0.1190 -0.4113  0.1363
  364MPD2     C 5498   2.998   3.489  10.435 -0.2604 -0.3924 -0.3486
  364MPD2    C1 5499   2.965   3.596  10.507 -0.1291  0.0786 -0.1361
  364MPD2    C2 5500   2.901   3.576  10.626  0.0650 -0.4443  0.3503
  364MPD2    C3 5501   2.849   3.455  10.665  0.3009  0.9321 -0.2152
  364MPD2    C4 5502   2.887   3.345  10.592  1.1180 -0.1997  1.5076
  364MPD2    C5 5503   2.964   3.364  10.479 -0.5515  0.2354 -0.0867
  364MPD2     H 5504   2.901   3.663  10.691 -0.3849 -1.0253  1.1246
  364MPD2    H1 5505   2.867   3.245  10.627  0.4532 -0.7523 -0.4571
  364MPD2    H2 5506   3.046   3.504  10.340 -1.5834 -0.4080 -1.0234
  364MPD2    H3 5507   2.987   3.279  10.415  3.1934  0.2213  1.2818
  364MPD2     N 5508   2.770   3.439  10.786 -0.3490  0.4527  0.3120
  364MPD2    H5 5509   2.756   3.347  10.826 -0.3780  1.8882  3.6185
  364MPD2    N1 5510   2.995   3.732  10.461 -0.4033 -0.2861  0.0641
  364MPD2    H7 5511   3.061   3.742  10.385 -1.2509  3.0934 -0.1889
  365TMC3    C1 5512   2.986   3.971  10.444  0.6655  0.1542 -0.7891
  365TMC3    C2 5513   2.998   3.967  10.308  0.3748 -0.4995  0.2103
  365TMC3    C3 5514   2.999   4.083  10.240 -0.1986 -0.3511  0.4005
  365TMC3    C4 5515   2.962   4.083  10.516 -0.5141 -0.1117  0.6534
  365TMC3    C5 5516   2.960   4.200  10.437  0.4292 -0.3320  0.5329
  365TMC3    C6 5517   2.976   4.203  10.300  0.5940 -0.3029 -0.3227
  365TMC3     C 5518   2.938   3.847  10.509  0.4889 -0.9436 -0.3724
  365TMC3     O 5519   2.877   3.865  10.616 -0.0251 -0.6665  0.2181
  365TMC3     H 5520   3.000   3.867  10.264 -3.0086 -1.0171  1.2204
  365TMC3    H1 5521   2.954   4.076  10.624 -1.5472 -1.2650  0.5029
  365TMC3    H2 5522   2.940   4.288  10.242  1.9537 -0.2260 -1.0392
  365TMC3    C7 5523   2.977   4.327  10.510 -0.0398 -0.6990 -0.2404
  365TMC3    C8 5524   3.047   4.090  10.107  0.0953  0.3344 -0.6400
  365TMC3    O1 5525   3.045   4.421  10.461  0.0831 -0.0002 -0.4427
  365TMC3    O2 5526   3.028   4.195  10.047  0.3089 -0.2420  0.0323
  366MPD2     C 5527   1.494   0.527  15.336  0.0965 -0.4715 -0.1122
  366MPD2    C1 5528   1.529   0.630  15.421 -0.0152  0.0461  0.4622
  366MPD2    C2 5529   1.662   0.669  15.431  0.1092 -0.1806  0.1206
  366MPD2    C3 5530   1.753   0.616  15.337  0.1211 -0.0438  0.2408
  366MPD2    C4 5531   1.715   0.517  15.253 -0.5813  0.0501  0.2993
  366MPD2    C5 5532   1.589   0.482  15.247  0.0894  0.5812  0.9007
  366MPD2     H 5533   1.684   0.755  15.494 -1.4824  0.8811 -0.7839
  366MPD2    H1 5534   1.779   0.466  15.181 -2.3433 -0.9815 -0.5181
  366MPD2    H2 5535   1.396   0.483  15.337  0.8178 -2.0935 -1.2175
  366MPD2    H3 5536   1.563   0.407  15.174 -3.3881  2.2344  0.4003
  366MPD2     N 5537   1.887   0.670  15.321 -0.2079  0.3941  0.7269
  366MPD2    H5 5538   1.952   0.610  15.272  0.1248  1.6584 -0.3740
  366MPD2    N1 5539   1.438   0.685  15.514 -0.2443  0.0029 -0.2200
  366MPD2    H7 5540   1.478   0.751  15.580 -1.0109  1.0166 -0.7632
  367TMC3    C1 5541   1.237   0.769  15.600 -0.0278 -0.6352  0.0650
  367TMC3    C2 5542   1.284   0.811  15.718  0.1759  0.4123  0.3206
  367TMC3    C3 5543   1.222   0.915  15.785 -0.7965  0.1232 -0.6037
  367TMC3    C4 5544   1.103   0.798  15.567  0.4670 -0.1795  0.0482
  367TMC3    C5 5545   1.044   0.884  15.648  0.5067 -0.0531 -0.6229
  367TMC3    C6 5546   1.097   0.953  15.752  0.4835 -0.4256  0.1834
  367TMC3     C 5547   1.301   0.667  15.522  0.0965 -0.4197  0.1987
  367TMC3     O 5548   1.232   0.602  15.442  0.2342 -0.4861  0.2010
  367TMC3     H 5549   1.382   0.775  15.748  0.2806 -0.6414 -1.2954
  367TMC3    H1 5550   1.054   0.766  15.476 -1.9654 -0.5793  1.4956
  367TMC3    H2 5551   1.038   1.024  15.810  0.0676 -1.3471  0.8783
  367TMC3    C7 5552   0.912   0.925  15.613  0.5097  0.5465 -0.7105
  367TMC3    C8 5553   1.284   0.974  15.908 -0.0868 -0.2686 -0.0806
  367TMC3    O1 5554   0.876   1.034  15.658  0.1255 -0.3571  0.3262
  367TMC3    O2 5555   1.369   0.912  15.969  0.3017 -0.4132 -0.2649
  368MPD2     C 5556   2.636   2.325  13.740 -0.2741 -0.3174 -0.6292
  368MPD2    C1 5557   2.649   2.438  13.662 -0.3557  0.4397 -0.2597
  368MPD2    C2 5558   2.749   2.527  13.692  0.3573  0.1434 -0.8343
  368MPD2    C3 5559   2.849   2.485  13.780  0.8840  0.1922  0.2611
  368MPD2    C4 5560   2.842   2.365  13.840 -0.4178 -0.9204  0.2747
  368MPD2    C5 5561   2.732   2.287  13.825 -0.8918  0.5691 -0.3662
  368MPD2     H 5562   2.770   2.613  13.629  0.7852  0.2009 -0.6158
  368MPD2    H1 5563   2.916   2.323  13.906  2.0521  1.9937 -0.6528
  368MPD2    H2 5564   2.549   2.262  13.727 -0.9643  0.1917  1.4840
  368MPD2    H3 5565   2.722   2.191  13.875  2.2410  0.7618  0.6677
  368MPD2     N 5566   2.961   2.563  13.812  0.9498  0.5266 -0.4713
  368MPD2    H5 5567   3.029   2.519  13.874 -0.1878 -0.6255 -0.0280
  368MPD2    N1 5568   2.544   2.461  13.571  0.0279  0.3820 -0.1746
  368MPD2    H7 5569   2.463   2.403  13.587  0.1143  0.0427 -0.9538
  369TMC3    C1 5570   2.435   2.568  13.383  0.3827  0.6221 -0.5172
  369TMC3    C2 5571   2.459   2.623  13.261 -0.2363 -0.1788 -0.2566
  369TMC3    C3 5572   2.354   2.641  13.173 -0.1725 -0.1500  0.4586
  369TMC3    C4 5573   2.310   2.536  13.423  0.7870  0.2152  0.0471
  369TMC3    C5 5574   2.212   2.549  13.329  0.2700 -0.1570 -0.1397
  369TMC3    C6 5575   2.228   2.613  13.212 -0.4706  0.4555 -0.0959
  369TMC3     C 5576   2.551   2.562  13.469  0.5277  0.0984  0.3899
  369TMC3     O 5577   2.649   2.621  13.429  0.3683  0.3476 -0.2711
  369TMC3     H 5578   2.551   2.677  13.242 -1.3701  2.7904  2.7486
  369TMC3    H1 5579   2.286   2.490  13.518 -0.9564  0.2304 -0.3833
  369TMC3    H2 5580   2.145   2.632  13.144  0.4004  0.1964 -1.2218
  369TMC3    C7 5581   2.087   2.491  13.372 -0.3664 -0.5861 -0.5426
  369TMC3    C8 5582   2.374   2.723  13.056 -0.4438  0.1847  0.2975
  369TMC3    O1 5583   2.077   2.457  13.493  0.0252 -0.4769  0.1009
  369TMC3    O2 5584   2.283   2.775  12.998  0.4083 -0.1377  0.1435
  370TMC3    C1 5585   1.893   3.523  16.348  0.8107 -0.0723 -0.0155
  370TMC3    C2 5586   1.830   3.449  16.446 -0.3288  0.3319  0.0214
  370TMC3    C3 5587   1.754   3.342  16.410  0.7177 -0.0541  0.3954
  370TMC3    C4 5588   1.886   3.483  16.218  0.3282 -0.7642  0.3183
  370TMC3    C5 5589   1.845   3.360  16.189  0.4535  0.4492  0.0480
  370TMC3    C6 5590   1.771   3.291  16.282  0.4668  0.2173 -0.6286
  370TMC3     C 5591   2.007   3.597  16.389  0.2604  0.8713  0.5138
  370TMC3     O 5592   2.048   3.581  16.504 -0.4183  0.1577  0.0963
  370TMC3     H 5593   1.842   3.477  16.550  1.1036 -1.3655  0.3212
  370TMC3    H1 5594   1.961   3.524  16.150  0.3878 -2.1449 -0.4576
  370TMC3    H2 5595   1.712   3.205  16.252  1.1046 -0.8491  1.2447
  370TMC3    C7 5596   1.899   3.303  16.066 -0.3648  0.0242  0.5876
  370TMC3    C8 5597   1.727   3.249  16.516  0.1188  0.2911 -0.3484
  370TMC3    O1 5598   1.886   3.371  15.967  0.1368  0.0890 -0.2382
  370TMC3    O2 5599   1.760   3.133  16.496 -0.1127 -0.5467  0.5506
  371TMC3    C1 5600   3.124   1.727  15.451 -0.0686 -0.4482 -0.1379
  371TMC3    C2 5601   3.084   1.721  15.581  0.5725  0.3637 -0.0420
  371TMC3    C3 5602   3.056   1.839  15.645 -0.3342 -0.1769 -1.0793
  371TMC3    C4 5603   3.139   1.838  15.373  0.5202 -0.6065  0.1815
  371TMC3    C5 5604   3.123   1.955  15.443  0.3750  0.0982 -0.8867
  371TMC3    C6 5605   3.080   1.957  15.577  0.4060 -0.3350  0.0953
  371TMC3     C 5606   3.177   1.612  15.389  0.4744  0.5531  0.3357
  371TMC3     O 5607   3.252   1.622  15.294 -0.0191 -0.3390 -0.4650
  371TMC3     H 5608   3.069   1.633  15.641 -0.0030 -0.1479 -0.9366
  371TMC3    H1 5609   3.169   1.831  15.269  0.2885 -1.7996  0.1998
  371TMC3    H2 5610   3.076   2.051  15.631 -0.3944 -0.3163  0.0098
  371TMC3    C7 5611   3.143   2.092  15.389  0.6753  0.8838 -0.0822
  371TMC3    C8 5612   2.976   1.825  15.776  0.9619 -1.3341 -0.0960
  371TMC3    O1 5613   3.096   2.183  15.454  0.0586 -1.1632 -0.2702
  371TMC3    O2 5614   2.962   1.711  15.822 -0.2174 -0.4132  0.7121
  372MPD2     C 5615   2.312   2.813  13.740 -0.1337 -0.6706  0.3745
  372MPD2    C1 5616   2.426   2.787  13.810 -0.3416 -0.5974  0.0411
  372MPD2    C2 5617   2.435   2.664  13.877  0.3476  0.3887  0.2221
  372MPD2    C3 5618   2.340   2.569  13.857  0.3899  0.2642  0.1019
  372MPD2    C4 5619   2.225   2.597  13.785 -0.5673  0.0492 -0.1901
  372MPD2    C5 5620   2.220   2.715  13.726  0.2747  0.2045  0.1500
  372MPD2     H 5621   2.531   2.650  13.927 -0.1983  1.2668  1.5101
  372MPD2    H1 5622   2.139   2.531  13.772  1.1007 -2.3040  0.7792
  372MPD2    H2 5623   2.291   2.910  13.698 -1.9329 -1.2231 -0.0119
  372MPD2    H3 5624   2.132   2.737  13.666 -0.8429 -0.7835  1.4523
  372MPD2     N 5625   2.359   2.447  13.924 -0.7526 -0.4302  0.0109
  372MPD2    H5 5626   2.435   2.437  13.991  1.3144  3.8147 -1.7037
  372MPD2    N1 5627   2.528   2.879  13.824 -0.0019 -0.1375 -0.2744
  372MPD2    H7 5628   2.618   2.864  13.868 -0.3958 -2.4590 -0.2963
  373TMC3    C1 5629   2.332   2.212  13.967 -0.9403 -0.2867 -0.0141
  373TMC3    C2 5630   2.460   2.210  14.020  0.1987  0.2840  0.3163
  373TMC3    C3 5631   2.517   2.093  14.059 -0.1818 -0.1478 -0.0212
  373TMC3    C4 5632   2.260   2.098  13.943  0.3522 -0.1941 -0.8342
  373TMC3    C5 5633   2.326   1.977  13.981  0.8845 -0.2267 -0.5975
  373TMC3    C6 5634   2.446   1.973  14.040 -0.2609  0.4060 -0.1915
  373TMC3     C 5635   2.284   2.333  13.902 -0.2915  0.0993  0.4019
  373TMC3     O 5636   2.193   2.317  13.828 -0.3262 -0.2992 -0.3559
  373TMC3     H 5637   2.522   2.297  14.037 -1.0396  1.5322 -1.5369
  373TMC3    H1 5638   2.163   2.093  13.895 -1.0216 -1.7744  2.0684
  373TMC3    H2 5639   2.491   1.875  14.053  0.1026  0.2695 -2.5616
  373TMC3    C7 5640   2.263   1.857  13.931 -0.5110  0.0220  0.8153
  373TMC3    C8 5641   2.646   2.091  14.115 -0.2971 -0.5217 -0.1809
  373TMC3    O1 5642   2.205   1.864  13.825 -0.4180 -0.7180  0.0247
  373TMC3    O2 5643   2.716   2.189  14.122  0.3981 -0.2080  0.1932
  374TMC3    C1 5644   3.247   2.152   9.773  0.2523  0.4320 -0.1996
  374TMC3    C2 5645   3.290   2.277   9.818 -0.3142 -0.2853 -0.0459
  374TMC3    C3 5646   3.361   2.359   9.729  0.6610  0.0335 -0.5762
  374TMC3    C4 5647   3.276   2.113   9.643 -0.2779  0.1148  0.3230
  374TMC3    C5 5648   3.339   2.196   9.561 -0.3531  0.0862 -0.2653
  374TMC3    C6 5649   3.394   2.314   9.605  0.0918 -0.4165 -0.4058
  374TMC3     C 5650   3.182   2.062   9.872 -0.6280  0.2496  0.3231
  374TMC3     O 5651   3.176   2.100   9.988 -0.7758 -0.1046  0.0148
  374TMC3     H 5652   3.272   2.311   9.920 -1.0810  0.4230 -0.4116
  374TMC3    H1 5653   3.268   2.009   9.614 -1.9718  0.4837 -0.5010
  374TMC3    H2 5654   3.451   2.374   9.535 -2.6549  1.1179 -1.3486
  374TMC3    C7 5655   3.380   2.158   9.434 -0.4774  0.8310  0.4983
  374TMC3    C8 5656   3.426   2.485   9.771  0.4321 -0.3969 -0.1330
  374TMC3    O1 5657   3.437   2.236   9.355 -0.0076  0.2082 -0.2240
  374TMC3    O2 5658   3.497   2.540   9.688  0.1332 -0.5426  0.2241
  375MPD2     C 5659   3.225   3.461  17.365 -0.1432  0.3378  0.2127
  375MPD2    C1 5660   3.148   3.453  17.249 -0.0337  0.8232  0.3010
  375MPD2    C2 5661   3.211   3.425  17.126 -0.4803 -0.7660 -0.4295
  375MPD2    C3 5662   3.344   3.381  17.128 -0.3160  0.1873 -0.2261
  375MPD2    C4 5663   3.411   3.375  17.247 -0.6932 -0.0073  0.0289
  375MPD2    C5 5664   3.350   3.410  17.364 -0.9981  0.5108  0.6217
  375MPD2     H 5665   3.145   3.421  17.040  1.5631  0.2584 -2.0402
  375MPD2    H1 5666   3.514   3.341  17.243 -0.8207 -0.4656  0.8284
  375MPD2    H2 5667   3.181   3.482  17.462 -1.8498  0.9147 -0.6810
  375MPD2    H3 5668   3.414   3.405  17.452  0.6530  0.9633 -0.5596
  375MPD2     N 5669   3.412   3.357  17.005 -0.1473 -0.3215 -0.0991
  375MPD2    H5 5670   3.501   3.309  17.013  0.0608  0.1793  0.6045
  375MPD2    N1 5671   3.017   3.497  17.255 -0.0289  0.5539  0.4018
  375MPD2    H7 5672   2.951   3.477  17.180  0.8279 -3.0826  0.6370
  376TMC3    C1 5673   3.399   3.304  16.766  0.6934  0.6480  0.0064
  376TMC3    C2 5674   3.507   3.223  16.774 -0.4502 -0.0416  0.4639
  376TMC3    C3 5675   3.536   3.140  16.668 -0.0343 -0.0098  0.1464
  376TMC3    C4 5676   3.341   3.327  16.643 -0.3589  0.4337 -0.1487
  376TMC3    C5 5677   3.380   3.262  16.535 -0.5794 -0.4225 -0.2494
  376TMC3    C6 5678   3.481   3.165  16.544  0.0286  0.2862 -0.5217
  376TMC3     C 5679   3.350   3.376  16.882 -0.5736 -0.2749 -0.1895
  376TMC3     O 5680   3.265   3.458  16.861  0.8407  0.0781  0.1780
  376TMC3     H 5681   3.560   3.216  16.868 -2.0475  0.4296  1.3736
  376TMC3    H1 5682   3.271   3.409  16.634 -0.0873  0.3591 -2.9243
  376TMC3    H2 5683   3.488   3.103  16.455  2.1806  2.6049 -1.9538
  376TMC3    C7 5684   3.326   3.308  16.408  0.1007  0.3614  0.4086
  376TMC3    C8 5685   3.676   3.119  16.647  0.3650  0.0277  0.1023
  376TMC3    O1 5686   3.260   3.413  16.403 -0.2717 -0.1507  0.4673
  376TMC3    O2 5687   3.706   3.105  16.531 -0.1339  0.1906  0.4691
  377MPD2     C 5688   1.956   2.829  13.171  0.3375 -0.0850 -0.1899
  377MPD2    C1 5689   1.835   2.803  13.110 -0.2330 -0.2930 -0.1791
  377MPD2    C2 5690   1.723   2.770  13.193 -0.7455  0.0993  0.1228
  377MPD2    C3 5691   1.745   2.740  13.327 -0.0354 -0.2624  0.0771
  377MPD2    C4 5692   1.864   2.774  13.384 -0.4850  0.0293 -0.9094
  377MPD2    C5 5693   1.968   2.825  13.308 -0.4997 -0.3208  0.2952
  377MPD2     H 5694   1.624   2.765  13.149 -0.0356 -1.4193 -1.3468
  377MPD2    H1 5695   1.886   2.748  13.487 -1.3444 -2.8266 -1.4677
  377MPD2    H2 5696   2.043   2.860  13.115  0.2657 -0.6198 -0.5913
  377MPD2    H3 5697   2.061   2.846  13.358  0.0847  0.1295 -0.9682
  377MPD2     N 5698   1.649   2.687  13.416 -0.7919 -0.2566  0.0044
  377MPD2    H5 5699   1.674   2.660  13.510  0.8609  0.5528 -0.2082
  377MPD2    N1 5700   1.829   2.820  12.974  0.1028 -0.4119 -0.0755
  377MPD2    H7 5701   1.912   2.854  12.926 -1.3152  2.4047 -0.5074
  378TMC3    C1 5702   1.660   2.895  12.555  0.0324 -1.1069 -0.1636
  378TMC3    C2 5703   1.636   2.842  12.679  0.2414  0.4785  0.4809
  378TMC3    C3 5704   1.749   2.816  12.758 -0.4393 -0.5771 -0.1363
  378TMC3    C4 5705   1.778   2.938  12.509 -0.2392  0.1904  0.4575
  378TMC3    C5 5706   1.880   2.917  12.595  0.2269 -0.3087 -0.5595
  378TMC3    C6 5707   1.874   2.858  12.721  0.7346  0.3288  0.6751
  378TMC3     C 5708   1.539   2.910  12.469 -0.4857  0.7389  0.3458
  378TMC3     O 5709   1.434   2.910  12.529 -0.7548 -0.5419  0.2414
  378TMC3     H 5710   1.536   2.822  12.715  0.3622 -0.6046  0.2190
  378TMC3    H1 5711   1.786   2.984  12.411 -2.0870 -0.4748 -0.0117
  378TMC3    H2 5712   1.967   2.838  12.774  1.5198 -0.3329 -0.9385
  378TMC3    C7 5713   2.015   2.928  12.547 -0.0891 -0.4913  0.1297
  378TMC3    C8 5714   1.720   2.794  12.896  0.7667 -0.0603 -0.1392
  378TMC3    O1 5715   2.105   2.933  12.624  0.6414  0.0060 -0.0868
  378TMC3    O2 5716   1.606   2.757  12.934  0.0475 -0.3786  0.1114
  379MPD2     C 5717   1.856   1.133  16.904  0.5477 -0.2969  0.4874
  379MPD2    C1 5718   1.966   1.171  16.827  1.0288  0.3592 -0.5078
  379MPD2    C2 5719   2.085   1.181  16.886 -0.3776  0.2717  0.0275
  379MPD2    C3 5720   2.109   1.143  17.016  0.1449 -0.0991  0.0594
  379MPD2    C4 5721   1.998   1.106  17.087  0.0940  0.2376  0.6575
  379MPD2    C5 5722   1.874   1.108  17.035 -0.3808  0.8470 -0.0233
  379MPD2     H 5723   2.166   1.222  16.827 -1.0806 -0.3911 -1.4014
  379MPD2    H1 5724   1.999   1.084  17.193  1.3804  1.1511  0.8404
  379MPD2    H2 5725   1.756   1.128  16.861 -0.1012  1.7735  1.7275
  379MPD2    H3 5726   1.793   1.100  17.107  2.1639 -0.1165  2.7829
  379MPD2     N 5727   2.234   1.128  17.074 -0.8908  0.4109 -0.4637
  379MPD2    H5 5728   2.237   1.097  17.171  0.7795  2.3341  0.1053
  379MPD2    N1 5729   1.937   1.193  16.694  1.2632  0.2260  0.3616
  379MPD2    H7 5730   1.839   1.182  16.670  1.0496  2.7168  0.0855
  380TMC3    C1 5731   1.966   1.259  16.471 -0.1749 -0.1191 -0.0854
  380TMC3    C2 5732   2.051   1.297  16.375  0.3055 -0.9088 -0.1486
  380TMC3    C3 5733   2.004   1.315  16.249 -0.5784  0.2785  0.1148
  380TMC3    C4 5734   1.829   1.276  16.457 -0.4470  0.1131  0.4859
  380TMC3    C5 5735   1.780   1.322  16.334 -0.5124 -0.3712  0.2960
  380TMC3    C6 5736   1.866   1.325  16.226  0.0638 -0.5454  0.7652
  380TMC3     C 5737   2.029   1.228  16.604 -0.0244 -0.3828  0.5380
  380TMC3     O 5738   2.152   1.215  16.607  0.0363 -0.1827  0.5425
  380TMC3     H 5739   2.156   1.304  16.397  0.2600 -2.2184  0.5077
  380TMC3    H1 5740   1.764   1.281  16.543  0.7761  1.1764  1.3432
  380TMC3    H2 5741   1.824   1.351  16.129 -0.6929 -2.0911  0.6726
  380TMC3    C7 5742   1.641   1.333  16.318  0.1427 -1.1555 -0.0363
  380TMC3    C8 5743   2.085   1.397  16.157 -0.4280 -0.4506  1.1881
  380TMC3    O1 5744   1.579   1.394  16.398 -0.0602 -0.5148 -0.0624
  380TMC3    O2 5745   2.024   1.459  16.072  0.0785 -0.0977 -0.1952
  381TMC3    C1 5746   1.844   2.541  16.272  0.0940  0.0981  0.2724
  381TMC3    C2 5747   1.900   2.660  16.261  0.4832 -0.3516  0.5123
  381TMC3    C3 5748   1.893   2.738  16.375  0.5783  0.0024 -1.4806
  381TMC3    C4 5749   1.775   2.498  16.384 -0.3391 -0.2558 -0.6353
  381TMC3    C5 5750   1.754   2.583  16.482  0.2496  0.2954  0.0576
  381TMC3    C6 5751   1.821   2.699  16.488  0.5339  0.0413  0.1887
  381TMC3     C 5752   1.835   2.457  16.152  0.1052 -0.0159 -0.0915
  381TMC3     O 5753   1.858   2.506  16.046  0.2803  0.4436 -0.0455
  381TMC3     H 5754   1.940   2.700  16.169 -3.2118  0.3110 -0.8017
  381TMC3    H1 5755   1.711   2.411  16.372 -1.0532 -0.0276  1.5821
  381TMC3    H2 5756   1.813   2.774  16.566 -1.3307 -0.9867  1.0040
  381TMC3    C7 5757   1.712   2.523  16.602  0.4934  0.4534 -0.2167
  381TMC3    C8 5758   2.007   2.826  16.377  0.2982 -0.1536 -0.0227
  381TMC3    O1 5759   1.735   2.404  16.613  0.1089 -0.3454  0.1596
  381TMC3    O2 5760   2.096   2.795  16.297  0.4306  0.2027  0.0878
  382MPD2     C 5761   0.803   0.387  16.921 -0.0811  0.3114  0.2552
  382MPD2    C1 5762   0.811   0.418  17.054  0.0108 -0.4123  0.3724
  382MPD2    C2 5763   0.798   0.306  17.141 -0.3672 -0.2113  0.8795
  382MPD2    C3 5764   0.789   0.171  17.094 -0.0755 -0.0894 -0.3199
  382MPD2    C4 5765   0.780   0.151  16.961 -0.2798 -0.1564 -0.0559
  382MPD2    C5 5766   0.778   0.258  16.877 -0.8829  0.0437  0.0740
  382MPD2     H 5767   0.813   0.315  17.248  0.9613 -2.9900  0.9238
  382MPD2    H1 5768   0.753   0.052  16.926  1.1294  0.3402 -2.5107
  382MPD2    H2 5769   0.816   0.461  16.844  0.0870 -0.3886 -0.3922
  382MPD2    H3 5770   0.768   0.235  16.771  2.7329  0.2130 -0.3173
  382MPD2     N 5771   0.784   0.056  17.177 -0.5458 -0.0804 -0.6440
  382MPD2    H5 5772   0.784   4.706  17.130 -1.6429 -1.1788  1.4711
  382MPD2    N1 5773   0.823   0.552  17.106 -0.4643  0.8096  0.2746
  382MPD2    H7 5774   0.812   0.560  17.207  1.0987  0.5429  0.4585
  383TMC3    C1 5775   0.805   4.665  17.367 -0.2894 -0.3360 -0.1982
  383TMC3    C2 5776   0.710   4.567  17.332  0.2815  0.2877 -0.0138
  383TMC3    C3 5777   0.654   4.484  17.425 -0.1170 -0.1248  0.3566
  383TMC3    C4 5778   0.830   4.686  17.505  0.2070 -0.0856 -0.0291
  383TMC3    C5 5779   0.760   4.604  17.594  0.5453 -0.3635 -0.9299
  383TMC3    C6 5780   0.678   4.498  17.561 -0.4425  0.3803 -0.4788
  383TMC3     C 5781   0.801   0.056  17.312 -0.2422 -0.5984  0.0172
  383TMC3     O 5782   0.793   0.148  17.393  0.0747  0.1163 -0.2835
  383TMC3     H 5783   0.674   4.557  17.230  1.7519 -0.5281 -0.4448
  383TMC3    H1 5784   0.894   0.025  17.543  1.3041 -0.9024 -0.1726
  383TMC3    H2 5785   0.607   4.455  17.631  0.8612 -0.7840  0.1138
  383TMC3    C7 5786   0.706   4.687  17.698 -0.5925 -0.2405  0.2003
  383TMC3    C8 5787   0.557   4.381  17.383 -0.1917 -0.3912 -0.8473
  383TMC3    O1 5788   0.620   4.635   0.004 -0.4704  0.1661  0.4424
  383TMC3    O2 5789   0.495   4.394  17.278 -0.9221 -0.1191 -0.4726
  384MPD2     C 5790   2.504   1.064  12.330  0.6191 -0.2040  0.3759
  384MPD2    C1 5791   2.517   0.943  12.387 -0.6410  0.1252 -0.4907
  384MPD2    C2 5792   2.596   0.846  12.321 -0.0088  0.2139 -0.1147
  384MPD2    C3 5793   2.650   0.866  12.199 -0.7980  0.1180 -0.2497
  384MPD2    C4 5794   2.635   0.989  12.145 -0.1726  0.5829 -0.6259
  384MPD2    C5 5795   2.562   1.091  12.212  0.5462  0.1976 -0.5068
  384MPD2     H 5796   2.610   0.751  12.370  3.0262  1.1221  0.7878
  384MPD2    H1 5797   2.677   1.020  12.050 -1.8390  1.2844 -1.1324
  384MPD2    H2 5798   2.442   1.140  12.376 -1.7455 -1.2798 -1.0808
  384MPD2    H3 5799   2.549   1.191  12.170  1.8104  0.1080 -1.1139
  384MPD2     N 5800   2.714   0.766  12.125  0.8537 -0.0152 -0.0331
  384MPD2    H5 5801   2.744   0.786  12.030  1.2419 -1.7395 -0.2784
  384MPD2    N1 5802   2.471   0.908  12.515  0.2545  0.0364 -0.0803
  384MPD2    H7 5803   2.498   0.818  12.553 -1.1710  0.4483  1.8862
  385TMC3    C1 5804   2.782   0.551  12.060 -0.9157 -0.2031 -0.1818
  385TMC3    C2 5805   2.705   0.569  11.951 -0.2452 -0.6327 -0.8545
  385TMC3    C3 5806   2.607   0.469  11.916 -0.7480  0.0136  0.0663
  385TMC3    C4 5807   2.791   0.421  12.109  0.2004  0.1455  0.6227
  385TMC3    C5 5808   2.696   0.330  12.067  0.5386  0.5518 -0.0906
  385TMC3    C6 5809   2.595   0.355  11.978  0.2958 -0.2894 -0.2306
  385TMC3     C 5810   2.741   0.639  12.167  0.4860  0.5986 -0.6780
  385TMC3     O 5811   2.721   0.593  12.276 -0.1102 -0.2634  0.6493
  385TMC3     H 5812   2.699   0.662  11.896  1.7618 -0.1695 -0.2875
  385TMC3    H1 5813   2.850   0.407  12.199  1.6644  0.6926 -0.2720
  385TMC3    H2 5814   2.508   0.294  11.959  0.4831 -0.9467  1.0092
  385TMC3    C7 5815   2.646   0.253  12.179 -0.3606  0.5685  0.1830
  385TMC3    C8 5816   2.583   0.472  11.773  0.0723  0.5964 -0.1856
  385TMC3    O1 5817   2.602   0.138  12.163  0.0422  0.2316  0.5528
  385TMC3    O2 5818   2.600   0.573  11.706  0.0594 -0.1028 -0.5829
  386TMC3    C1 5819   3.144   2.720  11.864 -0.4909 -0.3094 -0.1178
  386TMC3    C2 5820   3.078   2.650  11.768  0.6124  0.3200  1.0751
  386TMC3    C3 5821   2.950   2.616  11.791  0.5770  0.0559 -0.2220
  386TMC3    C4 5822   3.086   2.767  11.977  0.4341  0.0278  0.0111
  386TMC3    C5 5823   2.954   2.734  11.992 -0.1497 -0.2764 -0.4027
  386TMC3    C6 5824   2.891   2.661  11.903 -0.3970 -0.5623 -0.5329
  386TMC3     C 5825   3.289   2.715  11.860  0.2129 -0.0007  0.1579
  386TMC3     O 5826   3.349   2.807  11.916 -0.0696  0.1373  0.2249
  386TMC3     H 5827   3.125   2.631  11.672 -0.8965  1.1433  0.1740
  386TMC3    H1 5828   3.133   2.835  12.048 -1.7738  2.5937 -0.9839
  386TMC3    H2 5829   2.786   2.638  11.920 -0.1418 -0.7088  0.8069
  386TMC3    C7 5830   2.869   2.832  12.044  0.5369  0.2854 -0.9256
  386TMC3    C8 5831   2.864   2.648  11.680  0.3209 -1.1022 -0.4239
  386TMC3    O1 5832   2.884   2.860  12.159 -0.4656  0.5331  0.0670
  386TMC3    O2 5833   2.749   2.685  11.714 -0.5036 -0.4337 -0.3365
  387MPD2     C 5834   0.851   1.808  10.036 -0.6441  0.7495  0.1293
  387MPD2    C1 5835   0.983   1.823  10.064 -0.1128 -0.7976  0.7768
  387MPD2    C2 5836   1.075   1.747   9.996  0.4952  0.4972  0.0522
  387MPD2    C3 5837   1.042   1.658   9.900 -0.4683 -0.1500 -0.0602
  387MPD2    C4 5838   0.910   1.644   9.869  0.2683  0.0696 -0.0176
  387MPD2    C5 5839   0.814   1.719   9.937  0.0688  0.0983  0.0472
  387MPD2     H 5840   1.180   1.763  10.020  0.5129  0.7328 -0.1918
  387MPD2    H1 5841   0.876   1.571   9.796  0.1639 -1.5505  1.6420
  387MPD2    H2 5842   0.781   1.872  10.088  1.0408  1.0850  1.9760
  387MPD2    H3 5843   0.709   1.699   9.918  0.3556 -1.9950  0.6756
  387MPD2     N 5844   1.144   1.577   9.849  0.1545 -0.3174  0.2584
  387MPD2    H5 5845   1.238   1.589   9.887  0.0029 -1.8009  1.1158
  387MPD2    N1 5846   1.032   1.895  10.171  0.0317  0.0931 -0.0346
  387MPD2    H7 5847   1.133   1.899  10.181  0.0563 -2.6126  0.9138
  388TMC3    C1 5848   1.037   1.964  10.396 -0.7349  0.0680 -0.1533
  388TMC3    C2 5849   1.006   2.054  10.491  0.1640  0.0385 -0.5218
  388TMC3    C3 5850   1.091   2.062  10.598  0.1105  0.1717  0.3069
  388TMC3    C4 5851   1.146   1.881  10.396  0.1791  0.1888  0.3750
  388TMC3    C5 5852   1.239   1.910  10.496 -0.6220  0.2943  0.1489
  388TMC3    C6 5853   1.212   2.000  10.604  0.4096 -0.3350  0.7975
  388TMC3     C 5854   0.958   1.947  10.274 -0.2934 -0.0753  0.0587
  388TMC3     O 5855   0.845   1.987  10.282  0.5889 -0.2624  0.4224
  388TMC3     H 5856   0.916   2.114  10.489  0.4417  0.3691 -2.7803
  388TMC3    H1 5857   1.163   1.798  10.329 -3.5610  0.5092 -0.9683
  388TMC3    H2 5858   1.281   2.002  10.687 -0.4263  0.0348  1.4823
  388TMC3    C7 5859   1.379   1.872  10.483  0.2691 -0.3057  0.0484
  388TMC3    C8 5860   1.054   2.146  10.705 -0.0880  0.9203  0.0012
  388TMC3    O1 5861   1.468   1.947  10.517 -0.2324  0.1541 -0.3125
  388TMC3    O2 5862   0.940   2.142  10.746 -0.0908  0.3884  0.5039
  389MPD2     C 5863   0.239   0.202  10.494  0.4207 -0.3773 -0.4558
  389MPD2    C1 5864   0.196   0.324  10.455 -0.0140  0.0269  0.5406
  389MPD2    C2 5865   0.121   0.399  10.542  0.3230 -0.1600 -0.4019
  389MPD2    C3 5866   0.109   0.357  10.676  0.4775  0.3228 -0.2589
  389MPD2    C4 5867   0.167   0.236  10.714 -0.4889 -0.1334 -0.0365
  389MPD2    C5 5868   0.220   0.153  10.624 -0.2089 -0.1470  0.3383
  389MPD2     H 5869   0.075   0.495  10.520 -1.3851 -0.3743  2.2005
  389MPD2    H1 5870   0.191   0.192  10.810  0.4807  0.5075  0.0173
  389MPD2    H2 5871   0.290   0.136  10.425 -1.8316  1.1528 -3.5721
  389MPD2    H3 5872   0.272   0.061  10.648  0.6359  0.7173  1.8073
  389MPD2     N 5873   0.032   0.426  10.775  0.6646 -0.3261  0.0308
  389MPD2    H5 5874   0.003   0.369  10.854  1.8792  0.7538  1.2358
  389MPD2    N1 5875   0.219   0.363  10.322  0.0202  0.7034  0.0273
  389MPD2    H7 5876   0.258   0.293  10.260 -1.8299  0.3433 -0.7239
  390TMC3    C1 5877   4.638   0.583  10.891  0.5314 -0.5453 -0.1258
  390TMC3    C2 5878   4.623   0.490  10.993 -0.1117 -0.7323 -0.5156
  390TMC3    C3 5879   4.571   0.538  11.111 -0.6615 -0.1443  0.6390
  390TMC3    C4 5880   4.605   0.718  10.907  0.3112 -0.4644 -0.3558
  390TMC3    C5 5881   4.547   0.754  11.027  0.4501  0.6425 -0.6378
  390TMC3    C6 5882   4.529   0.666  11.127  0.3054 -0.2646  0.0208
  390TMC3     C 5883   4.717   0.549  10.765 -0.0749 -0.8218 -0.4690
  390TMC3     O 5884   4.739   0.631  10.677  0.3871  0.2736 -0.0794
  390TMC3     H 5885   4.665   0.390  10.989 -1.6672 -1.3065 -2.9170
  390TMC3    H1 5886   4.614   0.795  10.831  3.2405 -1.7050 -1.2512
  390TMC3    H2 5887   4.486   0.697  11.222 -1.5541  3.1905 -1.9504
  390TMC3    C7 5888   4.502   0.892  11.047  0.1991  0.0456 -0.6118
  390TMC3    C8 5889   4.555   0.448  11.218 -0.5576 -0.1876  0.8143
  390TMC3    O1 5890   4.479   0.952  10.943 -0.3419  0.1775 -0.7954
  390TMC3    O2 5891   4.482   0.351  11.197 -0.1957  0.2284  0.3970
  391MPD2     C 5892   3.286   3.076  11.258 -0.4694  0.6387  0.1195
  391MPD2    C1 5893   3.420   3.105  11.251 -0.4497 -0.2798 -0.3130
  391MPD2    C2 5894   3.484   3.070  11.134  0.3132  0.1181 -0.3444
  391MPD2    C3 5895   3.420   3.001  11.029 -0.3350 -0.2943 -0.1133
  391MPD2    C4 5896   3.286   2.967  11.052  0.7968  0.3727 -0.6571
  391MPD2    C5 5897   3.222   3.007  11.164  0.3733  0.0128 -0.2998
  391MPD2     H 5898   3.590   3.089  11.130  0.5881 -1.3296 -0.0446
  391MPD2    H1 5899   3.231   2.908  10.979  1.4293 -0.8125 -0.1900
  391MPD2    H2 5900   3.238   3.111  11.349  1.0050  1.0666  0.7324
  391MPD2    H3 5901   3.116   2.993  11.180  0.5367  0.7235  1.3774
  391MPD2     N 5902   3.492   2.954  10.917  0.2122 -0.2475  0.1888
  391MPD2    H5 5903   3.593   2.965  10.915  0.2449 -0.4195  0.7998
  391MPD2    N1 5904   3.501   3.158  11.353  0.4830  0.0855  0.4114
  391MPD2    H7 5905   3.601   3.146  11.340  0.4762 -0.3666  0.7631
  392TMC3    C1 5906   3.525   2.842  10.704  0.1735 -0.2036 -0.1350
  392TMC3    C2 5907   3.464   2.831  10.582 -0.5527  0.1176 -0.1559
  392TMC3    C3 5908   3.549   2.835  10.475 -0.3150  0.3894  0.2209
  392TMC3    C4 5909   3.659   2.858  10.713  0.5902  0.4948  0.2816
  392TMC3    C5 5910   3.739   2.835  10.606  0.6310  0.2784  0.0757
  392TMC3    C6 5911   3.690   2.836  10.482  0.6255 -0.1342 -0.0746
  392TMC3     C 5912   3.441   2.882  10.808 -0.3330 -0.8960  0.4597
  392TMC3     O 5913   3.321   2.857  10.779  0.6217  0.0293  0.0873
  392TMC3     H 5914   3.358   2.812  10.567 -0.9319  1.4292  0.8619
  392TMC3    H1 5915   3.711   2.861  10.808  1.5202  1.2642 -0.2566
  392TMC3    H2 5916   3.756   2.812  10.398 -0.0172 -0.8621 -0.3794
  392TMC3    C7 5917   3.880   2.865  10.620  0.0243  0.2771 -0.1918
  392TMC3    C8 5918   3.485   2.782  10.353  0.1248  0.0458 -0.6762
  392TMC3    O1 5919   3.904   2.951  10.705  0.3845  0.7458  0.8998
  392TMC3    O2 5920   3.417   2.679  10.370  0.2530 -0.4827 -0.4581
  393TMC3    C1 5921   2.665   0.715  10.906  0.0988 -0.7040 -0.3469
  393TMC3    C2 5922   2.570   0.786  10.974  0.2782 -0.5783 -0.2086
  393TMC3    C3 5923   2.538   0.732  11.100  0.5101 -0.0849  0.2744
  393TMC3    C4 5924   2.740   0.609  10.951  0.8062 -0.4044 -0.3820
  393TMC3    C5 5925   2.697   0.555  11.069 -0.3518 -0.3109 -0.6578
  393TMC3    C6 5926   2.597   0.619  11.147  0.8805  0.6481  0.3108
  393TMC3     C 5927   2.686   0.758  10.770 -0.3849 -0.2359 -0.3382
  393TMC3     O 5928   2.595   0.809  10.710  0.0089  0.8285  0.1490
  393TMC3     H 5929   2.515   0.865  10.925 -1.0754 -1.1109  0.4607
  393TMC3    H1 5930   2.808   0.548  10.892  0.5657  0.1357 -1.2230
  393TMC3    H2 5931   2.573   0.574  11.243  2.2387 -1.0012 -0.1363
  393TMC3    C7 5932   2.764   0.455  11.137 -1.1176  0.0082 -0.6195
  393TMC3    C8 5933   2.441   0.793  11.184  0.5623 -0.3857 -0.2456
  393TMC3    O1 5934   2.690   0.370  11.179  0.0900 -0.4368  0.3579
  393TMC3    O2 5935   2.373   0.723  11.261  0.0994  0.0454 -0.6241
  394TMC3    C1 5936   0.238   0.481  10.136 -0.1421 -0.0309 -0.0328
  394TMC3    C2 5937   0.159   0.387  10.072  0.1497  0.2195 -0.2092
  394TMC3    C3 5938   0.108   0.423   9.952 -0.3684 -0.3312 -0.1389
  394TMC3    C4 5939   0.264   0.605  10.077 -0.1836  0.0190 -0.1274
  394TMC3    C5 5940   0.215   0.631   9.951 -0.2723  0.1486 -0.2630
  394TMC3    C6 5941   0.140   0.542   9.886 -0.2476 -0.4097  0.3657
  394TMC3     C 5942   0.222   0.484  10.278  0.8902 -0.0388 -0.5912
  394TMC3     O 5943   0.195   0.592  10.334  0.1907 -0.5762  0.5185
  394TMC3     H 5944   0.152   0.286  10.111 -4.5912 -0.4026 -2.6955
  394TMC3    H1 5945   0.332   0.675  10.123 -0.2693 -1.9622  3.0619
  394TMC3    H2 5946   0.115   0.565   9.783  1.0127  1.5977  0.5055
  394TMC3    C7 5947   0.253   0.757   9.884  0.0647  0.3111  0.1763
  394TMC3    C8 5948   4.711   0.387   9.925  0.1968 -0.3982 -0.5013
  394TMC3    O1 5949   0.187   0.798   9.793  0.4942 -0.1213 -0.0973
  394TMC3    O2 5950   4.641   0.456   9.850 -0.3391 -0.3462  0.0604
  395TMC3    C1 5951   4.028   3.326  14.933  0.0092  0.1143  0.0056
  395TMC3    C2 5952   3.959   3.324  14.813 -0.1479 -0.5353  0.1858
  395TMC3    C3 5953   4.009   3.384  14.699 -0.3928 -0.0013 -0.2564
  395TMC3    C4 5954   4.144   3.393  14.942  0.2100  0.2957 -0.1182
  395TMC3    C5 5955   4.197   3.454  14.832 -0.0776 -0.1270 -0.1406
  395TMC3    C6 5956   4.132   3.451  14.707 -0.1396 -0.0577  0.2695
  395TMC3     C 5957   3.955   3.332  15.059  0.1727 -0.1175 -0.2739
  395TMC3     O 5958   4.014   3.391  15.149 -0.0686 -0.3269 -0.4871
  395TMC3     H 5959   3.855   3.295  14.804 -0.1647 -0.4985  0.2591
  395TMC3    H1 5960   4.207   3.396  15.030 -1.8450 -0.8643  1.3928
  395TMC3    H2 5961   4.167   3.502  14.618  1.7413  1.1876  1.7067
  395TMC3    C7 5962   4.286   3.562  14.842  0.1098 -0.1494 -0.9438
  395TMC3    C8 5963   3.930   3.379  14.575 -0.4528  0.1585 -0.2964
  395TMC3    O1 5964   4.289   3.602  14.959  0.0313 -0.0333  0.2548
  395TMC3    O2 5965   3.943   3.469  14.489  0.5660 -0.3840  0.0213
  396MPD2     C 5966   3.840   4.454  17.167 -0.2982 -0.4738 -0.1712
  396MPD2    C1 5967   3.954   4.488  17.241 -0.7023  0.7881 -0.1890
  396MPD2    C2 5968   4.035   4.586  17.187 -0.1705  0.1870  0.0506
  396MPD2    C3 5969   4.007   4.646  17.063  1.0141 -0.9230  0.2454
  396MPD2    C4 5970   3.887   4.607  16.999  0.6380 -0.3167  0.3686
  396MPD2    C5 5971   3.807   4.520  17.055  0.2598 -0.1758 -0.5670
  396MPD2     H 5972   4.137   4.598  17.222  0.5239  0.0223 -1.8822
  396MPD2    H1 5973   3.855   4.657  16.909 -1.3593  0.8137  1.7173
  396MPD2    H2 5974   3.773   4.377  17.205  0.3649 -1.5392 -1.1564
  396MPD2    H3 5975   3.706   4.505  17.017 -0.0984 -0.8089  0.6267
  396MPD2     N 5976   4.090   0.006  17.003  0.0909 -0.0361  0.6479
  396MPD2    H5 5977   4.178   0.018  17.051 -0.4543  1.2402  1.3369
  396MPD2    N1 5978   3.982   4.427  17.361  0.0265 -0.3652  0.3770
  396MPD2    H7 5979   3.918   4.352  17.384 -0.2212 -0.6697 -1.3370
  397TMC3    C1 5980   4.123   4.332  17.535  0.3683 -0.0866 -0.0450
  397TMC3    C2 5981   4.212   4.275  17.451  0.1222 -0.2437 -0.2754
  397TMC3    C3 5982   4.221   4.132  17.439 -0.1580 -0.1491  0.3497
  397TMC3    C4 5983   4.020   4.250  17.573  0.4610 -0.3068 -0.0454
  397TMC3    C5 5984   4.013   4.110  17.544  0.9811  0.2631 -0.7503
  397TMC3    C6 5985   4.126   4.049  17.487  0.5460 -0.0102  0.4728
  397TMC3     C 5986   4.081   4.456  17.459  0.1826  0.5876 -0.5879
  397TMC3     O 5987   4.163   4.542  17.452  0.0078  0.2170  0.5772
  397TMC3     H 5988   4.296   4.341  17.435  0.2488 -0.0719  1.0975
  397TMC3    H1 5989   3.933   4.300  17.612  0.9544  0.5998 -0.0942
  397TMC3    H2 5990   4.145   3.942  17.483 -2.9154 -0.5939  0.0289
  397TMC3    C7 5991   3.932   4.028  17.641 -0.2786 -0.6060 -0.0032
  397TMC3    C8 5992   4.356   4.076  17.448  1.0420  0.7384 -0.3394
  397TMC3    O1 5993   3.917   3.912  17.604 -0.2466  0.7436 -0.2973
  397TMC3    O2 5994   4.370   3.984  17.530 -0.3117 -0.0431 -0.5569
  398MPD2     C 5995   2.133   1.520   0.243  0.3347 -0.0343 -0.2385
  398MPD2    C1 5996   2.189   1.492   0.361 -0.3028  0.1109  0.9920
  398MPD2    C2 5997   2.244   1.590   0.440 -0.0321 -0.5161  0.2580
  398MPD2    C3 5998   2.236   1.721   0.409  0.1235  0.4923 -0.1026
  398MPD2    C4 5999   2.182   1.757   0.289 -0.4708  0.1217  0.0131
  398MPD2    C5 6000   2.128   1.653   0.213  0.0122 -0.2965  0.5188
  398MPD2     H 6001   2.288   1.567   0.537 -1.1953  0.6346  1.0667
  398MPD2    H1 6002   2.159   1.860   0.266 -0.5318  0.0776 -0.1215
  398MPD2    H2 6003   2.097   1.448   0.170 -1.0888 -0.1704  0.5943
  398MPD2    H3 6004   2.095   1.685   0.115  0.6846  0.1826  0.4536
  398MPD2     N 6005   2.289   1.804   0.503  0.0542 -0.7210  0.1338
  398MPD2    H5 6006   2.316   1.769   0.595 -0.5087 -2.5282 -0.3940
  398MPD2    N1 6007   2.195   1.361   0.408  0.1094  0.1634 -0.2069
  398MPD2    H7 6008   2.257   1.327   0.480  0.1988  1.0274  0.1175
  399TMC3    C1 6009   2.131   1.138   0.433  0.2763  0.3143 -0.0224
  399TMC3    C2 6010   2.255   1.090   0.466  0.0725  0.5141  0.0371
  399TMC3    C3 6011   2.266   0.966   0.527  0.4125  0.6018 -0.1885
  399TMC3    C4 6012   2.024   1.060   0.466 -0.5707 -0.5266  0.2293
  399TMC3    C5 6013   2.034   0.945   0.539 -0.3401  0.6836  0.0465
  399TMC3    C6 6014   2.157   0.900   0.569  0.5438 -0.5628 -0.0942
  399TMC3     C 6015   2.103   1.269   0.377 -0.2614  0.3908  0.3537
  399TMC3     O 6016   1.995   1.274   0.320  0.8960  0.0818 -0.2608
  399TMC3     H 6017   2.338   1.149   0.428 -0.8546  1.4391 -0.5659
  399TMC3    H1 6018   1.929   1.111   0.480 -0.7067 -0.8890  0.6331
  399TMC3    H2 6019   2.169   0.801   0.612  0.4891 -0.2958  0.5338
  399TMC3    C7 6020   1.924   0.898   0.623 -0.3253 -0.5450  0.1184
  399TMC3    C8 6021   2.402   0.919   0.556  0.2916 -0.8025 -0.2817
  399TMC3    O1 6022   1.949   0.815   0.708  0.2662 -0.4322 -0.6805
  399TMC3    O2 6023   2.484   1.010   0.563 -0.2213  0.4128  0.6152
  400TMC3    C1 6024   0.637   4.108  17.091  0.3265 -0.1891  0.3930
  400TMC3    C2 6025   0.575   3.988  17.067  0.2359  0.0719  0.1285
  400TMC3    C3 6026   0.451   3.982  17.004  0.4415 -0.6675  0.3611
  400TMC3    C4 6027   0.575   4.225  17.050  0.0779 -0.0191 -0.1651
  400TMC3    C5 6028   0.454   4.215  16.986 -0.5589 -0.1132 -0.8074
  400TMC3    C6 6029   0.393   4.099  16.959  0.3983 -0.2778 -0.2926
  400TMC3     C 6030   0.767   4.109  17.159  0.4596  0.0584  0.0470
  400TMC3     O 6031   0.811   4.004  17.193  0.1947 -0.2315 -0.0752
  400TMC3     H 6032   0.613   3.894  17.106  2.0890 -0.1795 -2.2686
  400TMC3    H1 6033   0.621   4.323  17.062  2.9089 -1.3534 -0.0251
  400TMC3    H2 6034   0.290   4.092  16.926  0.4545  0.9168 -0.7163
  400TMC3    C7 6035   0.377   4.333  16.947 -0.2948  0.0192 -0.8232
  400TMC3    C8 6036   0.379   3.861  17.028  0.2060  0.0165 -0.8101
  400TMC3    O1 6037   0.287   4.325  16.865  0.1541  0.1648  0.3547
  400TMC3    O2 6038   0.427   3.773  17.099  0.0179  0.0369  0.5035
  401MPD2     C 6039   4.116   3.499   1.343 -0.0419  0.2757  0.3056
  401MPD2    C1 6040   4.211   3.403   1.366 -0.0093 -0.0919  0.1083
  401MPD2    C2 6041   4.205   3.285   1.306 -0.0690  0.1936 -0.2125
  401MPD2    C3 6042   4.097   3.258   1.216 -0.4952 -1.2121 -0.2196
  401MPD2    C4 6043   4.002   3.359   1.184  0.7813  0.1912 -0.4106
  401MPD2    C5 6044   4.026   3.477   1.248  0.5226 -0.2727 -0.5160
  401MPD2     H 6045   4.272   3.200   1.314  0.9974  1.0833  0.3751
  401MPD2    H1 6046   3.923   3.339   1.113  0.6454 -2.3783  0.4705
  401MPD2    H2 6047   4.124   3.600   1.382 -1.7922 -0.1486  1.7526
  401MPD2    H3 6048   3.961   3.560   1.222 -0.2331 -0.0926  1.8657
  401MPD2     N 6049   4.090   3.126   1.163  0.3883 -0.2884 -0.0524
  401MPD2    H5 6050   4.165   3.065   1.193 -0.2071 -0.9973 -0.0106
  401MPD2    N1 6051   4.325   3.426   1.448  0.0660 -0.3666  1.0363
  401MPD2    H7 6052   4.397   3.355   1.441  0.7217  0.4256 -0.2884
  402TMC3    C1 6053   4.019   2.940   1.047 -0.2881 -0.2939 -0.0558
  402TMC3    C2 6054   4.069   2.859   1.144  0.1839 -0.3336  0.5550
  402TMC3    C3 6055   4.075   2.721   1.131 -0.0437 -0.7517  0.1350
  402TMC3    C4 6056   4.014   2.897   0.917 -0.5817 -0.1350  0.4238
  402TMC3    C5 6057   4.028   2.767   0.898  0.3243  0.8383 -0.2749
  402TMC3    C6 6058   4.058   2.680   1.000  0.1629  0.1694 -0.9173
  402TMC3     C 6059   3.997   3.085   1.070  0.4201  0.1773 -0.6641
  402TMC3     O 6060   3.906   3.137   1.008 -0.0652  0.6905 -0.3141
  402TMC3     H 6061   4.061   2.911   1.239  0.2178 -0.7575  0.7882
  402TMC3    H1 6062   4.009   2.961   0.829  1.0178  1.1070  1.2619
  402TMC3    H2 6063   4.061   2.574   0.979 -0.5579 -0.2518  1.1514
  402TMC3    C7 6064   4.121   2.734   0.789 -0.5890 -0.0835 -0.2824
  402TMC3    C8 6065   4.155   2.632   1.212 -0.0387  0.2797 -0.8586
  402TMC3    O1 6066   4.099   2.775   0.679 -0.0413 -0.1175 -0.2457
  402TMC3    O2 6067   4.210   2.542   1.153 -0.2613  0.0095  0.2671
  403MPD2     C 6068   1.774   0.750  13.532  0.5382  0.7813 -0.6029
  403MPD2    C1 6069   1.721   0.709  13.653  0.0429 -0.0633  0.2681
  403MPD2    C2 6070   1.764   0.767  13.768 -0.0841  0.5248 -0.0585
  403MPD2    C3 6071   1.872   0.853  13.766 -0.1539 -0.2191  0.2332
  403MPD2    C4 6072   1.923   0.898  13.641  0.0012  0.7326  0.3587
  403MPD2    C5 6073   1.871   0.847  13.525 -0.8932 -0.1672 -0.2217
  403MPD2     H 6074   1.720   0.732  13.861  0.8117 -1.3120 -0.3286
  403MPD2    H1 6075   2.016   0.952  13.627  0.9863 -1.2868 -0.9204
  403MPD2    H2 6076   1.743   0.691  13.446 -0.9829  2.2010 -1.0392
  403MPD2    H3 6077   1.917   0.883  13.434 -0.6950 -0.6723 -0.3185
  403MPD2     N 6078   1.927   0.884  13.888 -0.1003 -0.5210  0.0048
  403MPD2    H5 6079   1.876   0.840  13.963  0.3389 -0.4358  0.3561
  403MPD2    N1 6080   1.631   0.601  13.652  0.2687 -0.3418  0.1364
  403MPD2    H7 6081   1.614   0.558  13.562 -0.9608  0.4345  0.0000
  404TMC3    C1 6082   1.539   0.408  13.742  0.3249 -0.4043 -0.2665
  404TMC3    C2 6083   1.600   0.330  13.826 -0.3329  0.2828 -0.5195
  404TMC3    C3 6084   1.669   0.218  13.786 -0.1330  0.0087  0.5480
  404TMC3    C4 6085   1.531   0.367  13.615  0.3549  0.0290 -0.8984
  404TMC3    C5 6086   1.603   0.264  13.561  0.0101  0.1628  0.2015
  404TMC3    C6 6087   1.675   0.190  13.650 -0.2002  0.0221 -0.8512
  404TMC3     C 6088   1.573   0.547  13.762  0.1697 -0.4831 -0.1250
  404TMC3     O 6089   1.575   0.579  13.881 -0.4842 -0.2299 -0.3982
  404TMC3     H 6090   1.606   0.365  13.928 -0.3758 -0.6965 -0.1790
  404TMC3    H1 6091   1.468   0.426  13.549  1.3101  2.2679  0.1957
  404TMC3    H2 6092   1.755   0.124  13.618 -0.2366 -1.3002  1.7571
  404TMC3    C7 6093   1.659   0.298  13.433 -0.2290 -0.3603  0.3695
  404TMC3    C8 6094   1.769   0.154  13.864  0.5364  0.8653  0.3028
  404TMC3    O1 6095   1.641   0.415  13.400  0.5315 -0.1590 -0.4803
  404TMC3    O2 6096   1.867   0.124  13.797 -0.4554  0.9567  0.0467
  405MPD2     C 6097   2.618   1.854  15.579  0.2936 -0.1836  0.1586
  405MPD2    C1 6098   2.514   1.764  15.561 -0.2748  0.3274 -0.4845
  405MPD2    C2 6099   2.469   1.760  15.431 -0.1018  0.2457  0.8240
  405MPD2    C3 6100   2.520   1.834  15.327 -0.2341 -0.9599 -0.0302
  405MPD2    C4 6101   2.624   1.922  15.349 -0.1205 -0.1041  0.4815
  405MPD2    C5 6102   2.675   1.927  15.479  0.3468 -0.1961  0.6826
  405MPD2     H 6103   2.395   1.685  15.407  0.0330 -0.0959  1.4833
  405MPD2    H1 6104   2.671   1.995  15.284  0.1202 -2.0594 -1.5369
  405MPD2    H2 6105   2.649   1.858  15.683 -2.0323 -1.0055  0.8874
  405MPD2    H3 6106   2.755   1.994  15.509  0.8612 -1.2938  1.7391
  405MPD2     N 6107   2.487   1.793  15.189 -0.6083 -0.1533  0.6270
  405MPD2    H5 6108   2.422   1.716  15.182  0.4059 -0.9749  0.2557
  405MPD2    N1 6109   2.480   1.669  15.658  0.3088 -0.0444 -0.2962
  405MPD2    H7 6110   2.545   1.656  15.734 -0.6018  0.4549  0.5556
  406TMC3    C1 6111   2.489   1.749  14.733  0.3033 -0.1936  0.3302
  406TMC3    C2 6112   2.489   1.613  14.739  0.0616 -0.0021 -0.7873
  406TMC3    C3 6113   2.514   1.551  14.864 -0.0222 -0.1672  0.1510
  406TMC3    C4 6114   2.519   1.823  14.840  0.3025 -0.7207 -0.5903
  406TMC3    C5 6115   2.535   1.761  14.960  0.9059  0.8823  0.1900
  406TMC3    C6 6116   2.534   1.623  14.975 -1.1670  0.0565  0.7618
  406TMC3     C 6117   2.454   1.829  14.619  0.4489 -0.6370 -0.3434
  406TMC3     O 6118   2.513   1.935  14.601  0.0135  0.4933  0.6625
  406TMC3     H 6119   2.471   1.553  14.651  0.6867 -0.0988 -0.8541
  406TMC3    H1 6120   2.521   1.931  14.835 -2.8486 -0.6729 -0.7648
  406TMC3    H2 6121   2.572   1.593  15.072  0.2654 -0.8334 -0.0687
  406TMC3    C7 6122   2.538   1.849  15.077  0.6149  0.5173 -0.3821
  406TMC3    C8 6123   2.475   1.413  14.884 -0.8027  0.0618 -0.3857
  406TMC3    O1 6124   2.596   1.955  15.072 -0.6768  0.0589  0.6320
  406TMC3    O2 6125   2.416   1.355  14.799 -0.1580 -0.3109  0.7291
  407MPD2     C 6126   0.331   2.041   9.691  0.0882 -0.1996 -0.1250
  407MPD2    C1 6127   0.402   2.105   9.794 -0.2854  0.8313 -0.0278
  407MPD2    C2 6128   0.337   2.203   9.867  0.1250 -0.7188  0.2287
  407MPD2    C3 6129   0.208   2.234   9.842  0.3123 -0.3709 -0.8195
  407MPD2    C4 6130   0.139   2.175   9.733 -0.5372  0.1745  0.7032
  407MPD2    C5 6131   0.199   2.076   9.663 -0.8480 -0.1813  0.6788
  407MPD2     H 6132   0.381   2.263   9.946  1.6121  2.2676 -2.8667
  407MPD2    H1 6133   0.038   2.205   9.710  0.7948  3.0437 -1.4605
  407MPD2    H2 6134   0.372   1.961   9.630  1.1329  1.2004 -1.2526
  407MPD2    H3 6135   0.152   2.020   9.583  0.6573 -0.6216  0.0993
  407MPD2     N 6136   0.123   2.328   9.908 -0.2233 -0.4442  0.1221
  407MPD2    H5 6137   0.034   2.353   9.864  1.1544  2.2924 -1.0834
  407MPD2    N1 6138   0.535   2.086   9.818  0.6160 -0.1309 -0.4744
  407MPD2    H7 6139   0.572   2.138   9.897 -0.0636 -0.4882  0.0772
  408TMC3    C1 6140   0.768   2.029   9.792 -0.5713 -0.7037 -1.0133
  408TMC3    C2 6141   0.871   1.968   9.722  0.9140 -0.4947 -0.1939
  408TMC3    C3 6142   0.998   1.995   9.753  0.4849  0.2884 -0.3173
  408TMC3    C4 6143   0.799   2.115   9.884 -0.6478  0.0799 -0.1624
  408TMC3    C5 6144   0.933   2.132   9.918 -0.0101 -0.1956 -0.6439
  408TMC3    C6 6145   1.032   2.071   9.856  0.4955  0.2756  0.1777
  408TMC3     C 6146   0.633   2.026   9.734  0.1802  0.4814 -0.5046
  408TMC3     O 6147   0.626   1.996   9.618  0.3149 -0.1817  0.2402
  408TMC3     H 6148   0.852   1.901   9.639 -0.5149 -0.4644  0.1157
  408TMC3    H1 6149   0.726   2.188   9.919  0.6732  1.1011  0.4316
  408TMC3    H2 6150   1.134   2.093   9.885  0.9811 -0.3278 -1.0729
  408TMC3    C7 6151   0.975   2.222  10.023  0.5274 -0.4779  0.6427
  408TMC3    C8 6152   1.102   1.923   9.680 -0.0548 -0.3776 -0.2570
  408TMC3    O1 6153   1.089   2.256  10.026 -0.6833 -0.0617  0.4153
  408TMC3    O2 6154   1.074   1.859   9.579 -0.3026 -0.4494 -0.2215
  409MPD2     C 6155   4.053   3.647  17.464 -0.6679 -0.2951  0.4781
  409MPD2    C1 6156   4.182   3.588  17.470 -0.4936 -0.1347  0.1044
  409MPD2    C2 6157   4.280   3.631  17.378 -0.0102 -0.2967  0.3341
  409MPD2    C3 6158   4.258   3.726  17.275  0.3511  0.0714 -0.5015
  409MPD2    C4 6159   4.127   3.772  17.270 -0.3824 -0.2924  0.1316
  409MPD2    C5 6160   4.030   3.726  17.358  0.6496  1.1187 -0.1847
  409MPD2     H 6161   4.378   3.585  17.381 -0.7808 -2.0395 -1.2615
  409MPD2    H1 6162   4.103   3.857  17.207  1.0747 -1.1597 -1.5809
  409MPD2    H2 6163   3.970   3.636  17.533 -0.5723 -2.0731  0.3063
  409MPD2    H3 6164   3.939   3.782  17.342 -2.3587 -3.3763  1.1209
  409MPD2     N 6165   4.362   3.785  17.203  0.3310  0.7519  0.7053
  409MPD2    H5 6166   4.329   3.857  17.140  0.6887 -0.1803 -0.5550
  409MPD2    N1 6167   4.223   3.506  17.579 -0.0369 -0.0117  0.5448
  409MPD2    H7 6168   4.318   3.471  17.575  0.2439  0.5908  1.9649
  410TMC3    C1 6169   4.583   3.851  17.159  0.7099  0.0747  0.0587
  410TMC3    C2 6170   4.693   3.897  17.221 -0.0109 -0.1877 -0.4932
  410TMC3    C3 6171   0.020   4.005  17.162 -0.1398  0.0387 -0.2901
  410TMC3    C4 6172   4.542   3.897  17.038 -0.0067  0.0348  0.4955
  410TMC3    C5 6173   4.612   4.001  16.983  0.0169 -0.7135 -0.8733
  410TMC3    C6 6174   4.720   4.065  17.045  0.2522  0.0416  0.7400
  410TMC3     C 6175   4.497   3.775  17.244  0.6610 -0.4030  0.9183
  410TMC3     O 6176   4.540   3.733  17.348 -0.8680  0.1415  0.1308
  410TMC3     H 6177   4.713   3.864  17.323 -0.2246 -3.0025 -1.3770
  410TMC3    H1 6178   4.452   3.859  16.991  0.5167  0.1382 -0.6128
  410TMC3    H2 6179   0.028   4.150  16.998  0.3309 -0.8366 -0.7697
  410TMC3    C7 6180   4.550   4.058  16.866 -0.0686 -0.9463  0.2903
  410TMC3    C8 6181   0.137   4.065  17.226  0.0908  0.1725  0.1133
  410TMC3    O1 6182   4.481   3.985  16.792  0.5067 -0.1664 -0.0400
  410TMC3    O2 6183   0.164   4.178  17.191 -0.4817  0.0041 -0.0127
  411MPD2     C 6184   0.256   4.619  14.895 -0.2533  0.5837  0.1640
  411MPD2    C1 6185   0.123   4.613  14.887  0.6296  0.2801 -0.0384
  411MPD2    C2 6186   0.057   4.507  14.830 -0.1092 -0.3669  0.0674
  411MPD2    C3 6187   0.125   4.399  14.775  0.4102  0.5363 -0.0118
  411MPD2    C4 6188   0.259   4.405  14.772  0.1978  0.8220 -0.5572
  411MPD2    C5 6189   0.323   4.513  14.832  0.4647  0.6482  0.6680
  411MPD2     H 6190   4.689   4.513  14.829 -0.0480  0.7655  0.5496
  411MPD2    H1 6191   0.307   4.326  14.715 -1.6202 -1.1819  0.6520
  411MPD2    H2 6192   0.295   4.711  14.936  0.5644  2.1356 -4.1430
  411MPD2    H3 6193   0.430   4.521  14.824  0.4167 -1.2416 -1.9321
  411MPD2     N 6194   0.061   4.296  14.713 -0.9174 -0.1866  0.1924
  411MPD2    H5 6195   0.118   4.228  14.665  1.3309  1.2155  0.8637
  411MPD2    N1 6196   0.039   4.723  14.920  0.1282  0.6344  0.3593
  411MPD2    H7 6197   4.678   4.717  14.911  0.2830 -0.4486 -0.6984
  412TMC3    C1 6198   4.611   4.161  14.643 -0.3787  0.3654 -0.8989
  412TMC3    C2 6199   4.488   4.119  14.687 -0.4511  0.5108 -0.6968
  412TMC3    C3 6200   4.424   4.016  14.625  0.1751 -0.3403  0.1129
  412TMC3    C4 6201   4.672   4.123  14.524  0.8161  0.0497 -0.3312
  412TMC3    C5 6202   4.602   4.020  14.460  0.2892  0.2152  0.4811
  412TMC3    C6 6203   4.480   3.969  14.508 -0.4368  0.2905 -0.3206
  412TMC3     C 6204   4.665   4.277  14.715  0.6129 -0.0361  0.0726
  412TMC3     O 6205   4.580   4.328  14.779  0.1713  0.0582  0.0324
  412TMC3     H 6206   4.441   4.159  14.776  0.6024  0.4719 -0.1304
  412TMC3    H1 6207   0.021   4.172  14.486  1.6821 -0.7968  0.6432
  412TMC3    H2 6208   4.432   3.889  14.453  1.5390  0.6953 -2.6606
  412TMC3    C7 6209   4.692   3.945  14.370  0.3288 -0.2836 -0.1849
  412TMC3    C8 6210   4.281   4.015  14.641  0.4819  0.4787  0.3037
  412TMC3    O1 6211   0.068   3.960  14.398 -0.1701 -0.1414 -0.1561
  412TMC3    O2 6212   4.225   4.104  14.705 -0.1037  0.1285 -0.2433
  413MPD2     C 6213   1.158   2.961  15.344 -0.4331 -0.5891  0.3851
  413MPD2    C1 6214   1.140   2.858  15.253 -0.4164  0.0261 -0.6856
  413MPD2    C2 6215   1.251   2.792  15.199  0.0249 -0.0452 -0.1649
  413MPD2    C3 6216   1.378   2.839  15.223  0.5375 -0.1489 -0.0532
  413MPD2    C4 6217   1.391   2.943  15.314  0.1636 -0.1624  0.1297
  413MPD2    C5 6218   1.287   2.999  15.380 -0.2909  0.7686 -0.1652
  413MPD2     H 6219   1.247   2.702  15.138  0.7149 -0.0160 -0.2505
  413MPD2    H1 6220   1.485   2.997  15.317  0.4299 -0.6960  1.4410
  413MPD2    H2 6221   1.075   3.017  15.385 -0.4132 -0.1081 -0.2256
  413MPD2    H3 6222   1.286   3.088  15.441 -2.2988 -0.4152  1.5582
  413MPD2     N 6223   1.487   2.767  15.166 -0.4397  0.2171  0.6042
  413MPD2    H5 6224   1.468   2.697  15.094  0.9698  0.0170  0.4315
  413MPD2    N1 6225   1.008   2.819  15.229 -0.0026 -0.3868  0.1613
  413MPD2    H7 6226   0.940   2.859  15.292 -0.8421  1.0135 -1.6134
  414TMC3    C1 6227   1.695   2.666  15.158  0.0198 -0.0923  0.4799
  414TMC3    C2 6228   1.769   2.594  15.239 -0.3170  0.0746 -0.6463
  414TMC3    C3 6229   1.842   2.483  15.194  0.2690 -0.8590 -0.6709
  414TMC3    C4 6230   1.671   2.627  15.029  0.0887  0.3383  0.0004
  414TMC3    C5 6231   1.734   2.518  14.984 -0.3942 -1.1363 -0.1303
  414TMC3    C6 6232   1.820   2.441  15.062 -0.4632 -0.1502 -0.6197
  414TMC3     C 6233   1.616   2.764  15.216  0.7275 -0.1727 -0.0881
  414TMC3     O 6234   1.662   2.816  15.313 -0.3989  0.1251 -0.3423
  414TMC3     H 6235   1.793   2.626  15.340  2.0789  0.9293 -1.4938
  414TMC3    H1 6236   1.620   2.695  14.963 -2.6574  2.0609  3.9009
  414TMC3    H2 6237   1.886   2.368  15.016 -0.6817  0.8373 -2.5024
  414TMC3    C7 6238   1.796   2.550  14.861  0.5100 -0.6475  0.3372
  414TMC3    C8 6239   1.964   2.437  15.272  0.0556 -0.3942 -0.2790
  414TMC3    O1 6240   1.808   2.675  14.844  0.2166  0.8577 -0.1116
  414TMC3    O2 6241   1.986   2.501  15.373  0.1064 -0.4270 -0.0551
  415TMC3    C1 6242   2.449   4.697  10.141 -1.1096  0.4666 -0.1088
  415TMC3    C2 6243   2.584   4.672  10.115 -0.1846  0.6250 -0.3748
  415TMC3    C3 6244   2.643   4.546  10.098 -0.1460 -0.2982 -0.9874
  415TMC3    C4 6245   2.368   4.588  10.167  0.1238  0.5088 -0.2788
  415TMC3    C5 6246   2.425   4.460  10.142 -0.2045 -0.5932  0.2902
  415TMC3    C6 6247   2.557   4.436  10.111 -0.5834  0.4010 -0.0972
  415TMC3     C 6248   2.414   0.080  10.200  0.3621 -0.8517 -0.0425
  415TMC3     O 6249   2.339   0.080  10.298 -0.4047  0.2801  0.7252
  415TMC3     H 6250   2.641   0.021  10.089  0.8629  0.4260  1.2774
  415TMC3    H1 6251   2.262   4.597  10.188  0.3027  0.9473  0.4495
  415TMC3    H2 6252   2.599   4.342  10.078 -1.7976  0.1388 -0.9134
  415TMC3    C7 6253   2.367   4.342  10.199  0.8978 -0.7166  0.4421
  415TMC3    C8 6254   2.784   4.525  10.079 -0.2564  0.5937  0.0671
  415TMC3    O1 6255   2.388   4.237  10.142 -0.3648 -0.1191  0.1855
  415TMC3    O2 6256   2.820   4.416  10.040 -1.1293  0.2096 -0.2609
  416MPD2     C 6257   3.281   4.051  11.709  0.2385  0.4734  0.1231
  416MPD2    C1 6258   3.254   4.016  11.837  0.6434 -0.1747  0.3292
  416MPD2    C2 6259   3.229   3.889  11.875 -0.2185 -0.0640 -0.0013
  416MPD2    C3 6260   3.236   3.791  11.784  0.4834 -0.9218 -0.4173
  416MPD2    C4 6261   3.271   3.816  11.651  0.5015 -0.2244 -0.3568
  416MPD2    C5 6262   3.279   3.947  11.613 -0.6209  0.4003  0.9513
  416MPD2     H 6263   3.189   3.848  11.967 -1.2793  2.7498  0.7923
  416MPD2    H1 6264   3.266   3.746  11.569 -0.2888 -1.3980  0.6948
  416MPD2    H2 6265   3.296   4.155  11.682  0.9141  0.9052  2.1429
  416MPD2    H3 6266   3.297   3.976  11.510  1.6838  0.4093  1.3630
  416MPD2     N 6267   3.213   3.655  11.812 -0.0211 -0.8472  0.5023
  416MPD2    H5 6268   3.244   3.595  11.736 -0.1918 -0.1992 -0.0779
  416MPD2    N1 6269   3.230   4.127  11.920  0.2522 -0.0401  0.0912
  416MPD2    H7 6270   3.245   4.222  11.884  1.0274  0.1187  0.8284
  417TMC3    C1 6271   3.215   4.244  12.125  0.8400  0.3121  0.1219
  417TMC3    C2 6272   3.273   4.253  12.250 -0.0537 -0.4080  0.1424
  417TMC3    C3 6273   3.300   4.380  12.304  0.0622 -0.1762 -0.2623
  417TMC3    C4 6274   3.177   4.353  12.061 -0.6299  0.1837  0.4053
  417TMC3    C5 6275   3.188   4.477  12.128 -0.5133 -0.0506 -0.3458
  417TMC3    C6 6276   3.264   4.498  12.241  0.3157  0.4981 -0.0100
  417TMC3     C 6277   3.217   4.118  12.056  0.2923 -0.0615  0.7630
  417TMC3     O 6278   3.242   4.028  12.133  1.1054 -0.1355  0.0698
  417TMC3     H 6279   3.265   4.171  12.320 -0.8140  1.2504  2.0140
  417TMC3    H1 6280   3.138   4.360  11.960 -0.4062 -1.6057  0.2015
  417TMC3    H2 6281   3.261   4.593  12.292  0.5875  0.7486 -0.4649
  417TMC3    C7 6282   3.203   4.586  12.030 -0.2008  0.1427  0.0884
  417TMC3    C8 6283   3.374   4.398  12.428 -1.0154 -0.0618 -0.4245
  417TMC3    O1 6284   3.307   4.644  12.012  0.1939 -0.3291  0.3509
  417TMC3    O2 6285   3.374   4.504  12.488  0.0223  0.3647 -0.2852
  418TMC3    C1 6286   2.564   2.135   0.624  0.0125 -0.0863  0.0565
  418TMC3    C2 6287   2.439   2.108   0.577 -0.2804  0.2639  0.5724
  418TMC3    C3 6288   2.377   1.989   0.615 -0.1681  0.3100  0.5861
  418TMC3    C4 6289   2.625   2.045   0.708  0.0108 -0.4290 -0.1713
  418TMC3    C5 6290   2.555   1.934   0.756  0.5233 -0.7001  0.2903
  418TMC3    C6 6291   2.434   1.898   0.702 -0.1951 -0.0507 -0.3019
  418TMC3     C 6292   2.641   2.223   0.546 -0.6934  0.4572  0.1676
  418TMC3     O 6293   2.616   2.339   0.535  0.3201  0.2386 -0.3691
  418TMC3     H 6294   2.389   2.188   0.524  0.0020 -0.0451 -0.1608
  418TMC3    H1 6295   2.725   2.064   0.745  0.2577 -0.5916 -0.7575
  418TMC3    H2 6296   2.387   1.804   0.728 -4.3165  1.5757 -1.7414
  418TMC3    C7 6297   2.623   1.827   0.830 -0.0597  0.2013 -0.1051
  418TMC3    C8 6298   2.297   1.937   0.501 -0.3312 -0.5310  0.5183
  418TMC3    O1 6299   2.569   1.718   0.833 -0.7708  0.0140  0.7268
  418TMC3    O2 6300   2.300   2.015   0.403 -0.3869 -0.0336 -0.2976
  419MPD2     C 6301   1.894   3.607  12.619 -0.2391 -0.0547 -0.1720
  419MPD2    C1 6302   1.783   3.674  12.571 -0.0983 -0.3012  0.4277
  419MPD2    C2 6303   1.708   3.750  12.655  0.3397 -0.0413 -0.3131
  419MPD2    C3 6304   1.736   3.772  12.785 -0.0794  0.0822 -0.1020
  419MPD2    C4 6305   1.841   3.700  12.834 -0.9024 -1.4503  0.1261
  419MPD2    C5 6306   1.921   3.620  12.754 -0.2081  0.1741 -0.3280
  419MPD2     H 6307   1.613   3.787  12.619 -0.9022 -2.2072  0.7020
  419MPD2    H1 6308   1.862   3.700  12.940  0.6319 -1.2629 -0.1721
  419MPD2    H2 6309   1.950   3.539  12.554  0.5470 -1.2339  1.7497
  419MPD2    H3 6310   2.007   3.565  12.790 -0.6032  0.2287  0.7059
  419MPD2     N 6311   1.651   3.861  12.866  0.1785 -0.2595 -0.0226
  419MPD2    H5 6312   1.565   3.891  12.822 -0.7983 -0.6592  1.6503
  419MPD2    N1 6313   1.747   3.672  12.434  0.1563  0.1674 -0.5993
  419MPD2    H7 6314   1.661   3.722  12.413  0.5373  1.2061  0.3044
  420TMC3    C1 6315   1.599   3.990  13.052 -0.2090 -0.1705 -0.2316
  420TMC3    C2 6316   1.524   4.061  12.968  0.4659 -0.0409  0.3946
  420TMC3    C3 6317   1.455   4.166  13.015 -1.0592 -0.6534 -0.7077
  420TMC3    C4 6318   1.625   4.031  13.176 -0.1404  0.0919  0.0072
  420TMC3    C5 6319   1.548   4.138  13.228  0.4745 -0.3860 -0.5614
  420TMC3    C6 6320   1.461   4.212  13.150 -0.8321  0.6363  0.5237
  420TMC3     C 6321   1.679   3.885  12.998  0.7059  0.7990 -0.6578
  420TMC3     O 6322   1.777   3.854  13.068 -0.4376 -0.0809 -0.1387
  420TMC3     H 6323   1.503   4.038  12.864  1.0423 -3.0470  0.9364
  420TMC3    H1 6324   1.694   3.981  13.242 -1.5954 -1.7395  0.1580
  420TMC3    H2 6325   1.405   4.297  13.188 -1.4634  1.4102 -2.1139
  420TMC3    C7 6326   1.535   4.148  13.372 -0.4804  0.5174  0.3245
  420TMC3    C8 6327   1.352   4.236  12.937  0.3305  0.0405 -0.8473
  420TMC3    O1 6328   1.582   4.062  13.444 -0.3508 -0.2954  0.4887
  420TMC3    O2 6329   1.326   4.349  12.972  0.2682  0.1394  0.6927
  421TMC3    C1 6330   2.106   0.935  14.039  0.1414 -0.4305  0.1379
  421TMC3    C2 6331   2.026   0.948  14.151 -0.3397 -0.7758  0.1521
  421TMC3    C3 6332   2.077   0.898  14.272 -0.5780  0.3542  0.4625
  421TMC3    C4 6333   2.231   0.880  14.037  0.2460 -0.2057 -0.8747
  421TMC3    C5 6334   2.265   0.820  14.154 -0.6120 -0.1662  0.5003
  421TMC3    C6 6335   2.202   0.846  14.275  0.4771  0.1090 -0.2591
  421TMC3     C 6336   2.052   0.943  13.908 -0.2006  0.0201 -0.3141
  421TMC3     O 6337   2.130   0.990  13.824  0.3260 -0.1059 -0.4758
  421TMC3     H 6338   1.936   1.008  14.142  0.6789  0.9367  1.3365
  421TMC3    H1 6339   2.288   0.863  13.946 -0.0236  1.4368 -1.3636
  421TMC3    H2 6340   2.226   0.792  14.365  0.5145  0.9740  0.2489
  421TMC3    C7 6341   2.397   0.751  14.169 -0.2777  0.2165  0.6864
  421TMC3    C8 6342   2.008   0.938  14.400 -0.3397 -0.2223 -0.0067
  421TMC3    O1 6343   2.449   0.772  14.276  0.4627  0.3937 -0.5308
  421TMC3    O2 6344   1.891   0.971  14.385 -0.3820 -0.3386 -0.2585
  422TMC3    C1 6345   0.203   2.119  12.258 -0.4759  0.2068  0.7133
  422TMC3    C2 6346   0.190   2.212  12.353 -0.1734 -0.9324  0.6919
  422TMC3    C3 6347   0.090   2.202  12.448  0.5442 -0.1608 -0.2913
  422TMC3    C4 6348   0.113   2.020  12.242  0.2414  0.2662 -0.7241
  422TMC3    C5 6349   0.008   2.013  12.334 -0.0806  0.2957  0.2226
  422TMC3    C6 6350   4.734   2.107  12.432 -0.6359 -0.2306  0.2004
  422TMC3     C 6351   0.329   2.125  12.178  0.3747 -0.1592  0.0484
  422TMC3     O 6352   0.387   2.232  12.164  0.1357 -0.7446 -0.1823
  422TMC3     H 6353   0.272   2.278  12.379 -1.1375  0.5554 -0.0463
  422TMC3    H1 6354   0.105   1.949  12.161  0.4592 -1.7731  1.0347
  422TMC3    H2 6355   4.636   2.126  12.475 -1.1827  3.3929 -2.6888
  422TMC3    C7 6356   4.651   1.907  12.309  0.1486 -0.2405  0.6456
  422TMC3    C8 6357   0.078   2.309  12.556 -0.2137  0.1235  0.0790
  422TMC3    O1 6358   4.649   1.847  12.200  0.1296  0.5752 -0.2096
  422TMC3    O2 6359   0.156   2.401  12.538  0.1737 -0.5611  0.3136
  423MPD2     C 6360   1.091   3.573   0.543 -0.3199  0.0970 -0.1177
  423MPD2    C1 6361   1.205   3.495   0.574 -0.4120  0.2332  0.7884
  423MPD2    C2 6362   1.264   3.419   0.472 -0.4261 -0.2837  0.0701
  423MPD2    C3 6363   1.218   3.443   0.341 -0.6807  0.1895 -0.5325
  423MPD2    C4 6364   1.095   3.505   0.318 -0.0249  0.1755  0.1950
  423MPD2    C5 6365   1.029   3.561   0.423  0.1785 -0.0593  0.2040
  423MPD2     H 6366   1.354   3.362   0.493 -0.6003 -0.4536  0.3712
  423MPD2    H1 6367   1.048   3.519   0.221 -0.0227  2.2253  0.4811
  423MPD2    H2 6368   1.043   3.628   0.622 -0.6919 -1.1735  0.5383
  423MPD2    H3 6369   0.930   3.602   0.405 -0.0329 -0.5098  0.3496
  423MPD2     N 6370   1.299   3.386   0.247 -0.1407  0.1698 -0.6561
  423MPD2    H5 6371   1.385   3.345   0.282 -1.1430 -2.1531 -0.9124
  423MPD2    N1 6372   1.263   3.484   0.702  0.1242  0.6295  0.4535
  423MPD2    H7 6373   1.337   3.415   0.705 -0.1036  0.3082 -1.1806
  424TMC3    C1 6374   1.287   3.499   0.940  0.0093  0.0831 -0.3080
  424TMC3    C2 6375   1.331   3.373   0.949  0.0541  0.2070 -0.0825
  424TMC3    C3 6376   1.388   3.328   1.065 -0.1607 -0.5885  0.1723
  424TMC3    C4 6377   1.303   3.589   1.042 -0.2251  0.4895  0.5651
  424TMC3    C5 6378   1.377   3.546   1.154  0.1688 -0.0941 -0.0817
  424TMC3    C6 6379   1.425   3.419   1.162 -0.1745 -0.2780 -0.8413
  424TMC3     C 6380   1.228   3.547   0.817 -0.6995 -0.3302 -0.2316
  424TMC3     O 6381   1.158   3.645   0.825  0.3853 -0.6584 -0.6724
  424TMC3     H 6382   1.301   3.305   0.870  1.8657 -2.3659  1.3967
  424TMC3    H1 6383   1.268   3.692   1.034  0.2742  0.7259  1.4307
  424TMC3    H2 6384   1.480   3.390   1.251 -0.5442 -0.2006 -0.5881
  424TMC3    C7 6385   1.362   3.618   1.282 -0.0713  0.8237 -0.2361
  424TMC3    C8 6386   1.437   3.195   1.081 -0.3545 -0.0807 -0.1090
  424TMC3    O1 6387   1.445   3.603   1.371  0.1078 -0.2118  0.1220
  424TMC3    O2 6388   1.483   3.164   1.190  0.4490  0.3177 -0.4706
  425MPD2     C 6389   0.653   2.454  17.490  0.3937 -0.1653 -0.0278
  425MPD2    C1 6390   0.570   2.355  17.541 -0.4273 -0.2254 -0.2205
  425MPD2    C2 6391   0.448   2.389  17.592 -0.3182  0.2984 -0.2541
  425MPD2    C3 6392   0.401   2.521  17.595 -0.3753  0.1523 -0.1498
  425MPD2    C4 6393   0.484   2.618  17.555 -0.4057  0.2193  0.4262
  425MPD2    C5 6394   0.611   2.586  17.510  0.0882  0.1324  0.4952
  425MPD2     H 6395   0.384   2.309  17.628  1.7932 -1.9736 -1.5829
  425MPD2    H1 6396   0.457   2.722  17.568 -0.5527  0.3056 -0.5672
  425MPD2    H2 6397   0.754   2.430  17.458  0.5397  1.1319 -0.5551
  425MPD2    H3 6398   0.677   2.669  17.488  1.6141 -1.1333  0.3281
  425MPD2     N 6399   0.272   2.545  17.655  0.4749 -0.0903 -0.0272
  425MPD2    H5 6400   0.229   2.462  17.694 -0.5085  0.0299 -0.8462
  425MPD2    N1 6401   0.610   2.224  17.515  0.3097 -0.1460  0.1616
  425MPD2    H7 6402   0.694   2.218  17.459 -0.0557 -0.5494 -0.3464
  426TMC3    C1 6403   0.627   1.998  17.525 -0.6349  0.8859 -0.0050
  426TMC3    C2 6404   0.667   1.977  17.395 -0.1909  0.8626 -0.0439
  426TMC3    C3 6405   0.708   1.851  17.356 -0.2166  0.0009 -0.1243
  426TMC3    C4 6406   0.607   1.893  17.607 -0.0753 -0.1530 -0.1095
  426TMC3    C5 6407   0.636   1.766  17.568  0.7454  0.2767 -0.5073
  426TMC3    C6 6408   0.683   1.745  17.444 -0.3123 -0.5689  0.2919
  426TMC3     C 6409   0.546   2.113  17.563  0.7223  0.3031  0.0067
  426TMC3     O 6410   0.476   2.106  17.663  0.0851  0.2153 -0.3829
  426TMC3     H 6411   0.667   2.056  17.321  0.3995 -0.1352 -1.0974
  426TMC3    H1 6412   0.579   1.931  17.705  3.4081 -0.0064  0.8489
  426TMC3    H2 6413   0.692   1.644  17.405 -0.5813  0.8043 -3.3121
  426TMC3    C7 6414   0.559   1.659  17.622 -0.0943  0.9700  1.2559
  426TMC3    C8 6415   0.680   1.819  17.217 -0.4655 -0.5071 -0.1101
  426TMC3    O1 6416   0.581   1.541  17.594  0.0604  0.4331 -0.2209
  426TMC3    O2 6417   0.771   1.765  17.155 -0.2925  0.0129 -0.6368
  427MPD2     C 6418   4.039   0.011  14.937  0.8827 -0.1438 -0.3545
  427MPD2    C1 6419   3.974   4.644  14.992 -0.5172 -0.7196  0.3078
  427MPD2    C2 6420   3.837   4.642  14.990 -0.0720  0.3898 -0.0834
  427MPD2    C3 6421   3.758   0.014  14.948  0.2932  0.5171  0.0992
  427MPD2    C4 6422   3.827   0.112  14.887 -0.0067 -0.0301 -0.0804
  427MPD2    C5 6423   3.971   0.107  14.874  0.0067  0.0277 -0.0704
  427MPD2     H 6424   3.799   4.552  15.036  1.7079 -0.1026  0.4093
  427MPD2    H1 6425   3.771   0.197  14.850  1.7063  1.4974  0.8830
  427MPD2    H2 6426   4.146   0.016  14.917  0.4916  2.4006 -1.8262
  427MPD2    H3 6427   4.033   0.178  14.822  1.4963 -0.1512  1.4640
  427MPD2     N 6428   3.616   0.015  14.962  0.3508  0.4314  0.1912
  427MPD2    H5 6429   3.569   0.098  14.926  0.3427  0.0563 -0.6663
  427MPD2    N1 6430   4.035   4.537  15.068 -0.1241  0.0071  0.2659
  427MPD2    H7 6431   3.973   4.457  15.082 -0.7680  0.7647  1.8152
  428TMC3    C1 6432   4.183   4.426  15.202  0.2979 -0.6765 -0.2290
  428TMC3    C2 6433   4.073   4.394  15.276  0.3281 -0.3697 -0.0819
  428TMC3    C3 6434   4.087   4.374  15.409 -0.3409  0.2806 -0.5879
  428TMC3    C4 6435   4.303   4.434  15.272 -0.4810 -0.1539  0.3033
  428TMC3    C5 6436   4.319   4.407  15.404  0.0715  0.2920  0.3757
  428TMC3    C6 6437   4.207   4.362  15.471 -0.2511 -0.1295  0.6617
  428TMC3     C 6438   4.166   4.534  15.111 -1.1278 -0.2494  0.5994
  428TMC3     O 6439   4.253   4.617  15.098 -0.0660 -0.2165  0.4548
  428TMC3     H 6440   3.971   4.391  15.241 -0.0175  0.0512  0.8809
  428TMC3    H1 6441   4.384   4.466  15.207 -0.8688  1.3690  0.5612
  428TMC3    H2 6442   4.221   4.330  15.574  0.9079 -0.7170  0.3275
  428TMC3    C7 6443   4.421   4.462  15.488 -0.1255  1.3202  0.2594
  428TMC3    C8 6444   3.980   4.319  15.485  0.2769  0.0816 -0.1780
  428TMC3    O1 6445   4.427   4.420  15.605  0.1439  0.3638 -0.2433
  428TMC3    O2 6446   3.886   4.266  15.426 -0.1416  0.1641 -0.1770
  429MPD2     C 6447   0.005   0.163   0.272  0.1976  0.3475  0.2898
  429MPD2    C1 6448   0.068   0.065   0.202 -0.2443 -0.7279 -0.8226
  429MPD2    C2 6449   0.125   0.099   0.080 -0.2186 -0.1910  0.0291
  429MPD2    C3 6450   0.149   0.231   0.044 -0.1699 -0.7453  0.4309
  429MPD2    C4 6451   0.091   0.327   0.120 -0.3125 -0.1819  0.0587
  429MPD2    C5 6452   0.014   0.292   0.230 -0.3497 -1.0761  0.1020
  429MPD2     H 6453   0.179   0.028   0.019  0.0062  2.9386 -3.4254
  429MPD2    H1 6454   0.106   0.433   0.106 -0.3173 -0.1650  0.1816
  429MPD2    H2 6455   4.684   0.140   0.358 -2.2018 -0.5188 -1.6245
  429MPD2    H3 6456   4.695   0.366   0.283 -0.0655  0.5834 -1.9157
  429MPD2     N 6457   0.213   0.255  17.680 -0.5404 -0.1348 -0.0339
  429MPD2    H5 6458   0.255   0.172  17.641  2.0386  1.4224 -0.5469
  429MPD2    N1 6459   0.077   4.662   0.228  0.5798  0.2530  0.1848
  429MPD2    H7 6460   0.137   4.599   0.176  2.5618  2.5249 -0.2810
  430TMC3    C1 6461   0.291   0.367  17.490 -0.5315  0.3900 -0.6937
  430TMC3    C2 6462   0.274   0.463  17.400  0.4298 -0.3807 -0.1142
  430TMC3    C3 6463   0.358   0.454  17.290 -0.1615 -0.6696 -0.0157
  430TMC3    C4 6464   0.377   0.265  17.476  1.1269 -0.4188 -1.0673
  430TMC3    C5 6465   0.461   0.259  17.367 -0.1680 -0.3964  0.9555
  430TMC3    C6 6466   0.462   0.362  17.277  1.1757  0.0363  0.0837
  430TMC3     C 6467   0.209   0.369  17.611 -0.2193  0.4584 -0.1836
  430TMC3     O 6468   0.137   0.467  17.629 -0.1301 -0.4146 -0.0179
  430TMC3     H 6469   0.189   0.529  17.405  0.6728 -0.0269 -0.6108
  430TMC3    H1 6470   0.385   0.184  17.548 -1.0649  0.6940  0.4174
  430TMC3    H2 6471   0.533   0.372  17.196 -1.6166 -1.7029 -2.5979
  430TMC3    C7 6472   0.450   0.129  17.296 -0.4399 -0.2646 -0.5616
  430TMC3    C8 6473   0.323   0.502  17.155 -0.0332  0.3586 -0.0204
  430TMC3    O1 6474   0.456   0.031  17.366  0.0313  0.6657  0.3382
  430TMC3    O2 6475   0.372   0.448  17.056  0.3170 -0.4223 -0.1582
  431MPD2     C 6476   1.382   4.228  12.427  0.1456 -0.3554 -0.5336
  431MPD2    C1 6477   1.519   4.214  12.419  0.0988  0.3285  0.3287
  431MPD2    C2 6478   1.567   4.121  12.331  0.2143  0.0921  0.3332
  431MPD2    C3 6479   1.482   4.034  12.263 -0.5678 -0.0173 -0.1850
  431MPD2    C4 6480   1.348   4.052  12.272 -0.5226  0.1122 -0.1839
  431MPD2    C5 6481   1.294   4.148  12.356  0.1154 -0.6635 -0.0670
  431MPD2     H 6482   1.674   4.119  12.309  0.8931  0.6407  3.5832
  431MPD2    H1 6483   1.274   4.005  12.209 -0.2606  1.1594 -1.2919
  431MPD2    H2 6484   1.342   4.303  12.494  0.2733 -0.9980  0.2761
  431MPD2    H3 6485   1.187   4.164  12.361  0.3589  1.4129 -1.5256
  431MPD2     N 6486   1.539   3.924  12.193  0.1684  0.0024  0.4440
  431MPD2    H5 6487   1.636   3.936  12.167  0.3666  1.4152  1.8009
  431MPD2    N1 6488   1.610   4.285  12.501  0.6333 -0.2816  0.4273
  431MPD2    H7 6489   1.707   4.257  12.485  0.6428  0.2091 -0.3961
  432TMC3    C1 6490   1.558   3.717  12.098  0.5815 -0.4404  0.3232
  432TMC3    C2 6491   1.636   3.748  11.988  0.2539  0.5675 -0.3553
  432TMC3    C3 6492   1.774   3.718  11.993 -1.3487  0.8663 -0.2299
  432TMC3    C4 6493   1.624   3.655  12.203 -0.3790  0.1489  0.6961
  432TMC3    C5 6494   1.760   3.640  12.204  0.9355  0.4943 -0.2958
  432TMC3    C6 6495   1.836   3.666  12.099  0.1059 -0.0988  0.3768
  432TMC3     C 6496   1.464   3.813  12.157  0.5973  0.3775 -0.6168
  432TMC3     O 6497   1.374   3.763  12.219  0.2998  0.1458 -0.5292
  432TMC3     H 6498   1.603   3.814  11.909 -1.4608  1.6127  1.2328
  432TMC3    H1 6499   1.566   3.623  12.289 -0.6087 -0.8349  0.1669
  432TMC3    H2 6500   1.940   3.638  12.109 -0.3045 -2.6316 -2.2912
  432TMC3    C7 6501   1.832   3.635  12.335 -0.5045  0.3108  0.7359
  432TMC3    C8 6502   1.849   3.792  11.896 -0.3571  0.5226  0.2945
  432TMC3    O1 6503   1.953   3.614  12.338  0.4410  0.1622  0.2107
  432TMC3    O2 6504   1.803   3.803  11.781  0.5838  0.5474 -0.4083
  433MPD2     C 6505   4.257   2.440  10.745  0.2225 -0.2088 -0.2564
  433MPD2    C1 6506   4.343   2.348  10.805 -0.8579  0.1729  1.0127
  433MPD2    C2 6507   4.436   2.393  10.894 -0.3080  0.3986  0.3531
  433MPD2    C3 6508   4.436   2.529  10.929 -0.3255  0.4491  0.3777
  433MPD2    C4 6509   4.334   2.606  10.886 -0.2845 -0.6460 -0.6613
  433MPD2    C5 6510   4.249   2.568  10.790 -0.3939 -0.0118 -0.0362
  433MPD2     H 6511   4.513   2.329  10.934  1.3116  2.2649  0.2159
  433MPD2    H1 6512   4.329   2.712  10.911  1.0265 -0.9505  0.9250
  433MPD2    H2 6513   4.181   2.412  10.673 -0.1115  1.0517 -0.3942
  433MPD2    H3 6514   4.171   2.627  10.744  0.2365  1.0129  0.2084
  433MPD2     N 6515   4.530   2.562  11.030  0.0213 -0.2947 -0.1979
  433MPD2    H5 6516   4.588   2.485  11.060  1.7749  0.7449 -0.9384
  433MPD2    N1 6517   4.343   2.220  10.757  0.6203 -0.5227  0.3337
  433MPD2    H7 6518   4.298   2.200  10.668  0.7699 -1.4043  0.4530
  434TMC3    C1 6519   4.428   2.004  10.751  0.9008  0.1227 -0.3420
  434TMC3    C2 6520   4.491   1.908  10.824 -0.5914  0.8968 -0.7552
  434TMC3    C3 6521   4.560   1.813  10.763  0.2540  0.0211 -0.1932
  434TMC3    C4 6522   4.438   1.999  10.616  0.9433 -0.2277  0.9007
  434TMC3    C5 6523   4.508   1.897  10.554 -1.0937  0.5911  0.5078
  434TMC3    C6 6524   4.574   1.797  10.628 -0.1038 -0.1792  0.3237
  434TMC3     C 6525   4.390   2.120  10.830  0.4460 -0.5476 -0.8428
  434TMC3     O 6526   4.409   2.116  10.951  0.7545 -0.0982  0.1816
  434TMC3     H 6527   4.487   1.912  10.932  0.0288 -2.8434 -0.5925
  434TMC3    H1 6528   4.401   2.076  10.549  0.6646 -1.0872  0.0561
  434TMC3    H2 6529   4.616   1.708  10.584 -0.0080  0.0497 -0.0466
  434TMC3    C7 6530   4.487   1.867  10.409  0.1017  0.1587 -0.8093
  434TMC3    C8 6531   4.655   1.732  10.838  0.4697  0.4163 -0.6875
  434TMC3    O1 6532   4.403   1.932  10.353  0.1554 -0.2384  0.2733
  434TMC3    O2 6533   4.625   1.712  10.955  0.1728 -0.8149 -0.1197
  435MPD2     C 6534   2.077   3.599  15.586 -0.3255  0.9043  0.0178
  435MPD2    C1 6535   2.047   3.565  15.717 -0.6682  0.9772  0.6489
  435MPD2    C2 6536   2.137   3.489  15.782 -0.0212 -0.4263 -0.4652
  435MPD2    C3 6537   2.253   3.442  15.729 -0.2681  0.0833 -0.3972
  435MPD2    C4 6538   2.277   3.472  15.598 -0.3562 -0.1224 -0.1947
  435MPD2    C5 6539   2.193   3.553  15.527  0.1272  0.6003 -0.2408
  435MPD2     H 6540   2.110   3.447  15.878  0.0570  1.9738  0.6047
  435MPD2    H1 6541   2.364   3.437  15.545 -0.4161 -0.7025  0.0908
  435MPD2    H2 6542   2.004   3.642  15.518 -0.1300 -0.1432 -0.8539
  435MPD2    H3 6543   2.218   3.573  15.423  2.9146  1.2255  0.5552
  435MPD2     N 6544   2.330   3.360  15.807 -0.4492  0.2467 -0.7011
  435MPD2    H5 6545   2.294   3.324  15.894 -0.5163  1.0475 -0.3987
  435MPD2    N1 6546   1.929   3.599  15.779 -0.6980 -0.2135  0.0064
  435MPD2    H7 6547   1.913   3.548  15.865 -0.7838 -1.1063 -0.5462
  436TMC3    C1 6548   1.663   3.738  16.045 -0.4108 -0.1157  0.0990
  436TMC3    C2 6549   1.761   3.716  15.957 -0.0306 -0.1984  0.1004
  436TMC3    C3 6550   1.724   3.688  15.828 -0.0116 -0.3331 -0.2434
  436TMC3    C4 6551   1.530   3.714  16.014 -0.0191 -0.1695  0.3053
  436TMC3    C5 6552   1.500   3.664  15.896 -0.2969  0.6105 -0.6432
  436TMC3    C6 6553   1.593   3.662  15.795  0.0926  1.1163 -0.5383
  436TMC3     C 6554   1.703   3.774  16.182 -0.2035  0.3418 -0.2227
  436TMC3     O 6555   1.817   3.820  16.178 -0.0273 -0.5454 -0.7369
  436TMC3     H 6556   1.866   3.718  15.984  0.4130 -0.2180 -1.5919
  436TMC3    H1 6557   1.455   3.755  16.080  0.4755 -0.2165  0.8902
  436TMC3    H2 6558   1.568   3.626  15.696 -1.8336  0.8764  0.0444
  436TMC3    C7 6559   1.361   3.641  15.856  0.2518  0.8088 -0.6094
  436TMC3    C8 6560   1.822   3.663  15.730 -0.4498  0.3620 -0.2710
  436TMC3    O1 6561   1.285   3.708  15.922 -0.2777 -0.0932  0.9707
  436TMC3    O2 6562   1.792   3.686  15.612 -0.0773  0.0502 -0.2183
  437TMC3    C1 6563   1.077   0.255  11.827  0.1094 -0.5664 -0.1261
  437TMC3    C2 6564   1.084   0.324  11.710 -0.3237  0.0423  0.4922
  437TMC3    C3 6565   1.054   0.459  11.700  0.7579  0.6249 -0.0083
  437TMC3    C4 6566   1.036   0.326  11.939 -0.1631 -0.3662  0.0472
  437TMC3    C5 6567   1.039   0.463  11.930  0.3360 -0.4970 -0.2690
  437TMC3    C6 6568   1.045   0.530  11.812  0.5697 -0.0233 -0.2122
  437TMC3     C 6569   1.145   0.127  11.837 -0.1770 -0.7487  0.7871
  437TMC3     O 6570   1.191   0.088  11.725  0.3516 -0.1373 -0.2001
  437TMC3     H 6571   1.117   0.281  11.615  1.2942  2.6077 -0.1143
  437TMC3    H1 6572   1.025   0.275  12.034 -0.6284 -2.2932 -1.0498
  437TMC3    H2 6573   1.036   0.638  11.814 -0.8220 -0.1395 -0.2750
  437TMC3    C7 6574   1.005   0.539  12.048  0.0245 -0.1028  0.0981
  437TMC3    C8 6575   1.085   0.520  11.570  0.1706 -0.8374  0.3942
  437TMC3    O1 6576   0.959   0.654  12.046  0.3049 -0.0191  0.1737
  437TMC3    O2 6577   1.117   0.447  11.478  0.8276  0.0067 -0.0469
  438MPD2     C 6578   3.082   1.383  17.005  0.3559 -0.4720  0.2749
  438MPD2    C1 6579   3.074   1.249  17.041  0.4729 -0.4405  0.1483
  438MPD2    C2 6580   3.039   1.210  17.169  0.2848  0.2752  0.1113
  438MPD2    C3 6581   3.010   1.307  17.266  0.1904  0.3996 -0.5347
  438MPD2    C4 6582   3.026   1.436  17.235 -0.2753 -0.1729 -0.9376
  438MPD2    C5 6583   3.073   1.471  17.112  0.1004 -0.0956 -0.1821
  438MPD2     H 6584   3.053   1.110  17.207  3.6046  0.5066 -0.5523
  438MPD2    H1 6585   3.013   1.518  17.304  0.3729  1.5161 -2.8347
  438MPD2    H2 6586   3.120   1.419  16.910  0.7641  0.1932  0.6878
  438MPD2    H3 6587   3.094   1.576  17.099 -0.5902 -0.2851 -2.6966
  438MPD2     N 6588   2.971   1.278  17.395 -0.1556  0.7031  0.1517
  438MPD2    H5 6589   2.945   1.357  17.453 -0.0859  0.0768  1.0469
  438MPD2    N1 6590   3.120   1.150  16.949 -0.2360  0.3017  0.1188
  438MPD2    H7 6591   3.108   1.057  16.987  0.1993  0.6626  1.1429
  439TMC3    C1 6592   3.210   1.024  16.772 -0.1134 -0.2200 -0.0490
  439TMC3    C2 6593   3.239   1.008  16.637 -0.2109 -0.7794  0.4033
  439TMC3    C3 6594   3.299   0.890  16.601 -0.0978  0.1923 -0.9989
  439TMC3    C4 6595   3.246   0.924  16.860  0.2597 -0.9274  0.6704
  439TMC3    C5 6596   3.308   0.806  16.824  0.0501  0.2002  0.1726
  439TMC3    C6 6597   3.330   0.787  16.689  0.3049 -0.1013  0.5720
  439TMC3     C 6598   3.155   1.156  16.818 -0.5335  0.4351  0.5676
  439TMC3     O 6599   3.157   1.250  16.743  0.7290  0.6880 -0.3592
  439TMC3     H 6600   3.217   1.092  16.572 -3.3414 -1.3451  0.7149
  439TMC3    H1 6601   3.243   0.947  16.966  2.2318 -0.6670  0.6835
  439TMC3    H2 6602   3.371   0.698  16.643  3.4747  1.5090  0.2207
  439TMC3    C7 6603   3.405   0.754  16.920 -0.6184  0.7519 -0.2363
  439TMC3    C8 6604   3.321   0.860  16.460 -0.1055 -0.8037  0.0135
  439TMC3    O1 6605   3.386   0.783  17.037  0.0559 -0.4923  0.0175
  439TMC3    O2 6606   3.378   0.753  16.435 -0.4408  0.6717 -0.4980
  440MPD2     C 6607   1.735   2.245  15.420 -0.1402 -0.6977  0.2361
  440MPD2    C1 6608   1.746   2.343  15.520 -0.0195 -0.8769 -0.1991
  440MPD2    C2 6609   1.826   2.314  15.628 -0.2305  1.0570 -0.4643
  440MPD2    C3 6610   1.898   2.200  15.637  0.0181  0.1202  0.5213
  440MPD2    C4 6611   1.890   2.101  15.543 -0.6039  0.1259 -0.9428
  440MPD2    C5 6612   1.809   2.127  15.431 -0.8603 -0.5365 -0.2323
  440MPD2     H 6613   1.834   2.389  15.706 -0.9633 -0.9974  1.5640
  440MPD2    H1 6614   1.951   2.011  15.550  2.8558  2.4412 -1.3554
  440MPD2    H2 6615   1.677   2.268  15.332  2.5208  1.3649 -0.9887
  440MPD2    H3 6616   1.799   2.056  15.349  1.9451 -0.3495 -0.7153
  440MPD2     N 6617   1.979   2.174  15.752 -0.0118 -0.3340  0.1163
  440MPD2    H5 6618   2.027   2.085  15.753 -0.4121 -0.5561 -0.5767
  440MPD2    N1 6619   1.664   2.463  15.527  0.4180 -0.7523 -0.3605
  440MPD2    H7 6620   1.673   2.527  15.605 -0.2042 -3.6982  2.1635
  441TMC3    C1 6621   2.131   2.229  15.910 -0.7559  0.0860  0.1362
  441TMC3    C2 6622   2.240   2.276  15.837 -0.6387 -0.3948  0.0816
  441TMC3    C3 6623   2.351   2.200  15.827 -0.0414 -0.1659 -0.2094
  441TMC3    C4 6624   2.120   2.099  15.962 -0.1839 -0.0560  0.4350
  441TMC3    C5 6625   2.237   2.025  15.949 -0.3698 -0.2950  0.2447
  441TMC3    C6 6626   2.351   2.074  15.883 -0.0654  0.4350 -0.4637
  441TMC3     C 6627   2.020   2.271  15.839 -0.5864 -0.8577 -0.1283
  441TMC3     O 6628   2.018   2.391  15.826  0.4508 -0.5928 -0.9446
  441TMC3     H 6629   2.234   2.380  15.806  0.1867 -0.1711  0.6675
  441TMC3    H1 6630   2.034   2.059  16.015 -0.7745  0.9745  0.2695
  441TMC3    H2 6631   2.431   2.004  15.861 -0.5562 -0.4994  0.7340
  441TMC3    C7 6632   2.224   1.889  15.992  1.0278 -0.3152 -0.0080
  441TMC3    C8 6633   2.394   2.193  15.694  0.2847 -0.2911  0.6399
  441TMC3    O1 6634   2.116   1.839  15.978 -0.1979 -0.0296 -0.0206
  441TMC3    O2 6635   2.471   2.102  15.665  0.3426 -0.0651  0.4407
  442MPD2     C 6636   0.293   2.118  16.637 -0.0619 -0.1351  0.5746
  442MPD2    C1 6637   0.179   2.115  16.716 -0.1952 -0.0404 -0.3708
  442MPD2    C2 6638   0.103   1.998  16.728  0.0219  0.0133  0.2195
  442MPD2    C3 6639   0.146   1.885  16.665  0.1680 -0.2969 -0.0380
  442MPD2    C4 6640   0.258   1.888  16.585 -0.3528 -0.2399  0.6647
  442MPD2    C5 6641   0.331   2.007  16.573 -0.9690  0.7260  0.3751
  442MPD2     H 6642   0.020   2.010  16.798 -0.8666 -1.9042 -0.5175
  442MPD2    H1 6643   0.276   1.803  16.520  0.6301  0.9265 -0.5839
  442MPD2    H2 6644   0.367   2.197  16.649  0.6330 -0.9727  1.7899
  442MPD2    H3 6645   0.420   2.020  16.512 -1.4545 -0.4530 -0.5847
  442MPD2     N 6646   0.070   1.765  16.682 -0.5119  0.3089  0.5604
  442MPD2    H5 6647   0.106   1.682  16.635  2.2219  1.0898  1.2808
  442MPD2    N1 6648   0.149   2.212  16.807 -0.2991 -0.1617 -0.0981
  442MPD2    H7 6649   0.072   2.195  16.872  2.5014 -0.7266  3.0703
  443TMC3    C1 6650   0.131   2.403  16.925  0.2565  0.3304 -0.0223
  443TMC3    C2 6651   0.102   2.536  16.910  0.3198 -0.3030  0.6025
  443TMC3    C3 6652   4.733   2.582  16.982 -0.2421 -0.6672  0.1204
  443TMC3    C4 6653   0.065   2.314  17.012  0.1954  0.4879  0.0367
  443TMC3    C5 6654   4.707   2.371  17.085 -0.1875  0.6415 -0.3584
  443TMC3    C6 6655   4.666   2.503  17.074  0.4798  0.4728  1.0012
  443TMC3     C 6656   0.199   2.339  16.822 -1.1605 -0.0465 -0.5453
  443TMC3     O 6657   0.285   2.398  16.760  0.3737 -0.6167 -0.2523
  443TMC3     H 6658   0.152   2.595  16.834 -0.5972  1.0868  1.0603
  443TMC3    H1 6659   0.093   2.211  17.033  0.7131  0.6880  0.3262
  443TMC3    H2 6660   4.572   2.529  17.121  0.5143  0.7349  0.9225
  443TMC3    C7 6661   4.634   2.280  17.168  0.4631 -0.1428  0.1691
  443TMC3    C8 6662   4.663   2.712  16.958  0.2777 -0.6631 -0.4534
  443TMC3    O1 6663   4.628   2.163  17.136  0.7207 -0.2962  0.3680
  443TMC3    O2 6664   4.619   2.760  17.061  0.1574 -0.3515 -0.5172
  444MPD2     C 6665   0.404   1.523  17.331 -0.2789 -0.0327 -0.1170
  444MPD2    C1 6666   0.293   1.446  17.325  0.1538 -0.1685  0.2110
  444MPD2    C2 6667   0.280   1.338  17.236 -0.4048 -0.3891 -0.4212
  444MPD2    C3 6668   0.385   1.297  17.154 -0.1815 -0.6477  0.0228
  444MPD2    C4 6669   0.499   1.369  17.173  0.1213  0.0234  0.0370
  444MPD2    C5 6670   0.507   1.485  17.246  0.2011 -0.3873  0.3348
  444MPD2     H 6671   0.190   1.279  17.242  0.9001 -2.3668 -0.1913
  444MPD2    H1 6672   0.586   1.353  17.111 -0.5004 -1.9284 -0.3299
  444MPD2    H2 6673   0.422   1.612  17.391  1.2074 -0.0694 -0.5259
  444MPD2    H3 6674   0.601   1.539  17.256  0.4053 -0.4636 -1.0953
  444MPD2     N 6675   0.370   1.181  17.070  0.3201  0.3750  0.1725
  444MPD2    H5 6676   0.275   1.147  17.059  0.7565 -0.6684 -0.3770
  444MPD2    N1 6677   0.180   1.460  17.413  0.6468 -0.3607  0.1719
  444MPD2    H7 6678   0.111   1.386  17.422 -1.1472  1.2027 -0.7141
  445TMC3    C1 6679   0.452   1.006  16.917  0.6767 -0.1649 -0.3700
  445TMC3    C2 6680   0.326   0.989  16.865 -0.3521  0.2567  0.3318
  445TMC3    C3 6681   0.310   0.878  16.779  0.4043  0.0027 -0.3922
  445TMC3    C4 6682   0.561   0.923  16.891 -0.1836 -0.3683  0.0448
  445TMC3    C5 6683   0.539   0.811  16.814 -0.4294  0.3751 -0.8009
  445TMC3    C6 6684   0.415   0.792  16.762  0.2968  0.2984  0.1341
  445TMC3     C 6685   0.483   1.118  17.011 -0.0643 -0.2362  1.1969
  445TMC3     O 6686   0.601   1.145  17.023  0.2261 -0.3632  0.5465
  445TMC3     H 6687   0.255   1.069  16.883  0.2119  1.0466 -0.9240
  445TMC3    H1 6688   0.656   0.942  16.940 -1.0240 -0.6216  1.7689
  445TMC3    H2 6689   0.397   0.697  16.712  0.4387  0.4258 -0.1598
  445TMC3    C7 6690   0.647   0.786  16.726 -0.5279 -0.5699 -0.5729
  445TMC3    C8 6691   0.181   0.829  16.727  0.3637 -0.1364  0.0883
  445TMC3    O1 6692   0.732   0.874  16.723  0.2551  0.3540  0.5729
  445TMC3    O2 6693   0.176   0.754  16.631 -0.0279  0.1110  0.1740
  446MPD2     C 6694   4.267   1.665  11.281 -1.3052  0.4131 -0.8782
  446MPD2    C1 6695   4.237   1.790  11.228 -0.4831 -0.7061  0.3489
  446MPD2    C2 6696   4.342   1.873  11.183  0.4018  0.7248 -0.0152
  446MPD2    C3 6697   4.470   1.829  11.202  0.0324  0.6866 -0.2566
  446MPD2    C4 6698   4.495   1.699  11.251  0.2616  0.1031  0.1355
  446MPD2    C5 6699   4.396   1.614  11.291 -0.1276 -0.4213  0.4138
  446MPD2     H 6700   4.326   1.971  11.139 -1.4298  0.9338  1.1129
  446MPD2    H1 6701   4.595   1.657  11.243  0.5942  0.7064  1.1668
  446MPD2    H2 6702   4.191   1.597  11.317 -1.4863  1.4114  0.6073
  446MPD2    H3 6703   4.403   1.512  11.326  1.5752 -0.3221  0.3749
  446MPD2     N 6704   4.564   1.925  11.175 -0.3139  0.3705 -0.0129
  446MPD2    H5 6705   4.533   2.006  11.122  2.1717  1.0828 -0.3859
  446MPD2    N1 6706   4.108   1.846  11.218 -0.1224  0.6498 -0.1601
  446MPD2    H7 6707   4.105   1.937  11.174  0.6041 -0.0860 -1.7513
  447TMC3    C1 6708   0.046   2.005  11.145 -0.2434 -0.1080 -0.2839
  447TMC3    C2 6709   0.026   2.050  11.018  0.5586 -0.6211  0.5123
  447TMC3    C3 6710   0.132   2.102  10.946 -0.0944  0.0517  0.0948
  447TMC3    C4 6711   0.170   2.016  11.208  0.0607 -0.2803  0.5692
  447TMC3    C5 6712   0.270   2.076  11.134 -0.3352  0.6579 -0.0822
  447TMC3    C6 6713   0.259   2.124  11.007 -0.1811 -0.0666  0.5234
  447TMC3     C 6714   4.695   1.911  11.204 -0.1667 -0.1122  0.6323
  447TMC3     O 6715   0.013   1.829  11.280  0.0483 -0.0921 -0.4176
  447TMC3     H 6716   4.669   2.055  10.972  0.9953  0.8022 -0.2445
  447TMC3    H1 6717   0.177   1.984  11.311  1.4311 -0.7565  0.3229
  447TMC3    H2 6718   0.328   2.163  10.933 -2.2284  3.5075  0.4671
  447TMC3    C7 6719   0.406   2.076  11.198  0.5725 -0.7891 -0.3389
  447TMC3    C8 6720   0.083   2.205  10.861  0.5634 -0.7920  0.1737
  447TMC3    O1 6721   0.497   2.107  11.123  0.5845  0.1774 -0.4644
  447TMC3    O2 6722   4.732   2.176  10.785  0.3056 -0.4922  0.1079
  448TMC3    C1 6723   2.793   3.181  17.294  0.1374 -0.0610 -0.2156
  448TMC3    C2 6724   2.817   3.058  17.236  0.2753 -0.4174 -0.3699
  448TMC3    C3 6725   2.927   2.988  17.278 -0.4222 -0.6931  0.1216
  448TMC3    C4 6726   2.856   3.236  17.401 -0.2420 -0.0143 -0.2993
  448TMC3    C5 6727   2.949   3.153  17.458  0.6289 -0.3649 -0.2109
  448TMC3    C6 6728   2.985   3.034  17.394  0.2965  0.2267 -0.0722
  448TMC3     C 6729   2.672   3.245  17.248 -0.6187  0.6782  0.1007
  448TMC3     O 6730   2.632   3.233  17.130  0.4486  0.1062 -0.0750
  448TMC3     H 6731   2.753   3.010  17.163 -0.0580 -2.5365  1.3063
  448TMC3    H1 6732   2.838   3.338  17.433 -0.2385 -0.2169  0.3382
  448TMC3    H2 6733   3.070   2.980  17.436  0.5975  1.2936  0.6910
  448TMC3    C7 6734   3.039   3.218  17.559 -0.2502  0.0897 -0.8985
  448TMC3    C8 6735   2.954   2.850  17.239 -0.0845  0.7540  0.0782
  448TMC3    O1 6736   3.023   3.337  17.572 -0.4409 -0.2420  0.7430
  448TMC3    O2 6737   3.013   2.785  17.326 -0.0099 -0.0113 -0.1667
  449MPD2     C 6738   0.062   1.019  13.998  0.1936  0.1994  0.3733
  449MPD2    C1 6739   4.700   1.098  13.953  0.2716  0.5690 -0.6065
  449MPD2    C2 6740   4.571   1.085  13.977 -0.0422 -0.7257  0.0200
  449MPD2    C3 6741   4.527   0.991  14.068  0.2630  0.4530 -0.2203
  449MPD2    C4 6742   4.625   0.913  14.123  0.1668  0.0132  0.0967
  449MPD2    C5 6743   0.018   0.917  14.091  0.1115 -0.0625 -0.3202
  449MPD2     H 6744   4.498   1.144  13.922 -1.9662 -1.1326  2.0885
  449MPD2    H1 6745   4.604   0.849  14.209  1.2413 -1.4146 -0.7012
  449MPD2    H2 6746   0.166   1.021  13.968  0.1281 -1.4278  0.0620
  449MPD2    H3 6747   0.092   0.853  14.137 -0.3298  1.4697  2.4893
  449MPD2     N 6748   4.394   0.991  14.098  0.0379 -0.2762 -0.6384
  449MPD2    H5 6749   4.352   1.061  14.037 -1.4663  1.5139  2.4595
  449MPD2    N1 6750   4.726   1.195  13.860  0.4785  0.0132 -0.3126
  449MPD2    H7 6751   4.643   1.239  13.823 -0.6594  1.0072  3.3930
  450TMC3    C1 6752   0.072   1.319  13.685 -0.1213 -0.0999  0.2063
  450TMC3    C2 6753   0.087   1.294  13.556 -0.1003 -0.6378 -0.2074
  450TMC3    C3 6754   0.016   1.374  13.474  0.1223 -0.6295  0.6112
  450TMC3    C4 6755   4.722   1.415  13.729 -0.0997 -0.9969  0.1276
  450TMC3    C5 6756   4.643   1.480  13.638  0.4818 -0.7668 -0.5738
  450TMC3    C6 6757   4.664   1.469  13.505  0.5171  0.2628 -0.0179
  450TMC3     C 6758   0.096   1.214  13.786  0.8521 -0.2493 -0.0914
  450TMC3     O 6759   0.200   1.147  13.779  0.4802  0.0332 -0.0538
  450TMC3     H 6760   0.151   1.212  13.526  0.6094  0.0954 -0.7005
  450TMC3    H1 6761   4.712   1.435  13.835  0.3169  2.0704 -0.4110
  450TMC3    H2 6762   4.603   1.521  13.433 -0.7232 -1.8789 -0.5256
  450TMC3    C7 6763   4.510   1.430  13.673 -0.0050 -0.0665 -0.0621
  450TMC3    C8 6764   0.044   1.369  13.328  0.6617 -0.2030  0.6001
  450TMC3    O1 6765   4.508   1.317  13.723  0.0042  0.0754 -0.0691
  450TMC3    O2 6766   0.031   1.473  13.269  0.6726  0.5673 -0.0965
  451MPD2     C 6767   0.888   4.364   1.533 -0.4139 -0.3632  1.0771
  451MPD2    C1 6768   0.907   4.392   1.401  0.8139  0.2495  0.3161
  451MPD2    C2 6769   1.019   4.331   1.334  0.8412  0.0177  0.5318
  451MPD2    C3 6770   1.109   4.259   1.414 -0.9519 -0.2821  0.1143
  451MPD2    C4 6771   1.098   4.245   1.548  0.0198 -0.4763  0.1575
  451MPD2    C5 6772   0.986   4.297   1.609 -0.6184  0.3137 -0.3529
  451MPD2     H 6773   1.038   4.346   1.229 -0.0629 -0.9961  0.2261
  451MPD2    H1 6774   1.168   4.192   1.612 -1.0932 -0.4658  1.3835
  451MPD2    H2 6775   0.808   4.406   1.591 -0.5912  0.5986  0.1282
  451MPD2    H3 6776   0.970   4.272   1.713  0.6941 -1.4313 -0.5882
  451MPD2     N 6777   1.224   4.187   1.363 -0.2460  0.0013 -0.6844
  451MPD2    H5 6778   1.283   4.146   1.434 -2.7205 -1.1378  0.6955
  451MPD2    N1 6779   0.817   4.486   1.347  0.3973  0.2408 -0.0149
  451MPD2    H7 6780   0.744   4.519   1.409  0.2987 -0.8492  0.4449
  452TMC3    C1 6781   1.390   4.148   1.204  0.1973  0.0819  0.7407
  452TMC3    C2 6782   1.417   4.086   1.086 -0.5343  0.3196  0.1083
  452TMC3    C3 6783   1.511   4.142   1.002 -0.0208  0.0897 -0.6122
  452TMC3    C4 6784   1.471   4.241   1.255  0.3298  0.7465  1.2190
  452TMC3    C5 6785   1.557   4.293   1.170 -0.6967 -0.4257 -0.6731
  452TMC3    C6 6786   1.586   4.242   1.047  0.1510 -0.1757 -0.2915
  452TMC3     C 6787   1.251   4.171   1.233  0.3711  0.3995  0.0925
  452TMC3     O 6788   1.175   4.182   1.141  0.8469  0.2665  0.0586
  452TMC3     H 6789   1.328   4.040   1.044 -2.7211  1.4398  3.5633
  452TMC3    H1 6790   1.439   4.302   1.338 -0.8127  1.7077  0.0727
  452TMC3    H2 6791   1.666   4.282   0.986 -1.9703  0.0448 -2.9142
  452TMC3    C7 6792   1.530   4.438   1.161  0.2230  0.2953  0.3974
  452TMC3    C8 6793   1.469   4.165   0.862  0.2235  0.1782  0.3881
  452TMC3    O1 6794   1.562   4.511   1.257 -0.0271  0.5618  0.4312
  452TMC3    O2 6795   1.493   4.277   0.815 -0.4441 -0.1327  0.0988
  453TMC3    C1 6796   2.181   1.774  12.318 -0.6950  0.0121 -0.8609
  453TMC3    C2 6797   2.111   1.662  12.340  0.4023 -0.4137 -0.4267
  453TMC3    C3 6798   1.987   1.651  12.282 -0.0616  0.5591  0.4896
  453TMC3    C4 6799   2.132   1.878  12.245 -0.0139  0.6792  0.0911
  453TMC3    C5 6800   2.017   1.860  12.175  0.3643  0.2075 -0.9220
  453TMC3    C6 6801   1.945   1.750  12.203  0.2035 -0.5039 -0.1000
  453TMC3     C 6802   2.320   1.781  12.353 -0.5416 -0.1521  0.4716
  453TMC3     O 6803   2.363   1.896  12.348 -0.7097 -0.0871 -0.3270
  453TMC3     H 6804   2.138   1.591  12.417  3.5054  2.8336  1.4257
  453TMC3    H1 6805   2.195   1.963  12.224  1.7158 -0.8220 -0.8563
  453TMC3    H2 6806   1.849   1.735  12.154 -0.4103 -2.2540  1.6590
  453TMC3    C7 6807   2.020   1.878  12.026 -0.4311  1.0738  0.2074
  453TMC3    C8 6808   1.893   1.553  12.334  0.2910  0.0172 -0.0680
  453TMC3    O1 6809   1.978   1.786  11.954  0.0929  0.7319  0.2092
  453TMC3    O2 6810   1.776   1.585  12.339  0.3484  0.0412 -0.0890
  454MPD2     C 6811   0.525   1.579  15.903 -0.5628 -0.3093  0.1042
  454MPD2    C1 6812   0.553   1.446  15.930  0.4950  0.4078 -0.9099
  454MPD2    C2 6813   0.618   1.414  16.053  0.0993  0.8016 -0.0785
  454MPD2    C3 6814   0.654   1.513  16.138 -0.0568  0.3727  0.6336
  454MPD2    C4 6815   0.619   1.640  16.109  0.3121  0.3085  0.2255
  454MPD2    C5 6816   0.563   1.675  15.990 -0.1453  0.1718 -0.2344
  454MPD2     H 6817   0.628   1.310  16.084  1.4187  0.5225 -1.4631
  454MPD2    H1 6818   0.645   1.724  16.172 -0.8957  0.3659  0.6498
  454MPD2    H2 6819   0.488   1.611  15.807  0.1034 -2.9468 -1.0444
  454MPD2    H3 6820   0.536   1.780  15.978  0.1825  0.1777 -0.9123
  454MPD2     N 6821   0.713   1.483  16.259 -0.1645 -0.2488  0.1375
  454MPD2    H5 6822   0.736   1.384  16.265  0.5073 -0.1313 -0.5502
  454MPD2    N1 6823   0.509   1.343  15.847  0.6049 -0.9274  0.1941
  454MPD2    H7 6824   0.526   1.249  15.882 -0.8965 -0.8767  1.0550
  455TMC3    C1 6825   0.749   1.476  16.484 -0.2337  0.1733  0.6512
  455TMC3    C2 6826   0.662   1.519  16.581  0.1524  0.1897  0.1553
  455TMC3    C3 6827   0.567   1.428  16.611 -0.5301  0.0225 -0.1651
  455TMC3    C4 6828   0.761   1.339  16.448  0.1561 -0.5170  0.1635
  455TMC3    C5 6829   0.662   1.254  16.490  0.6529  0.1656  0.1138
  455TMC3    C6 6830   0.561   1.300  16.561  1.1843  0.0557 -0.1723
  455TMC3     C 6831   0.732   1.555  16.369 -0.5919  0.1650  0.1881
  455TMC3     O 6832   0.709   1.674  16.388 -0.0777  0.6173 -0.1606
  455TMC3     H 6833   0.657   1.623  16.612  1.1237  0.7728 -1.6631
  455TMC3    H1 6834   0.846   1.316  16.386 -0.0330  0.6470 -0.5386
  455TMC3    H2 6835   0.480   1.232  16.588  0.9327  0.3079 -0.2970
  455TMC3    C7 6836   0.647   1.127  16.423  0.8198 -0.4347  0.4345
  455TMC3    C8 6837   0.478   1.462  16.713  0.0704 -0.5318 -0.1136
  455TMC3    O1 6838   0.538   1.076  16.439  0.4810  0.2453 -0.4499
  455TMC3    O2 6839   0.372   1.401  16.730 -0.2418 -0.1448 -0.0099
  456MPD2     C 6840   3.479   1.527  16.766  0.8054  0.0435  0.4913
  456MPD2    C1 6841   3.443   1.485  16.892  0.3621 -0.0681  0.4787
  456MPD2    C2 6842   3.386   1.574  16.980  0.2413  0.0933  0.1212
  456MPD2    C3 6843   3.383   1.711  16.953  0.0197 -0.1399  0.0378
  456MPD2    C4 6844   3.426   1.750  16.829 -0.2920  0.0735  0.1342
  456MPD2    C5 6845   3.477   1.660  16.737  0.5888  0.3160  0.2867
  456MPD2     H 6846   3.366   1.539  17.081 -0.8728  0.0191 -0.1269
  456MPD2    H1 6847   3.426   1.852  16.794  1.3050  0.5742  1.5511
  456MPD2    H2 6848   3.519   1.458  16.693 -1.4763  1.4877 -2.1410
  456MPD2    H3 6849   3.497   1.702  16.639 -2.6524  3.3752  0.9429
  456MPD2     N 6850   3.350   1.806  17.059 -0.2261 -0.4367  0.1723
  456MPD2    H5 6851   3.332   1.764  17.150 -1.9088 -2.0137 -0.8744
  456MPD2    N1 6852   3.464   1.346  16.920 -0.6114  0.2540  1.1048
  456MPD2    H7 6853   3.517   1.295  16.851  1.9633  3.2868  0.8464
  457TMC3    C1 6854   3.308   2.017  17.164 -0.3669 -0.1326  0.1234
  457TMC3    C2 6855   3.232   2.124  17.140 -0.2193  0.4054  0.0760
  457TMC3    C3 6856   3.260   2.240  17.208 -0.2790 -0.4910  1.1050
  457TMC3    C4 6857   3.411   2.020  17.252 -0.5903 -0.0546  1.0911
  457TMC3    C5 6858   3.439   2.134  17.311 -0.4068 -0.1539 -0.0709
  457TMC3    C6 6859   3.358   2.247  17.297 -0.4653  0.5195 -0.1236
  457TMC3     C 6860   3.336   1.941  17.040  0.0410  0.3883  0.7153
  457TMC3     O 6861   3.314   1.997  16.935 -0.2762 -0.2579 -0.5011
  457TMC3     H 6862   3.181   2.128  17.044  1.6193 -0.3484 -0.9232
  457TMC3    H1 6863   3.479   1.935  17.254  0.0073  0.4162  0.7864
  457TMC3    H2 6864   3.383   2.335  17.355  2.6837 -0.8095  0.5769
  457TMC3    C7 6865   3.532   2.131  17.422 -0.3090 -0.6030  0.3079
  457TMC3    C8 6866   3.183   2.362  17.187 -0.4053  0.0143  0.2468
  457TMC3    O1 6867   3.560   2.021  17.469  0.3764  0.3499  0.2712
  457TMC3    O2 6868   3.232   2.456  17.242 -0.0667  0.1435 -0.3019
  458MPD2     C 6869   0.956   0.525  12.555 -0.7492  0.7804  0.0727
  458MPD2    C1 6870   1.065   0.447  12.517 -0.2672 -1.1929  0.0902
  458MPD2    C2 6871   1.094   0.432  12.382  0.4344 -0.2972  0.2056
  458MPD2    C3 6872   1.023   0.501  12.284  0.0946  0.6855 -0.9156
  458MPD2    C4 6873   0.915   0.578  12.322  0.0008  0.1317 -0.4780
  458MPD2    C5 6874   0.888   0.588  12.453 -0.7236  0.0370 -0.5293
  458MPD2     H 6875   1.171   0.359  12.361  1.1519  0.2626  0.9186
  458MPD2    H1 6876   0.856   0.633  12.250 -1.8011 -0.1292  0.7898
  458MPD2    H2 6877   0.927   0.544  12.658 -1.1507  1.1152 -0.1047
  458MPD2    H3 6878   0.804   0.648  12.486 -0.2740  1.2591 -1.6011
  458MPD2     N 6879   1.058   0.475  12.153 -0.3745  0.4111  0.1262
  458MPD2    H5 6880   1.128   0.406  12.127 -1.7833 -0.8349 -0.3334
  458MPD2    N1 6881   1.146   0.394  12.623  0.1112 -0.3131  0.2258
  458MPD2    H7 6882   1.110   0.420  12.715 -1.4889 -0.1332 -0.4525
  459TMC3    C1 6883   1.319   0.306  12.744 -0.4626  0.6136  0.9231
  459TMC3    C2 6884   1.458   0.310  12.751 -0.1660  0.1112 -0.0179
  459TMC3    C3 6885   1.519   0.324  12.867 -0.3711 -0.3080  0.4112
  459TMC3    C4 6886   1.245   0.286  12.860  0.1376  0.7761  0.2759
  459TMC3    C5 6887   1.311   0.282  12.981  0.1535 -0.5647 -0.0460
  459TMC3    C6 6888   1.443   0.313  12.984  0.5560  0.1953 -0.9779
  459TMC3     C 6889   1.265   0.332  12.623  0.5659 -0.7464  0.0500
  459TMC3     O 6890   1.324   0.297  12.523  0.4852 -0.8570 -0.4048
  459TMC3     H 6891   1.503   0.338  12.657  0.6903 -0.9833  0.0744
  459TMC3    H1 6892   1.137   0.276  12.860  0.2606 -0.4339  2.9945
  459TMC3    H2 6893   1.490   0.308  13.081 -2.3176 -0.7542  0.3443
  459TMC3    C7 6894   1.229   0.256  13.096  0.8532 -0.2972  0.0892
  459TMC3    C8 6895   1.631   0.423  12.866 -0.7128 -0.0358  0.4772
  459TMC3    O1 6896   1.110   0.289  13.090  0.5088 -0.0951  0.4666
  459TMC3    O2 6897   1.681   0.454  12.760 -0.1394  0.4106 -0.1071
  460MPD2     C 6898   0.146   2.563  10.871 -0.0609  0.2077  0.1002
  460MPD2    C1 6899   0.123   2.443  10.813 -0.1563  0.0883 -0.1008
  460MPD2    C2 6900   0.084   2.435  10.681 -0.1651  0.2184 -0.0429
  460MPD2    C3 6901   0.060   2.550  10.613  0.4066 -0.1085  0.5215
  460MPD2    C4 6902   0.100   2.672  10.665 -0.5056  0.1330 -0.0983
  460MPD2    C5 6903   0.139   2.678  10.795 -0.0667 -0.1801 -0.1854
  460MPD2     H 6904   0.047   2.341  10.643  1.0998 -1.0458  1.8752
  460MPD2    H1 6905   0.101   2.768  10.616  0.5322 -0.3392 -0.9932
  460MPD2    H2 6906   0.173   2.572  10.975  0.4806  1.8894 -0.1961
  460MPD2    H3 6907   0.157   2.777  10.835 -1.7817 -0.4230  1.2063
  460MPD2     N 6908   0.027   2.529  10.481  0.0056 -0.3785  0.4791
  460MPD2    H5 6909   0.023   2.432  10.450 -0.7517  0.8912 -3.4391
  460MPD2    N1 6910   0.133   2.332  10.895 -0.7250  0.4243  0.0010
  460MPD2    H7 6911   0.174   2.347  10.986  0.0758 -1.4836 -0.0486
  461TMC3    C1 6912   4.695   2.578  10.264 -0.5455 -1.1680 -0.1860
  461TMC3    C2 6913   0.049   2.491  10.206 -0.0226  0.7572  0.2902
  461TMC3    C3 6914   0.056   2.480  10.074  0.0006  0.3860 -0.7460
  461TMC3    C4 6915   4.607   2.643  10.177 -0.5064 -0.6147 -0.4107
  461TMC3    C5 6916   4.620   2.628  10.038  0.0111  0.6081  0.2046
  461TMC3    C6 6917   4.721   2.554   9.984 -0.9990  0.0397 -0.5726
  461TMC3     C 6918   4.727   2.630  10.392  0.5312  0.4288 -0.6447
  461TMC3     O 6919   4.730   2.752  10.396  0.1551  0.0139  0.0443
  461TMC3     H 6920   0.112   2.434  10.273 -2.0721  0.9255  2.3823
  461TMC3    H1 6921   4.526   2.705  10.214  0.3097  0.3821 -0.2936
  461TMC3    H2 6922   0.010   2.551   9.880 -2.1810 -2.2745 -0.8308
  461TMC3    C7 6923   4.559   2.731   9.958  0.1173 -0.0701  0.7190
  461TMC3    C8 6924   0.158   2.385  10.033 -0.2380 -0.8656  0.3962
  461TMC3    O1 6925   4.521   2.833  10.016 -0.0737 -0.3607 -0.2714
  461TMC3    O2 6926   0.258   2.363  10.100  0.1315  0.3527 -0.0046
  462TMC3    C1 6927   0.189   4.664   0.710 -0.1050 -0.0292  0.1100
  462TMC3    C2 6928   0.276   4.697   0.610  0.0244  0.5201 -0.4964
  462TMC3    C3 6929   0.353   4.597   0.557 -0.0451 -0.4193 -0.1451
  462TMC3    C4 6930   0.186   4.543   0.770 -0.2041  0.4995  0.1598
  462TMC3    C5 6931   0.261   4.443   0.704 -0.0165  0.2977  0.2949
  462TMC3    C6 6932   0.351   4.472   0.607  0.4391  0.4847  0.5550
  462TMC3     C 6933   0.138   0.032   0.786  0.0574 -0.1771  0.1615
  462TMC3     O 6934   0.120   0.015   0.904 -0.3578 -0.0609  0.1427
  462TMC3     H 6935   0.288   0.057   0.570 -1.3037  0.6187 -0.6541
  462TMC3    H1 6936   0.123   4.525   0.857  0.4101  0.6243  0.6257
  462TMC3    H2 6937   0.379   4.390   0.542  1.8783  1.3653  0.0658
  462TMC3    C7 6938   0.214   4.311   0.687 -0.0292  1.0198 -0.4124
  462TMC3    C8 6939   0.453   4.629   0.458 -0.6784 -0.2350 -0.2940
  462TMC3    O1 6940   0.293   4.219   0.670  0.0505 -0.1873  0.1846
  462TMC3    O2 6941   0.436   4.733   0.399 -0.8524 -0.0646  0.2251
  463MPD2     C 6942   2.332   2.537   1.671 -0.0383  0.1547  0.1182
  463MPD2    C1 6943   2.238   2.626   1.628  0.3295 -0.2234  0.5551
  463MPD2    C2 6944   2.268   2.698   1.509  0.2930  0.2629 -0.6147
  463MPD2    C3 6945   2.385   2.674   1.441  0.2744 -0.1789 -0.1663
  463MPD2    C4 6946   2.477   2.589   1.493  1.3856 -0.2265  0.3823
  463MPD2    C5 6947   2.448   2.517   1.605 -0.0461  0.2085  0.7922
  463MPD2     H 6948   2.199   2.774   1.471  1.0127  1.2274  0.0076
  463MPD2    H1 6949   2.571   2.570   1.443  1.8230  0.3474  0.9836
  463MPD2    H2 6950   2.311   2.478   1.760 -1.6778 -3.9593 -3.0014
  463MPD2    H3 6951   2.531   2.456   1.638  0.4854  0.3483 -0.3107
  463MPD2     N 6952   2.409   2.750   1.320  0.1914 -0.6787  0.3531
  463MPD2    H5 6953   2.496   2.731   1.271 -0.1881  0.7100 -0.8679
  463MPD2    N1 6954   2.125   2.664   1.703  0.2913  0.3296  0.5502
  463MPD2    H7 6955   2.068   2.733   1.655 -0.1698 -0.0087  0.6133
  464TMC3    C1 6956   1.957   2.643   1.861  0.5027 -0.4080 -1.0214
  464TMC3    C2 6957   1.904   2.755   1.801 -0.7368  0.4771  0.3503
  464TMC3    C3 6958   1.767   2.753   1.796  1.0661 -0.0315 -0.3766
  464TMC3    C4 6959   1.884   2.540   1.921 -1.2835 -0.2380  0.0633
  464TMC3    C5 6960   1.748   2.548   1.902 -0.3293  0.0368  0.1067
  464TMC3    C6 6961   1.691   2.656   1.844 -0.4854 -0.1782  0.7467
  464TMC3     C 6962   2.094   2.609   1.826  0.2040  0.3867  0.0430
  464TMC3     O 6963   2.144   2.519   1.891  0.3906 -0.1500 -0.3617
  464TMC3     H 6964   1.959   2.833   1.750 -1.3585  1.1983  0.7766
  464TMC3    H1 6965   1.929   2.445   1.945  3.0656  1.4809 -1.3728
  464TMC3    H2 6966   1.584   2.668   1.834 -0.3581 -0.5702 -1.1742
  464TMC3    C7 6967   1.673   2.422   1.923 -1.0511 -0.1075 -0.7708
  464TMC3    C8 6968   1.698   2.865   1.738 -0.4437 -0.2394  0.4121
  464TMC3    O1 6969   1.723   2.342   1.995  0.1249  0.8702 -0.5298
  464TMC3    O2 6970   1.591   2.850   1.680 -0.7238  0.0851 -0.4501
  465MPD2     C 6971   2.974   1.741  16.899 -0.4665 -0.6885 -0.1089
  465MPD2    C1 6972   2.848   1.731  16.957 -0.4671 -0.4843  0.8232
  465MPD2    C2 6973   2.744   1.688  16.881 -0.2257 -0.0127  0.5275
  465MPD2    C3 6974   2.757   1.678  16.745  0.5842 -0.8207 -0.2280
  465MPD2    C4 6975   2.881   1.711  16.681  0.5432 -0.0925 -0.2603
  465MPD2    C5 6976   2.991   1.728  16.763  0.0261  0.0753  0.4724
  465MPD2     H 6977   2.648   1.674  16.927 -0.3409 -0.3713  0.1799
  465MPD2    H1 6978   2.900   1.698  16.575  2.1094  1.1010 -0.1297
  465MPD2    H2 6979   3.071   1.754  16.947  0.3463 -1.0183 -1.6858
  465MPD2    H3 6980   3.090   1.745  16.722 -0.1841 -0.1243 -0.1240
  465MPD2     N 6981   2.632   1.657  16.682 -0.2690  0.4728 -0.0675
  465MPD2    H5 6982   2.554   1.654  16.746 -0.7003  0.2191 -0.5991
  465MPD2    N1 6983   2.838   1.745  17.097 -0.1860 -0.3101  0.9013
  465MPD2    H7 6984   2.760   1.700  17.144 -1.5502  1.8226  0.6928
  466TMC3    C1 6985   2.255   1.643  16.629  0.3448  0.0919 -0.3480
  466TMC3    C2 6986   2.207   1.733  16.538 -0.2473  0.1561 -0.0404
  466TMC3    C3 6987   2.286   1.793  16.444  0.5644  0.1843 -0.0041
  466TMC3    C4 6988   2.389   1.603  16.630  0.3735 -0.3292 -0.2314
  466TMC3    C5 6989   2.467   1.663  16.528  0.4355 -0.1950 -0.3319
  466TMC3    C6 6990   2.420   1.753  16.432  0.4361 -0.1668 -0.0001
  466TMC3     C 6991   2.185   1.613  16.753 -0.2348 -0.1176  0.8640
  466TMC3     O 6992   2.244   1.567  16.846  0.4287  0.2869 -0.3970
  466TMC3     H 6993   2.105   1.769  16.537 -0.0135  0.8795  1.6954
  466TMC3    H1 6994   2.418   1.536  16.710  1.0237  0.9489  0.6005
  466TMC3    H2 6995   2.491   1.802  16.367  0.5828 -1.9843 -1.2040
  466TMC3    C7 6996   2.607   1.656  16.545  0.4510  0.4299  0.2471
  466TMC3    C8 6997   2.247   1.924  16.386 -0.5697 -0.3409  0.1047
  466TMC3    O1 6998   2.677   1.693  16.451  0.3982  0.2222 -0.3896
  466TMC3    O2 6999   2.321   1.969  16.298  0.4961  0.3621 -0.0401
  467TMC3    C1 7000   3.478   4.545  14.248  0.0684 -0.0993  0.5674
  467TMC3    C2 7001   3.443   4.652  14.175  0.1360  0.9165  0.1819
  467TMC3    C3 7002   3.327   4.710  14.204 -0.1620  0.3290 -0.7060
  467TMC3    C4 7003   3.409   4.512  14.360 -0.2446 -0.2839  0.9668
  467TMC3    C5 7004   3.291   4.575  14.386  0.1622  1.1646 -0.6420
  467TMC3    C6 7005   3.242   4.675  14.300  0.3986 -0.0112  0.3264
  467TMC3     C 7006   3.616   4.505  14.235  0.0521 -0.0179  0.1765
  467TMC3     O 7007   3.672   4.468  14.342  0.0902 -0.2919 -0.0879
  467TMC3     H 7008   3.512   4.692  14.101 -0.9355  0.5668 -1.0217
  467TMC3    H1 7009   3.444   4.427  14.418  0.5717 -0.2248  0.5592
  467TMC3    H2 7010   3.152   4.731  14.322  0.4099  0.2302 -0.2288
  467TMC3    C7 7011   3.214   4.534  14.501  0.4818  0.3312  0.0257
  467TMC3    C8 7012   3.280   0.070  14.119  0.1373 -0.2881 -0.0329
  467TMC3    O1 7013   3.270   4.479  14.591  1.1319 -0.4161 -0.2138
  467TMC3    O2 7014   3.197   0.156  14.161  0.0014 -0.0246 -0.3114
  468MPD2     C 7015   1.786   2.702  11.154 -0.5759  0.0848 -0.5457
  468MPD2    C1 7016   1.920   2.692  11.109  0.3329 -0.7058  0.1194
  468MPD2    C2 7017   1.968   2.580  11.046 -0.0486 -0.4264  0.9936
  468MPD2    C3 7018   1.882   2.471  11.033  0.2883  0.3739 -0.1349
  468MPD2    C4 7019   1.759   2.470  11.088  0.4884  0.9159  0.3304
  468MPD2    C5 7020   1.710   2.585  11.140 -0.2906 -0.2709  0.5346
  468MPD2     H 7021   2.066   2.594  11.003 -0.5748  0.7692  0.1749
  468MPD2    H1 7022   1.701   2.379  11.092 -0.0076  1.2268  0.2358
  468MPD2    H2 7023   1.737   2.782  11.208 -0.2750 -0.3712  0.4057
  468MPD2    H3 7024   1.613   2.586  11.188  0.1154  1.4716  1.3309
  468MPD2     N 7025   1.933   2.347  10.987 -0.6563 -0.0667  0.0565
  468MPD2    H5 7026   1.870   2.268  10.992  2.1305 -2.3053 -0.3641
  468MPD2    N1 7027   2.017   2.799  11.127 -0.4248 -0.5403  0.3433
  468MPD2    H7 7028   2.110   2.793  11.086 -0.3623 -0.1341  0.4208
  469TMC3    C1 7029   2.128   2.975  11.207 -0.2220 -0.2838 -0.4295
  469TMC3    C2 7030   2.246   2.910  11.180 -0.0226  0.0978  0.0709
  469TMC3    C3 7031   2.352   2.950  11.255  0.0233  0.0644 -0.2843
  469TMC3    C4 7032   2.130   3.098  11.275  0.6863  0.2768 -0.2233
  469TMC3    C5 7033   2.243   3.136  11.338  0.1413 -0.5134 -0.8192
  469TMC3    C6 7034   2.358   3.058  11.336  0.2187  0.1311  0.1386
  469TMC3     C 7035   2.002   2.909  11.207 -0.1517  0.0825 -0.7788
  469TMC3     O 7036   1.909   2.961  11.269 -0.3890 -0.8856  0.0192
  469TMC3     H 7037   2.260   2.813  11.134 -0.1532  0.3889 -0.5749
  469TMC3    H1 7038   2.038   3.155  11.287 -0.9341 -2.1301 -1.1118
  469TMC3    H2 7039   2.457   3.089  11.369  0.4838 -0.9175  0.3325
  469TMC3    C7 7040   2.222   3.234  11.443  0.1944  0.4787  0.0236
  469TMC3    C8 7041   2.475   2.886  11.210  0.5217 -0.3443  0.2485
  469TMC3    O1 7042   2.108   3.263  11.469 -0.2019 -0.1276  0.1970
  469TMC3    O2 7043   2.488   2.859  11.089 -0.2629  0.3147 -0.6482
  470TMC3    C1 7044   4.423   0.085   0.676  0.2789  0.0199  0.1560
  470TMC3    C2 7045   4.394   0.196   0.757 -0.6243 -0.3686 -0.2860
  470TMC3    C3 7046   4.424   0.175   0.889  0.2133 -0.0725 -0.9260
  470TMC3    C4 7047   4.496   4.718   0.731  0.2558 -0.0980  0.1357
  470TMC3    C5 7048   4.527   4.714   0.862 -0.4761 -0.0768 -0.0030
  470TMC3    C6 7049   4.487   0.069   0.942 -0.4964  0.5043 -0.2826
  470TMC3     C 7050   4.344   0.079   0.553 -0.1956 -0.3627  0.0590
  470TMC3     O 7051   4.232   0.124   0.563  0.1987  0.4707  0.4357
  470TMC3     H 7052   4.359   0.291   0.719 -0.1426  0.1424  0.5278
  470TMC3    H1 7053   4.499   4.632   0.665 -3.1846 -0.5462  0.5709
  470TMC3    H2 7054   4.520   0.071   1.045  1.2726  1.4229 -0.8626
  470TMC3    C7 7055   4.586   4.593   0.911  0.1849 -0.7463 -0.1119
  470TMC3    C8 7056   4.404   0.291   0.978 -0.4433  0.2884 -0.2557
  470TMC3    O1 7057   4.637   4.523   0.822  0.3663  0.0379  0.2479
  470TMC3    O2 7058   4.473   0.290   1.081 -0.0042 -0.1975  0.4776
  471MPD2     C 7059   4.642   0.551  16.872  0.4296 -0.0439  0.2451
  471MPD2    C1 7060   0.017   0.483  16.841  0.3096  0.2687 -0.4649
  471MPD2    C2 7061   0.118   0.489  16.936 -0.3780 -0.4426 -1.4072
  471MPD2    C3 7062   0.102   0.560  17.060  0.3006  0.1867  0.1919
  471MPD2    C4 7063   4.726   0.637  17.071  0.9309 -0.1032  0.2715
  471MPD2    C5 7064   4.627   0.625  16.979  0.1217 -0.2900 -0.0621
  471MPD2     H 7065   0.208   0.431  16.917 -1.0525 -2.1328  0.4663
  471MPD2    H1 7066   4.714   0.704  17.155 -0.8678 -0.7497  0.5342
  471MPD2    H2 7067   4.559   0.547  16.802  0.1033  0.2631  0.6077
  471MPD2    H3 7068   4.533   0.674  17.000 -0.3791 -0.3763 -2.1361
  471MPD2     N 7069   0.202   0.563  17.160 -0.1024 -0.4952  0.1095
  471MPD2    H5 7070   0.165   0.606  17.245 -0.1493  1.3791 -0.8541
  471MPD2    N1 7071   0.035   0.395  16.730  0.1376 -0.3064  0.2084
  471MPD2    H7 7072   0.124   0.346  16.723 -0.5430 -1.4517 -0.4609
  472TMC3    C1 7073   4.711   0.237  16.576 -0.3397 -0.3444 -0.4874
  472TMC3    C2 7074   4.654   0.227  16.450  0.4251  0.0996 -0.4090
  472TMC3    C3 7075   4.695   0.116  16.378  0.0978  0.0086 -1.2014
  472TMC3    C4 7076   0.039   0.138  16.638  0.4345 -0.2258  0.2586
  472TMC3    C5 7077   0.059   0.027  16.568  0.0722 -0.3295 -0.0608
  472TMC3    C6 7078   0.037   0.026  16.436  0.5097  0.2355 -0.0079
  472TMC3     C 7079   4.672   0.358  16.646 -0.4225  0.1210 -0.2569
  472TMC3     O 7080   4.571   0.415  16.610 -0.3370  0.0851  0.2618
  472TMC3     H 7081   4.608   0.311  16.398 -0.5214 -0.4877 -0.5203
  472TMC3    H1 7082   0.057   0.137  16.745 -0.7617  0.7813  0.4733
  472TMC3    H2 7083   0.063   4.679  16.376 -1.2403  0.4886 -1.1372
  472TMC3    C7 7084   0.026   4.646  16.639  0.3613  0.4213 -0.4648
  472TMC3    C8 7085   4.595   0.053  16.294  0.0683  0.1922  0.2866
  472TMC3    O1 7086   0.071   4.628  16.753 -0.1874  0.3327  0.0297
  472TMC3    O2 7087   4.593   4.675  16.303  0.4515  0.4077  0.5576
  473MPD2     C 7088   4.652   2.141  13.755 -0.0196 -0.2738 -0.0230
  473MPD2    C1 7089   4.595   2.245  13.688 -0.1370  0.3891 -0.0050
  473MPD2    C2 7090   4.564   2.356  13.763  0.4617  0.2259  0.2886
  473MPD2    C3 7091   4.581   2.368  13.898  0.0274  0.1373 -0.0980
  473MPD2    C4 7092   4.628   2.257  13.963 -0.2902  0.1905 -0.1045
  473MPD2    C5 7093   4.667   2.146  13.889  0.1603  0.2028 -0.3046
  473MPD2     H 7094   4.521   2.434  13.702 -0.3025  1.0949  1.9718
  473MPD2    H1 7095   4.656   2.265  14.067 -2.2668  2.9149  0.2143
  473MPD2    H2 7096   4.681   2.046  13.711 -0.6013 -1.4581  2.1351
  473MPD2    H3 7097   4.709   2.064  13.946 -2.2415 -2.5203 -2.4236
  473MPD2     N 7098   4.550   2.488  13.966  0.1744 -0.2372 -0.1446
  473MPD2    H5 7099   4.566   2.486  14.066  2.3957 -0.8291 -0.5323
  473MPD2    N1 7100   4.562   2.255  13.552  0.0416 -0.3639  0.5375
  473MPD2    H7 7101   4.533   2.348  13.524 -0.7317 -1.4449 -2.2725
  474TMC3    C1 7102   4.467   2.716  13.978 -0.1165 -0.0298  0.2718
  474TMC3    C2 7103   4.411   2.827  13.913 -0.2545  0.4264 -0.2864
  474TMC3    C3 7104   4.397   2.935  13.985 -0.3567 -0.2545 -0.2424
  474TMC3    C4 7105   4.482   2.712  14.112 -0.4360  0.4942  0.4348
  474TMC3    C5 7106   4.476   2.831  14.175 -0.3905 -0.4590 -0.0922
  474TMC3    C6 7107   4.434   2.948  14.117 -0.8513  0.3236 -0.3943
  474TMC3     C 7108   4.511   2.604  13.899  0.1373 -0.9477  0.4815
  474TMC3     O 7109   4.479   2.622  13.783 -0.2514  0.3518  0.6511
  474TMC3     H 7110   4.373   2.818  13.812 -0.2919  0.7186 -0.2988
  474TMC3    H1 7111   4.504   2.621  14.166 -0.0487 -0.1236 -0.7684
  474TMC3    H2 7112   4.440   3.043  14.171 -0.9619  0.1804 -0.1278
  474TMC3    C7 7113   4.483   2.830  14.324 -0.3858  0.4121 -0.6207
  474TMC3    C8 7114   4.316   3.037  13.922  0.4635 -0.2237  0.8633
  474TMC3    O1 7115   4.498   2.946  14.367  0.0579 -0.2114  0.4108
  474TMC3    O2 7116   4.210   3.008  13.867 -0.2767  0.5982 -0.1761
  475MPD2     C 7117   3.137   0.327  11.440 -0.0378  0.4928 -0.2592
  475MPD2    C1 7118   3.195   0.395  11.338  0.3780  0.3745 -0.4172
  475MPD2    C2 7119   3.116   0.445  11.231 -0.2018 -0.3399 -0.3081
  475MPD2    C3 7120   2.982   0.415  11.232 -0.8779 -0.2271  0.5772
  475MPD2    C4 7121   2.924   0.336  11.332  0.6561  0.2366  0.1151
  475MPD2    C5 7122   2.999   0.300  11.439 -0.0872  0.5215 -0.4172
  475MPD2     H 7123   3.156   0.505  11.150  2.1467  0.7109  1.6307
  475MPD2    H1 7124   2.823   0.301  11.347  1.5363 -1.3848  2.3552
  475MPD2    H2 7125   3.193   0.283  11.521 -1.3662 -0.3710  0.1826
  475MPD2    H3 7126   2.961   0.237  11.519  0.4403  0.9764  0.1965
  475MPD2     N 7127   2.901   0.467  11.131 -0.3548  0.2815 -0.3370
  475MPD2    H5 7128   2.942   0.530  11.063  3.7461 -0.8676  1.0678
  475MPD2    N1 7129   3.332   0.418  11.330 -0.1161 -0.2349  0.2171
  475MPD2    H7 7130   3.378   0.454  11.247  2.1658  1.6690  2.3077
  476TMC3    C1 7131   3.535   0.486  11.428  0.0883 -0.4534 -0.5755
  476TMC3    C2 7132   3.595   0.492  11.305  0.1551  0.2235  0.6861
  476TMC3    C3 7133   3.662   0.607  11.271  0.5569  0.4839  0.1934
  476TMC3    C4 7134   3.558   0.588  11.516  0.2122 -0.1173  0.4960
  476TMC3    C5 7135   3.625   0.709  11.475 -0.8576  0.1321  0.0436
  476TMC3    C6 7136   3.685   0.717  11.350  0.0138  0.2660  0.2485
  476TMC3     C 7137   3.408   0.420  11.442 -0.0692  0.3454 -0.2703
  476TMC3     O 7138   3.374   0.405  11.558 -0.2432 -0.5748 -0.4561
  476TMC3     H 7139   3.582   0.418  11.227  0.9884  0.4901  0.2998
  476TMC3    H1 7140   3.507   0.578  11.611  1.4075  1.5514  1.3175
  476TMC3    H2 7141   3.741   0.803  11.315 -0.0016  0.1230 -0.1237
  476TMC3    C7 7142   3.545   0.818  11.512  0.2676 -0.7108 -0.4788
  476TMC3    C8 7143   3.745   0.597  11.154 -0.0237 -0.5262 -0.8300
  476TMC3    O1 7144   3.505   0.813  11.626 -0.4095 -0.5858 -0.3603
  476TMC3    O2 7145   3.854   0.656  11.158  0.0169 -0.7169 -0.1280
  477MPD2     C 7146   0.886   1.553  11.583  0.5523  0.1306 -0.3769
  477MPD2    C1 7147   0.794   1.512  11.675 -0.1771  0.3809 -0.0842
  477MPD2    C2 7148   0.839   1.480  11.803 -0.4638 -0.0040  0.0863
  477MPD2    C3 7149   0.969   1.491  11.847 -0.2708 -0.1846  0.5873
  477MPD2    C4 7150   1.058   1.541  11.758 -0.0549  0.2539 -0.6166
  477MPD2    C5 7151   1.016   1.564  11.630 -0.5761  0.8583  0.4152
  477MPD2     H 7152   0.765   1.434  11.868  0.3709 -1.0410  0.3062
  477MPD2    H1 7153   1.164   1.540  11.780 -0.5263 -0.0122  1.7136
  477MPD2    H2 7154   0.864   1.577  11.480 -0.4212  0.4180 -0.0985
  477MPD2    H3 7155   1.089   1.596  11.556 -0.1447  1.0130  0.9071
  477MPD2     N 7156   1.002   1.456  11.980 -0.1352  0.3632 -0.2458
  477MPD2    H5 7157   0.930   1.448  12.051 -1.4291 -3.1193 -1.9731
  477MPD2    N1 7158   0.663   1.504  11.627  0.2315 -0.1879  0.1225
  477MPD2    H7 7159   0.657   1.536  11.531 -0.1770 -0.3078  0.1087
  478TMC3    C1 7160   0.426   1.526  11.621  0.2377 -0.1043  0.9302
  478TMC3    C2 7161   0.326   1.592  11.688  0.2404 -0.5861  0.5813
  478TMC3    C3 7162   0.234   1.679  11.625  0.4817  0.6162 -0.1941
  478TMC3    C4 7163   0.427   1.538  11.485  1.2680  0.6782 -0.3532
  478TMC3    C5 7164   0.342   1.621  11.419 -0.4925  1.1577 -0.3874
  478TMC3    C6 7165   0.247   1.700  11.492 -0.6889 -0.1323 -0.6208
  478TMC3     C 7166   0.544   1.495  11.698 -0.0949  0.4706  0.3318
  478TMC3     O 7167   0.532   1.485  11.818 -0.0876 -0.1006  0.1388
  478TMC3     H 7168   0.321   1.567  11.793 -1.5115  0.3942  0.7265
  478TMC3    H1 7169   0.488   1.471  11.425 -0.4983 -1.4460  0.2329
  478TMC3    H2 7170   0.202   1.785  11.442  0.3704  0.3915 -0.6935
  478TMC3    C7 7171   0.376   1.650  11.282  0.0166 -0.3817 -0.6880
  478TMC3    C8 7172   0.197   1.790  11.712  0.0348 -0.2171  0.5733
  478TMC3    O1 7173   0.492   1.624  11.259 -0.3807  0.3467 -0.4585
  478TMC3    O2 7174   0.248   1.786  11.819  0.4438 -0.2523  0.2937
  479MPD2     C 7175   4.668   4.708  15.395  1.0471  0.2829  0.0588
  479MPD2    C1 7176   4.608   4.625  15.480  0.1462 -0.5080 -0.3286
  479MPD2    C2 7177   4.635   4.633  15.615 -0.1400  0.2949  0.1484
  479MPD2    C3 7178   4.719   4.735  15.664  0.0460 -0.2362 -0.3106
  479MPD2    C4 7179   0.047   0.069  15.573 -0.5796  0.3357  0.2168
  479MPD2    C5 7180   0.020   0.058  15.438 -0.3430 -0.3377  0.6910
  479MPD2     H 7181   4.589   4.560  15.679 -1.0025 -0.1760 -1.0150
  479MPD2    H1 7182   0.121   0.144  15.598  1.0990 -0.9632 -0.8456
  479MPD2    H2 7183   4.644   4.691  15.291  0.1289 -0.5703  0.4124
  479MPD2    H3 7184   0.077   0.118  15.368 -1.2709 -0.1756  0.0769
  479MPD2     N 7185   4.740   0.016  15.803 -0.7357 -0.0347  0.1274
  479MPD2    H5 7186   0.077   0.079  15.824 -0.7626  0.2688 -0.6720
  479MPD2    N1 7187   4.500   4.554  15.420 -0.3145 -0.0019 -0.4125
  479MPD2    H7 7188   4.482   4.571  15.322 -2.2955 -1.9580 -0.3767
  480TMC3    C1 7189   4.378   4.506  15.998  0.0610  0.0154  0.0642
  480TMC3    C2 7190   4.281   4.563  15.928  0.0483 -0.2201 -0.3230
  480TMC3    C3 7191   4.314   4.666  15.845 -0.5207 -0.0828  0.9321
  480TMC3    C4 7192   4.509   4.551  15.990 -0.1830  0.4725 -0.0511
  480TMC3    C5 7193   4.538   4.651  15.903  0.1361  0.1090 -0.2123
  480TMC3    C6 7194   4.445   4.713  15.827 -0.1642 -0.3725  0.1563
  480TMC3     C 7195   4.357   4.396  16.091 -0.5316  0.9865 -0.3569
  480TMC3     O 7196   4.455   4.327  16.112 -0.3430 -0.1161  0.3051
  480TMC3     H 7197   4.186   4.512  15.914  1.0819 -2.1180 -0.3879
  480TMC3    H1 7198   4.586   4.504  16.051 -0.2660 -0.4695 -0.6630
  480TMC3    H2 7199   4.467   0.058  15.764 -1.1126 -1.6787 -1.9409
  480TMC3    C7 7200   4.679   4.699  15.914 -0.3314  0.3466 -0.5101
  480TMC3    C8 7201   4.221   4.662  15.729 -0.2446 -0.3342 -0.5539
  480TMC3    O1 7202   0.002   4.677  16.015  0.2409 -0.0870  0.0112
  480TMC3    O2 7203   4.108   4.615  15.732  0.2458 -0.3580  0.0593
  481MPD2     C 7204   1.566   4.067  14.616 -0.0270 -0.5102 -0.0461
  481MPD2    C1 7205   1.468   3.973  14.583  0.7513  0.5344 -0.3267
  481MPD2    C2 7206   1.406   3.896  14.684 -0.2316  0.0112 -0.7828
  481MPD2    C3 7207   1.425   3.928  14.816  0.3310 -0.2855 -0.0401
  481MPD2    C4 7208   1.513   4.030  14.845  0.3180  0.1060  0.0188
  481MPD2    C5 7209   1.591   4.091  14.749  0.5420 -0.2266 -0.9833
  481MPD2     H 7210   1.334   3.820  14.654  0.7441 -0.6613 -1.4326
  481MPD2    H1 7211   1.551   4.041  14.946 -0.3438 -1.4754  0.4484
  481MPD2    H2 7212   1.616   4.116  14.533  0.9567  0.2797  1.0093
  481MPD2    H3 7213   1.670   4.158  14.780 -1.9511  1.5267  1.6570
  481MPD2     N 7214   1.363   3.861  14.930  0.2061  0.3252 -0.3304
  481MPD2    H5 7215   1.396   3.877  15.025  0.9331 -1.4364 -0.2803
  481MPD2    N1 7216   1.440   3.948  14.450  0.1484 -0.3178  0.2911
  481MPD2    H7 7217   1.507   3.990  14.387  0.1551 -0.2055  0.3725
  482TMC3    C1 7218   1.341   3.871  14.255 -0.2254  0.4703  0.5012
  482TMC3    C2 7219   1.301   3.760  14.187  0.1662 -0.2975  0.2433
  482TMC3    C3 7220   1.271   3.773  14.054 -0.2738 -0.0202  0.2391
  482TMC3    C4 7221   1.327   3.997  14.199 -0.1530  1.4018  0.0250
  482TMC3    C5 7222   1.289   4.006  14.064  0.3239 -0.4592  0.2192
  482TMC3    C6 7223   1.269   3.896  13.983  0.5682  0.3661 -0.1632
  482TMC3     C 7224   1.335   3.870  14.399 -0.1488 -0.6247  0.2455
  482TMC3     O 7225   1.239   3.815  14.452  0.3263  0.4645  0.4166
  482TMC3     H 7226   1.313   3.661  14.231 -0.8031 -0.8028 -0.6393
  482TMC3    H1 7227   1.329   4.091  14.253 -0.1913  0.7929  1.0859
  482TMC3    H2 7228   1.224   3.916  13.886  1.6304  2.2429 -0.2612
  482TMC3    C7 7229   1.281   4.127  13.991 -0.8797 -0.4938 -0.5314
  482TMC3    C8 7230   1.200   3.654  13.997  0.4094  0.0919 -0.1140
  482TMC3    O1 7231   1.199   4.202  14.038 -0.8135  0.1635  0.8391
  482TMC3    O2 7232   1.180   3.559  14.067  0.6512  0.2424  0.0610
  483TMC3    C1 7233   4.480   3.524   1.580  0.4366  0.0600 -0.3592
  483TMC3    C2 7234   4.579   3.611   1.552 -0.2220  0.1204 -0.6096
  483TMC3    C3 7235   4.706   3.568   1.575  0.5310 -0.5001  0.6300
  483TMC3    C4 7236   4.500   3.398   1.620  1.0263  0.4364  0.0509
  483TMC3    C5 7237   4.629   3.366   1.662 -0.2465  0.7190  0.0969
  483TMC3    C6 7238   4.735   3.446   1.633  0.7855 -0.1978  0.5319
  483TMC3     C 7239   4.364   3.550   1.498 -0.1726 -0.0090 -0.3673
  483TMC3     O 7240   4.333   3.665   1.463 -0.1444 -1.2064 -0.1223
  483TMC3     H 7241   4.553   3.700   1.495  1.9113  1.0172 -0.1672
  483TMC3    H1 7242   4.421   3.325   1.636  1.6234  0.2535  2.1768
  483TMC3    H2 7243   0.097   3.416   1.655  1.4734  2.0581  0.3760
  483TMC3    C7 7244   4.658   3.227   1.697  0.3127  0.4376 -0.0408
  483TMC3    C8 7245   0.039   3.603   1.460 -0.6327 -0.6029 -0.1786
  483TMC3    O1 7246   0.024   3.174   1.669  0.5633  0.3400 -0.4050
  483TMC3    O2 7247   4.730   3.663   1.369 -0.1674  0.0041  0.0732
  484MPD2     C 7248   1.666   0.700  13.110  0.6324 -0.1078  0.8364
  484MPD2    C1 7249   1.703   0.615  13.004  0.0651  0.3712  0.8483
  484MPD2    C2 7250   1.810   0.651  12.923 -0.9425 -0.5526  0.4356
  484MPD2    C3 7251   1.883   0.764  12.955  0.1077  0.6104 -0.2826
  484MPD2    C4 7252   1.847   0.844  13.057  0.1997  0.3130 -0.5407
  484MPD2    C5 7253   1.744   0.809  13.130  0.2316 -0.2011 -0.2781
  484MPD2     H 7254   1.846   0.591  12.840 -0.7003 -0.5439  0.5339
  484MPD2    H1 7255   1.911   0.930  13.072 -0.6648  0.6521  1.1573
  484MPD2    H2 7256   1.585   0.677  13.177 -0.3238  1.5261  0.2411
  484MPD2    H3 7257   1.722   0.869  13.217 -1.6107 -0.4092 -0.5972
  484MPD2     N 7258   2.003   0.803  12.895 -0.6149 -0.2564  0.2602
  484MPD2    H5 7259   2.032   0.899  12.906 -0.2554 -0.3303 -0.0474
  484MPD2    N1 7260   1.632   0.498  12.981 -0.2553  0.0619 -0.1719
  484MPD2    H7 7261   1.570   0.470  13.056  0.2681  0.4821  0.4141
  485TMC3    C1 7262   2.225   0.757  12.823 -0.2863  0.2951 -0.6690
  485TMC3    C2 7263   2.317   0.664  12.830  0.0369  0.0298 -1.0851
  485TMC3    C3 7264   2.447   0.701  12.789  0.0788 -0.2753  0.2888
  485TMC3    C4 7265   2.241   0.880  12.765  0.2875  0.0900 -0.3642
  485TMC3    C5 7266   2.364   0.912  12.716 -0.3506  0.2833  0.3638
  485TMC3    C6 7267   2.468   0.824  12.735  0.2282  0.4619 -0.3615
  485TMC3     C 7268   2.086   0.716  12.825 -0.0556 -0.4087  0.2760
  485TMC3     O 7269   2.071   0.596  12.805 -0.1321  0.4418  0.1161
  485TMC3     H 7270   2.292   0.561  12.852  1.7450 -0.0331  0.4892
  485TMC3    H1 7271   2.166   0.957  12.752 -0.2539 -0.2187  0.8907
  485TMC3    H2 7272   2.570   0.862  12.733  0.4731 -0.2493 -1.2913
  485TMC3    C7 7273   2.383   0.976  12.584  0.8710 -0.3723 -0.6356
  485TMC3    C8 7274   2.534   0.615  12.710  0.4246  0.1364  0.0596
  485TMC3    O1 7275   2.304   1.063  12.550  0.1009  0.2231  0.1335
  485TMC3    O2 7276   2.606   0.665  12.625  0.4379 -0.4991 -0.3171
  486MPD2     C 7277   4.146   4.568  13.248  0.4730 -0.0421 -0.0156
  486MPD2    C1 7278   4.116   4.517  13.122 -0.5563  0.3851  0.3653
  486MPD2    C2 7279   4.097   4.598  13.012 -0.4794 -1.4747  0.0658
  486MPD2    C3 7280   4.120   4.731  13.029  0.4824 -0.7335  0.1137
  486MPD2    C4 7281   4.155   0.040  13.149  0.1941 -0.4393 -0.2891
  486MPD2    C5 7282   4.166   4.698  13.258  1.1286  0.1835  0.4255
  486MPD2     H 7283   4.070   4.559  12.915  3.6476 -1.5593 -1.0553
  486MPD2    H1 7284   4.189   0.143  13.151  3.1083 -1.4258  1.1559
  486MPD2    H2 7285   4.180   4.505  13.330  0.2990  1.0456  0.8915
  486MPD2    H3 7286   4.208   0.001  13.349 -0.2684  2.9013 -0.2025
  486MPD2     N 7287   4.096   0.070  12.917 -0.2137 -0.6060 -0.2453
  486MPD2    H5 7288   4.102   0.026  12.826 -0.0220  1.3405 -1.1757
  486MPD2    N1 7289   4.082   4.374  13.118  0.2189  0.0768  0.0731
  486MPD2    H7 7290   4.091   4.314  13.200 -0.4202  1.1420  0.9089
  487TMC3    C1 7291   4.030   4.163  13.046  0.0335  0.3100 -0.9613
  487TMC3    C2 7292   3.938   4.083  12.979 -0.2061  1.0542 -0.5895
  487TMC3    C3 7293   3.901   3.961  13.029  0.4010  0.2095  0.3440
  487TMC3    C4 7294   4.079   4.123  13.171 -0.0899  0.2017  0.1384
  487TMC3    C5 7295   4.028   4.001  13.217  0.0713  0.2960  0.1728
  487TMC3    C6 7296   3.934   3.928  13.155 -0.4370  0.3166 -0.3053
  487TMC3     C 7297   4.036   4.303  13.006  0.1223 -0.7077  0.6605
  487TMC3     O 7298   3.997   4.342  12.899  0.4304  0.5535  0.3556
  487TMC3     H 7299   3.915   4.105  12.876 -1.3343  1.0335 -0.3354
  487TMC3    H1 7300   4.156   4.174  13.228  2.3184 -1.9341 -1.1863
  487TMC3    H2 7301   3.923   3.827  13.194 -0.5079  0.4514  0.0306
  487TMC3    C7 7302   4.014   4.012  13.364  0.6739  0.1678  0.4598
  487TMC3    C8 7303   3.762   3.928  13.013 -0.3131  0.1412  0.6546
  487TMC3    O1 7304   4.088   4.079  13.438  0.3371  0.0943  0.4097
  487TMC3    O2 7305   3.741   3.824  12.952  0.2410 -0.6213  0.0463
  488MPD2     C 7306   4.294   1.649  16.597  0.3777 -0.0414 -0.3113
  488MPD2    C1 7307   4.333   1.754  16.668 -0.6291 -0.5151  0.5537
  488MPD2    C2 7308   4.273   1.771  16.792  0.1437 -0.4298  0.8759
  488MPD2    C3 7309   4.172   1.690  16.842 -0.1278 -0.0309 -0.0677
  488MPD2    C4 7310   4.141   1.573  16.772 -0.3126  0.5823 -0.4447
  488MPD2    C5 7311   4.202   1.554  16.650  0.2069  0.4378 -0.5569
  488MPD2     H 7312   4.309   1.859  16.845  0.4353  1.1427 -1.9468
  488MPD2    H1 7313   4.078   1.494  16.810 -1.0716  1.4968  0.1875
  488MPD2    H2 7314   4.338   1.624  16.501 -1.7530 -1.3165 -0.9442
  488MPD2    H3 7315   4.185   1.461  16.597  0.0400 -0.0601  0.3641
  488MPD2     N 7316   4.129   1.709  16.974 -0.6099  0.0858  0.2391
  488MPD2    H5 7317   4.175   1.792  17.010 -0.8317  0.0508  0.6033
  488MPD2    N1 7318   4.428   1.847  16.618  0.1791 -0.5283  0.3007
  488MPD2    H7 7319   4.446   1.925  16.681  0.3173  0.0794 -0.4808
  489TMC3    C1 7320   4.018   1.695  17.177  0.2000  0.0812 -0.8967
  489TMC3    C2 7321   4.066   1.825  17.182 -0.0887 -0.0744 -0.6408
  489TMC3    C3 7322   4.100   1.880  17.308  0.2201 -0.0763  0.1208
  489TMC3    C4 7323   3.988   1.619  17.285  0.4325 -0.7448 -0.0376
  489TMC3    C5 7324   4.025   1.680  17.400 -0.7882  0.7658 -0.1480
  489TMC3    C6 7325   4.081   1.802  17.420 -0.2293 -0.4310  0.0197
  489TMC3     C 7326   4.033   1.642  17.047  0.0868 -0.1919 -0.6595
  489TMC3     O 7327   3.967   1.543  17.013  0.1562 -0.5935  0.7525
  489TMC3     H 7328   4.070   1.889  17.095  0.0680  1.2417  0.3394
  489TMC3    H1 7329   3.951   1.517  17.275  0.8014 -0.7617 -1.1817
  489TMC3    H2 7330   4.090   1.842  17.521  2.2719  0.1739 -0.4446
  489TMC3    C7 7331   3.985   1.606  17.522 -0.4167  0.1637  0.6840
  489TMC3    C8 7332   4.205   1.972  17.305  0.9186  0.9589 -0.2462
  489TMC3    O1 7333   4.036   1.642  17.631  0.7321 -0.1602 -0.0268
  489TMC3    O2 7334   4.258   1.986  17.195  0.0591 -0.2164 -0.3680
  490MPD2     C 7335   0.335   1.147  17.541 -0.2110  0.5094  0.4522
  490MPD2    C1 7336   0.293   1.102  17.670 -0.2263  0.4267 -0.0695
  490MPD2    C2 7337   0.383   1.123   0.021 -0.1053 -0.0513  0.0009
  490MPD2    C3 7338   0.500   1.188   0.002 -0.1472 -0.2876  0.1049
  490MPD2    C4 7339   0.536   1.218  17.629 -0.3475  0.4579  0.0001
  490MPD2    C5 7340   0.453   1.207  17.525  0.7631 -0.3456  0.1616
  490MPD2     H 7341   0.343   1.093   0.118 -0.1390 -0.1969 -0.0583
  490MPD2    H1 7342   0.630   1.271  17.617 -1.1688  2.5285  2.5536
  490MPD2    H2 7343   0.268   1.134  17.457 -0.2709  0.5480  0.4933
  490MPD2    H3 7344   0.477   1.241  17.425 -0.2072  2.0912  0.7507
  490MPD2     N 7345   0.586   1.237   0.099  0.7142 -0.4494  0.1333
  490MPD2    H5 7346   0.676   1.272   0.066  0.6828 -0.1885  0.3238
  490MPD2    N1 7347   0.160   1.040  17.689  0.4989  0.3907  0.2028
  490MPD2    H7 7348   0.125   1.024   0.026 -3.7058 -0.6111 -1.5188
  491TMC3    C1 7349   4.696   0.935  17.626  0.1817  0.5440 -0.2127
  491TMC3    C2 7350   4.712   0.849  17.731  0.1736 -0.2362  0.6235
  491TMC3    C3 7351   4.650   0.729  17.730 -0.1890  0.2921 -0.3342
  491TMC3    C4 7352   4.610   0.907  17.525  0.4798  0.0778  0.0916
  491TMC3    C5 7353   4.541   0.791  17.531  0.1588  0.2031  0.4784
  491TMC3    C6 7354   4.563   0.699  17.631 -0.3946  0.1246 -1.1176
  491TMC3     C 7355   0.068   1.004  17.586 -0.1341 -0.1813 -0.3764
  491TMC3     O 7356   0.077   1.029  17.465 -0.0778 -0.3577  0.3113
  491TMC3     H 7357   0.037   0.866   0.059  3.4243  0.7110 -2.0651
  491TMC3    H1 7358   4.611   0.968  17.436  1.4606  0.4699  0.3766
  491TMC3    H2 7359   4.491   0.617  17.635  1.5176 -1.5542 -1.2860
  491TMC3    C7 7360   4.470   0.745  17.412  0.2319 -0.0397  0.0123
  491TMC3    C8 7361   4.640   0.657   0.101  0.1804  0.2679 -0.0770
  491TMC3    O1 7362   4.453   0.622  17.401  0.0226  0.0941 -0.7547
  491TMC3    O2 7363   4.703   0.715   0.193 -0.1858  0.0103 -0.3762
  492MPD2     C 7364   0.710   0.500  11.699 -0.3093  0.3940 -0.0229
  492MPD2    C1 7365   0.630   0.394  11.647 -0.4902  0.0603  0.0253
  492MPD2    C2 7366   0.563   0.320  11.741 -0.6086 -0.1052  0.2936
  492MPD2    C3 7367   0.583   0.337  11.878  0.4293  0.2071 -0.2557
  492MPD2    C4 7368   0.669   0.433  11.925  0.4845  0.0821  0.8952
  492MPD2    C5 7369   0.725   0.522  11.836 -0.1830 -0.1250  0.3980
  492MPD2     H 7370   0.485   0.252  11.708 -0.0877 -0.0429 -1.0964
  492MPD2    H1 7371   0.666   0.449  12.032 -2.2866  1.3062  0.6169
  492MPD2    H2 7372   0.757   0.574  11.634  1.5601 -1.6311 -0.9850
  492MPD2    H3 7373   0.786   0.604  11.872  0.9280  0.3268 -2.5911
  492MPD2     N 7374   0.520   0.260  11.973  0.1774 -0.0913 -0.3478
  492MPD2    H5 7375   0.557   0.271  12.067 -0.6638  0.5005 -0.0897
  492MPD2    N1 7376   0.626   0.371  11.505 -0.1100 -0.4807 -0.4484
  492MPD2    H7 7377   0.688   0.422  11.444 -0.2613  1.6164  1.1377
  493TMC3    C1 7378   0.561   0.256  11.308 -0.4625 -0.1787  0.0049
  493TMC3    C2 7379   0.581   0.364  11.237  0.3502  0.2522  0.1903
  493TMC3    C3 7380   0.621   0.335  11.105  0.2468  0.2147 -0.0342
  493TMC3    C4 7381   0.522   0.137  11.254  0.5948 -0.1323  0.0115
  493TMC3    C5 7382   0.532   0.114  11.116  0.0214 -0.2700  0.6739
  493TMC3    C6 7383   0.588   0.211  11.047 -0.0002 -0.4473  0.0405
  493TMC3     C 7384   0.540   0.274  11.449  0.4630  0.6013  0.8268
  493TMC3     O 7385   0.465   0.198  11.502 -0.5843 -0.1567 -0.3271
  493TMC3     H 7386   0.599   0.458  11.287 -4.2640  1.4883 -0.4386
  493TMC3    H1 7387   0.485   0.055  11.315 -1.7964  2.9900  2.7795
  493TMC3    H2 7388   0.605   0.196  10.940 -1.0033  1.0221 -0.3173
  493TMC3    C7 7389   0.407   0.067  11.048  0.0063  0.1221  0.3365
  493TMC3    C8 7390   0.623   0.447  11.019 -0.1607 -0.3838 -0.1139
  493TMC3    O1 7391   0.365   0.128  10.950  0.1370  0.2476 -0.2770
  493TMC3    O2 7392   0.668   0.549  11.065 -0.3801 -0.2344 -0.3337
  494TMC3    C1 7393   1.068   3.013   0.681 -0.6402 -0.3768 -0.0755
  494TMC3    C2 7394   1.097   2.878   0.708  0.3527  0.4339 -0.9209
  494TMC3    C3 7395   1.147   2.810   0.601  0.7002 -0.2129 -1.2182
  494TMC3    C4 7396   1.088   3.070   0.559 -0.9858 -0.5400  0.5584
  494TMC3    C5 7397   1.144   2.998   0.459 -0.5387  0.2447  0.0503
  494TMC3    C6 7398   1.168   2.868   0.478  0.2325  0.1890 -0.7160
  494TMC3     C 7399   1.043   3.096   0.793 -0.9510  0.3250 -0.1309
  494TMC3     O 7400   1.088   3.059   0.904 -0.6823  0.3361  0.9074
  494TMC3     H 7401   1.076   2.832   0.804  3.3269 -1.7447 -1.3319
  494TMC3    H1 7402   1.072   3.176   0.541 -3.8353 -0.6138  2.8089
  494TMC3    H2 7403   1.212   2.804   0.402 -1.1601  0.0685 -1.4364
  494TMC3    C7 7404   1.124   3.025   0.317 -0.7369  0.2908  0.0873
  494TMC3    C8 7405   1.131   2.665   0.597  0.0165 -0.0167 -0.2376
  494TMC3    O1 7406   1.198   2.962   0.240  0.2617  0.5913  0.3562
  494TMC3    O2 7407   1.176   2.602   0.691  0.8215 -0.7335  0.5339
  495TMC3    C1 7408   4.699   0.204  14.950 -0.1225  0.4645  0.4909
  495TMC3    C2 7409   4.631   0.196  14.830  0.0976 -0.0925 -0.1812
  495TMC3    C3 7410   4.493   0.220  14.842 -0.1671 -0.7343 -1.1792
  495TMC3    C4 7411   4.642   0.238  15.069 -0.1987 -0.6145  0.4906
  495TMC3    C5 7412   4.505   0.268  15.072 -0.2433 -0.1738  0.4261
  495TMC3    C6 7413   4.427   0.259  14.959 -0.2271  0.2503 -0.1706
  495TMC3     C 7414   0.071   0.109  14.962  0.7591  0.0647  0.1627
  495TMC3     O 7415   0.178   0.161  15.000  0.3242  0.0724 -0.2826
  495TMC3     H 7416   4.679   0.175  14.736 -0.8760  3.7055 -1.5358
  495TMC3    H1 7417   4.700   0.226  15.160 -3.2411 -1.9841  2.2400
  495TMC3    H2 7418   4.321   0.281  14.958 -0.4534 -0.7846  1.2347
  495TMC3    C7 7419   4.448   0.230  15.196 -0.1641 -0.0853 -1.0512
  495TMC3    C8 7420   4.399   0.142  14.758 -0.0536  0.4540 -0.1126
  495TMC3    O1 7421   4.516   0.233  15.297 -0.2967 -0.5249 -0.6382
  495TMC3    O2 7422   4.278   0.158  14.770 -0.0711  0.3794 -0.3977
  496MPD2     C 7423   1.457   0.224  15.518 -0.1016  0.3846 -0.0833
  496MPD2    C1 7424   1.535   0.220  15.622  0.5063 -0.1914  0.2380
  496MPD2    C2 7425   1.489   0.150  15.736  0.1718 -0.9123 -0.3066
  496MPD2    C3 7426   1.365   0.087  15.746 -0.0195  0.4248 -0.1800
  496MPD2    C4 7427   1.297   0.083  15.632  0.3628  0.3263 -0.5212
  496MPD2    C5 7428   1.338   0.149  15.518  0.1774 -0.1816 -0.3789
  496MPD2     H 7429   1.557   0.134  15.819  1.3381 -0.3508 -1.1545
  496MPD2    H1 7430   1.205   0.026  15.621  1.1431 -1.1590  0.6774
  496MPD2    H2 7431   1.488   0.279  15.430  0.1210  0.6229  0.1443
  496MPD2    H3 7432   1.266   0.157  15.438  0.9603 -3.0359 -1.3647
  496MPD2     N 7433   1.318   0.017  15.864  0.0835  0.1576  0.0783
  496MPD2    H5 7434   1.233   4.703  15.850 -0.0834  0.0839  1.3885
  496MPD2    N1 7435   1.664   0.280  15.612 -0.2817 -0.0033 -0.3029
  496MPD2    H7 7436   1.698   0.318  15.524  0.7381 -3.1755 -1.2881
  497TMC3    C1 7437   1.328   4.646  16.071 -0.3367 -0.2238 -0.7627
  497TMC3    C2 7438   1.215   4.577  16.038  0.2801 -0.3896 -0.3502
  497TMC3    C3 7439   1.162   4.491  16.125  0.1124 -0.4856 -0.0367
  497TMC3    C4 7440   1.389   4.634  16.202 -0.1001  0.5930  0.0078
  497TMC3    C5 7441   1.321   4.547  16.289  0.8121  0.5734  0.3858
  497TMC3    C6 7442   1.207   4.475  16.254 -0.2737  0.3047  0.1511
  497TMC3     C 7443   1.379   0.017  15.988  0.3211  0.0069  0.3093
  497TMC3     O 7444   1.458   0.095  16.041 -0.6105  0.4345 -0.8129
  497TMC3     H 7445   1.163   4.604  15.947  1.2921  0.2620 -0.7392
  497TMC3    H1 7446   1.477   4.694  16.221 -0.2031  1.8247 -3.4717
  497TMC3    H2 7447   1.149   4.422  16.328 -1.4972  0.5170 -0.6586
  497TMC3    C7 7448   1.353   4.529  16.430  0.7024 -0.2126 -0.2035
  497TMC3    C8 7449   1.037   4.430  16.095 -0.7188 -0.3676  0.3247
  497TMC3    O1 7450   1.293   4.447  16.495  0.0659 -0.8085 -0.4493
  497TMC3    O2 7451   0.962   4.433  16.194 -0.3858  0.3637 -0.8808
  498MPD2     C 7452   3.277   4.687  10.041 -0.3172  0.1052 -0.8090
  498MPD2    C1 7453   3.191   0.052  10.065 -0.7002 -0.2565 -0.0985
  498MPD2    C2 7454   3.055   0.034  10.075  0.4009 -0.0415 -0.2054
  498MPD2    C3 7455   3.001   4.648  10.082  0.4808 -0.0980 -0.5177
  498MPD2    C4 7456   3.088   4.540  10.074  0.1647 -0.0109  0.6297
  498MPD2    C5 7457   3.227   4.557  10.050 -0.3051 -0.1600  0.2965
  498MPD2     H 7458   2.988   0.118  10.089 -1.3385 -1.3769 -0.5338
  498MPD2    H1 7459   3.060   4.435  10.075  0.6594 -0.1785 -1.8615
  498MPD2    H2 7460   3.384   4.699  10.030 -0.3901  1.7952  0.3412
  498MPD2    H3 7461   3.301   4.479  10.055  0.9063  0.9630 -0.3617
  498MPD2     N 7462   2.865   4.637  10.098 -0.2081  0.2269  0.3125
  498MPD2    H5 7463   2.821   4.728  10.111 -0.3322  0.1137  0.6673
  498MPD2    N1 7464   3.233   0.190  10.073 -0.4407 -0.7069 -0.3202
  498MPD2    H7 7465   3.165   0.265  10.079  1.3708  0.8966  0.2396
  499TMC3    C1 7466   3.386   0.373  10.112 -0.3146 -0.1784 -0.5386
  499TMC3    C2 7467   3.517   0.423  10.108 -0.2234  0.3974  0.0381
  499TMC3    C3 7468   3.539   0.556  10.121 -0.2963 -0.0294 -0.3809
  499TMC3    C4 7469   3.281   0.458  10.129  0.7535  0.3211 -0.2479
  499TMC3    C5 7470   3.303   0.593  10.154 -0.2267  0.2810 -0.3119
  499TMC3    C6 7471   3.436   0.639  10.145  0.0949  0.2351  0.5071
  499TMC3     C 7472   3.361   0.230  10.077 -0.6858  0.5076 -0.4407
  499TMC3     O 7473   3.459   0.171  10.049 -0.5255 -0.1794  0.5635
  499TMC3     H 7474   3.605   0.360  10.106 -0.2169  0.3200  1.9645
  499TMC3    H1 7475   3.182   0.418  10.147  0.7990  0.0992 -0.4998
  499TMC3    H2 7476   3.456   0.744  10.159 -1.3834  0.5887  0.0005
  499TMC3    C7 7477   3.204   0.684  10.098  0.0158  0.6953 -0.2697
  499TMC3    C8 7478   3.644   0.622  10.045  0.2913 -0.7742  0.1035
  499TMC3    O1 7479   3.238   0.794  10.058  0.1144 -0.0447  0.2232
  499TMC3    O2 7480   3.610   0.724   9.989 -0.8524 -0.0539 -0.1898
  500MPD2     C 7481   4.625   0.743  10.112 -0.2383  0.4183  0.1709
  500MPD2    C1 7482   4.596   0.871  10.076 -0.4633 -0.5439 -0.1357
  500MPD2    C2 7483   4.465   0.899  10.039  0.4865 -0.1236  0.0752
  500MPD2    C3 7484   4.361   0.802  10.053 -1.1378  0.7341  0.7189
  500MPD2    C4 7485   4.392   0.676  10.088 -0.2184 -0.2957 -0.3400
  500MPD2    C5 7486   4.526   0.643  10.112  0.4455  0.0539 -0.4981
  500MPD2     H 7487   4.431   0.995  10.003  1.0944  0.0475 -0.0476
  500MPD2    H1 7488   4.312   0.603  10.103  0.4665 -0.8705  0.5244
  500MPD2    H2 7489   4.724   0.714  10.146 -0.1304 -1.8196 -2.0727
  500MPD2    H3 7490   4.558   0.546  10.148 -0.3471  0.0118  0.1047
  500MPD2     N 7491   4.225   0.835  10.041 -0.5689 -0.2415  0.3636
  500MPD2    H5 7492   4.160   0.758  10.051  0.1222 -0.9673 -0.7194
  500MPD2    N1 7493   4.692   0.971  10.078  0.6383  0.4391 -0.1785
  500MPD2    H7 7494   4.670   1.058  10.031  3.0987  0.5690 -1.0982
  501TMC3    C1 7495   0.170   1.068  10.120  0.4211 -0.0517 -0.1675
  501TMC3    C2 7496   0.120   1.183  10.077 -0.1662 -0.1591  0.0216
  501TMC3    C3 7497   0.194   1.298  10.089 -0.2881  0.2061  0.2477
  501TMC3    C4 7498   0.293   1.050  10.176  0.0923 -0.2549 -0.6065
  501TMC3    C5 7499   0.372   1.159  10.183  0.0322 -0.4486  0.1741
  501TMC3    C6 7500   0.325   1.281  10.141  0.4163  0.3274  0.5781
  501TMC3     C 7501   0.077   0.955  10.139  0.3281  0.4051 -0.1544
  501TMC3     O 7502   0.110   0.875  10.229 -0.3970 -0.0644 -0.4828
  501TMC3     H 7503   0.013   1.193  10.061 -0.1424  1.4155  0.8209
  501TMC3    H1 7504   0.317   0.951  10.214 -0.5518 -0.4575 -0.7317
  501TMC3    H2 7505   0.388   1.369  10.148  1.0110 -0.1643  1.3770
  501TMC3    C7 7506   0.466   1.153  10.293 -0.1412  0.1739  0.3321
  501TMC3    C8 7507   0.131   1.416  10.122  0.6469  0.0265 -0.9312
  501TMC3    O1 7508   0.466   1.046  10.353  0.5623  0.5543 -0.3289
  501TMC3    O2 7509   0.187   1.486  10.206 -0.1825 -0.3762  0.4103
  502TMC3    C1 7510   3.905   0.497  14.924  0.4713  0.6452 -0.2266
  502TMC3    C2 7511   3.950   0.584  14.836  0.2350 -0.5626  0.1708
  502TMC3    C3 7512   3.880   0.704  14.832 -0.5218 -0.3023  0.8664
  502TMC3    C4 7513   3.781   0.501  14.978  0.1203 -0.0971  0.2139
  502TMC3    C5 7514   3.705   0.611  14.969  0.3240 -0.1761  0.7865
  502TMC3    C6 7515   3.762   0.718  14.902  0.1063 -0.3288 -0.3289
  502TMC3     C 7516   4.009   0.469  15.020  0.0951 -0.3552 -1.0517
  502TMC3     O 7517   4.124   0.467  14.980 -0.3625  0.0181 -0.1156
  502TMC3     H 7518   4.045   0.571  14.786  0.4971 -0.2733  0.6022
  502TMC3    H1 7519   3.747   0.417  15.038 -0.2790 -1.2539 -1.6453
  502TMC3    H2 7520   3.711   0.813  14.908  0.6240  0.1315 -3.3959
  502TMC3    C7 7521   3.631   0.627  15.093  0.4292 -0.4840 -0.2915
  502TMC3    C8 7522   3.963   0.819  14.808  0.2104  0.2138  0.0661
  502TMC3    O1 7523   3.693   0.589  15.191 -0.4912  0.1462  0.5583
  502TMC3    O2 7524   3.910   0.925  14.770 -0.8148  0.2836 -0.2899
  503MPD2     C 7525   1.374   1.737  17.141 -0.2120  0.3761  0.4901
  503MPD2    C1 7526   1.448   1.820  17.226 -0.2707 -0.1096 -0.4262
  503MPD2    C2 7527   1.523   1.763  17.328  0.8343  0.3011 -0.4282
  503MPD2    C3 7528   1.523   1.629  17.351  0.2104  1.3155 -0.0378
  503MPD2    C4 7529   1.444   1.549  17.268  0.7075 -0.3918  0.6453
  503MPD2    C5 7530   1.375   1.604  17.164  0.1130 -0.5179 -0.9226
  503MPD2     H 7531   1.576   1.827  17.399 -1.0804  0.7041  0.6240
  503MPD2    H1 7532   1.433   1.442  17.285 -0.1880 -0.3534  0.3098
  503MPD2    H2 7533   1.313   1.780  17.063  2.8610  0.2730 -1.9957
  503MPD2    H3 7534   1.318   1.541  17.096 -0.9478  0.3840 -0.8726
  503MPD2     N 7535   1.588   1.578  17.465  0.0454 -0.1320  0.8629
  503MPD2    H5 7536   1.613   1.637  17.543  0.0244 -2.4118  2.6189
  503MPD2    N1 7537   1.425   1.956  17.223 -0.5444  0.0009  0.4423
  503MPD2    H7 7538   1.455   2.012  17.302 -1.0963  2.2161 -0.8988
  504TMC3    C1 7539   1.723   1.413  17.582 -0.0835 -0.2272 -0.4128
  504TMC3    C2 7540   1.670   1.443  17.706  0.1255 -0.0080 -0.1823
  504TMC3    C3 7541   1.744   1.393   0.048  0.4131  0.5803 -0.7886
  504TMC3    C4 7542   1.839   1.347  17.557  0.4449 -0.8795 -0.2286
  504TMC3    C5 7543   1.901   1.279  17.655  0.3496  0.3710 -0.0299
  504TMC3    C6 7544   1.850   1.303   0.027 -0.0182 -0.4285  0.0384
  504TMC3     C 7545   1.648   1.454  17.467 -0.3439  0.3585  0.6307
  504TMC3     O 7546   1.667   1.385  17.369  0.2388 -0.0123  0.2323
  504TMC3     H 7547   1.588   1.513  17.722  1.2640  1.9956 -3.0492
  504TMC3    H1 7548   1.876   1.344  17.456 -2.6439  1.2108 -1.4405
  504TMC3    H2 7549   1.904   1.247   0.102 -0.4345  0.9560  1.3628
  504TMC3    C7 7550   2.049   1.265  17.635  0.6465 -0.5357 -0.1728
  504TMC3    C8 7551   1.653   1.363   0.154 -0.1489 -0.4712 -0.2411
  504TMC3    O1 7552   2.100   1.309  17.534 -0.2953  0.1879 -0.4469
  504TMC3    O2 7553   1.535   1.352   0.117 -0.2686  0.0865  0.1454
  505MPD2     C 7554   1.682   0.130  11.081 -0.0011  0.2173 -0.5562
  505MPD2    C1 7555   1.792   0.087  11.016  0.1114 -0.5463 -0.1443
  505MPD2    C2 7556   1.872   0.177  10.943 -0.1796 -0.4077  0.1713
  505MPD2    C3 7557   1.828   0.308  10.934 -0.4071 -0.4179  0.4865
  505MPD2    C4 7558   1.706   0.339  10.993 -0.9944 -0.1195  0.6935
  505MPD2    C5 7559   1.632   0.255  11.067  0.3288 -0.1957 -0.1118
  505MPD2     H 7560   1.971   0.156  10.905 -0.5967  1.5259 -1.9740
  505MPD2    H1 7561   1.664   0.438  10.985  0.3845  0.3868 -0.3044
  505MPD2    H2 7562   1.620   0.060  11.136 -0.8144  2.9776  1.9712
  505MPD2    H3 7563   1.533   0.283  11.102  0.8074  1.4207 -0.0532
  505MPD2     N 7564   1.904   0.413  10.883 -1.2151  0.5774  0.3307
  505MPD2    H5 7565   1.870   0.507  10.902  1.7792  2.1579 -2.0007
  505MPD2    N1 7566   1.841   4.692  11.040  0.3655 -0.0212 -0.0959
  505MPD2    H7 7567   1.779   4.628  11.089  1.9454 -2.7633 -1.7109
  506TMC3    C1 7568   1.989   4.529  11.097 -0.4265  0.1127  0.5037
  506TMC3    C2 7569   1.937   4.444  11.002  0.8259 -0.2740 -0.2472
  506TMC3    C3 7570   2.032   4.357  10.959  0.0884  0.1264 -0.5641
  506TMC3    C4 7571   2.112   4.520  11.160 -0.3291  1.0922 -0.3987
  506TMC3    C5 7572   2.204   4.425  11.112  0.2082  0.3614  0.1392
  506TMC3    C6 7573   2.156   4.345  11.003  0.3536  0.6652  0.1712
  506TMC3     C 7574   1.971   4.663  11.055  0.3372 -0.1407 -0.0057
  506TMC3     O 7575   2.067   4.736  11.077  0.2902  0.3276 -0.4309
  506TMC3     H 7576   1.851   4.464  10.939  1.0335  0.0106 -0.4380
  506TMC3    H1 7577   2.138   4.586  11.242 -0.9898 -0.6619  1.2234
  506TMC3    H2 7578   2.217   4.266  10.963 -1.7310  0.2031 -2.1072
  506TMC3    C7 7579   2.337   4.476  11.092  0.1436 -0.7024  0.8197
  506TMC3    C8 7580   2.007   4.294  10.835 -0.2010 -0.7476  0.1700
  506TMC3    O1 7581   2.401   4.408  11.010  0.4366  0.9311 -0.1245
  506TMC3    O2 7582   1.929   4.204  10.821 -0.4925  0.0482  0.5161
  507TMC3    C1 7583   2.172   1.340  15.725 -0.1627  0.0689  0.5329
  507TMC3    C2 7584   2.254   1.243  15.675 -0.0607 -0.3850 -0.3680
  507TMC3    C3 7585   2.387   1.268  15.655 -0.0294  0.6440 -0.9033
  507TMC3    C4 7586   2.219   1.461  15.759  0.0307  0.6085 -1.6175
  507TMC3    C5 7587   2.355   1.486  15.745  0.4973 -0.0517 -0.1916
  507TMC3    C6 7588   2.437   1.393  15.697  0.0066 -0.1239 -0.0658
  507TMC3     C 7589   2.036   1.329  15.701 -0.6356 -0.1939 -0.0456
  507TMC3     O 7590   1.996   1.227  15.645  0.1442 -0.8003 -0.4347
  507TMC3     H 7591   2.201   1.152  15.650 -0.5508  0.0628 -0.9579
  507TMC3    H1 7592   2.161   1.550  15.781 -0.4910 -0.0243 -0.4338
  507TMC3    H2 7593   2.539   1.425  15.683 -0.3856  0.9288 -0.5152
  507TMC3    C7 7594   2.364   1.599  15.655 -0.8833  0.1449  0.6118
  507TMC3    C8 7595   2.439   1.240  15.524  0.4171 -0.4528  0.6598
  507TMC3    O1 7596   2.264   1.606  15.583 -0.3295  0.1884  0.7530
  507TMC3    O2 7597   2.542   1.296  15.489  0.1814  0.4338 -0.6288
  508MPD2     C 7598   3.363   3.172  16.075 -0.4211 -0.9211  0.4103
  508MPD2    C1 7599   3.343   3.275  16.168 -0.2277 -0.0749 -0.5102
  508MPD2    C2 7600   3.317   3.405  16.124 -0.1260 -0.1599 -0.1990
  508MPD2    C3 7601   3.290   3.428  15.994 -0.0979  0.2050 -0.0956
  508MPD2    C4 7602   3.299   3.323  15.905  0.0052  0.7113  0.1162
  508MPD2    C5 7603   3.342   3.198  15.943 -0.1707 -0.0380  0.2791
  508MPD2     H 7604   3.316   3.490  16.192  1.0970 -0.8613  0.6845
  508MPD2    H1 7605   3.283   3.325  15.797 -0.6391  0.4421  0.2047
  508MPD2    H2 7606   3.408   3.077  16.102  0.3580 -0.7057 -0.1450
  508MPD2    H3 7607   3.352   3.111  15.879  2.2200 -0.6676  1.5122
  508MPD2     N 7608   3.263   3.566  15.957  0.6390  0.4895 -0.4962
  508MPD2    H5 7609   3.257   3.638  16.028  0.9332 -0.1154  0.1418
  508MPD2    N1 7610   3.368   3.233  16.302  0.2662 -0.4592 -0.4861
  508MPD2    H7 7611   3.401   3.138  16.317  1.8259  0.3586  1.3259
  509TMC3    C1 7612   3.202   3.932  15.685 -0.0502 -1.0347  0.3913
  509TMC3    C2 7613   3.246   4.012  15.788 -1.0050  0.4190 -0.2169
  509TMC3    C3 7614   3.310   3.953  15.890 -0.1290  0.4908  0.7477
  509TMC3    C4 7615   3.205   3.793  15.686  0.0627 -0.3695 -1.3619
  509TMC3    C5 7616   3.257   3.747  15.804  0.3558  0.2231  0.7742
  509TMC3    C6 7617   3.314   3.819  15.904  0.6515  0.2626 -0.6019
  509TMC3     C 7618   3.109   3.986  15.586  0.0738 -0.3893 -0.4403
  509TMC3     O 7619   3.035   3.908  15.535  0.4181  0.0659 -0.2793
  509TMC3     H 7620   3.231   4.119  15.777 -0.7683  0.5370  0.6051
  509TMC3    H1 7621   3.160   3.732  15.610 -1.2638 -0.7542 -0.2609
  509TMC3    H2 7622   3.368   3.776  15.987  1.1858  0.4286 -0.8617
  509TMC3    C7 7623   3.251   3.607  15.828  0.1533  0.0928  0.0376
  509TMC3    C8 7624   3.395   4.030  15.980  0.0243  0.2251  0.3167
  509TMC3    O1 7625   3.253   3.541  15.726  0.1297  0.0470  0.3631
  509TMC3    O2 7626   3.424   3.975  16.089  0.0197 -0.0606 -0.2446
  510MPD2     C 7627   1.063   0.244  15.050  0.5953  0.2410 -0.0642
  510MPD2    C1 7628   1.143   0.145  15.106  0.8731  0.5275  0.6266
  510MPD2    C2 7629   1.280   0.128  15.068 -0.2581  0.3048  0.1804
  510MPD2    C3 7630   1.330   0.216  14.968  0.2879  0.3468  0.0255
  510MPD2    C4 7631   1.254   0.323  14.924  0.5661  0.8211 -0.0506
  510MPD2    C5 7632   1.123   0.339  14.967 -0.2043  0.2955 -0.2474
  510MPD2     H 7633   1.347   0.052  15.107  0.3467  1.2046  0.9002
  510MPD2    H1 7634   1.287   0.381  14.838  1.8402 -1.0590 -0.8328
  510MPD2    H2 7635   0.959   0.255  15.078  0.4566 -1.3998  0.1104
  510MPD2    H3 7636   1.058   0.411  14.919  1.6038  3.8978  2.7187
  510MPD2     N 7637   1.454   0.194  14.916 -0.1929  0.2700 -0.4376
  510MPD2    H5 7638   1.505   0.123  14.967 -0.3246  0.6656  0.2393
  510MPD2    N1 7639   1.073   0.041  15.178  1.1177 -0.0819 -0.3418
  510MPD2    H7 7640   0.977   0.052  15.209  2.5308  1.4109  3.5281
  511TMC3    C1 7641   1.026   4.583  15.288 -0.3817 -0.0262 -0.1118
  511TMC3    C2 7642   0.938   4.634  15.375 -0.0740 -0.0210  0.5173
  511TMC3    C3 7643   0.839   4.555  15.425 -0.5066  0.8107 -0.6074
  511TMC3    C4 7644   1.017   4.454  15.252 -0.2216 -0.1917  0.3166
  511TMC3    C5 7645   0.934   4.378  15.315 -0.5312 -0.1957 -0.3049
  511TMC3    C6 7646   0.834   4.422  15.400 -0.1451 -0.3184 -0.5243
  511TMC3     C 7647   1.123   4.658  15.212  0.5335  0.0190 -0.0221
  511TMC3     O 7648   1.233   4.608  15.193 -0.0561  0.2252 -0.1552
  511TMC3     H 7649   0.954   4.732  15.419  0.9605 -0.3938  0.9472
  511TMC3    H1 7650   1.096   4.406  15.196 -0.8196  0.8168 -1.3700
  511TMC3    H2 7651   0.787   4.355  15.471 -0.7707  0.8962  0.2222
  511TMC3    C7 7652   0.933   4.241  15.278 -0.7145 -0.1963 -0.1491
  511TMC3    C8 7653   0.743   4.626  15.509  0.3544  0.3630 -0.2332
  511TMC3    O1 7654   1.041   4.200  15.230  0.4481  0.0620  0.5517
  511TMC3    O2 7655   0.772   0.000  15.544 -0.1359  0.5438 -0.0779
  512TMC3    C1 7656   0.361   3.946  13.535 -0.1013  0.3069 -0.5893
  512TMC3    C2 7657   0.321   4.055  13.607 -0.5486  0.4480  0.2204
  512TMC3    C3 7658   0.194   4.096  13.586 -0.1586 -0.2216  0.0100
  512TMC3    C4 7659   0.284   3.879  13.442 -0.2804 -0.0978 -0.3967
  512TMC3    C5 7660   0.151   3.918  13.439 -0.1948 -0.3263  0.3071
  512TMC3    C6 7661   0.106   4.023  13.511  0.6478 -0.3673  0.2174
  512TMC3     C 7662   0.502   3.925  13.499  0.1963  0.4970 -0.0331
  512TMC3     O 7663   0.534   3.840  13.417  0.3418 -0.1490  0.3322
  512TMC3     H 7664   0.391   4.096  13.679  2.7988 -1.2506 -2.0431
  512TMC3    H1 7665   0.318   3.808  13.367  2.4202 -0.2281  0.9505
  512TMC3    H2 7666   0.001   4.049  13.512  0.6843 -0.1572 -2.2374
  512TMC3    C7 7667   0.054   3.847  13.361 -0.8689  0.5649 -0.2008
  512TMC3    C8 7668   0.136   4.194  13.671  0.4458 -0.0045  0.3992
  512TMC3    O1 7669   4.680   3.889  13.367  0.0263  0.3041  0.0471
  512TMC3    O2 7670   0.015   4.179  13.675 -0.5359  0.1015  0.2190
  513MPD2     C 7671   2.018   4.198  13.813  0.1477  0.0306  0.1106
  513MPD2    C1 7672   2.124   4.241  13.741  0.1284 -0.1780 -0.2923
  513MPD2    C2 7673   2.192   4.346  13.781  0.0443  0.2953 -0.2745
  513MPD2    C3 7674   2.165   4.411  13.901 -0.1634  0.5855  0.5958
  513MPD2    C4 7675   2.061   4.362  13.981  0.2503 -0.9583 -0.3830
  513MPD2    C5 7676   1.972   4.268  13.924 -0.3264 -0.3769 -0.1439
  513MPD2     H 7677   2.280   4.380  13.728  0.3266  0.1455  0.0979
  513MPD2    H1 7678   2.036   4.404  14.078  1.4468 -1.4760  0.1575
  513MPD2    H2 7679   1.958   4.112  13.783  1.0814 -0.1720 -1.1797
  513MPD2    H3 7680   1.878   4.235  13.966 -0.1830  0.3846  0.7687
  513MPD2     N 7681   2.255   4.520  13.947  0.0851 -0.5885 -0.9548
  513MPD2    H5 7682   2.326   4.542  13.878  1.5364  0.6687  0.9328
  513MPD2    N1 7683   2.175   4.179  13.627 -0.0529 -0.4919 -0.2215
  513MPD2    H7 7684   2.257   4.225  13.590  0.4580 -2.0247 -0.9680
  514TMC3    C1 7685   2.194   4.076  13.429  0.1743 -0.6027 -0.3751
  514TMC3    C2 7686   2.140   4.113  13.315  0.0907  0.1550 -0.0953
  514TMC3    C3 7687   2.209   4.168  13.215  0.7825  0.1523  0.0954
  514TMC3    C4 7688   2.326   4.100  13.452 -0.3549 -0.4593 -0.2281
  514TMC3    C5 7689   2.397   4.165  13.352  0.1509  0.1781  0.2392
  514TMC3    C6 7690   2.341   4.198  13.229 -0.2369  0.8941  0.3552
  514TMC3     C 7691   2.112   4.084  13.542 -0.4058 -0.2611 -0.2487
  514TMC3     O 7692   1.994   4.056  13.544 -0.0716  0.2680 -1.1417
  514TMC3     H 7693   2.036   4.093  13.294 -0.1618  0.1350  1.1216
  514TMC3    H1 7694   2.366   4.067  13.548 -0.2979 -1.2705 -0.5339
  514TMC3    H2 7695   2.396   4.264  13.164  0.3202 -0.7797 -0.8712
  514TMC3    C7 7696   2.465   4.268  13.426 -0.1266 -0.0653  0.1416
  514TMC3    C8 7697   2.170   4.105  13.087  0.4402 -0.3331 -0.5978
  514TMC3    O1 7698   2.401   4.301  13.526 -0.3515  0.2292 -0.0614
  514TMC3    O2 7699   2.089   4.015  13.096 -0.4293 -0.0114  0.0650
  515MPD2     C 7700   0.356   1.596  14.574  0.2038 -0.3351 -0.2732
  515MPD2    C1 7701   0.285   1.517  14.656 -0.2768  0.8291 -0.1014
  515MPD2    C2 7702   0.313   1.514  14.789 -0.2625  0.3058  0.5035
  515MPD2    C3 7703   0.412   1.590  14.840  0.5667 -0.2183  0.2415
  515MPD2    C4 7704   0.484   1.672  14.761  0.2583 -0.6867  0.1278
  515MPD2    C5 7705   0.454   1.676  14.629  0.7722  0.5783  0.4519
  515MPD2     H 7706   0.263   1.441  14.852 -1.0070  1.7348  1.5948
  515MPD2    H1 7707   0.546   1.746  14.811  0.0132  0.2828 -1.0090
  515MPD2    H2 7708   0.342   1.595  14.466  0.5401 -3.5978 -0.2912
  515MPD2    H3 7709   0.508   1.746  14.567  2.2623 -0.6556  0.3507
  515MPD2     N 7710   0.444   1.586  14.976  0.1372 -0.0412 -0.5376
  515MPD2    H5 7711   0.533   1.627  15.004 -0.2807 -0.4792  1.4171
  515MPD2    N1 7712   0.178   1.430  14.615 -0.1577 -0.0883  0.2968
  515MPD2    H7 7713   0.136   1.368  14.683 -1.5431  1.0667  0.5215
  516TMC3    C1 7714   0.046   1.309  14.460  0.4963 -0.1549  0.5618
  516TMC3    C2 7715   4.671   1.332  14.394 -0.7089  0.3572  0.1121
  516TMC3    C3 7716   4.576   1.232  14.391  0.0297  0.6267 -0.6856
  516TMC3    C4 7717   0.073   1.184  14.517 -0.4184  0.6156  0.1716
  516TMC3    C5 7718   4.714   1.088  14.514 -0.4362  0.7041  0.1459
  516TMC3    C6 7719   4.595   1.109  14.450  0.4426  0.0770 -0.1049
  516TMC3     C 7720   0.133   1.422  14.482  1.1203 -0.7134  0.0491
  516TMC3     O 7721   0.133   1.498  14.388  0.1348  0.3293  0.1243
  516TMC3     H 7722   4.649   1.434  14.367 -0.0757  1.0842  2.3298
  516TMC3    H1 7723   0.150   1.177  14.593 -1.6325  4.3070  1.7466
  516TMC3    H2 7724   4.519   1.032  14.440 -0.4061  0.9266 -0.1256
  516TMC3    C7 7725   4.716   0.984  14.617  0.1319 -0.3523 -0.3088
  516TMC3    C8 7726   4.449   1.262  14.333 -0.3583  0.0743 -0.3216
  516TMC3    O1 7727   0.039   0.996  14.722 -0.4622 -0.2150  1.3303
  516TMC3    O2 7728   4.344   1.221  14.383  0.0358  0.4942 -0.2522
  517MPD2     C 7729   4.387   3.015   0.265 -0.6356  0.0885 -0.4881
  517MPD2    C1 7730   4.525   2.993   0.264 -0.4417  0.9445  0.7525
  517MPD2    C2 7731   4.603   3.077   0.334 -0.8128 -0.6216  0.8198
  517MPD2    C3 7732   4.549   3.173   0.417 -0.3244 -0.0066  0.4821
  517MPD2    C4 7733   4.416   3.196   0.410 -0.2428  0.6848  0.1611
  517MPD2    C5 7734   4.328   3.115   0.344  0.5828  0.0550 -0.5509
  517MPD2     H 7735   4.711   3.068   0.322 -0.6335  1.8258  0.5806
  517MPD2    H1 7736   4.371   3.283   0.456 -1.9682  1.0431 -2.1824
  517MPD2    H2 7737   4.314   2.947   0.224  0.8981 -2.1615  0.5221
  517MPD2    H3 7738   4.224   3.144   0.341  0.7564  0.5733 -1.7559
  517MPD2     N 7739   4.629   3.272   0.482 -0.4294 -0.6187 -0.4457
  517MPD2    H5 7740   4.580   3.346   0.531  3.6914  1.4816  0.4476
  517MPD2    N1 7741   4.587   2.880   0.200 -0.1079  0.2866 -0.8888
  517MPD2    H7 7742   4.685   2.878   0.171  0.0345 -0.8090 -0.3543
  518TMC3    C1 7743   4.615   2.677   0.080  0.9355  0.0688  0.1491
  518TMC3    C2 7744   4.573   2.552   0.058 -0.6381  0.3093  0.5953
  518TMC3    C3 7745   4.649   2.467  17.742  0.1058  0.2213 -0.9884
  518TMC3    C4 7746   4.733   2.720   0.024  0.6317 -0.1707 -0.1273
  518TMC3    C5 7747   0.064   2.638  17.699  0.2463  0.9760 -0.9856
  518TMC3    C6 7748   0.026   2.513  17.684  0.1318 -0.5769  0.2032
  518TMC3     C 7749   4.531   2.768   0.151  0.9882 -1.0287  0.3255
  518TMC3     O 7750   4.409   2.740   0.144  0.2933  0.0079  0.2286
  518TMC3     H 7751   4.476   2.521   0.095  0.7353 -3.9605  0.6188
  518TMC3    H1 7752   0.011   2.827   0.026 -0.1128 -0.0577  0.2458
  518TMC3    H2 7753   0.081   2.449  17.616  0.1183  0.8871 -1.1787
  518TMC3    C7 7754   0.204   2.661  17.677 -0.2969 -0.3903 -0.1180
  518TMC3    C8 7755   4.645   2.328   0.011 -0.7483 -0.9330  0.2086
  518TMC3    O1 7756   0.246   2.779  17.670 -0.2921  0.2837  0.2377
  518TMC3    O2 7757   4.705   2.250  17.696 -0.3916 -0.5719  0.3839
  519MPD2     C 7758   1.195   1.328  14.553  0.3115 -0.3004  0.0368
  519MPD2    C1 7759   1.165   1.251  14.445  0.2196 -0.0730  0.6056
  519MPD2    C2 7760   1.199   1.121  14.439  0.0545  0.0937  0.3800
  519MPD2    C3 7761   1.262   1.061  14.552  0.3835 -0.0196 -0.0903
  519MPD2    C4 7762   1.290   1.130  14.668 -0.1636  0.5288 -0.3715
  519MPD2    C5 7763   1.262   1.265  14.662 -0.0989 -0.3895 -0.2950
  519MPD2     H 7764   1.175   1.060  14.353 -2.0681 -0.5728  1.4308
  519MPD2    H1 7765   1.338   1.081  14.752 -1.9276 -0.9977 -0.2437
  519MPD2    H2 7766   1.163   1.432  14.561  0.1727 -0.2515 -1.0782
  519MPD2    H3 7767   1.275   1.337  14.742 -0.2336  1.0306 -1.5548
  519MPD2     N 7768   1.291   0.922  14.547 -0.4352 -0.0666 -0.5577
  519MPD2    H5 7769   1.344   0.886  14.626  0.5573 -0.1787 -1.2753
  519MPD2    N1 7770   1.105   1.327  14.334  0.0772 -0.1508  0.0807
  519MPD2    H7 7771   1.083   1.426  14.341 -0.3649 -0.2706  0.3497
  520TMC3    C1 7772   1.299   0.706  14.464 -0.3016  0.2543 -1.2740
  520TMC3    C2 7773   1.244   0.618  14.378 -0.3844 -0.1376 -0.4425
  520TMC3    C3 7774   1.311   0.512  14.322  0.3568 -0.1082  0.5072
  520TMC3    C4 7775   1.424   0.675  14.517 -0.9533  0.3672 -1.0362
  520TMC3    C5 7776   1.492   0.583  14.446 -0.1561 -0.1301  0.9922
  520TMC3    C6 7777   1.444   0.502  14.348 -0.1410  0.0369  0.0459
  520TMC3     C 7778   1.234   0.836  14.463 -0.0429  0.3424  0.3224
  520TMC3     O 7779   1.144   0.848  14.385  0.6646 -0.3742 -0.0272
  520TMC3     H 7780   1.138   0.623  14.357 -0.2485  1.2270 -0.8680
  520TMC3    H1 7781   1.473   0.738  14.590  2.7137 -1.4524 -1.9384
  520TMC3    H2 7782   1.501   0.417  14.312 -0.6746 -0.2430 -0.1398
  520TMC3    C7 7783   1.634   0.582  14.456 -0.3200  0.5169 -0.3404
  520TMC3    C8 7784   1.295   0.499  14.177  0.1252  0.2934 -0.3053
  520TMC3    O1 7785   1.699   0.606  14.559  0.0738  0.1685 -0.0787
  520TMC3    O2 7786   1.394   0.467  14.115 -0.0052  0.8981 -0.1022
  521MPD2     C 7787   2.244   4.186  17.579 -0.3827  0.0614  0.1411
  521MPD2    C1 7788   2.196   4.108  17.474 -0.3753  0.3806 -0.1977
  521MPD2    C2 7789   2.278   4.013  17.416 -0.4662 -0.1287  0.0903
  521MPD2    C3 7790   2.399   3.986  17.475 -0.5116  0.2017 -0.1756
  521MPD2    C4 7791   2.445   4.065  17.578 -0.3237  0.2178  0.0814
  521MPD2    C5 7792   2.369   4.170  17.627 -0.1940 -0.8447 -0.1683
  521MPD2     H 7793   2.249   3.962  17.326  0.1854 -2.0282  0.9546
  521MPD2    H1 7794   2.549   4.075  17.607 -0.2401  2.5068 -0.9483
  521MPD2    H2 7795   2.185   4.266  17.623  0.7291  0.9354  0.0457
  521MPD2    H3 7796   2.409   4.222  17.712  0.4901 -0.3120 -0.8196
  521MPD2     N 7797   2.479   3.896  17.410  0.0159  0.0560 -0.0861
  521MPD2    H5 7798   2.461   3.861  17.317 -0.1594  0.1929 -0.1023
  521MPD2    N1 7799   2.054   4.125  17.450 -0.3329  0.0750  0.0020
  521MPD2    H7 7800   1.999   4.179  17.516  1.1634  0.6487  0.7811
  522TMC3    C1 7801   2.679   3.800  17.365 -0.2699  0.0004  0.0953
  522TMC3    C2 7802   2.771   3.705  17.395 -0.0729 -0.2014  0.7227
  522TMC3    C3 7803   2.838   3.643  17.294 -0.4685 -0.3893  0.3864
  522TMC3    C4 7804   2.665   3.853  17.239  0.1972  0.2255  0.1025
  522TMC3    C5 7805   2.750   3.804  17.141 -0.0718 -0.4601  0.0778
  522TMC3    C6 7806   2.832   3.699  17.169  0.1835  0.0563 -0.1057
  522TMC3     C 7807   2.591   3.847  17.470 -0.3322 -0.0258 -0.0577
  522TMC3     O 7808   2.637   3.856  17.587  0.5152 -0.4632  0.5126
  522TMC3     H 7809   2.766   3.672  17.498 -2.1911  0.8566  0.9379
  522TMC3    H1 7810   2.606   3.944  17.228 -0.2586 -0.0326  0.3970
  522TMC3    H2 7811   2.897   3.665  17.089  1.4882 -0.4588  1.1705
  522TMC3    C7 7812   2.738   3.853  17.005  0.2975 -0.7281 -0.2482
  522TMC3    C8 7813   2.962   3.582  17.344  0.3028 -0.3540 -0.0088
  522TMC3    O1 7814   2.840   3.847  16.931  0.8871  0.5042  0.2718
  522TMC3    O2 7815   3.013   3.632  17.444  0.1525  0.4741 -0.2259
  523MPD2     C 7816   4.515   2.766   9.597 -0.1731  0.0647 -0.5475
  523MPD2    C1 7817   4.544   2.806   9.724 -0.6994  0.0555  0.6394
  523MPD2    C2 7818   4.544   2.945   9.750  0.6955  0.3027 -0.3139
  523MPD2    C3 7819   4.521   3.033   9.646  0.7834  0.4162 -0.2370
  523MPD2    C4 7820   4.485   2.988   9.519 -0.3848  0.2708 -0.2625
  523MPD2    C5 7821   4.485   2.853   9.495  0.1704  0.4019 -0.1074
  523MPD2     H 7822   4.561   2.977   9.852  2.2231 -0.5511 -0.2935
  523MPD2    H1 7823   4.468   3.048   9.431  0.5428 -0.9970 -1.3251
  523MPD2    H2 7824   4.511   2.661   9.569  0.2445 -0.2094  0.4331
  523MPD2    H3 7825   4.466   2.804   9.401  0.6966  0.8385 -0.4426
  523MPD2     N 7826   4.535   3.173   9.665  0.5663  0.5317  0.0382
  523MPD2    H5 7827   4.492   3.228   9.592 -3.9272  0.4671  2.6155
  523MPD2    N1 7828   4.563   2.708   9.818  0.2966  0.0844 -0.1179
  523MPD2    H7 7829   4.560   2.612   9.787 -0.1681  0.4869 -1.2986
  524TMC3    C1 7830   4.554   3.378   9.779 -0.0974  0.0807 -0.8987
  524TMC3    C2 7831   4.468   3.436   9.692 -0.5747  0.5886  0.2927
  524TMC3    C3 7832   4.443   3.569   9.721  0.1891  0.3593  0.2747
  524TMC3    C4 7833   4.613   3.442   9.877 -0.7135 -0.3955 -0.1515
  524TMC3    C5 7834   4.590   3.575   9.900  0.5206  0.4703  0.1666
  524TMC3    C6 7835   4.507   3.640   9.819 -0.3849 -0.0902 -0.3656
  524TMC3     C 7836   4.571   3.233   9.785 -0.9689  0.2863  0.1851
  524TMC3     O 7837   4.619   3.181   9.887 -0.2404 -0.0673  0.1967
  524TMC3     H 7838   4.401   3.370   9.639 -0.8365  1.3066 -0.2762
  524TMC3    H1 7839   4.668   3.382   9.949 -2.7055 -1.3516  0.5853
  524TMC3    H2 7840   4.463   3.732   9.856 -1.7056 -0.1465 -1.7821
  524TMC3    C7 7841   4.675   3.645   9.989  0.2023 -0.6002  0.3889
  524TMC3    C8 7842   4.320   3.626   9.673  0.3108  0.0871 -0.0525
  524TMC3    O1 7843   4.734   3.583  10.080 -0.5896 -0.1171 -0.0239
  524TMC3    O2 7844   4.246   3.543   9.622  0.1768  0.3653  0.3401
  525MPD2     C 7845   2.807   0.910  14.474 -0.9132  0.6827 -0.1159
  525MPD2    C1 7846   2.936   0.913  14.534  0.4279 -0.4596 -0.3407
  525MPD2    C2 7847   3.026   1.018  14.504 -0.2264 -0.0255  0.4088
  525MPD2    C3 7848   2.989   1.124  14.425 -0.2165  0.7110 -0.2403
  525MPD2    C4 7849   2.864   1.114  14.365 -0.3720 -0.0949  0.1136
  525MPD2    C5 7850   2.773   1.015  14.383  0.0614 -1.0491 -0.1323
  525MPD2     H 7851   3.121   1.004  14.555 -0.0333  1.9516  0.5949
  525MPD2    H1 7852   2.833   1.201  14.308  1.5327  1.0723  0.8643
  525MPD2    H2 7853   2.744   0.823  14.490  0.7073 -0.0926  2.1721
  525MPD2    H3 7854   2.680   1.007  14.328 -0.8743 -0.8260  1.4255
  525MPD2     N 7855   3.065   1.245  14.408  0.2035  0.0533  0.1352
  525MPD2    H5 7856   3.027   1.323  14.355  3.3647  1.6906  0.2780
  525MPD2    N1 7857   2.978   0.827  14.639  0.6733  0.2838 -0.0095
  525MPD2    H7 7858   3.078   0.818  14.649  0.4635 -0.4016  1.4474
  526TMC3    C1 7859   2.974   0.652  14.781  0.0176  0.3448  0.2834
  526TMC3    C2 7860   2.924   0.612  14.901  0.7740 -0.3201 -0.3361
  526TMC3    C3 7861   3.005   0.564  14.999  0.0118  0.3899 -0.2561
  526TMC3    C4 7862   3.108   0.645  14.755  0.0300 -0.0312  0.5439
  526TMC3    C5 7863   3.187   0.596  14.854  0.5287  0.5266 -0.4075
  526TMC3    C6 7864   3.136   0.549  14.974 -0.4039  0.8986  0.4738
  526TMC3     C 7865   2.896   0.740  14.702  0.1167 -0.4454 -0.2269
  526TMC3     O 7866   2.776   0.736  14.713 -0.8116  0.4261  0.1039
  526TMC3     H 7867   2.817   0.622  14.917  0.9408  2.0752 -0.7249
  526TMC3    H1 7868   3.145   0.638  14.653  0.3029  0.3916  0.6152
  526TMC3    H2 7869   3.199   0.500  15.048 -1.7185 -1.7671 -0.1619
  526TMC3    C7 7870   3.310   0.529  14.813 -0.2440 -0.0626 -0.1675
  526TMC3    C8 7871   2.969   0.575  15.137  0.3419 -0.1223  0.1877
  526TMC3    O1 7872   3.326   0.426  14.875  0.4779  0.1069  0.2736
  526TMC3    O2 7873   3.066   0.573  15.212  0.3371 -0.2079 -0.2981
  527MPD2     C 7874   1.040   3.907   1.582 -0.2226  0.2334 -0.4284
  527MPD2    C1 7875   0.980   3.880   1.463  0.0329 -0.5862  0.4126
  527MPD2    C2 7876   1.055   3.811   1.369 -0.7011  0.8182 -0.3591
  527MPD2    C3 7877   1.186   3.765   1.386 -0.1609  0.3614  1.3360
  527MPD2    C4 7878   1.237   3.787   1.513  0.5401  0.3935 -0.0532
  527MPD2    C5 7879   1.166   3.863   1.603  0.4564 -0.4119  0.4355
  527MPD2     H 7880   1.009   3.768   1.281  0.7794  1.0801 -1.2657
  527MPD2    H1 7881   1.341   3.760   1.532  0.2667 -0.8322 -0.3151
  527MPD2    H2 7882   0.995   3.980   1.647  1.3459 -1.1531  2.2047
  527MPD2    H3 7883   1.215   3.883   1.697  2.4241 -0.7921 -0.5249
  527MPD2     N 7884   1.247   3.687   1.280 -0.1738  0.1884 -0.7003
  527MPD2    H5 7885   1.190   3.684   1.196  0.1372 -3.2119 -0.7900
  527MPD2    N1 7886   0.846   3.903   1.434  0.0817  0.5580 -0.5259
  527MPD2    H7 7887   0.812   3.871   1.344  0.0275  1.1808 -0.7268
  528TMC3    C1 7888   0.639   4.012   1.452  0.4056 -0.3703 -0.4943
  528TMC3    C2 7889   0.661   4.075   1.333 -0.0483 -0.0969 -0.0641
  528TMC3    C3 7890   0.557   4.143   1.283 -0.0901  0.0212  0.0089
  528TMC3    C4 7891   0.524   4.015   1.522  0.3563  0.3290 -0.0235
  528TMC3    C5 7892   0.420   4.082   1.464 -0.2106 -0.1145  0.3157
  528TMC3    C6 7893   0.434   4.150   1.344  0.2513  0.4396 -0.3080
  528TMC3     C 7894   0.752   3.954   1.520  0.0007 -0.9539 -0.2791
  528TMC3     O 7895   0.747   3.961   1.641 -0.1472 -0.0733 -0.0722
  528TMC3     H 7896   0.750   4.056   1.275  0.3089  4.4913 -0.9896
  528TMC3    H1 7897   0.518   3.977   1.623  1.0031 -2.8697 -1.1816
  528TMC3    H2 7898   0.350   4.193   1.291 -0.4440 -0.2116  0.2591
  528TMC3    C7 7899   0.291   4.101   1.532 -0.4693 -0.1058 -0.5958
  528TMC3    C8 7900   0.586   4.225   1.172 -0.1472 -0.2989  0.2026
  528TMC3    O1 7901   0.220   4.192   1.488  0.0089  1.1178  0.1005
  528TMC3    O2 7902   0.681   4.195   1.104  0.4672 -0.6630  0.2664
  529MPD2     C 7903   3.692   2.819   1.135  0.3532  0.1334  0.2669
  529MPD2    C1 7904   3.736   2.702   1.079 -0.2425 -0.0440  0.0679
  529MPD2    C2 7905   3.723   2.679   0.939  0.1446 -0.4784 -0.7452
  529MPD2    C3 7906   3.673   2.782   0.856  0.3078 -0.6111  0.6272
  529MPD2    C4 7907   3.641   2.902   0.916  0.7099 -0.2386 -0.5065
  529MPD2    C5 7908   3.650   2.917   1.048 -0.8137 -0.4791  0.4369
  529MPD2     H 7909   3.741   2.585   0.888  0.4725 -1.4428  1.1891
  529MPD2    H1 7910   3.609   2.984   0.854 -3.3659 -0.9086  0.7062
  529MPD2    H2 7911   3.684   2.834   1.242 -1.4570 -0.5771  0.2442
  529MPD2    H3 7912   3.611   3.006   1.097  2.8259  1.1586  0.3142
  529MPD2     N 7913   3.678   2.784   0.716 -0.2751 -0.8033  0.0009
  529MPD2    H5 7914   3.665   2.871   0.666 -0.6491 -1.3325 -0.8128
  529MPD2    N1 7915   3.770   2.588   1.158  0.7707  0.0599  0.0696
  529MPD2    H7 7916   3.792   2.504   1.105 -0.4289 -0.5717  0.5992
  530TMC3    C1 7917   3.803   2.448   1.340 -0.4350 -0.0778 -0.1260
  530TMC3    C2 7918   3.897   2.437   1.442  0.2430 -0.3040  0.2638
  530TMC3    C3 7919   3.912   2.310   1.491 -0.1045 -0.5565  0.2670
  530TMC3    C4 7920   3.727   2.339   1.302  0.2821 -0.1689  0.7429
  530TMC3    C5 7921   3.751   2.218   1.362  0.6526  0.3962  0.7822
  530TMC3    C6 7922   3.849   2.203   1.452  0.1994 -0.3217 -0.4793
  530TMC3     C 7923   3.769   2.581   1.297  0.7319  0.0954  0.1077
  530TMC3     O 7924   3.767   2.667   1.384 -0.2460 -0.4377 -0.0993
  530TMC3     H 7925   3.969   2.517   1.458 -1.1174  0.4434  2.5421
  530TMC3    H1 7926   3.657   2.356   1.222 -0.1366  1.2524  1.4125
  530TMC3    H2 7927   3.866   2.108   1.501 -0.4134  0.1672  0.6796
  530TMC3    C7 7928   3.649   2.111   1.345  0.2660 -0.5277 -0.3822
  530TMC3    C8 7929   3.991   2.309   1.611  1.1163 -0.8745 -0.5785
  530TMC3    O1 7930   3.685   1.997   1.363 -0.0805  0.6476 -0.2281
  530TMC3    O2 7931   3.981   2.410   1.678  0.3328 -0.1269 -0.0196
  531MPD2     C 7932   2.776   4.665  13.507 -0.4808  0.4762  0.0249
  531MPD2    C1 7933   2.674   4.611  13.578 -0.4971 -0.3977  0.3578
  531MPD2    C2 7934   2.600   4.506  13.532 -0.5829  0.0562  0.0946
  531MPD2    C3 7935   2.636   4.446  13.410 -0.2024 -0.3742  0.5089
  531MPD2    C4 7936   2.729   4.512  13.331 -0.1905 -0.9430 -0.3590
  531MPD2    C5 7937   2.797   4.621  13.379 -0.1965  0.2821  0.3104
  531MPD2     H 7938   2.518   4.473  13.594 -1.6113 -1.3783 -2.0587
  531MPD2    H1 7939   2.751   4.488  13.228 -0.5794  2.0204 -1.1072
  531MPD2    H2 7940   2.836   0.012  13.532  0.6334 -0.1199 -0.5393
  531MPD2    H3 7941   2.868   4.677  13.319 -2.7152  1.1515 -1.8215
  531MPD2     N 7942   2.569   4.330  13.356  0.4348  0.2349 -0.3527
  531MPD2    H5 7943   2.582   4.297  13.261  0.1267  0.9436 -0.6417
  531MPD2    N1 7944   2.653   4.668  13.703  0.4869 -0.5919 -0.1641
  531MPD2    H7 7945   2.694   0.019  13.722  2.0125 -0.8199 -2.3077
  532TMC3    C1 7946   2.560   4.696  13.920 -0.5159  0.2254  0.3355
  532TMC3    C2 7947   2.430   4.696  13.958 -0.4644  0.6133 -0.2777
  532TMC3    C3 7948   2.394   4.649  14.079  0.2845  0.0367 -0.1145
  532TMC3    C4 7949   2.656   4.647  14.007 -0.0866  0.5610  0.2085
  532TMC3    C5 7950   2.617   4.603  14.130 -0.1377 -0.4223 -0.2699
  532TMC3    C6 7951   2.488   4.603  14.166  0.3502 -0.4800  0.1753
  532TMC3     C 7952   2.559   4.625  13.795  0.2482  0.3977 -0.2539
  532TMC3     O 7953   2.476   4.539  13.791  0.0219  0.3725 -0.0276
  532TMC3     H 7954   2.353   4.730  13.890 -0.4622  0.0195 -0.5755
  532TMC3    H1 7955   2.757   4.632  13.973 -0.2924 -0.3549 -0.0016
  532TMC3    H2 7956   2.451   4.553  14.255 -1.8794  0.8269 -0.0130
  532TMC3    C7 7957   2.721   4.536  14.212 -0.0797  1.2573 -0.1019
  532TMC3    C8 7958   2.270   4.571  14.074  0.6519 -0.3181  0.1644
  532TMC3    O1 7959   2.820   4.606  14.241  0.1521 -0.0246 -0.2740
  532TMC3    O2 7960   2.205   4.551  14.179  0.4070 -0.5580 -0.2347
  533TMC3    C1 7961   3.234   1.397  14.463  0.1620  0.5723 -0.6061
  533TMC3    C2 7962   3.367   1.407  14.499 -0.1193  0.2435  0.2693
  533TMC3    C3 7963   3.394   1.520  14.574 -0.5828 -0.1797 -0.1088
  533TMC3    C4 7964   3.140   1.490  14.486 -0.2940 -0.4316 -0.1258
  533TMC3    C5 7965   3.171   1.579  14.588  0.3956  0.1285 -0.3342
  533TMC3    C6 7966   3.298   1.609  14.620  0.2962  0.6266  0.5569
  533TMC3     C 7967   3.193   1.258  14.444 -0.4325  0.1043 -0.0269
  533TMC3     O 7968   3.270   1.177  14.496  0.2954  0.5043 -0.1702
  533TMC3     H 7969   3.447   1.334  14.487 -1.0330 -0.4813 -1.3232
  533TMC3    H1 7970   3.036   1.470  14.467 -0.3370  1.0155 -1.4441
  533TMC3    H2 7971   3.331   1.688  14.685  0.8837  1.9561 -1.3573
  533TMC3    C7 7972   3.081   1.566  14.701 -0.7491 -0.5848 -0.2088
  533TMC3    C8 7973   3.533   1.561  14.599  0.0999 -0.2387 -0.0975
  533TMC3    O1 7974   3.016   1.467  14.714 -0.0905 -0.0931 -0.1419
  533TMC3    O2 7975   3.616   1.475  14.571  0.8187  0.3235 -0.3528
  534MPD2     C 7976   1.496   2.180   1.912  0.7346 -1.1455  0.3580
  534MPD2    C1 7977   1.471   2.299   1.841 -0.0440 -0.7214  0.3570
  534MPD2    C2 7978   1.363   2.313   1.747  0.2151  0.4037  0.2286
  534MPD2    C3 7979   1.278   2.205   1.745 -1.3172 -0.5616 -0.9974
  534MPD2    C4 7980   1.305   2.093   1.816  0.8325  0.8869 -0.7224
  534MPD2    C5 7981   1.412   2.075   1.889 -0.8915 -0.5957  0.5549
  534MPD2     H 7982   1.355   2.399   1.681 -1.2068  1.0161  1.2044
  534MPD2    H1 7983   1.231   2.014   1.818  1.0389  0.7063 -0.3174
  534MPD2    H2 7984   1.574   2.168   1.987  0.0274  1.7696  1.5404
  534MPD2    H3 7985   1.425   1.985   1.948  0.7391 -1.1795 -0.6637
  534MPD2     N 7986   1.165   2.201   1.659 -0.0522 -0.3124  0.4895
  534MPD2    H5 7987   1.105   2.119   1.668  2.0086 -2.0164 -1.4893
  534MPD2    N1 7988   1.550   2.415   1.859 -0.4388 -0.1344 -0.1261
  534MPD2    H7 7989   1.515   2.498   1.812 -2.0707 -0.7197  0.0518
  535TMC3    C1 7990   0.997   2.256   1.497  0.0222 -0.4664  0.2863
  535TMC3    C2 7991   0.946   2.133   1.540  0.3300 -0.1850 -0.1653
  535TMC3    C3 7992   0.886   2.048   1.444 -0.3529 -1.1189 -0.0302
  535TMC3    C4 7993   0.997   2.292   1.366  1.2424  0.6872 -0.3177
  535TMC3    C5 7994   0.948   2.200   1.270  0.2496 -0.0730  0.2003
  535TMC3    C6 7995   0.897   2.081   1.314 -0.0860  0.0608  0.7229
  535TMC3     C 7996   1.110   2.302   1.578 -0.1160 -0.0921 -0.6407
  535TMC3     O 7997   1.172   2.402   1.546 -0.2391 -0.5855  0.2815
  535TMC3     H 7998   0.917   2.127   1.644 -1.2276  1.3165 -0.5042
  535TMC3    H1 7999   1.070   2.367   1.338  2.1933  0.1784  0.7803
  535TMC3    H2 8000   0.845   2.021   1.240  0.0690  0.1543  0.5371
  535TMC3    C7 8001   0.897   2.257   1.150 -0.4352  0.0682  0.1321
  535TMC3    C8 8002   0.764   1.981   1.485 -0.1086  0.6523 -0.2903
  535TMC3    O1 8003   0.848   2.188   1.063 -0.4690 -0.1491  0.3956
  535TMC3    O2 8004   0.685   1.950   1.397  0.4524  0.1744 -0.0800
  536MPD2     C 8005   4.445   0.518  16.312  0.7572  0.1567 -0.7659
  536MPD2    C1 8006   4.329   0.476  16.365  0.2453  1.0128  0.2835
  536MPD2    C2 8007   4.214   0.510  16.292 -0.1732  0.6465 -0.2456
  536MPD2    C3 8008   4.223   0.580  16.175 -1.4784 -0.3379  0.3593
  536MPD2    C4 8009   4.348   0.615  16.125 -0.8347 -0.5065 -0.3515
  536MPD2    C5 8010   4.458   0.597  16.199 -0.3343 -0.0591 -0.1549
  536MPD2     H 8011   4.127   0.450  16.315  0.1993 -0.5817 -1.9923
  536MPD2    H1 8012   4.357   0.666  16.030 -0.2281 -1.3474 -0.7551
  536MPD2    H2 8013   4.541   0.504  16.359  0.6903  1.2227 -0.2988
  536MPD2    H3 8014   4.555   0.636  16.168 -1.0655  1.6785 -0.2722
  536MPD2     N 8015   4.109   0.603  16.093 -0.2736  0.0167  0.7684
  536MPD2    H5 8016   4.119   0.655  16.007 -0.7494 -0.3394  0.5019
  536MPD2    N1 8017   4.326   0.419  16.495 -0.1681 -0.7957 -0.5863
  536MPD2    H7 8018   4.410   0.407  16.550  0.2759  0.2554 -1.0216
  537TMC3    C1 8019   4.236   0.305  16.681 -0.0402  0.1719  0.5902
  537TMC3    C2 8020   4.299   0.385  16.772 -0.4252  0.2475 -0.0454
  537TMC3    C3 8021   4.308   0.340  16.902 -0.0982  0.7895  0.0038
  537TMC3    C4 8022   4.164   0.200  16.713  0.8013  0.2587  0.9211
  537TMC3    C5 8023   4.171   0.161  16.843  0.5050  0.1534  0.7047
  537TMC3    C6 8024   4.240   0.223  16.939 -0.6663  0.2791 -0.0015
  537TMC3     C 8025   4.215   0.361  16.550 -0.7165  0.0041 -0.0211
  537TMC3     O 8026   4.104   0.339  16.509  0.6454  0.0521 -0.0051
  537TMC3     H 8027   4.346   0.479  16.745 -1.4393  0.3444 -1.4542
  537TMC3    H1 8028   4.120   0.144  16.631 -0.8610  1.0470  1.2842
  537TMC3    H2 8029   4.224   0.209  17.045  3.5079  2.7000  0.9499
  537TMC3    C7 8030   4.070   0.067  16.879  0.3422 -0.1591 -0.4772
  537TMC3    C8 8031   4.329   0.438  17.000  0.5851 -1.0582  0.8632
  537TMC3    O1 8032   3.974   0.053  16.803  0.0666 -0.3080 -0.0074
  537TMC3    O2 8033   4.376   0.403  17.110 -0.3269 -0.7890 -0.3248
  538TMC3    C1 8034   0.608   2.580  11.242 -0.0372 -0.4446 -0.1963
  538TMC3    C2 8035   0.729   2.646  11.257  0.0217 -0.5599 -0.4049
  538TMC3    C3 8036   0.757   2.749  11.169  0.6073  0.1401  0.5334
  538TMC3    C4 8037   0.527   2.623  11.141  0.1074  0.4272  0.7918
  538TMC3    C5 8038   0.570   2.714  11.049 -0.1079 -0.9342  0.0317
  538TMC3    C6 8039   0.693   2.775  11.050 -0.0210  0.0218  0.0196
  538TMC3     C 8040   0.544   2.507  11.349  0.5150 -0.6075 -0.2730
  538TMC3     O 8041   0.463   2.419  11.315 -0.1848  0.5342 -0.2293
  538TMC3     H 8042   0.793   2.641  11.345  0.1471 -0.9958 -0.5221
  538TMC3    H1 8043   0.427   2.582  11.135  0.6749 -0.3390 -3.3884
  538TMC3    H2 8044   0.706   2.864  10.988  1.9923 -0.2917 -0.0115
  538TMC3    C7 8045   0.458   2.788  10.987  0.2085  0.1896 -0.7695
  538TMC3    C8 8046   0.863   2.837  11.203 -0.2864  0.4185  0.4233
  538TMC3    O1 8047   0.352   2.793  11.047 -0.5570 -0.3475  0.3413
  538TMC3    O2 8048   0.864   2.879  11.318  0.8399 -0.1771  1.0201
  539MPD2     C 8049   0.157   2.062  11.822 -0.1634  0.1635 -0.1805
  539MPD2    C1 8050   0.136   2.035  11.689  0.3727  0.8236  0.5398
  539MPD2    C2 8051   0.092   2.136  11.602  0.0998 -0.4687 -0.1784
  539MPD2    C3 8052   0.081   2.270  11.649 -0.6979 -0.3744 -1.0504
  539MPD2    C4 8053   0.124   2.298  11.774  0.1437  0.1323 -0.0482
  539MPD2    C5 8054   0.159   2.192  11.856 -0.0191 -0.2607  0.3915
  539MPD2     H 8055   0.068   2.121  11.497  0.6129  1.7580 -0.6111
  539MPD2    H1 8056   0.135   2.399  11.810  3.8352 -0.1587 -0.3708
  539MPD2    H2 8057   0.207   1.992  11.888 -2.0907  0.0468  1.1413
  539MPD2    H3 8058   0.198   2.210  11.956 -0.2617 -0.4593  0.5218
  539MPD2     N 8059   0.052   2.380  11.567  0.2457 -0.1779  0.2415
  539MPD2    H5 8060   0.066   2.468  11.616 -2.2150 -1.3911  3.1410
  539MPD2    N1 8061   0.157   1.901  11.643  0.8437 -0.3090  0.1926
  539MPD2    H7 8062   0.131   1.884  11.547  2.2184  0.1747 -0.2705
  540TMC3    C1 8063   4.707   2.519  11.394  0.0769  0.0995  0.1611
  540TMC3    C2 8064   4.662   2.533  11.265 -0.4888  0.2409 -0.3748
  540TMC3    C3 8065   4.605   2.655  11.223  0.4650 -0.2985  0.3198
  540TMC3    C4 8066   4.719   2.626  11.471  0.1248  0.1507  0.2415
  540TMC3    C5 8067   4.677   2.749  11.419  0.6280 -0.0371 -0.2251
  540TMC3    C6 8068   4.614   2.766  11.299  0.0582  1.1575  0.0450
  540TMC3     C 8069   0.004   2.380  11.441 -0.0836  0.2233 -0.7005
  540TMC3     O 8070   4.719   2.288  11.364  0.2967  0.1576 -0.2258
  540TMC3     H 8071   4.656   2.447  11.200  3.1796 -0.9291  0.8389
  540TMC3    H1 8072   0.030   2.625  11.567 -1.0820 -1.6622  0.8697
  540TMC3    H2 8073   4.594   2.866  11.261 -0.4168  0.9264 -0.3043
  540TMC3    C7 8074   4.625   2.830  11.526  0.3369  0.3337  0.6349
  540TMC3    C8 8075   4.526   2.676  11.101 -0.4050 -0.1755  0.0763
  540TMC3    O1 8076   4.573   2.762  11.614 -0.0693 -0.5421 -0.7232
  540TMC3    O2 8077   4.457   2.775  11.089 -0.5555 -0.2263  0.2246
  541MPD2     C 8078   3.688   4.639  13.754  0.6807 -0.8767 -0.5131
  541MPD2    C1 8079   3.623   4.571  13.655  0.1272  0.2684  0.3961
  541MPD2    C2 8080   3.662   4.591  13.521 -0.5685 -0.1048  0.2073
  541MPD2    C3 8081   3.751   4.690  13.489  0.3763  0.6658 -0.5669
  541MPD2    C4 8082   3.796   0.036  13.586 -0.5966  0.4271 -0.9238
  541MPD2    C5 8083   3.769   0.002  13.716 -0.7175  0.0903 -0.1190
  541MPD2     H 8084   3.630   4.510  13.457  0.2884 -0.9411  0.8399
  541MPD2    H1 8085   3.848   0.130  13.570  0.8785  0.1035  1.9257
  541MPD2    H2 8086   3.683   4.609  13.858  0.3584  1.0343  0.0350
  541MPD2    H3 8087   3.824   0.058  13.791  0.4002  2.2052 -2.4984
  541MPD2     N 8088   3.787   4.714  13.353  0.3170  0.3507 -0.6587
  541MPD2    H5 8089   3.836   0.061  13.332  0.6256  0.2395 -0.4023
  541MPD2    N1 8090   3.550   4.455  13.678  0.5783  0.0225  0.1182
  541MPD2    H7 8091   3.528   4.402  13.595 -0.7529 -0.2270  0.6332
  542TMC3    C1 8092   3.762   4.696  13.124 -0.2690  0.1767  0.2495
  542TMC3    C2 8093   3.780   4.616  13.012 -0.3052  0.9058  1.0045
  542TMC3    C3 8094   3.750   4.664  12.890 -0.2891 -0.1464  0.6933
  542TMC3    C4 8095   3.711   0.084  13.113  0.0437 -0.0888 -0.1318
  542TMC3    C5 8096   3.682   0.132  12.985  0.1691 -0.2958  0.3780
  542TMC3    C6 8097   3.708   0.054  12.875 -0.0179 -0.6737 -0.0900
  542TMC3     C 8098   3.747   4.633  13.251 -0.0249 -0.3842  0.1483
  542TMC3     O 8099   3.715   4.513  13.252 -0.1001 -0.0844  0.5530
  542TMC3     H 8100   3.790   4.509  13.025  3.0422  1.1321  0.2624
  542TMC3    H1 8101   3.702   0.142  13.205 -3.0046  1.0304 -1.1365
  542TMC3    H2 8102   3.695   0.100  12.778 -0.0081 -0.3379  0.0659
  542TMC3    C7 8103   3.609   0.253  12.954 -0.7546 -0.2524  0.6696
  542TMC3    C8 8104   3.718   4.576  12.775 -0.3166  0.5691  0.1436
  542TMC3    O1 8105   3.630   0.308  12.848 -0.2015  0.3178 -0.2660
  542TMC3    O2 8106   3.646   4.630  12.693 -0.8648  0.6064  0.2223
  543TMC3    C1 8107   2.876   1.164  17.580  0.1834  0.6422  0.3488
  543TMC3    C2 8108   2.852   1.047  17.635 -0.1479 -0.1165  0.5850
  543TMC3    C3 8109   2.869   1.030   0.015  0.5464 -0.4482 -0.7804
  543TMC3    C4 8110   2.925   1.262  17.657  0.2207 -0.1065 -0.2421
  543TMC3    C5 8111   2.941   1.245   0.032  0.0687  0.0479 -0.5893
  543TMC3    C6 8112   2.903   1.132   0.098  0.7710 -0.2372 -0.0515
  543TMC3     C 8113   2.934   1.156  17.450  0.2944 -0.3007 -0.6845
  543TMC3     O 8114   2.953   1.042  17.408 -0.2339  0.5251  0.5484
  543TMC3     H 8115   2.820   0.961  17.577  0.3558 -0.7509  1.2512
  543TMC3    H1 8116   2.921   1.360  17.612 -2.8776  0.0689  0.4220
  543TMC3    H2 8117   2.921   1.115   0.204  1.6511  1.5917  0.0821
  543TMC3    C7 8118   2.949   1.364   0.113  0.5780 -0.0681  0.1921
  543TMC3    C8 8119   2.861   0.888   0.059  0.1033 -0.5948  0.0804
  543TMC3    O1 8120   2.884   1.349   0.215  0.3511  0.4640 -0.9463
  543TMC3    O2 8121   2.854   0.807  17.731  0.1483  0.5125  0.0111
  544MPD2     C 8122   2.961   0.514   0.387  0.3891  0.0751  0.0911
  544MPD2    C1 8123   2.937   0.512   0.251  0.2949 -0.0899 -0.2413
  544MPD2    C2 8124   2.924   0.634   0.188  0.0649  0.1928 -0.2690
  544MPD2    C3 8125   2.935   0.756   0.252 -0.6551  0.3481 -0.0308
  544MPD2    C4 8126   2.958   0.752   0.388  0.0471 -0.2746 -0.0055
  544MPD2    C5 8127   2.971   0.634   0.446 -0.8266  0.6226  0.2105
  544MPD2     H 8128   2.917   0.623   0.080 -0.6353 -0.5868 -0.1414
  544MPD2    H1 8129   2.959   0.839   0.453 -1.0368 -0.9481  0.9026
  544MPD2    H2 8130   2.979   0.431   0.454  1.9715  0.5112  0.2086
  544MPD2    H3 8131   2.981   0.636   0.554  1.5192 -1.3813  0.0227
  544MPD2     N 8132   2.908   0.881   0.188  0.6593  0.8297 -0.1340
  544MPD2    H5 8133   2.904   0.961   0.250 -0.1928  0.8141 -0.1632
  544MPD2    N1 8134   2.934   0.384   0.181 -0.8354 -0.2950  0.6294
  544MPD2    H7 8135   2.920   0.379   0.080  0.5706  0.8853  0.3791
  545TMC3    C1 8136   2.948   0.146   0.147 -0.9028 -0.2120  1.0651
  545TMC3    C2 8137   2.989   0.173   0.022  0.0729 -1.1593 -0.1721
  545TMC3    C3 8138   2.969   0.091  17.668  0.8221 -0.9705  0.6089
  545TMC3    C4 8139   2.882   0.032   0.172  0.7247  0.7039  0.0163
  545TMC3    C5 8140   2.847   4.700   0.062 -0.2412 -0.2418 -0.4467
  545TMC3    C6 8141   2.888   4.724  17.696 -0.1448 -0.5734 -0.9561
  545TMC3     C 8142   2.935   0.258   0.242 -0.3405 -0.1224  0.1191
  545TMC3     O 8143   2.916   0.230   0.357 -0.1809  0.4578 -0.0466
  545TMC3     H 8144   3.048   0.260  17.755  1.2735 -1.0997  2.9171
  545TMC3    H1 8145   2.846   0.016   0.273 -0.0164  0.9199 -0.2112
  545TMC3    H2 8146   2.855   4.655  17.618  0.5228 -2.0715  0.0766
  545TMC3    C7 8147   2.784   4.570   0.082 -0.6601  0.0121 -1.0394
  545TMC3    C8 8148   3.072   0.086  17.561 -0.2256 -0.5656 -0.0814
  545TMC3    O1 8149   2.723   4.522  17.739  0.6420  0.1833 -1.0949
  545TMC3    O2 8150   3.179   0.136  17.596  0.0568  0.0484 -0.4021
  546MPD2     C 8151   4.310   0.872   0.116  0.2706 -1.0374  0.1410
  546MPD2    C1 8152   4.297   0.942   0.001  0.0982 -0.3801 -0.0331
  546MPD2    C2 8153   4.371   1.053  17.730 -0.6601  0.3302  0.4397
  546MPD2    C3 8154   4.455   1.100   0.070  0.3841 -0.0594 -0.2151
  546MPD2    C4 8155   4.472   1.029   0.185  0.3153  0.3083  0.8472
  546MPD2    C5 8156   4.404   0.916   0.206 -0.0402 -0.1703  0.8320
  546MPD2     H 8157   4.359   1.103  17.634 -0.0683 -0.7929 -0.2252
  546MPD2    H1 8158   4.547   1.057   0.257  1.1581  2.1538 -0.7561
  546MPD2    H2 8159   4.251   0.786   0.144 -1.2144 -0.8414 -2.3718
  546MPD2    H3 8160   4.433   0.861   0.295 -0.3833 -1.7340 -0.0325
  546MPD2     N 8161   4.539   1.211   0.056 -0.6939 -0.5080  0.0352
  546MPD2    H5 8162   4.604   1.231   0.131 -0.6157 -0.6659  0.0090
  546MPD2    N1 8163   4.184   0.905  17.680  0.0703  0.1488  0.3588
  546MPD2    H7 8164   4.124   0.834  17.722 -0.3019  0.7159  0.7849
  547TMC3    C1 8165   4.016   0.940  17.545 -0.1816  0.2220 -0.6063
  547TMC3    C2 8166   3.965   0.864  17.440 -0.1021 -0.3362 -0.4894
  547TMC3    C3 8167   3.842   0.802  17.460 -0.5287  0.5662  0.2673
  547TMC3    C4 8168   3.948   0.950  17.668 -0.3648 -0.4553 -0.3868
  547TMC3    C5 8169   3.828   0.882  17.681 -0.0414 -0.1550 -0.2606
  547TMC3    C6 8170   3.774   0.819  17.576  0.2239  0.6816  0.7898
  547TMC3     C 8171   4.149   0.964  17.564 -1.3013  0.7480  0.4329
  547TMC3     O 8172   4.215   1.033  17.486 -0.0504 -0.7134  0.2055
  547TMC3     H 8173   4.015   0.864  17.344  0.0542 -2.0690 -0.4145
  547TMC3    H1 8174   3.978   1.030  17.735 -0.5585 -0.7413  0.0410
  547TMC3    H2 8175   3.678   0.772  17.594  0.0723  0.3964 -0.7128
  547TMC3    C7 8176   3.776   0.869   0.063  0.8692 -0.1721  0.2177
  547TMC3    C8 8177   3.773   0.774  17.338 -0.3148 -0.1696 -0.0284
  547TMC3    O1 8178   3.834   0.941   0.140  0.0733  0.3909  0.4600
  547TMC3    O2 8179   3.651   0.787  17.349 -0.8655  0.0966  0.5320
  548MPD2     C 8180   4.277   1.347  12.094  0.3555 -0.3289 -0.0214
  548MPD2    C1 8181   4.248   1.293  12.218  0.1036  0.1369  0.8447
  548MPD2    C2 8182   4.330   1.191  12.268 -0.7044 -0.6353  0.0221
  548MPD2    C3 8183   4.442   1.148  12.197 -0.0108 -0.0230 -0.4539
  548MPD2    C4 8184   4.478   1.214  12.084 -0.2449 -0.4336  0.4572
  548MPD2    C5 8185   4.391   1.306  12.027 -1.2675  0.4997  0.0040
  548MPD2     H 8186   4.303   1.131  12.354  0.2042 -2.0620 -0.6745
  548MPD2    H1 8187   4.565   1.186  12.026  0.5560  1.6524  0.6536
  548MPD2    H2 8188   4.219   1.432  12.062  0.7877  0.2488  0.7237
  548MPD2    H3 8189   4.409   1.360  11.935 -0.2874  0.1859  0.0097
  548MPD2     N 8190   4.506   1.032  12.246 -0.4311 -0.5293  0.1848
  548MPD2    H5 8191   4.491   1.012  12.345  1.5385  2.3576  1.0574
  548MPD2    N1 8192   4.129   1.343  12.282 -0.0371  0.1860  0.2392
  548MPD2    H7 8193   4.066   1.388  12.216  1.2641  0.3248 -0.8983
  549TMC3    C1 8194   3.967   1.350  12.448  0.5050 -0.2288  0.0168
  549TMC3    C2 8195   3.912   1.459  12.399  0.0416 -0.2225  0.1529
  549TMC3    C3 8196   3.776   1.474  12.423 -0.3388  0.8669 -0.3280
  549TMC3    C4 8197   3.893   1.259  12.516 -0.2107 -0.3755  0.3882
  549TMC3    C5 8198   3.761   1.268  12.526  0.4511 -0.5119 -0.6085
  549TMC3    C6 8199   3.699   1.376  12.474  0.4210  0.0442 -0.0808
  549TMC3     C 8200   4.099   1.306  12.414  0.2020  0.5455  0.8529
  549TMC3     O 8201   4.155   1.230  12.490  0.0148  0.3291 -0.0051
  549TMC3     H 8202   3.964   1.542  12.351 -0.2382 -1.3210 -2.0307
  549TMC3    H1 8203   3.953   1.180  12.561 -0.2967  0.0159  1.1976
  549TMC3    H2 8204   3.594   1.392  12.495  0.4929  1.5584 -0.8968
  549TMC3    C7 8205   3.693   1.174  12.609  0.1831 -0.1209 -0.3574
  549TMC3    C8 8206   3.710   1.584  12.358 -0.3306  0.4525 -0.5136
  549TMC3    O1 8207   3.583   1.210  12.651 -0.1759  0.4233 -0.7060
  549TMC3    O2 8208   3.587   1.574  12.355 -0.4438  0.6551 -0.3109
  550TMC3    C1 8209   3.329   4.690  12.899 -0.1721 -0.5634  0.7364
  550TMC3    C2 8210   3.303   0.030  12.999  0.0725 -0.1478 -0.0425
  550TMC3    C3 8211   3.247   0.149  12.975 -0.2266  0.1960 -0.7384
  550TMC3    C4 8212   3.319   4.724  12.769 -1.0327  0.0988  0.0414
  550TMC3    C5 8213   3.285   0.116  12.746 -0.2997  0.0475  0.0582
  550TMC3    C6 8214   3.244   0.199  12.848  0.2926  0.6208  0.0644
  550TMC3     C 8215   3.361   4.551  12.922  0.3513 -0.3137  0.4607
  550TMC3     O 8216   3.430   4.528  13.017 -0.0991  0.4147  0.0964
  550TMC3     H 8217   3.312   4.728  13.099  0.1340  0.2606  0.1248
  550TMC3    H1 8218   3.348   4.659  12.687  2.1863 -0.3755  1.5691
  550TMC3    H2 8219   3.208   0.295  12.815 -0.5974 -0.5618 -2.4623
  550TMC3    C7 8220   3.211   0.146  12.623  0.0169  0.1567  0.8294
  550TMC3    C8 8221   3.143   0.179  13.075  0.3779  0.0387  0.2330
  550TMC3    O1 8222   3.211   0.257  12.576 -0.2573  0.1787 -1.2513
  550TMC3    O2 8223   3.047   0.239  13.025  0.4903 -0.2537 -0.0676
  551TMC3    C1 8224   0.567   1.722  13.070 -0.0577  0.2797  0.2098
  551TMC3    C2 8225   0.698   1.755  13.043 -0.9541  0.9400  0.1299
  551TMC3    C3 8226   0.783   1.787  13.152 -0.3816 -0.0155  0.3814
  551TMC3    C4 8227   0.529   1.704  13.202 -0.0792 -0.2717  0.0147
  551TMC3    C5 8228   0.617   1.740  13.302  0.5046 -0.0690  0.7516
  551TMC3    C6 8229   0.746   1.770  13.278 -0.7273 -0.1184 -0.4938
  551TMC3     C 8230   0.480   1.703  12.962 -0.2878  0.6167  0.2563
  551TMC3     O 8231   0.412   1.602  12.955 -0.2042  0.2653  0.1876
  551TMC3     H 8232   0.723   1.758  12.937 -3.4359 -0.7731 -0.5019
  551TMC3    H1 8233   0.429   1.668  13.221 -0.1597 -0.9345 -1.6847
  551TMC3    H2 8234   0.799   1.819  13.359 -1.4963  0.8990 -0.6047
  551TMC3    C7 8235   0.579   1.787  13.431 -0.6179 -0.1981  0.2288
  551TMC3    C8 8236   0.899   1.873  13.109  0.3455 -0.5709 -0.5501
  551TMC3    O1 8237   0.655   1.778  13.526 -0.6594  0.9149  0.4967
  551TMC3    O2 8238   0.950   1.831  13.004  0.3950  0.5988  0.3543
  552MPD2     C 8239   2.289   4.174  14.297 -0.4263  0.7323 -0.3571
  552MPD2    C1 8240   2.272   4.072  14.385  0.7658  0.2736  0.4156
  552MPD2    C2 8241   2.351   4.064  14.495 -0.8393 -0.2475  0.6070
  552MPD2    C3 8242   2.453   4.154  14.517  0.6687 -0.2185 -1.1233
  552MPD2    C4 8243   2.472   4.259  14.424 -0.8716  0.4058 -0.3228
  552MPD2    C5 8244   2.397   4.260  14.313  0.1614 -0.2451  0.2981
  552MPD2     H 8245   2.328   3.984  14.564 -1.3663 -2.0019 -1.5811
  552MPD2    H1 8246   2.546   4.337  14.437  1.2679 -1.5357 -0.6860
  552MPD2    H2 8247   2.231   4.200  14.209 -2.2316  1.5678  1.0704
  552MPD2    H3 8248   2.414   4.336  14.238  0.6242 -1.5387 -0.9221
  552MPD2     N 8249   2.538   4.148  14.629  0.1866  0.1690 -0.4603
  552MPD2    H5 8250   2.600   4.226  14.642 -0.2150  0.2173  1.1858
  552MPD2    N1 8251   2.174   3.979  14.369 -1.1802 -0.4495  0.1289
  552MPD2    H7 8252   2.164   3.917  14.448 -3.7348  1.7971  1.5680
  553TMC3    C1 8253   1.997   3.855  14.256  0.0438  0.2740 -0.1453
  553TMC3    C2 8254   1.948   3.832  14.130  0.5777  0.8537  0.3840
  553TMC3    C3 8255   1.952   3.704  14.084  0.3605 -0.2601  0.1575
  553TMC3    C4 8256   2.030   3.753  14.340 -0.4862 -0.1623 -0.0514
  553TMC3    C5 8257   2.029   3.627  14.289 -0.4319 -0.5814  0.4115
  553TMC3    C6 8258   1.978   3.596  14.164  0.2323  0.3226 -0.1086
  553TMC3     C 8259   2.071   3.978  14.267  0.1781 -0.3487 -0.5045
  553TMC3     O 8260   2.044   4.067  14.192 -0.4258 -0.0071  0.1293
  553TMC3     H 8261   1.918   3.917  14.070  0.3884  0.7262  0.2999
  553TMC3    H1 8262   2.073   3.763  14.439 -1.6844  1.9477  0.2405
  553TMC3    H2 8263   1.951   3.495  14.137  1.7308  0.3103 -1.4971
  553TMC3    C7 8264   2.107   3.519  14.341 -0.7070  0.0509  0.4178
  553TMC3    C8 8265   2.058   3.695  13.988 -0.4216 -0.3849 -0.1583
  553TMC3    O1 8266   2.090   3.413  14.287 -0.5339  0.4123  0.1737
  553TMC3    O2 8267   2.107   3.801  13.946  0.0140  0.0198  0.6255
  554TMC3    C1 8268   3.728   3.112  11.702  0.6177  0.6641  0.1235
  554TMC3    C2 8269   3.605   3.124  11.649 -0.1837 -0.5956  0.8060
  554TMC3    C3 8270   3.575   3.227  11.563  0.0637  0.2410 -0.2148
  554TMC3    C4 8271   3.828   3.198  11.659 -0.1220 -0.1709 -0.6782
  554TMC3    C5 8272   3.803   3.288  11.565  0.1977  0.3235 -0.3525
  554TMC3    C6 8273   3.677   3.306  11.517 -0.3623  0.9714 -0.1520
  554TMC3     C 8274   3.743   3.011  11.798 -0.2188 -0.0623 -0.0668
  554TMC3     O 8275   3.642   2.964  11.852  0.3030 -0.4780  0.3241
  554TMC3     H 8276   3.529   3.050  11.670  0.5666 -1.3938  0.7188
  554TMC3    H1 8277   3.934   3.185  11.678  0.2296  0.9134 -1.9375
  554TMC3    H2 8278   3.661   3.367  11.428 -1.5545  0.9630  0.0591
  554TMC3    C7 8279   3.910   3.312  11.474  0.3767 -0.4673 -0.4835
  554TMC3    C8 8280   3.460   3.200  11.480 -1.0131  0.1009 -0.3557
  554TMC3    O1 8281   3.948   3.212  11.415  0.7969  0.6595  0.1859
  554TMC3    O2 8282   3.349   3.193  11.529 -0.0790 -0.0013 -0.0534
  555TMC3    C1 8283   2.898   2.915  15.259  0.2188  0.2124  1.0317
  555TMC3    C2 8284   2.885   2.957  15.388  0.8815 -0.1575 -0.8582
  555TMC3    C3 8285   2.946   2.882  15.481 -0.7011  0.7853 -0.0940
  555TMC3    C4 8286   2.961   2.799  15.223  0.8417 -0.3313  1.0257
  555TMC3    C5 8287   3.021   2.732  15.324 -0.3348 -0.3417 -0.8276
  555TMC3    C6 8288   3.020   2.772  15.455 -0.0938 -0.6043  0.3617
  555TMC3     C 8289   2.835   2.993  15.149  0.0315 -0.8969 -0.5082
  555TMC3     O 8290   2.801   2.949  15.038  0.0714 -0.3891  0.2936
  555TMC3     H 8291   2.813   3.030  15.422 -0.9017 -1.8478 -1.0094
  555TMC3    H1 8292   2.958   2.767  15.119 -0.3635 -0.7741  1.1905
  555TMC3    H2 8293   3.044   2.700  15.533  1.5445 -0.1464  0.2743
  555TMC3    C7 8294   3.089   2.602  15.310 -0.5379  0.4203  0.0066
  555TMC3    C8 8295   2.937   2.941  15.610 -0.4303 -0.4996  0.1340
  555TMC3    O1 8296   3.065   2.530  15.403  0.0540 -0.2201  0.4730
  555TMC3    O2 8297   2.859   3.032  15.628  0.1593  0.4444  0.8069
  556MPD2     C 8298   2.138   3.272  10.984 -0.2332  0.0732 -0.5984
  556MPD2    C1 8299   1.994   3.281  10.997  0.5852 -1.1073 -0.3510
  556MPD2    C2 8300   1.913   3.178  10.953  0.4738 -0.4036  0.6747
  556MPD2    C3 8301   1.968   3.061  10.892  0.6676 -0.6320  0.7708
  556MPD2    C4 8302   2.110   3.054  10.877  0.4109  0.2788  0.7230
  556MPD2    C5 8303   2.187   3.152  10.925  0.3072  0.3971  1.0322
  556MPD2     H 8304   1.807   3.197  10.957  0.4648 -0.5241  1.0957
  556MPD2    H1 8305   2.157   2.968  10.829 -0.1531  0.1097  0.4666
  556MPD2    H2 8306   2.201   3.350  11.026  2.8297 -2.0098 -1.2998
  556MPD2    H3 8307   2.293   3.143  10.902 -0.1177 -2.3131  0.1263
  556MPD2     N 8308   1.869   2.966  10.850  0.2297 -0.1362 -1.2011
  556MPD2    H5 8309   1.775   2.984  10.883  0.3900 -2.3256  0.3716
  556MPD2    N1 8310   1.931   3.397  11.044 -0.0811 -0.8387 -0.2096
  556MPD2    H7 8311   1.830   3.388  11.048  0.2586 -3.7553  1.4612
  557TMC3    C1 8312   1.782   2.754  10.791  0.3368  0.3718  0.2917
  557TMC3    C2 8313   1.803   2.621  10.749  0.7972  0.2216 -0.3873
  557TMC3    C3 8314   1.695   2.536  10.756 -0.8172  0.6116 -0.6433
  557TMC3    C4 8315   1.661   2.804  10.843  0.1512 -0.3335 -0.0189
  557TMC3    C5 8316   1.562   2.710  10.840 -0.2666 -0.0974  0.4504
  557TMC3    C6 8317   1.570   2.583  10.781 -0.0423  0.1976 -1.0372
  557TMC3     C 8318   1.897   2.845  10.791 -0.3016 -0.1319  0.2157
  557TMC3     O 8319   2.006   2.810  10.745  0.6242  0.2840 -0.3049
  557TMC3     H 8320   1.903   2.578  10.750  0.6271 -0.0805  3.0661
  557TMC3    H1 8321   1.644   2.902  10.887  1.1026 -0.9611  1.7212
  557TMC3    H2 8322   1.487   2.514  10.790  0.0971 -0.0924 -1.9205
  557TMC3    C7 8323   1.425   2.742  10.876 -0.4576 -0.2674  0.4268
  557TMC3    C8 8324   1.711   2.403  10.713  0.3607 -0.7560 -0.2152
  557TMC3    O1 8325   1.339   2.669  10.831  0.0908 -0.3582  0.1921
  557TMC3    O2 8326   1.647   2.312  10.772  0.3047  0.3381  0.1389
  558TMC3    C1 8327   4.026   0.946  10.022  0.3983  0.6970  0.0786
  558TMC3    C2 8328   3.955   0.889  10.123 -0.3403 -0.3590  0.6297
  558TMC3    C3 8329   3.824   0.915  10.135  0.0645  1.1222 -0.8418
  558TMC3    C4 8330   3.969   1.034   9.937 -0.2134  0.1770  0.1163
  558TMC3    C5 8331   3.832   1.047   9.940 -0.0751  0.5504  0.8795
  558TMC3    C6 8332   3.755   0.990  10.039 -0.4187  0.5259  0.4087
  558TMC3     C 8333   4.171   0.965  10.025  0.4645 -0.6228  0.1651
  558TMC3     O 8334   4.220   1.073   9.998 -0.4575  0.2165 -0.1822
  558TMC3     H 8335   4.009   0.840  10.203 -1.4156  2.5000  3.0824
  558TMC3    H1 8336   4.027   1.079   9.858 -2.1239  0.0681 -1.3624
  558TMC3    H2 8337   3.647   0.985  10.031 -0.3088 -0.2232 -0.6797
  558TMC3    C7 8338   3.776   1.144   9.844 -0.2854  0.0098  0.2053
  558TMC3    C8 8339   3.761   0.865  10.259 -0.8360 -0.4848  0.2047
  558TMC3    O1 8340   3.849   1.240   9.820  0.5805  0.3165 -0.6875
  558TMC3    O2 8341   3.829   0.779  10.314  0.0350  0.0217 -0.2063
  559MPD2     C 8342   3.530   2.643  11.052  0.1408  1.0410 -0.1726
  559MPD2    C1 8343   3.471   2.544  10.978 -0.0839 -1.0407  0.1916
  559MPD2    C2 8344   3.523   2.414  11.012  1.7052  0.6736 -0.0661
  559MPD2    C3 8345   3.634   2.385  11.098 -0.4020 -0.3996 -0.1216
  559MPD2    C4 8346   3.690   2.503  11.162  1.0492 -0.4136  0.3245
  559MPD2    C5 8347   3.632   2.625  11.137  0.9779 -0.0887  0.0158
  559MPD2     H 8348   3.483   2.326  10.963 -1.0319  2.8987 -1.8154
  559MPD2    H1 8349   3.772   2.501  11.233  0.3847 -0.2598  1.0983
  559MPD2    H2 8350   3.492   2.744  11.048  1.6830  1.6289 -0.1374
  559MPD2    H3 8351   3.667   2.711  11.193 -1.5691 -0.2851  1.9367
  559MPD2     N 8352   3.667   2.248  11.122 -0.2425  0.2217 -0.3444
  559MPD2    H5 8353   3.609   2.182  11.071 -1.7324  1.3736 -0.1412
  559MPD2    N1 8354   3.364   2.576  10.894 -0.1399  0.7105 -0.5698
  559MPD2    H7 8355   3.335   2.673  10.902 -1.5694  0.0455  2.5843
  560TMC3    C1 8356   3.769   2.066  11.234  0.0721  0.6506 -0.6341
  560TMC3    C2 8357   3.648   2.007  11.226  0.0812 -0.2173  0.0635
  560TMC3    C3 8358   3.647   1.869  11.223 -0.0982 -0.5984 -0.8555
  560TMC3    C4 8359   3.887   1.999  11.232  0.2844  0.0683  0.1999
  560TMC3    C5 8360   3.880   1.864  11.236  0.1380  0.1488 -0.2716
  560TMC3    C6 8361   3.759   1.793  11.230 -0.0774  0.0007  0.7396
  560TMC3     C 8362   3.776   2.201  11.193 -0.0155  0.5420 -0.1463
  560TMC3     O 8363   3.870   2.272  11.225  0.1418 -0.2401 -0.2819
  560TMC3     H 8364   3.555   2.062  11.221 -0.9549 -1.8491  1.4401
  560TMC3    H1 8365   3.978   2.056  11.246 -0.7873  2.2599 -1.8439
  560TMC3    H2 8366   3.746   1.685  11.229 -1.4490  0.1725 -1.1155
  560TMC3    C7 8367   3.993   1.784  11.255 -0.0258  0.4679 -0.0990
  560TMC3    C8 8368   3.538   1.807  11.154  0.0911 -0.2075  0.1143
  560TMC3    O1 8369   3.970   1.662  11.272 -0.2560 -0.1262  0.4570
  560TMC3    O2 8370   3.547   1.691  11.120  0.3080  0.3521  0.4151
  561TMC3    C1 8371   1.851   1.106  11.344  0.0756  0.0376  0.2478
  561TMC3    C2 8372   1.830   1.036  11.458  0.3815  0.4106  0.1477
  561TMC3    C3 8373   1.769   1.100  11.565  0.1879 -0.0563  0.4813
  561TMC3    C4 8374   1.810   1.235  11.325 -0.5439  0.5390 -1.0344
  561TMC3    C5 8375   1.736   1.294  11.426  0.3282 -1.3495 -0.3396
  561TMC3    C6 8376   1.715   1.227  11.542 -0.0770  0.3502  0.2432
  561TMC3     C 8377   1.927   1.032  11.241  0.0110 -0.3140 -0.3186
  561TMC3     O 8378   1.887   0.920  11.215 -0.5412 -0.4919  0.4114
  561TMC3     H 8379   1.875   0.940  11.477 -3.4643 -1.2968  0.6957
  561TMC3    H1 8380   1.834   1.292  11.236  1.5380 -0.2522 -0.9891
  561TMC3    H2 8381   1.658   1.270  11.623  3.3430  3.7580  0.8592
  561TMC3    C7 8382   1.663   1.418  11.414  0.2092  0.4598 -1.1145
  561TMC3    C8 8383   1.739   1.022  11.685  0.5305  0.4716 -0.2142
  561TMC3    O1 8384   1.596   1.458  11.504  0.2625  0.0097  0.0067
  561TMC3    O2 8385   1.748   0.902  11.672  0.5625  0.5256  0.4709
  562TMC3    C1 8386   2.992   3.188  16.742 -0.0112  0.1053 -0.6871
  562TMC3    C2 8387   2.994   3.321  16.726  0.2014 -0.3890 -0.0130
  562TMC3    C3 8388   2.986   3.360  16.597  0.2940 -0.0667 -0.6433
  562TMC3    C4 8389   2.960   3.093  16.651 -0.4994 -0.1936  0.0187
  562TMC3    C5 8390   2.943   3.138  16.521  0.3989  0.0400  0.1037
  562TMC3    C6 8391   2.948   3.272  16.496  0.1397  0.2778  0.6722
  562TMC3     C 8392   3.030   3.139  16.868 -0.5098 -0.3987  0.6046
  562TMC3     O 8393   2.996   3.213  16.960 -0.5082 -0.5620  0.1717
  562TMC3     H 8394   3.026   3.383  16.809  0.2852 -0.3030 -0.1104
  562TMC3    H1 8395   2.943   2.989  16.676  0.7293 -0.6419 -1.0318
  562TMC3    H2 8396   2.934   3.303  16.393  1.5887 -0.7316  0.1725
  562TMC3    C7 8397   2.886   3.047  16.417  0.0309  0.4890  0.4925
  562TMC3    C8 8398   2.970   3.504  16.579 -0.6495  0.3690 -0.5525
  562TMC3    O1 8399   2.799   3.094  16.346  0.4468  0.1521 -0.1776
  562TMC3    O2 8400   3.038   3.574  16.654  0.3104  0.3480 -0.0459
  563MPD2     C 8401   0.308   4.132  15.979 -0.0782  0.4338  0.4104
  563MPD2    C1 8402   0.333   4.244  16.059 -0.9944  0.0989  0.0105
  563MPD2    C2 8403   0.444   4.241  16.143  0.3380  0.6358 -0.0496
  563MPD2    C3 8404   0.529   4.135  16.152 -0.0894  0.3119 -0.0437
  563MPD2    C4 8405   0.510   4.033  16.066 -0.8631 -0.5055  0.1264
  563MPD2    C5 8406   0.397   4.029  15.986  0.0161  0.0769  0.3812
  563MPD2     H 8407   0.476   4.331  16.194 -2.0138  1.2643  0.3284
  563MPD2    H1 8408   0.570   3.943  16.076 -0.5157 -0.2201  0.5317
  563MPD2    H2 8409   0.221   4.121  15.915  2.4964 -0.5339 -2.9736
  563MPD2    H3 8410   0.369   3.941  15.930  2.7822 -2.0953  2.4551
  563MPD2     N 8411   0.640   4.141  16.240  0.4237  0.4677  0.2507
  563MPD2    H5 8412   0.647   4.234  16.281  1.0050 -0.3781  2.0800
  563MPD2    N1 8413   0.244   4.353  16.064  0.1229  0.2494  0.2515
  563MPD2    H7 8414   0.154   4.342  16.017 -0.5857  0.2057  1.6008
  564TMC3    C1 8415   0.202   4.443  16.275  0.4958  0.6487  0.2805
  564TMC3    C2 8416   0.089   4.375  16.285  0.2372  0.1446  0.1234
  564TMC3    C3 8417   0.064   4.302  16.400  0.7892 -0.2870  0.0947
  564TMC3    C4 8418   0.287   4.461  16.382  0.2635 -0.8882  0.2596
  564TMC3    C5 8419   0.266   4.383  16.491 -0.3629  0.1022  0.2611
  564TMC3    C6 8420   0.153   4.304  16.502 -0.1815 -0.4519  0.2674
  564TMC3     C 8421   0.263   4.457  16.151  0.3418 -0.3956  0.3639
  564TMC3     O 8422   0.344   4.549  16.145  0.2414  0.5743  0.3528
  564TMC3     H 8423   0.018   4.368  16.204 -0.4949  2.4101  0.5648
  564TMC3    H1 8424   0.381   4.515  16.373 -1.1229  1.3209 -1.0008
  564TMC3    H2 8425   0.120   4.256  16.594  1.3932 -1.4000  0.3458
  564TMC3    C7 8426   0.383   4.327  16.555 -0.2042  0.0225  0.5902
  564TMC3    C8 8427   0.009   4.171  16.388  1.3345 -0.1687 -0.8202
  564TMC3    O1 8428   0.491   4.385  16.568  0.3304  0.2590 -0.5809
  564TMC3    O2 8429   0.072   4.091  16.450 -0.8556  0.0584 -0.5899
  565TMC3    C1 8430   1.635   4.701  10.010 -0.5241 -0.9972 -0.4031
  565TMC3    C2 8431   1.645   4.626  10.124  0.2501 -0.1863  0.2415
  565TMC3    C3 8432   1.627   4.495  10.104 -0.4917 -0.5000  0.1155
  565TMC3    C4 8433   1.603   4.659   9.885 -0.0650 -0.0265 -0.1105
  565TMC3    C5 8434   1.585   4.525   9.877 -0.2826  0.0814  0.4605
  565TMC3    C6 8435   1.600   4.437   9.981 -0.3673  0.1436  0.1481
  565TMC3     C 8436   1.654   0.104  10.027 -0.5560  0.0059 -0.4591
  565TMC3     O 8437   1.697   0.176   9.936 -0.1107 -0.5959 -0.0225
  565TMC3     H 8438   1.675   4.661  10.221 -0.7759  0.8392  0.1901
  565TMC3    H1 8439   1.583   4.733   9.808 -0.2189  0.2557  0.1998
  565TMC3    H2 8440   1.577   4.332   9.972  1.6384 -0.3625  0.8898
  565TMC3    C7 8441   1.580   4.471   9.738  0.6044 -0.4103  0.4981
  565TMC3    C8 8442   1.602   4.420  10.225 -0.2134 -0.1452 -0.0757
  565TMC3    O1 8443   1.566   4.554   9.649  0.5536  0.1785 -0.1754
  565TMC3    O2 8444   1.531   4.475  10.312 -0.5553  0.5094 -0.0104
  566MPD2     C 8445   3.054   1.814  14.229  0.1002  0.6004 -0.7872
  566MPD2    C1 8446   3.041   1.928  14.164  0.2117 -0.0411  0.1771
  566MPD2    C2 8447   2.911   1.976  14.131  0.3453  0.1687  0.0303
  566MPD2    C3 8448   2.798   1.914  14.180  0.2423  0.3011  0.1043
  566MPD2    C4 8449   2.814   1.792  14.240 -0.5065  0.2930 -0.3867
  566MPD2    C5 8450   2.943   1.744  14.266  0.3023 -0.3410 -0.6596
  566MPD2     H 8451   2.909   2.072  14.080  2.7502  0.4771  0.5057
  566MPD2    H1 8452   2.732   1.728  14.271 -0.9480  0.2563 -1.6397
  566MPD2    H2 8453   3.147   1.769  14.262 -0.9826 -0.0031  1.3945
  566MPD2    H3 8454   2.969   1.655  14.322  2.4386 -0.1468 -1.3459
  566MPD2     N 8455   2.670   1.964  14.162  0.2343 -0.5126 -0.5435
  566MPD2    H5 8456   2.597   1.894  14.155 -1.4543  1.2628 -0.7486
  566MPD2    N1 8457   3.164   1.994  14.156 -0.1826  0.0815  0.0890
  566MPD2    H7 8458   3.247   1.956  14.201 -0.4804 -0.1411  0.4526
  567TMC3    C1 8459   3.301   2.185  14.166 -0.1398 -0.7107 -0.1782
  567TMC3    C2 8460   3.298   2.317  14.123 -0.2308 -0.1740 -0.0896
  567TMC3    C3 8461   3.289   2.421  14.217 -0.4564  0.2507  0.1787
  567TMC3    C4 8462   3.296   2.164  14.299 -0.8100  0.2416  0.2699
  567TMC3    C5 8463   3.265   2.266  14.386 -0.6465 -0.7307  0.3997
  567TMC3    C6 8464   3.263   2.392  14.342 -0.1235 -0.4661  0.1062
  567TMC3     C 8465   3.183   2.125  14.104 -0.1577  0.3857 -0.3021
  567TMC3     O 8466   3.103   2.185  14.033 -0.0877  0.4284  0.0117
  567TMC3     H 8467   3.299   2.341  14.017  2.3658 -0.7699 -0.2027
  567TMC3    H1 8468   3.315   2.065  14.338  0.9960  0.7069  0.5493
  567TMC3    H2 8469   3.242   2.470  14.415  0.8509  0.7261 -0.8856
  567TMC3    C7 8470   3.242   2.229  14.518 -0.0599 -0.0594  0.3197
  567TMC3    C8 8471   3.231   2.544  14.159  0.5565  0.7657 -0.2983
  567TMC3    O1 8472   3.275   2.113  14.550  0.0413 -0.1655  0.3837
  567TMC3    O2 8473   3.151   2.527  14.068  0.0381  0.3867 -0.4361
  568MPD2     C 8474   0.395   2.781  16.643 -0.3773 -0.5858  0.1492
  568MPD2    C1 8475   0.348   2.846  16.748  0.0076  0.1148  0.2785
  568MPD2    C2 8476   0.272   2.964  16.722  0.8760  0.1005 -0.1334
  568MPD2    C3 8477   0.236   3.003  16.594  0.6883  0.2462  0.2559
  568MPD2    C4 8478   0.296   2.933  16.495 -0.4033 -0.8124  1.1541
  568MPD2    C5 8479   0.368   2.821  16.510 -0.2876 -0.4233  0.4210
  568MPD2     H 8480   0.236   3.037  16.793 -1.7483 -1.6480  0.3307
  568MPD2    H1 8481   0.276   2.963  16.392  3.0060  0.7724  0.9453
  568MPD2    H2 8482   0.456   2.692  16.657 -1.0597 -0.8532  1.4041
  568MPD2    H3 8483   0.394   2.758  16.426  1.0794  0.8497 -0.1151
  568MPD2     N 8484   0.133   3.099  16.572  0.0053 -0.5295 -0.3349
  568MPD2    H5 8485   0.105   3.144  16.658  1.1878  0.9125 -0.6927
  568MPD2    N1 8486   0.354   2.786  16.878  0.3099  0.3089  0.2214
  568MPD2    H7 8487   0.405   2.698  16.880  0.2282  0.2127 -1.8295
  569TMC3    C1 8488   4.708   3.235  16.464  0.1044  0.8173 -0.1916
  569TMC3    C2 8489   4.671   3.276  16.590  0.1376 -0.0243 -0.4141
  569TMC3    C3 8490   4.626   3.404  16.595  0.2908 -0.6949 -0.2809
  569TMC3    C4 8491   4.690   3.308  16.347 -0.2068  0.5305  0.1619
  569TMC3    C5 8492   4.647   3.439  16.370  0.0300 -0.1108  0.3668
  569TMC3    C6 8493   4.615   3.490  16.493 -0.0428 -0.8448 -0.4579
  569TMC3     C 8494   0.065   3.125  16.456 -0.6620  0.2506 -0.0530
  569TMC3     O 8495   0.083   3.084  16.342 -0.3980  0.1055 -0.4023
  569TMC3     H 8496   4.693   3.212  16.674  0.1857  2.7437  1.6747
  569TMC3    H1 8497   4.737   3.273  16.256 -0.4880 -0.2095  0.3059
  569TMC3    H2 8498   4.557   3.581  16.508  1.3851 -0.7907  4.8518
  569TMC3    C7 8499   4.636   3.537  16.259  0.1115 -0.3647  0.8140
  569TMC3    C8 8500   4.605   3.454  16.732  0.4059  0.3310  0.4393
  569TMC3    O1 8501   4.630   3.495  16.144 -0.3699  0.1089 -0.1999
  569TMC3    O2 8502   4.581   3.371  16.819  0.6128 -0.0647  0.2398
  570TMC3    C1 8503   4.575   1.958  16.476  1.0734  0.7266  0.4699
  570TMC3    C2 8504   4.659   1.944  16.368  0.1078 -0.3087 -0.6587
  570TMC3    C3 8505   4.727   2.058  16.328  0.7155  0.2799 -1.0082
  570TMC3    C4 8506   4.555   2.081  16.547 -0.9424  0.2004 -0.3094
  570TMC3    C5 8507   4.629   2.187  16.500  0.3095 -0.5097  0.1837
  570TMC3    C6 8508   4.721   2.179  16.394 -0.1091  0.1679  0.1383
  570TMC3     C 8509   4.489   1.842  16.494 -0.3986  0.1408  0.1479
  570TMC3     O 8510   4.486   1.759  16.402  0.1707  0.2684  0.2350
  570TMC3     H 8511   4.667   1.850  16.314  2.8146 -1.9842  2.6733
  570TMC3    H1 8512   4.483   2.084  16.628 -4.3462 -0.5199 -3.2661
  570TMC3    H2 8513   0.040   2.265  16.363  2.8225 -1.2311  1.8679
  570TMC3    C7 8514   4.623   2.310  16.585 -0.4283 -0.1845 -0.2081
  570TMC3    C8 8515   0.080   2.056  16.209 -0.1758 -0.6678  0.1168
  570TMC3    O1 8516   4.592   2.305  16.704 -0.2327 -0.1168 -0.0254
  570TMC3    O2 8517   0.128   2.163  16.168 -0.5066  0.8607 -0.8831
  571MPD2     C 8518   1.653   4.438   0.055  0.5685 -0.0925 -0.3277
  571MPD2    C1 8519   1.732   4.398   0.163 -0.4513  0.4398  0.1585
  571MPD2    C2 8520   1.816   4.494   0.229 -1.0625  0.0788  0.0227
  571MPD2    C3 8521   1.833   4.622   0.175 -0.4681  0.0420  0.6379
  571MPD2    C4 8522   1.766   4.654   0.056  0.9335 -0.2309  0.0304
  571MPD2    C5 8523   1.670   4.564   0.004  0.4484  0.0149 -0.2489
  571MPD2     H 8524   1.886   4.463   0.305 -0.5453 -1.2235 -0.9847
  571MPD2    H1 8525   1.780   0.011   0.010 -0.5283  0.4519  1.0277
  571MPD2    H2 8526   1.591   4.364   0.007  0.9447 -0.7283  0.1483
  571MPD2    H3 8527   1.599   4.600  17.689 -1.0857  0.8846  1.6873
  571MPD2     N 8528   1.936   4.712   0.214  0.5265 -0.1067 -0.5234
  571MPD2    H5 8529   1.931   0.064   0.170  2.1034 -0.0074 -0.5067
  571MPD2    N1 8530   1.718   4.263   0.208 -0.1786 -0.0048 -0.4351
  571MPD2    H7 8531   1.662   4.205   0.147  1.0586 -0.6514 -0.9723
  572TMC3    C1 8532   2.118   0.067   0.344  0.6448 -0.4911  0.0193
  572TMC3    C2 8533   2.208   0.043   0.437  0.1619  0.4712  0.5363
  572TMC3    C3 8534   2.294   0.143   0.476 -0.2944  0.6100  0.1403
  572TMC3    C4 8535   2.116   0.179   0.265  0.7490 -1.4573 -0.6368
  572TMC3    C5 8536   2.207   0.280   0.300  0.2273  0.7140 -0.3180
  572TMC3    C6 8537   2.296   0.262   0.406 -0.2476  0.6211  0.4511
  572TMC3     C 8538   2.018   4.697   0.329  0.0878  0.0625  0.0081
  572TMC3     O 8539   2.004   4.621   0.423  0.0697 -0.5712  0.2800
  572TMC3     H 8540   2.206   4.695   0.501 -0.1285  1.5209  1.9741
  572TMC3    H1 8541   2.046   0.193   0.183  0.2296 -1.1238 -0.1395
  572TMC3    H2 8542   2.362   0.345   0.427  0.6956 -0.9931  3.7579
  572TMC3    C7 8543   2.216   0.390   0.204 -0.6803 -0.2471 -0.0519
  572TMC3    C8 8544   2.430   0.102   0.510  0.5043 -0.4953 -0.3072
  572TMC3    O1 8545   2.117   0.420   0.141 -0.3543  0.3618  0.0958
  572TMC3    O2 8546   2.494   0.198   0.546 -0.2954  0.3462 -0.0790
  573MPD2     C 8547   3.650   4.090   1.070  0.4597  0.0283 -0.4049
  573MPD2    C1 8548   3.597   4.178   0.985 -0.1533  0.3377  0.0788
  573MPD2    C2 8549   3.513   4.126   0.887 -0.1298  0.1146  0.4399
  573MPD2    C3 8550   3.489   3.993   0.872  0.1355  0.5185  0.4660
  573MPD2    C4 8551   3.561   3.905   0.943  0.0338 -0.0873  1.1420
  573MPD2    C5 8552   3.646   3.953   1.037  0.4154  0.6830 -0.6329
  573MPD2     H 8553   3.474   4.193   0.811 -0.6073  2.0581  2.3997
  573MPD2    H1 8554   3.549   3.797   0.933 -3.9133  0.3757  1.2558
  573MPD2    H2 8555   3.710   4.122   1.155  0.6857 -1.8180  0.1254
  573MPD2    H3 8556   3.697   3.878   1.097  0.9507  0.5438 -1.2587
  573MPD2     N 8557   3.402   3.940   0.774 -0.3490  0.2773  0.5752
  573MPD2    H5 8558   3.389   3.840   0.782  0.8090  0.0031 -1.0506
  573MPD2    N1 8559   3.613   4.313   1.034 -0.4769  0.4846  0.0954
  573MPD2    H7 8560   3.653   4.328   1.126  1.0365  0.3808 -0.5370
  574TMC3    C1 8561   3.262   3.924   0.589  0.7841 -0.8500  0.0536
  574TMC3    C2 8562   3.144   3.981   0.543 -0.5752 -0.2389 -0.0081
  574TMC3    C3 8563   3.047   3.894   0.492  0.1584  0.1587  0.0308
  574TMC3    C4 8564   3.291   3.789   0.579 -0.3314  0.8666 -0.0730
  574TMC3    C5 8565   3.186   3.706   0.531  0.8017  1.0782  0.1048
  574TMC3    C6 8566   3.063   3.758   0.498  0.1382 -0.2857  0.3002
  574TMC3     C 8567   3.339   4.010   0.674  0.1695 -0.2249  0.4640
  574TMC3     O 8568   3.343   4.129   0.649  0.3791 -0.3633  0.0215
  574TMC3     H 8569   3.112   4.083   0.558 -1.1858 -0.3149 -0.8156
  574TMC3    H1 8570   3.381   3.740   0.614  0.2842  2.5274  0.6543
  574TMC3    H2 8571   2.974   3.701   0.474 -0.0747  0.7567 -1.3681
  574TMC3    C7 8572   3.202   3.565   0.520  0.0427 -0.5011  0.6775
  574TMC3    C8 8573   2.926   3.951   0.427  0.0721  0.3849  0.1600
  574TMC3    O1 8574   3.304   3.523   0.576 -0.6999 -0.7574 -0.5093
  574TMC3    O2 8575   2.840   3.869   0.399 -0.2675 -0.1554  0.4405
  575TMC3    C1 8576   1.600   4.287  11.102  0.0137 -0.0850  0.3373
  575TMC3    C2 8577   1.557   4.165  11.147 -0.6877 -0.6760 -0.2085
  575TMC3    C3 8578   1.529   4.074  11.053  1.2123 -0.0380  1.0248
  575TMC3    C4 8579   1.610   4.321  10.971  0.3240 -0.1758 -0.6415
  575TMC3    C5 8580   1.588   4.222  10.880 -0.0842  0.7367 -0.3938
  575TMC3    C6 8581   1.554   4.091  10.920 -0.6484 -0.2218 -0.1153
  575TMC3     C 8582   1.654   4.390  11.200  0.2432 -0.4689  0.3501
  575TMC3     O 8583   1.667   4.508  11.161  0.5825  0.3565 -0.1955
  575TMC3     H 8584   1.540   4.147  11.252 -0.5386 -0.1200 -0.0906
  575TMC3    H1 8585   1.617   4.424  10.937 -1.3297 -0.4289 -1.7626
  575TMC3    H2 8586   1.516   4.022  10.846 -0.7287 -0.2487 -0.0495
  575TMC3    C7 8587   1.601   4.250  10.744 -0.3089 -0.1608 -0.1179
  575TMC3    C8 8588   1.504   3.937  11.102  0.1024  0.1303 -0.2654
  575TMC3    O1 8589   1.586   4.365  10.709  0.4019  0.1901  0.1112
  575TMC3    O2 8590   1.455   3.933  11.213  0.2031  0.6428  0.0467
  576MPD2     C 8591   0.831   1.584  12.617  0.2608  0.4064 -0.6233
  576MPD2    C1 8592   0.961   1.628  12.581  0.6859  0.2302  0.5729
  576MPD2    C2 8593   0.997   1.766  12.601  0.3298 -0.1442 -0.7444
  576MPD2    C3 8594   0.903   1.856  12.639 -1.0384  0.8666 -0.3811
  576MPD2    C4 8595   0.775   1.815  12.681 -0.0863  0.6395  0.2002
  576MPD2    C5 8596   0.740   1.675  12.671  0.5543  0.2111  0.9151
  576MPD2     H 8597   1.095   1.806  12.576  0.5980  0.0397  0.6195
  576MPD2    H1 8598   0.701   1.882  12.723  1.2836  1.4042  1.4000
  576MPD2    H2 8599   0.799   1.482  12.598  1.8062 -0.3815  0.8924
  576MPD2    H3 8600   0.634   1.654  12.672  1.0421 -2.3646 -2.2988
  576MPD2     N 8601   0.955   1.989  12.663 -0.1366 -0.1882  0.2266
  576MPD2    H5 8602   1.051   2.007  12.639  0.4648 -2.6188  0.7830
  576MPD2    N1 8603   1.054   1.539  12.516 -0.7867  0.2619  0.7485
  576MPD2    H7 8604   1.129   1.575  12.458 -0.2580  0.8144  1.7854
  577TMC3    C1 8605   1.085   1.337  12.394 -0.0946 -0.4346  0.6674
  577TMC3    C2 8606   1.185   1.255  12.402 -0.6199  0.0677 -0.4054
  577TMC3    C3 8607   1.276   1.251  12.297  1.4507 -0.3263 -0.4290
  577TMC3    C4 8608   1.059   1.416  12.281 -0.1513  0.2646  0.6377
  577TMC3    C5 8609   1.136   1.394  12.168  0.3976  1.0463  0.5688
  577TMC3    C6 8610   1.247   1.312  12.176  0.2579 -0.1127  0.6472
  577TMC3     C 8611   1.035   1.398  12.506 -0.7071  0.1657  0.5468
  577TMC3     O 8612   0.957   1.327  12.563 -0.5394 -1.0308  0.2985
  577TMC3     H 8613   1.221   1.211  12.494 -1.2412 -0.6004 -0.4813
  577TMC3    H1 8614   0.973   1.482  12.283 -1.5917 -1.5601 -0.0975
  577TMC3    H2 8615   1.306   1.286  12.089 -1.7165 -0.8661 -0.4434
  577TMC3    C7 8616   1.128   1.457  12.036 -0.4747  1.0862 -0.4184
  577TMC3    C8 8617   1.391   1.165  12.303  0.0050 -0.7810 -0.3306
  577TMC3    O1 8618   1.239   1.482  11.986  0.0804 -0.3891  0.6971
  577TMC3    O2 8619   1.385   1.067  12.375  0.1924 -0.3449 -0.1110
  578MPD2     C 8620   4.238   2.704   1.565  0.2689  0.3361  0.4074
  578MPD2    C1 8621   4.236   2.625   1.450  0.1597 -1.1151  0.8134
  578MPD2    C2 8622   4.305   2.504   1.442 -0.0567 -0.2645 -0.0942
  578MPD2    C3 8623   4.379   2.466   1.555  0.0878  0.1978  0.2034
  578MPD2    C4 8624   4.387   2.550   1.664 -0.6975  0.2890  0.0990
  578MPD2    C5 8625   4.308   2.660   1.671  0.3373 -0.4184 -0.4526
  578MPD2     H 8626   4.299   2.440   1.355 -0.3931  0.5535 -0.6711
  578MPD2    H1 8627   4.444   2.528   1.754 -1.9315 -0.4752  0.6946
  578MPD2    H2 8628   4.190   2.801   1.559  0.8361  0.6896  1.6387
  578MPD2    H3 8629   4.327   2.727   1.754  1.1809  0.8477 -1.6646
  578MPD2     N 8630   4.457   2.345   1.543  0.5790 -0.0288 -0.3279
  578MPD2    H5 8631   4.435   2.286   1.464 -0.1876 -1.9988  1.3283
  578MPD2    N1 8632   4.170   2.680   1.338 -0.0761 -0.0351 -0.1031
  578MPD2    H7 8633   4.121   2.765   1.362 -0.5106 -0.1832 -0.4619
  579TMC3    C1 8634   4.628   2.180   1.598 -0.0372 -0.4122  0.1146
  579TMC3    C2 8635   4.738   2.143   1.679  0.0518 -0.3552 -0.6100
  579TMC3    C3 8636   0.067   2.034   1.640  0.0895 -0.2100 -0.6785
  579TMC3    C4 8637   4.605   2.122   1.477 -0.4711  0.2383  0.0144
  579TMC3    C5 8638   4.699   2.029   1.433 -0.0512 -0.0459  0.0832
  579TMC3    C6 8639   0.059   1.987   1.515 -0.1587  0.2969  0.2685
  579TMC3     C 8640   4.556   2.300   1.632 -0.6841 -0.2333 -0.2209
  579TMC3     O 8641   4.596   2.362   1.730 -0.0798 -0.4807 -0.1164
  579TMC3     H 8642   0.008   2.193   1.774 -2.2397  0.1515 -0.6388
  579TMC3    H1 8643   4.523   2.152   1.413  0.3258  0.2864 -0.9791
  579TMC3    H2 8644   0.119   1.902   1.485 -0.2737 -0.3939  1.9830
  579TMC3    C7 8645   4.659   1.945   1.327  0.1997 -0.0534  0.2913
  579TMC3    C8 8646   0.165   1.988   1.730  0.5109 -0.0489 -0.3280
  579TMC3    O1 8647   4.696   1.827   1.334 -0.1439 -0.0896 -0.1577
  579TMC3    O2 8648   0.146   1.993   1.852 -0.0016 -0.2778 -0.5922
  580TMC3    C1 8649   4.111   1.093  11.934  0.0010 -0.2393 -0.6411
  580TMC3    C2 8650   4.165   1.083  11.810  0.4912  0.2908  0.1975
  580TMC3    C3 8651   4.269   0.993  11.788  0.0106  0.0420  0.0094
  580TMC3    C4 8652   4.158   1.015  12.041 -0.1453 -0.0449 -0.3291
  580TMC3    C5 8653   4.257   0.921  12.015 -0.0020  0.2968 -0.5009
  580TMC3    C6 8654   4.314   0.910  11.887 -0.3649  0.5527 -0.5797
  580TMC3     C 8655   3.983   1.152  11.936 -0.2883  0.4151  0.2359
  580TMC3     O 8656   3.974   1.251  11.866  0.3253 -0.4659  0.7112
  580TMC3     H 8657   4.115   1.121  11.722  1.1845  0.1106 -0.2744
  580TMC3    H1 8658   4.094   1.014  12.129  1.3987 -2.3610  0.7918
  580TMC3    H2 8659   4.374   0.824  11.860 -0.7249  1.0360 -2.8928
  580TMC3    C7 8660   4.277   0.818  12.117 -0.3941  0.0646 -0.3652
  580TMC3    C8 8661   4.346   0.993  11.665 -0.6488  0.8946 -0.0033
  580TMC3    O1 8662   4.188   0.818  12.198 -0.3087 -0.1784 -0.7371
  580TMC3    O2 8663   4.426   0.902  11.648  0.4154 -0.7021  0.0117
  581MPD2     C 8664   1.475   0.703  14.968  0.4597 -0.4644 -0.5020
  581MPD2    C1 8665   1.444   0.815  15.039  0.0646 -0.4716  0.2443
  581MPD2    C2 8666   1.326   0.879  15.009  0.2648 -0.5990 -0.1870
  581MPD2    C3 8667   1.242   0.832  14.907  0.3181 -0.1024  0.3651
  581MPD2    C4 8668   1.289   0.731  14.825 -0.3039  0.4496  0.1898
  581MPD2    C5 8669   1.402   0.660  14.863 -0.5561 -0.1525 -0.0903
  581MPD2     H 8670   1.277   0.956  15.067  2.4443  0.1230  0.6739
  581MPD2    H1 8671   1.230   0.684  14.746  1.2793 -0.3599 -0.5072
  581MPD2    H2 8672   1.570   0.653  14.982 -0.4601 -2.1104 -0.0141
  581MPD2    H3 8673   1.435   0.581  14.797  1.1944  0.1230  0.4711
  581MPD2     N 8674   1.121   0.895  14.883  0.2059  0.1275  0.3842
  581MPD2    H5 8675   1.098   0.979  14.935 -0.0881 -0.8445  1.8214
  581MPD2    N1 8676   1.527   0.861  15.142 -0.4742  0.3011  0.4271
  581MPD2    H7 8677   1.614   0.811  15.153 -1.2038 -1.3020 -1.2163
  582TMC3    C1 8678   1.624   0.974  15.323 -0.2525  0.0531  0.3491
  582TMC3    C2 8679   1.617   1.038  15.443 -0.1694  0.0042  0.4993
  582TMC3    C3 8680   1.726   1.029  15.527 -0.0618 -0.1123  0.6248
  582TMC3    C4 8681   1.744   0.915  15.282 -0.1591  0.4345  0.2090
  582TMC3    C5 8682   1.848   0.911  15.368  0.3508  0.0242  0.3485
  582TMC3    C6 8683   1.839   0.960  15.493  0.1033  0.3125  0.2758
  582TMC3     C 8684   1.504   0.957  15.239 -0.1062 -0.1128  0.0980
  582TMC3     O 8685   1.395   1.013  15.267  0.0652 -0.1290 -0.1970
  582TMC3     H 8686   1.518   1.064  15.477 -0.6675  0.3081 -1.1858
  582TMC3    H1 8687   1.760   0.863  15.188  1.3907  1.7629 -0.2566
  582TMC3    H2 8688   1.915   0.931  15.564  1.3034  0.0325 -1.1150
  582TMC3    C7 8689   1.928   0.786  15.383 -0.4273  0.4593  0.2490
  582TMC3    C8 8690   1.684   1.004  15.654 -0.6733 -0.0396 -0.5611
  582TMC3    O1 8691   2.034   0.797  15.438 -0.1011  0.7111 -0.0420
  582TMC3    O2 8692   1.574   0.951  15.662  0.0916  0.0411 -0.6083
  583MPD2     C 8693   1.614   2.470  16.884  0.4439  0.1383  0.2741
  583MPD2    C1 8694   1.604   2.592  16.818  0.1996  0.0913  0.3491
  583MPD2    C2 8695   1.548   2.699  16.888  0.5667  0.3081  0.5722
  583MPD2    C3 8696   1.494   2.676  17.021  0.0141  0.4207  0.4623
  583MPD2    C4 8697   1.504   2.551  17.081  0.6793 -0.6107  0.3345
  583MPD2    C5 8698   1.565   2.445  17.013 -0.3347 -0.5743 -0.7688
  583MPD2     H 8699   1.537   2.802  16.857  1.0919  0.0777 -0.3921
  583MPD2    H1 8700   1.461   2.538  17.180  0.6319 -0.4994  0.3283
  583MPD2    H2 8701   1.659   2.390  16.827  1.3543  0.2745  0.7951
  583MPD2    H3 8702   1.568   2.344  17.052  1.1560  0.8858  2.8845
  583MPD2     N 8703   1.436   2.788  17.077  0.1042  0.5504 -0.2106
  583MPD2    H5 8704   1.416   2.864  17.012  0.8053  0.3153 -0.6947
  583MPD2    N1 8705   1.660   2.613  16.689 -0.0304  0.7514  0.1606
  583MPD2    H7 8706   1.646   2.708  16.655 -1.2060  0.1554 -1.0094
  584TMC3    C1 8707   1.301   2.918  17.233  0.4487  0.1068  0.1199
  584TMC3    C2 8708   1.308   3.026  17.146  0.3867  0.0688 -0.1782
  584TMC3    C3 8709   1.252   3.144  17.195  0.3623 -0.1789 -0.4245
  584TMC3    C4 8710   1.253   2.934  17.360  0.7090 -0.3800  0.0923
  584TMC3    C5 8711   1.201   3.053  17.403  0.3961  0.0176 -0.2997
  584TMC3    C6 8712   1.190   3.161  17.321  0.1312 -0.3781 -0.2458
  584TMC3     C 8713   1.366   2.790  17.203  0.6784  0.2375  0.9837
  584TMC3     O 8714   1.369   2.706  17.295 -0.9331 -0.1897  0.2086
  584TMC3     H 8715   1.319   3.019  17.038 -0.1348 -0.9451 -0.1625
  584TMC3    H1 8716   1.253   2.849  17.427  0.3911 -0.1833  0.3419
  584TMC3    H2 8717   1.158   3.261  17.349 -1.8994 -0.3804 -2.5552
  584TMC3    C7 8718   1.161   3.061  17.537 -0.3552  0.0320  0.2382
  584TMC3    C8 8719   1.256   3.251  17.100 -0.1829  0.2664 -0.3347
  584TMC3    O1 8720   1.218   2.982  17.611 -0.0045  0.0610 -0.5144
  584TMC3    O2 8721   1.237   3.230  16.980  0.0368  0.3944 -0.6120
  585MPD2     C 8722   0.439   2.015   0.663 -0.3910  0.6483 -0.4769
  585MPD2    C1 8723   0.476   2.050   0.535  0.0850 -0.0319  0.8468
  585MPD2    C2 8724   0.517   1.948   0.449  0.1986 -0.1216  0.0075
  585MPD2    C3 8725   0.516   1.813   0.491 -0.0072 -0.4117  0.2320
  585MPD2    C4 8726   0.457   1.785   0.615  0.0698  0.0662  0.9684
  585MPD2    C5 8727   0.425   1.886   0.695 -0.3895  0.1432 -0.5809
  585MPD2     H 8728   0.546   1.980   0.349  0.1735 -1.6363 -0.4739
  585MPD2    H1 8729   0.445   1.688   0.660 -1.6005  0.3721  1.1822
  585MPD2    H2 8730   0.404   2.086   0.738 -1.3636  1.1202 -1.3876
  585MPD2    H3 8731   0.392   1.864   0.796 -1.3500  0.5734 -0.8043
  585MPD2     N 8732   0.566   1.708   0.409 -0.1084 -0.1291 -0.1230
  585MPD2    H5 8733   0.576   1.617   0.452 -1.3633 -1.5195 -2.7951
  585MPD2    N1 8734   0.482   2.184   0.498  0.1687 -0.0461  0.0979
  585MPD2    H7 8735   0.464   2.250   0.573  0.0530  0.9484 -0.8162
  586TMC3    C1 8736   0.671   1.577   0.245 -0.0399 -0.1408  0.0334
  586TMC3    C2 8737   0.774   1.571   0.161  0.1586  0.6457 -0.3712
  586TMC3    C3 8738   0.827   1.449   0.138 -0.1227  0.7359 -0.1185
  586TMC3    C4 8739   0.613   1.474   0.309  0.7079 -0.3043 -0.1437
  586TMC3    C5 8740   0.668   1.349   0.284 -0.6964 -0.3615  0.1518
  586TMC3    C6 8741   0.777   1.337   0.208 -0.1886 -0.1433 -0.0480
  586TMC3     C 8742   0.623   1.715   0.278  0.0546 -0.4187 -0.6570
  586TMC3     O 8743   0.664   1.816   0.224 -0.1580 -0.8780  0.6435
  586TMC3     H 8744   0.808   1.668   0.125 -0.5646  0.7549 -0.7670
  586TMC3    H1 8745   0.518   1.476   0.361 -0.5623 -2.9320 -2.3787
  586TMC3    H2 8746   0.819   1.238   0.190 -0.5643 -0.2561 -0.3133
  586TMC3    C7 8747   0.558   1.255   0.234 -0.5745  0.2415  0.1998
  586TMC3    C8 8748   0.861   1.408  17.757  0.2649  0.2353 -0.2861
  586TMC3    O1 8749   0.446   1.252   0.291 -0.0556  0.0554 -0.2254
  586TMC3    O2 8750   0.850   1.290  17.749 -0.0396 -0.2002 -0.3729
  587TMC3    C1 8751   3.078   0.126  16.526 -0.2056 -0.3608  0.0828
  587TMC3    C2 8752   3.037   0.257  16.508  0.3515 -0.3417 -0.1316
  587TMC3    C3 8753   3.083   0.358  16.583  0.1128 -0.1097  0.3244
  587TMC3    C4 8754   3.165   0.093  16.629  0.8457 -0.0974  0.4803
  587TMC3    C5 8755   3.211   0.196  16.706  0.4086 -0.5781 -0.2428
  587TMC3    C6 8756   3.179   0.328  16.673 -0.2026 -0.1140 -0.3183
  587TMC3     C 8757   2.995   0.012  16.494 -0.7017  0.2503  0.7265
  587TMC3     O 8758   3.056   4.651  16.463 -0.0047  0.3111  0.6083
  587TMC3     H 8759   2.958   0.276  16.437 -0.3653 -1.9752  0.2238
  587TMC3    H1 8760   3.189   4.729  16.651 -1.2502 -0.8086 -0.5920
  587TMC3    H2 8761   3.226   0.405  16.734 -0.9459 -0.4248  0.6450
  587TMC3    C7 8762   3.340   0.166  16.766 -0.0626  0.5208  0.3076
  587TMC3    C8 8763   3.043   0.499  16.547  0.2671  0.7178  0.1784
  587TMC3    O1 8764   3.381   0.052  16.752 -0.3825 -0.6341 -0.0511
  587TMC3    O2 8765   3.004   0.514  16.434  0.2603 -0.2322 -0.5119
  588TMC3    C1 8766   1.265   1.419   9.728  0.0758  0.2071  0.1582
  588TMC3    C2 8767   1.254   1.283   9.744  1.1272 -0.1021 -1.0398
  588TMC3    C3 8768   1.347   1.213   9.822  0.0251  0.0775 -0.2511
  588TMC3    C4 8769   1.371   1.486   9.785  0.0464  1.2533 -0.1447
  588TMC3    C5 8770   1.475   1.410   9.832 -0.3732  0.2158  0.4086
  588TMC3    C6 8771   1.455   1.282   9.869  0.0078  0.3195 -0.6891
  588TMC3     C 8772   1.133   1.482   9.752 -0.3061 -0.1030  0.2156
  588TMC3     O 8773   1.027   1.433   9.710  0.2549  0.3143  0.2889
  588TMC3     H 8774   1.161   1.236   9.713  1.2297  0.0196 -1.5295
  588TMC3    H1 8775   1.381   1.594   9.785 -1.5535  1.4110 -2.3697
  588TMC3    H2 8776   1.526   1.242   9.940  0.0218  0.6263 -0.5292
  588TMC3    C7 8777   1.570   1.487   9.907  0.0855 -0.0785 -0.0342
  588TMC3    C8 8778   1.295   1.125   9.923 -0.2178 -0.0326 -0.3790
  588TMC3    O1 8779   1.662   1.543   9.848  0.5050  0.2049  0.4731
  588TMC3    O2 8780   1.339   1.117  10.036 -0.3278  0.0995  0.4099
  589TMC3    C1 8781   4.611   0.964   1.517 -0.3287  0.1641  0.5060
  589TMC3    C2 8782   4.720   0.907   1.577  0.2657 -0.2267 -0.5498
  589TMC3    C3 8783   0.020   0.790   1.525  0.4549  0.1125 -0.2689
  589TMC3    C4 8784   4.555   0.916   1.403 -0.1005 -0.2588 -0.6606
  589TMC3    C5 8785   4.607   0.800   1.350 -0.4029 -0.0448  0.8220
  589TMC3    C6 8786   4.711   0.732   1.409 -0.2578  0.1625  0.1348
  589TMC3     C 8787   4.570   1.092   1.571 -0.1805 -0.2707  0.5515
  589TMC3     O 8788   4.493   1.143   1.489 -0.0256 -0.1468 -0.1213
  589TMC3     H 8789   0.035   0.946   1.661  0.6647  0.5374 -1.1663
  589TMC3    H1 8790   4.469   0.963   1.357  0.9426  2.6003  0.2649
  589TMC3    H2 8791   0.016   0.640   1.373  1.2921  1.1821 -0.5351
  589TMC3    C7 8792   4.544   0.726   1.245 -0.1791 -1.3059 -0.3371
  589TMC3    C8 8793   0.113   0.707   1.595  0.0747 -0.3447 -0.5277
  589TMC3    O1 8794   4.610   0.632   1.204  0.5801  0.5641  0.1337
  589TMC3    O2 8795   0.124   0.739   1.712 -0.6648  0.2073  0.3929
  590MPD2     C 8796   3.957   3.115  16.886  0.3475  0.1155  0.3764
  590MPD2    C1 8797   3.889   3.133  16.769 -0.8561 -0.0813  0.6688
  590MPD2    C2 8798   3.954   3.188  16.665 -0.0533 -0.3782 -0.1286
  590MPD2    C3 8799   4.074   3.246  16.691  0.2037  0.8767 -0.2386
  590MPD2    C4 8800   4.137   3.237  16.808 -0.1395 -0.9429 -0.8457
  590MPD2    C5 8801   4.076   3.181  16.906 -0.1688  0.4454  0.1260
  590MPD2     H 8802   3.902   3.204  16.571 -1.6030  4.1167  1.4715
  590MPD2    H1 8803   4.240   3.267  16.820  0.1216 -1.4010 -1.9459
  590MPD2    H2 8804   3.915   3.058  16.968 -2.7212 -0.4276 -1.5645
  590MPD2    H3 8805   4.116   3.177  17.006  2.7290 -0.6805 -1.0828
  590MPD2     N 8806   4.140   3.318  16.588 -0.2533  0.3087  0.2697
  590MPD2    H5 8807   4.091   3.327  16.500 -1.0676 -0.1997  0.6814
  590MPD2    N1 8808   3.753   3.114  16.765  0.3195  0.9372 -0.1221
  590MPD2    H7 8809   3.713   3.106  16.858 -1.3687  1.4041 -0.8072
  591TMC3    C1 8810   4.246   3.495  16.482  0.1043  0.8131 -0.2029
  591TMC3    C2 8811   4.253   3.443  16.353  0.0092 -0.1995 -0.7793
  591TMC3    C3 8812   4.282   3.535  16.253 -0.8052  0.4597  0.0239
  591TMC3    C4 8813   4.265   3.626  16.513 -0.2327  0.2524 -0.6752
  591TMC3    C5 8814   4.288   3.713  16.407 -0.1957  0.0509  0.1854
  591TMC3    C6 8815   4.296   3.670  16.274  0.0385 -0.0175 -0.7887
  591TMC3     C 8816   4.237   3.413  16.605 -0.1493  0.7234  0.3394
  591TMC3     O 8817   4.298   3.454  16.706  0.2748  0.9547 -0.7455
  591TMC3     H 8818   4.240   3.336  16.342  1.2751 -0.3424 -0.8522
  591TMC3    H1 8819   4.261   3.670  16.612 -2.7253 -2.6309  0.4985
  591TMC3    H2 8820   4.317   3.743  16.197  0.1331 -0.1490 -0.8859
  591TMC3    C7 8821   4.245   3.850  16.435  0.0026  0.1857 -0.5352
  591TMC3    C8 8822   4.299   3.479  16.121  0.0047  1.0281  0.0867
  591TMC3    O1 8823   4.190   3.867  16.541  0.3206 -0.3909  0.6106
  591TMC3    O2 8824   4.305   3.358  16.116 -0.1847  0.4680  0.1623
  592MPD2     C 8825   4.592   0.131  11.811 -0.7595  0.1702  0.3581
  592MPD2    C1 8826   4.672   0.176  11.913  0.3710  0.2612 -0.3282
  592MPD2    C2 8827   4.664   0.121  12.040  0.9635  0.0896  0.3407
  592MPD2    C3 8828   4.568   0.025  12.068 -1.5322 -0.1215 -0.1555
  592MPD2    C4 8829   4.477   4.730  11.971  0.4191 -0.1521 -0.4759
  592MPD2    C5 8830   4.494   0.039  11.847 -0.4383 -0.4246  0.5444
  592MPD2     H 8831   4.729   0.153  12.120  0.2308 -0.7351  1.2673
  592MPD2    H1 8832   4.393   4.663  11.988 -0.9129  1.0921 -2.0373
  592MPD2    H2 8833   4.591   0.172  11.710 -0.0633 -1.5960 -0.3781
  592MPD2    H3 8834   4.425   0.010  11.768  0.2294 -1.1153  0.2251
  592MPD2     N 8835   4.564   4.722  12.208 -0.7942 -0.2826 -0.0306
  592MPD2    H5 8836   4.644   4.737  12.269  0.6214 -1.3208 -1.6171
  592MPD2    N1 8837   0.013   0.285  11.873  0.2309 -0.0398 -0.9800
  592MPD2    H7 8838   0.005   0.309  11.775 -0.7321  0.0975 -0.8681
  593TMC3    C1 8839   0.163   0.473  11.890  0.2755 -0.2868 -0.1783
  593TMC3    C2 8840   0.252   0.543  11.967  0.4603  0.2061  0.5107
  593TMC3    C3 8841   0.356   0.603  11.905  0.5563 -0.3423 -0.5024
  593TMC3    C4 8842   0.170   0.467  11.753  0.2617 -0.0273 -0.2035
  593TMC3    C5 8843   0.283   0.533  11.698  0.8785 -0.4019 -0.2588
  593TMC3    C6 8844   0.377   0.595  11.774 -0.3196  0.0428  0.3719
  593TMC3     C 8845   0.102   0.361  11.954  0.5305  0.3833 -0.2412
  593TMC3     O 8846   0.125   0.355  12.074  0.0841  0.4556  0.8367
  593TMC3     H 8847   0.245   0.550  12.075 -0.0944  0.5342  0.4519
  593TMC3    H1 8848   0.098   0.419  11.688  0.1344  0.2800 -0.2923
  593TMC3    H2 8849   0.459   0.653  11.733  0.6367 -0.7634  1.1505
  593TMC3    C7 8850   0.300   0.541  11.552 -0.2384  0.7334 -0.3909
  593TMC3    C8 8851   0.427   0.706  11.983 -0.1297 -0.3396  0.4543
  593TMC3    O1 8852   0.396   0.611  11.518  0.1410 -0.4374 -0.2053
  593TMC3    O2 8853   0.456   0.686  12.101 -0.5463  0.6376 -0.5599
  594MPD2     C 8854   3.247   4.228  15.118 -0.3829 -0.0719 -0.0712
  594MPD2    C1 8855   3.183   4.253  14.993 -1.0016  0.2568  0.2681
  594MPD2    C2 8856   3.260   4.298  14.892 -0.3363  0.1656 -0.6171
  594MPD2    C3 8857   3.398   4.321  14.913 -0.4288 -0.1882 -0.2381
  594MPD2    C4 8858   3.461   4.290  15.029 -0.1794 -0.2004 -0.3508
  594MPD2    C5 8859   3.384   4.247  15.132  0.1763 -0.9272  0.7117
  594MPD2     H 8860   3.223   4.325  14.794 -1.7699 -0.7763 -0.3357
  594MPD2    H1 8861   3.566   4.305  15.051  0.2195 -0.5661 -1.9900
  594MPD2    H2 8862   3.196   4.177  15.199 -0.4751  0.2993  0.1060
  594MPD2    H3 8863   3.422   4.233  15.233  2.3886  1.2817  0.1790
  594MPD2     N 8864   3.471   4.392  14.808  0.2951  1.1887 -0.4181
  594MPD2    H5 8865   3.410   4.426  14.734 -1.9674 -1.0255  0.4324
  594MPD2    N1 8866   3.049   4.223  14.986  0.2722  0.3649 -0.1937
  594MPD2    H7 8867   3.006   4.187  15.070 -0.4125 -0.9662 -1.1204
  595TMC3    C1 8868   3.817   4.615  14.593 -0.0076  0.2104 -0.0787
  595TMC3    C2 8869   3.782   4.516  14.683  0.2244  0.4144 -0.0682
  595TMC3    C3 8870   3.650   4.517  14.717  0.3176 -0.1844  0.8409
  595TMC3    C4 8871   3.726   4.701  14.536  0.5203 -0.5554 -0.1395
  595TMC3    C5 8872   3.601   4.702  14.581  1.0795  0.4078  0.1294
  595TMC3    C6 8873   3.556   4.604  14.672 -0.0660  0.6945 -0.6453
  595TMC3     C 8874   3.958   4.640  14.574 -0.8786  0.1487  0.1035
  595TMC3     O 8875   3.993   0.015  14.548 -0.0004  0.6087  0.0679
  595TMC3     H 8876   3.862   4.454  14.722  1.4264  0.6621 -2.1806
  595TMC3    H1 8877   3.765   0.026  14.457  0.0384  1.1918  1.0609
  595TMC3    H2 8878   3.451   4.603  14.698  0.0743 -1.7419 -0.1415
  595TMC3    C7 8879   3.543   0.094  14.598 -0.6569 -0.3208 -0.2114
  595TMC3    C8 8880   3.605   4.416  14.809  0.8134  0.1721  0.7740
  595TMC3    O1 8881   3.436   0.099  14.658 -0.3825  0.3024 -0.6175
  595TMC3    O2 8882   3.697   4.349  14.862 -0.2892  0.1050 -0.4989
  596MPD2     C 8883   2.387   2.468  16.917 -0.4609 -0.7069  0.0310
  596MPD2    C1 8884   2.404   2.593  16.849 -0.4473  1.0192  0.1754
  596MPD2    C2 8885   2.446   2.589  16.719  0.0220  0.1185  0.1274
  596MPD2    C3 8886   2.435   2.471  16.652 -0.0517 -0.0690  1.1660
  596MPD2    C4 8887   2.410   2.348  16.713 -0.0345 -0.4080 -0.0366
  596MPD2    C5 8888   2.388   2.344  16.848  0.2769 -1.0874  0.2073
  596MPD2     H 8889   2.460   2.684  16.670 -1.1992  0.5376  0.6031
  596MPD2    H1 8890   2.395   2.260  16.651  2.1346  0.1714 -1.3998
  596MPD2    H2 8891   2.354   2.465  17.021  2.8377  1.4954  1.1466
  596MPD2    H3 8892   2.351   2.252  16.892  0.2213 -2.7517 -3.3369
  596MPD2     N 8893   2.458   2.464  16.516 -0.0217  0.0764 -0.3694
  596MPD2    H5 8894   2.448   2.368  16.483  2.1581 -0.4795  0.5986
  596MPD2    N1 8895   2.375   2.724  16.898  0.1143 -0.3520  0.4178
  596MPD2    H7 8896   2.392   2.807  16.842  0.3753  0.6512  1.9892
  597TMC3    C1 8897   2.316   2.883  17.054 -0.3319  0.1024 -0.0774
  597TMC3    C2 8898   2.394   2.973  16.986 -0.3850 -0.1111 -0.2932
  597TMC3    C3 8899   2.358   3.101  16.987  0.5732  0.0947 -0.0823
  597TMC3    C4 8900   2.205   2.926  17.121 -0.2661 -0.4590 -0.1713
  597TMC3    C5 8901   2.181   3.064  17.126  0.3705  0.7524  0.0254
  597TMC3    C6 8902   2.253   3.155  17.054 -0.1212 -1.0827 -0.4628
  597TMC3     C 8903   2.325   2.744  17.030 -0.4607 -0.0094  0.1796
  597TMC3     O 8904   2.275   2.662  17.104 -0.2035  0.2799  0.2035
  597TMC3     H 8905   2.484   2.933  16.939 -0.3984 -0.3618 -0.1066
  597TMC3    H1 8906   2.143   2.857  17.177  0.6438 -1.8863 -0.9551
  597TMC3    H2 8907   2.243   3.262  17.061 -1.4102 -1.1070 -1.8522
  597TMC3    C7 8908   2.068   3.103  17.205  0.4002 -0.2008 -0.3585
  597TMC3    C8 8909   2.435   3.191  16.893  0.2203  0.0405 -0.1489
  597TMC3    O1 8910   2.015   3.020  17.275 -0.2672  0.3104 -0.3376
  597TMC3    O2 8911   2.543   3.153  16.856  0.2953 -0.0939 -0.3420
  598TMC3    C1 8912   0.115   3.726  15.284 -0.4768 -0.2521  0.8172
  598TMC3    C2 8913   0.037   3.645  15.211  0.0916  0.4729  0.2860
  598TMC3    C3 8914   0.069   3.619  15.078  0.3749  0.7518 -0.0699
  598TMC3    C4 8915   0.224   3.787  15.239 -0.2718 -0.1958 -0.2381
  598TMC3    C5 8916   0.265   3.746  15.112  0.0197  0.5304 -0.5080
  598TMC3    C6 8917   0.187   3.674  15.027  0.0570  0.0688 -0.1528
  598TMC3     C 8918   0.077   3.763  15.424  0.0712  0.0105 -0.1916
  598TMC3     O 8919   0.118   3.864  15.473 -0.2598  0.4047  0.4693
  598TMC3     H 8920   4.688   3.602  15.255  0.9124 -1.4931  0.0207
  598TMC3    H1 8921   0.280   3.855  15.302 -2.4153  1.2149  0.1478
  598TMC3    H2 8922   0.228   3.651  14.929 -0.1712  0.0600 -0.2463
  598TMC3    C7 8923   0.383   3.803  15.057  0.4612  0.1082 -0.0844
  598TMC3    C8 8924   0.004   3.521  14.996 -0.1017 -0.3826 -0.5326
  598TMC3    O1 8925   0.407   3.773  14.941  0.0510 -0.0789 -0.3042
  598TMC3    O2 8926   0.047   3.509  14.882 -0.2065 -0.1944 -0.9793
  599MPD2     C 8927   4.661   0.940  16.232 -0.2836 -0.5973 -0.3796
  599MPD2    C1 8928   4.716   1.058  16.185  0.0205 -0.1348  0.9899
  599MPD2    C2 8929   4.687   1.168  16.259  0.5014  0.1873 -0.3615
  599MPD2    C3 8930   4.620   1.168  16.381  1.0724 -0.0993 -1.1414
  599MPD2    C4 8931   4.567   1.049  16.424  0.8988  0.5312 -0.2203
  599MPD2    C5 8932   4.585   0.941  16.350  0.7678 -0.5447 -0.3155
  599MPD2     H 8933   4.720   1.268  16.233 -0.6160  0.2493 -1.5264
  599MPD2    H1 8934   4.508   1.031  16.513  0.0072  2.1435 -0.4871
  599MPD2    H2 8935   4.671   0.844  16.182 -0.3873 -1.4586  1.2344
  599MPD2    H3 8936   4.549   0.848  16.392 -1.0065  0.4673  0.3928
  599MPD2     N 8937   4.612   1.293  16.459 -0.5418  0.6111  0.3935
  599MPD2    H5 8938   4.667   1.373  16.431 -0.5491 -0.8140 -3.6907
  599MPD2    N1 8939   0.056   1.055  16.064  0.4215  0.3596 -0.5156
  599MPD2    H7 8940   0.073   0.962  16.027 -0.1240 -1.8898  4.9381
  600TMC3    C1 8941   4.554   1.405  16.669 -0.0254  0.0450 -0.0350
  600TMC3    C2 8942   4.488   1.374  16.780 -0.0606  0.0345  0.6488
  600TMC3    C3 8943   4.501   1.465  16.882  0.1381  0.2964 -0.3649
  600TMC3    C4 8944   4.643   1.515  16.657  0.1404 -0.2082 -0.3893
  600TMC3    C5 8945   4.648   1.601  16.764 -0.6761 -0.1741  1.3409
  600TMC3    C6 8946   4.590   1.566  16.881  0.0273 -1.0541  0.3632
  600TMC3     C 8947   4.519   1.315  16.560  0.0071  0.7193 -0.0612
  600TMC3     O 8948   4.408   1.259  16.571  0.2955  0.1701  0.4565
  600TMC3     H 8949   4.455   1.272  16.794 -2.3646  0.6407 -0.3686
  600TMC3    H1 8950   4.682   1.548  16.561  0.2431 -2.1205 -1.0149
  600TMC3    H2 8951   4.599   1.627  16.969 -1.0650 -0.8718  0.3464
  600TMC3    C7 8952   4.700   1.742  16.765  0.2752  0.0194  0.8547
  600TMC3    C8 8953   4.427   1.448  17.001 -0.0947  0.1318 -0.1766
  600TMC3    O1 8954   4.657   1.823  16.844 -0.2733 -0.5074 -0.9829
  600TMC3    O2 8955   4.460   1.508  17.099  0.1502 -0.0953 -0.7663
  601MPD2     C 8956   2.542   0.639  17.652  0.7434 -0.2826  0.5456
  601MPD2    C1 8957   2.406   0.630  17.645 -0.5577 -0.3800 -0.1513
  601MPD2    C2 8958   2.341   0.565  17.748  0.0534 -0.2560 -0.2165
  601MPD2    C3 8959   2.407   0.506   0.098 -0.3043  0.1541 -0.7547
  601MPD2    C4 8960   2.541   0.514   0.094  0.9982  0.4291 -0.1251
  601MPD2    C5 8961   2.610   0.591   0.000 -0.3706  0.0666 -0.9182
  601MPD2     H 8962   2.234   0.551  17.736  0.1851  0.0740 -1.8847
  601MPD2    H1 8963   2.603   0.472   0.173 -0.9238  0.4050  1.3533
  601MPD2    H2 8964   2.609   0.665  17.571  0.8885  0.5355  0.9160
  601MPD2    H3 8965   2.718   0.597  17.754 -0.4365  1.8578 -0.0056
  601MPD2     N 8966   2.348   0.422   0.189 -0.3262  0.1574 -0.4666
  601MPD2    H5 8967   2.410   0.374   0.252 -0.3542  0.6255 -0.0847
  601MPD2    N1 8968   2.354   0.684  17.527 -0.3164  0.0921 -0.3695
  601MPD2    H7 8969   2.420   0.714  17.455  1.7927  1.7280  2.2487
  602TMC3    C1 8970   2.199   0.730  17.358 -0.1943 -0.2581  0.0610
  602TMC3    C2 8971   2.076   0.694  17.311  0.4473  0.2754 -0.1597
  602TMC3    C3 8972   2.058   0.691  17.175 -0.0954 -0.0686  0.1584
  602TMC3    C4 8973   2.311   0.751  17.275  0.0684 -0.1462 -0.2966
  602TMC3    C5 8974   2.288   0.756  17.140 -0.0118 -0.4649  0.1955
  602TMC3    C6 8975   2.158   0.723  17.087  0.3742  0.1384  0.2877
  602TMC3     C 8976   2.229   0.696  17.497 -0.1234 -0.0689 -0.2222
  602TMC3     O 8977   2.136   0.664  17.570  0.2877  0.2380 -0.0310
  602TMC3     H 8978   1.994   0.667  17.378 -1.0109  0.5809 -1.8200
  602TMC3    H1 8979   2.414   0.770  17.304 -0.2768  1.9797 -0.4336
  602TMC3    H2 8980   2.160   0.712  16.979 -0.8161  2.1571  0.0697
  602TMC3    C7 8981   2.411   0.741  17.054 -0.2801 -0.1616 -0.4777
  602TMC3    C8 8982   1.938   0.625  17.121 -0.3473  0.8125  1.2224
  602TMC3    O1 8983   2.510   0.700  17.111  0.1533 -0.0634  0.4708
  602TMC3    O2 8984   1.872   0.568  17.203  0.4564  0.9350 -0.1565
  603TMC3    C1 8985   1.043   4.182  10.977  0.3777  0.2062 -0.4111
  603TMC3    C2 8986   1.049   4.156  11.106  0.0524  0.4729 -0.2975
  603TMC3    C3 8987   0.990   4.244  11.188 -0.5876  0.3259  0.4167
  603TMC3    C4 8988   0.979   4.290  10.927  0.1767  0.2876 -0.5889
  603TMC3    C5 8989   0.912   4.376  11.009 -0.0261 -0.5537 -0.3474
  603TMC3    C6 8990   0.920   4.356  11.144  0.0806  0.0310 -0.5721
  603TMC3     C 8991   1.156   4.137  10.897  0.4778  0.2714  0.6703
  603TMC3     O 8992   1.204   4.227  10.828  0.1256  0.5399  0.5207
  603TMC3     H 8993   1.124   4.084  11.140 -0.5399  0.0549  0.1368
  603TMC3    H1 8994   0.991   4.306  10.820  1.8788  2.4449 -0.0961
  603TMC3    H2 8995   0.849   4.406  11.208  0.1621 -2.6926  1.6759
  603TMC3    C7 8996   0.797   4.449  10.957  0.5893  0.0565 -0.5919
  603TMC3    C8 8997   1.027   4.245  11.326 -0.2106  0.0539 -0.4527
  603TMC3    O1 8998   0.765   4.556  11.013 -0.4753 -0.0846  0.5208
  603TMC3    O2 8999   1.086   4.144  11.360 -0.2388  0.1035 -0.3146
  604MPD2     C 9000   1.631   3.956  16.653 -0.0069 -0.4612  0.0835
  604MPD2    C1 9001   1.505   3.924  16.604 -1.4458 -0.3090 -0.1673
  604MPD2    C2 9002   1.500   3.874  16.473 -0.9135  0.3134  0.0904
  604MPD2    C3 9003   1.613   3.840  16.400  0.0781 -0.2194  0.3898
  604MPD2    C4 9004   1.740   3.867  16.457 -0.0478 -0.4967 -0.6014
  604MPD2    C5 9005   1.745   3.925  16.580  0.0190 -0.4421  0.7305
  604MPD2     H 9006   1.401   3.855  16.433 -0.9698  0.9269 -0.0580
  604MPD2    H1 9007   1.825   3.837  16.397 -0.6100  1.5267 -2.4464
  604MPD2    H2 9008   1.633   4.007  16.749  1.3038  0.8752 -0.6594
  604MPD2    H3 9009   1.843   3.950  16.619  0.3002  0.1111 -0.3385
  604MPD2     N 9010   1.602   3.783  16.277  0.5480  0.4000 -0.5277
  604MPD2    H5 9011   1.509   3.753  16.252 -0.1594  0.2734  2.2754
  604MPD2    N1 9012   1.392   3.951  16.683 -0.4756  0.7313 -0.0721
  604MPD2    H7 9013   1.405   4.007  16.767 -0.4127 -1.8970  1.6663
  605TMC3    C1 9014   1.179   3.956  16.763 -0.0810  0.2137 -0.4849
  605TMC3    C2 9015   1.244   4.010  16.872  0.2976 -1.3348 -0.7049
  605TMC3    C3 9016   1.165   4.094  16.947 -0.1737  0.1445 -0.0373
  605TMC3    C4 9017   1.051   3.978  16.727  0.0697  0.3129  0.0120
  605TMC3    C5 9018   0.982   4.071  16.797  0.5203  0.4252 -0.0818
  605TMC3    C6 9019   1.036   4.133  16.903  0.1979  0.3409 -0.6421
  605TMC3     C 9020   1.265   3.908  16.658 -0.2243 -0.6123 -0.0251
  605TMC3     O 9021   1.210   3.861  16.560 -0.7157  0.0753 -0.7793
  605TMC3     H 9022   1.346   3.991  16.902 -0.0416  0.2257  1.4892
  605TMC3    H1 9023   1.014   3.943  16.631  0.1206  1.8818 -0.5940
  605TMC3    H2 9024   0.980   4.210  16.954 -0.3405 -0.9613  0.7121
  605TMC3    C7 9025   0.843   4.103  16.776  0.2896  0.4223 -0.7267
  605TMC3    C8 9026   1.235   4.212  16.998 -0.0351 -0.4541 -0.2930
  605TMC3    O1 9027   0.796   4.208  16.817 -0.8157  0.1576  0.3901
  605TMC3    O2 9028   1.262   4.302  16.917  0.1593  0.0077  0.3389
  606TMC3    C1 9029   2.687   2.550  17.491  0.1677  0.1042  0.7827
  606TMC3    C2 9030   2.820   2.579  17.522  0.6849  0.0314 -0.2775
  606TMC3    C3 9031   2.928   2.497  17.485 -0.7091  0.0051 -0.2775
  606TMC3    C4 9032   2.651   2.442  17.421 -0.3940  0.7098  0.0707
  606TMC3    C5 9033   2.758   2.357  17.391 -0.6601 -0.3250  0.8102
  606TMC3    C6 9034   2.892   2.382  17.414  0.0268 -0.2025  0.0670
  606TMC3     C 9035   2.590   2.658  17.474 -0.4625 -1.0145  0.8642
  606TMC3     O 9036   2.478   2.633  17.430  0.1366 -0.1063 -0.5616
  606TMC3     H 9037   2.840   2.662  17.589 -1.0164  0.0286  0.2169
  606TMC3    H1 9038   2.546   2.420  17.406  0.0640 -1.1537 -0.3916
  606TMC3    H2 9039   2.967   2.305  17.401  2.4148  1.8307  1.5853
  606TMC3    C7 9040   2.728   2.231  17.322  0.4963  0.0713 -0.0792
  606TMC3    C8 9041   3.047   2.503  17.568  0.2684  0.4393 -0.7166
  606TMC3    O1 9042   2.819   2.174  17.262  0.3993 -0.0784  0.4197
  606TMC3    O2 9043   3.072   2.598  17.637 -0.4926 -0.2960  0.0302
  607MPD2     C 9044   0.105   4.233  12.112 -0.0536 -0.3409  0.7610
  607MPD2    C1 9045   0.121   4.316  12.219 -0.1795  0.4963 -0.2160
  607MPD2    C2 9046   0.105   4.267  12.346  0.5542  0.0011 -0.0240
  607MPD2    C3 9047   0.092   4.139  12.371 -0.2561  0.0524  0.2071
  607MPD2    C4 9048   0.071   4.049  12.269  0.2271 -0.0214 -0.0193
  607MPD2    C5 9049   0.080   4.103  12.142  0.4593 -0.7021 -0.9183
  607MPD2     H 9050   0.132   4.335  12.427  0.3505  0.2691 -0.1838
  607MPD2    H1 9051   0.059   3.942  12.280  0.0146  0.2712  2.5075
  607MPD2    H2 9052   0.116   4.252  12.006  0.3608  0.0122  0.8652
  607MPD2    H3 9053   0.078   4.030  12.061 -0.6457  0.5949 -2.0456
  607MPD2     N 9054   0.122   4.112  12.510  0.1491 -0.6425  0.9053
  607MPD2    H5 9055   0.122   4.191  12.573  0.6168  0.5811 -0.6238
  607MPD2    N1 9056   0.163   4.449  12.201  0.0289  0.4173  0.1594
  607MPD2    H7 9057   0.189   4.496  12.287  1.4737  0.9335 -0.5549
  608TMC3    C1 9058   0.295   4.614  12.110 -0.1940  0.6674 -0.0788
  608TMC3    C2 9059   0.355   4.623  12.229  0.2883 -0.3981 -0.2856
  608TMC3    C3 9060   0.436   4.732  12.257  0.9021 -0.6550 -0.5475
  608TMC3    C4 9061   0.305   4.717  12.020  0.1640 -0.0073 -0.2049
  608TMC3    C5 9062   0.383   0.081  12.059  0.0280  0.4839 -0.2033
  608TMC3    C6 9063   0.448   0.097  12.174 -0.0488  0.5252 -0.5974
  608TMC3     C 9064   0.190   4.521  12.089 -0.6926 -0.1994  0.5038
  608TMC3     O 9065   0.153   4.494  11.977  0.5460 -0.1533 -0.6276
  608TMC3     H 9066   0.354   4.540  12.298  1.0359  0.4725  0.7618
  608TMC3    H1 9067   0.240   4.714  11.933 -0.4861  0.0888  0.2769
  608TMC3    H2 9068   0.512   0.180  12.202  2.6644 -0.9141 -2.5954
  608TMC3    C7 9069   0.405   0.182  11.956 -0.5938 -0.0019 -0.4475
  608TMC3    C8 9070   0.476   0.018  12.396  0.5530 -0.0394 -0.3877
  608TMC3    O1 9071   0.337   0.170  11.855 -0.4784  0.4564 -0.6248
  608TMC3    O2 9072   0.548   0.111  12.420  0.0928 -0.6439 -0.0720
  609TMC3    C1 9073   3.350   3.660   9.276 -0.3688  0.2013 -0.1770
  609TMC3    C2 9074   3.401   3.780   9.296  0.0127  0.4049 -0.7103
  609TMC3    C3 9075   3.532   3.806   9.261  0.7239 -0.1721 -0.5702
  609TMC3    C4 9076   3.434   3.552   9.236  0.1191 -0.5582  0.7987
  609TMC3    C5 9077   3.562   3.581   9.203 -0.6745 -0.8144 -0.3953
  609TMC3    C6 9078   3.612   3.705   9.218  0.3849  0.0774  0.0731
  609TMC3     C 9079   3.253   3.629   9.368  0.2816 -0.2718  0.3476
  609TMC3     O 9080   3.225   3.703   9.463  0.1416  0.8188 -0.4777
  609TMC3     H 9081   3.339   3.856   9.342 -0.7143 -1.2190  0.9474
  609TMC3    H1 9082   3.405   3.449   9.257 -0.0846 -1.0925 -2.1697
  609TMC3    H2 9083   3.717   3.723   9.198 -0.4288  1.5288 -3.0450
  609TMC3    C7 9084   3.667   3.486   9.219 -0.1012  0.0613  0.1758
  609TMC3    C8 9085   3.578   3.939   9.288  0.2529 -0.1557 -0.2140
  609TMC3    O1 9086   3.765   3.525   9.275  0.1266  0.0307  0.1438
  609TMC3    O2 9087   3.509   4.012   9.358  0.3636 -0.4018 -0.6167
  610TMC3    C1 9088   0.881   0.185  12.607 -1.0129 -0.0776  0.8695
  610TMC3    C2 9089   0.856   0.177  12.474 -0.2024  0.1163 -0.1832
  610TMC3    C3 9090   0.894   0.072  12.395  0.2148 -0.7987 -1.0085
  610TMC3    C4 9091   0.951   0.077  12.673 -0.8604 -0.7489  0.4356
  610TMC3    C5 9092   0.996   4.716  12.595  0.3250  0.0591 -0.4887
  610TMC3    C6 9093   0.967   4.712  12.458 -0.3333 -0.1318  0.3568
  610TMC3     C 9094   0.793   0.265  12.687 -0.9505 -0.0697 -0.2925
  610TMC3     O 9095   0.843   0.299  12.791 -0.3767 -0.1683 -0.0055
  610TMC3     H 9096   0.803   0.260  12.428 -2.2072 -1.8087 -1.3565
  610TMC3    H1 9097   0.965   0.076  12.781  1.2710 -1.1230  0.1644
  610TMC3    H2 9098   1.009   4.630  12.401 -0.8652  2.2475 -3.4726
  610TMC3    C7 9099   1.054   4.593  12.661  0.0015 -0.2175  0.2076
  610TMC3    C8 9100   0.853   0.074  12.259  0.3801 -0.1044 -0.3457
  610TMC3    O1 9101   1.090   4.611  12.777  0.1122 -0.4838  0.1970
  610TMC3    O2 9102   0.844   0.181  12.201 -0.1474 -0.4679  0.9572
  611MPD2     C 9103   4.159   3.702  10.461  0.8869 -1.0637  0.2990
  611MPD2    C1 9104   4.182   3.840  10.449 -0.8980 -0.3366 -0.3566
  611MPD2    C2 9105   4.310   3.886  10.444 -0.1913 -0.0572  0.2595
  611MPD2    C3 9106   4.416   3.802  10.454 -1.5789 -0.2362  0.7068
  611MPD2    C4 9107   4.399   3.667  10.465 -0.4882  0.1924  0.0000
  611MPD2    C5 9108   4.269   3.619  10.460  0.2772  0.2633 -0.0399
  611MPD2     H 9109   4.327   3.992  10.430 -0.9349  0.1155  0.6659
  611MPD2    H1 9110   4.480   3.595  10.466  1.1422  2.0192 -0.7976
  611MPD2    H2 9111   4.063   3.652  10.455 -1.4566  3.6252 -0.8562
  611MPD2    H3 9112   4.266   3.511  10.452 -3.0184  0.3102  0.8366
  611MPD2     N 9113   4.548   3.846  10.437  0.0645  0.0991 -0.0272
  611MPD2    H5 9114   4.626   3.781  10.436 -0.9711 -1.1555 -0.2317
  611MPD2    N1 9115   4.073   3.924  10.447 -0.0665 -0.1830  0.4973
  611MPD2    H7 9116   3.985   3.883  10.476 -0.7238  2.8072  2.6345
  612TMC3    C1 9117   0.009   3.979  10.417 -0.4625  1.0209 -0.1101
  612TMC3    C2 9118   0.068   4.103  10.424  0.1706  0.3253  0.2482
  612TMC3    C3 9119   0.204   4.105  10.448 -0.3486  0.7151 -0.4289
  612TMC3    C4 9120   0.085   3.862  10.444  0.0115  1.2036  0.1550
  612TMC3    C5 9121   0.216   3.871  10.461 -0.2066  0.0136  0.2241
  612TMC3    C6 9122   0.280   3.991  10.463 -0.0708 -0.5145 -0.5529
  612TMC3     C 9123   4.601   3.977  10.425 -0.0805  0.3609  0.6012
  612TMC3     O 9124   4.542   4.086  10.410 -0.1596 -0.0557 -0.4912
  612TMC3     H 9125   0.010   4.193  10.408  0.3399  0.2163 -1.0190
  612TMC3    H1 9126   0.045   3.762  10.451 -0.1125  1.2733  0.4424
  612TMC3    H2 9127   0.388   3.992  10.460 -0.1048  0.2019 -1.5896
  612TMC3    C7 9128   0.308   3.753  10.465 -0.0455 -0.1710  0.1058
  612TMC3    C8 9129   0.249   4.232  10.502  0.2888  0.0516  0.4011
  612TMC3    O1 9130   0.423   3.770  10.504 -0.0841 -0.1033 -0.2835
  612TMC3    O2 9131   0.197   4.331  10.457 -0.8346 -0.0230  0.3224
  613MPD2     C 9132   3.686   2.394  16.754  0.0926  0.1724 -0.4971
  613MPD2    C1 9133   3.587   2.471  16.706  0.2610 -0.1031 -0.1389
  613MPD2    C2 9134   3.458   2.421  16.723  0.2163  0.2668  0.0702
  613MPD2    C3 9135   3.431   2.299  16.787  0.0432 -0.0228 -1.1501
  613MPD2    C4 9136   3.537   2.230  16.838  0.4290  0.4249  0.6026
  613MPD2    C5 9137   3.664   2.277  16.812  0.0865 -0.1603 -0.2123
  613MPD2     H 9138   3.375   2.483  16.692 -0.2683  0.2314  1.3037
  613MPD2    H1 9139   3.523   2.138  16.894 -2.1872  1.8370  2.2554
  613MPD2    H2 9140   3.789   2.423  16.737 -0.4071  1.8989 -0.5199
  613MPD2    H3 9141   3.748   2.216  16.844 -1.0744 -0.5109  2.1158
  613MPD2     N 9142   3.304   2.242  16.805  0.1533  0.1196 -0.1307
  613MPD2    H5 9143   3.317   2.144  16.827 -2.0248  0.1572  1.3101
  613MPD2    N1 9144   3.628   2.583  16.628  0.0868  0.3119  0.3609
  613MPD2    H7 9145   3.728   2.595  16.612  0.0853  0.6645  0.6198
  614TMC3    C1 9146   3.594   2.733  16.456  0.4118  0.1364  0.2700
  614TMC3    C2 9147   3.671   2.657  16.376  0.3652  0.9123 -0.0458
  614TMC3    C3 9148   3.624   2.645  16.249 -0.3367  0.3372  0.5555
  614TMC3    C4 9149   3.500   2.816  16.404 -0.9463 -1.1398 -0.2455
  614TMC3    C5 9150   3.465   2.809  16.268 -0.9120  0.6799 -0.1204
  614TMC3    C6 9151   3.526   2.713  16.191 -0.1794 -0.6968  0.2423
  614TMC3     C 9152   3.540   2.671  16.569  0.1941  0.2319  0.2633
  614TMC3     O 9153   3.416   2.679  16.572 -0.2809  0.2589  0.8301
  614TMC3     H 9154   3.749   2.590  16.409 -0.6468 -1.6706 -2.7454
  614TMC3    H1 9155   3.445   2.877  16.474 -0.8624  0.1008 -1.2575
  614TMC3    H2 9156   3.502   2.694  16.087 -1.2701  1.5133  0.0838
  614TMC3    C7 9157   3.330   2.871  16.231 -0.0122  0.3417 -0.0092
  614TMC3    C8 9158   3.604   2.504  16.205  0.2241 -0.1463 -0.2146
  614TMC3    O1 9159   3.274   2.944  16.319 -0.5023 -0.1971  0.4705
  614TMC3    O2 9160   3.516   2.481  16.123 -0.0391 -0.1749 -0.4167
  615MPD2     C 9161   2.935   3.734  15.954 -0.1320 -0.3382  0.1627
  615MPD2    C1 9162   2.957   3.855  16.016  0.1214 -0.3378 -0.0510
  615MPD2    C2 9163   2.929   3.976  15.951 -0.4616  0.5345 -0.3575
  615MPD2    C3 9164   2.862   3.974  15.830 -0.6125  0.2098 -0.0976
  615MPD2    C4 9165   2.830   3.853  15.770 -1.0364 -0.5407  0.3232
  615MPD2    C5 9166   2.886   3.737  15.828  0.7049 -0.2215  0.0506
  615MPD2     H 9167   2.974   4.064  15.996  1.0459 -0.8331  0.8067
  615MPD2    H1 9168   2.770   3.847  15.680  2.4362 -0.0023 -2.0131
  615MPD2    H2 9169   2.964   3.638  15.996  0.7337  0.3000  1.0406
  615MPD2    H3 9170   2.868   3.638  15.790  0.2136 -0.6582  1.3962
  615MPD2     N 9171   2.825   4.087  15.757  0.5459  0.2572  0.1737
  615MPD2    H5 9172   2.757   4.077  15.682  0.7407  2.6402 -0.3265
  615MPD2    N1 9173   3.020   3.871  16.148  0.3550 -0.7017  1.0411
  615MPD2    H7 9174   3.026   3.965  16.185  0.7706 -1.6901  3.4439
  616TMC3    C1 9175   3.152   3.830  16.327  0.3132 -0.0549  0.2200
  616TMC3    C2 9176   3.175   3.964  16.331  0.0961 -0.2700  0.3751
  616TMC3    C3 9177   3.228   4.019  16.441  0.1550 -0.7085  0.2879
  616TMC3    C4 9178   3.182   3.746  16.434 -0.3283  0.7475 -0.0069
  616TMC3    C5 9179   3.238   3.807  16.547  0.9450 -0.8651  0.6940
  616TMC3    C6 9180   3.259   3.941  16.548 -0.6240 -0.2272  0.6986
  616TMC3     C 9181   3.080   3.773  16.217  0.4341 -0.5876  0.0959
  616TMC3     O 9182   3.098   3.652  16.194 -0.0270  0.1595  0.3141
  616TMC3     H 9183   3.165   4.027  16.243  0.6605 -3.2267 -1.7633
  616TMC3    H1 9184   3.165   3.639  16.426 -1.6221  1.1080 -2.1001
  616TMC3    H2 9185   3.296   3.992  16.636 -0.5765  1.1860 -0.1344
  616TMC3    C7 9186   3.336   3.734  16.619  0.2976 -0.2171 -0.3099
  616TMC3    C8 9187   3.262   4.159  16.431  0.3612  0.4533 -0.2878
  616TMC3    O1 9188   3.378   3.790  16.719 -0.3077  0.1079  0.6444
  616TMC3    O2 9189   3.217   4.213  16.332  0.0681 -0.1884 -0.2780
  617MPD2     C 9190   1.242   1.870  13.527  0.2927 -0.0046  0.3316
  617MPD2    C1 9191   1.261   1.825  13.661  0.4048  0.3001  0.2873
  617MPD2    C2 9192   1.148   1.785  13.734  0.4874 -0.0789 -0.5433
  617MPD2    C3 9193   1.016   1.817  13.678  0.8341 -0.2270 -0.1077
  617MPD2    C4 9194   1.004   1.861  13.551  0.5544  0.8739  0.2050
  617MPD2    C5 9195   1.117   1.891  13.474 -0.5309 -0.2194 -0.1482
  617MPD2     H 9196   1.153   1.738  13.831  2.3179  0.8009 -0.2151
  617MPD2    H1 9197   0.910   1.882  13.501 -0.3815  1.1714  2.0986
  617MPD2    H2 9198   1.331   1.902  13.473 -0.6167  2.3244  0.2280
  617MPD2    H3 9199   1.104   1.935  13.376 -0.0222 -0.5583 -0.3660
  617MPD2     N 9200   0.899   1.793  13.747  0.1164 -0.5003 -0.3521
  617MPD2    H5 9201   0.809   1.797  13.699 -0.4036 -1.0748  0.5793
  617MPD2    N1 9202   1.390   1.784  13.696 -0.2021  0.0965 -0.2387
  617MPD2    H7 9203   1.461   1.795  13.624  1.8672 -1.5718  1.5824
  618TMC3    C1 9204   1.564   1.690  13.830  0.4932  0.3990  0.3520
  618TMC3    C2 9205   1.584   1.611  13.721  0.5940 -0.0400 -0.1693
  618TMC3    C3 9206   1.711   1.613  13.677 -0.3968  0.1096 -0.2744
  618TMC3    C4 9207   1.660   1.770  13.890  0.1920  0.0547  0.4653
  618TMC3    C5 9208   1.782   1.773  13.828 -0.4542  0.0162  0.2097
  618TMC3    C6 9209   1.810   1.686  13.727  0.5463  0.2106  0.8325
  618TMC3     C 9210   1.430   1.745  13.825 -0.0769  0.0227 -0.5675
  618TMC3     O 9211   1.382   1.780  13.931  0.3167 -0.6041 -0.0094
  618TMC3     H 9212   1.507   1.543  13.685  1.0254 -1.4975  1.6889
  618TMC3    H1 9213   1.631   1.847  13.961  0.3225 -0.0218  0.6042
  618TMC3    H2 9214   1.910   1.673  13.688 -0.7681 -0.4895 -2.2374
  618TMC3    C7 9215   1.877   1.872  13.881  0.3255 -0.2662  0.4823
  618TMC3    C8 9216   1.730   1.533  13.560  0.0807  0.0558 -0.2259
  618TMC3    O1 9217   1.893   1.885  14.001  0.3365 -0.3133 -0.2300
  618TMC3    O2 9218   1.659   1.437  13.538  0.6071 -0.8550 -0.3356
  619MPD2     C 9219   2.769   3.099  14.194 -0.1478  0.5599 -0.3430
  619MPD2    C1 9220   2.681   3.191  14.133  0.3546  0.0255  0.7725
  619MPD2    C2 9221   2.556   3.142  14.092  0.2493  1.1488 -0.0977
  619MPD2    C3 9222   2.509   3.022  14.142  0.1323 -0.2849  0.5176
  619MPD2    C4 9223   2.595   2.934  14.196 -0.4011  0.0611 -0.9195
  619MPD2    C5 9224   2.727   2.966  14.209 -0.0835  0.1488  0.0624
  619MPD2     H 9225   2.493   3.208  14.033  1.0418  1.7055 -0.3168
  619MPD2    H1 9226   2.567   2.829  14.204  0.5761 -0.2134 -1.0533
  619MPD2    H2 9227   2.874   3.121  14.212  0.5975 -2.8511 -0.6166
  619MPD2    H3 9228   2.804   2.894  14.234  0.9234  1.3822  0.5060
  619MPD2     N 9229   2.366   2.991  14.142 -0.1291  0.3219  0.2914
  619MPD2    H5 9230   2.350   2.896  14.174  2.4934 -0.6911 -1.4344
  619MPD2    N1 9231   2.717   3.316  14.081 -0.3887  0.3804  1.0773
  619MPD2    H7 9232   2.645   3.375  14.041  2.3162  1.0235 -2.8495
  620TMC3    C1 9233   2.835   3.504  14.059 -0.2004 -0.3615  0.5361
  620TMC3    C2 9234   2.754   3.521  13.951  0.3420 -0.4886  0.3218
  620TMC3    C3 9235   2.693   3.641  13.946  0.2296 -0.2837 -0.0995
  620TMC3    C4 9236   2.880   3.599  14.145 -0.1329  0.2763  0.1454
  620TMC3    C5 9237   2.832   3.727  14.120  1.0389 -0.4473 -0.4775
  620TMC3    C6 9238   2.742   3.748  14.013  0.0383  0.2077  0.1844
  620TMC3     C 9239   2.842   3.370  14.102 -0.1996  0.1125  0.1441
  620TMC3     O 9240   2.946   3.324  14.145 -0.1581  0.3915 -0.0786
  620TMC3     H 9241   2.731   3.441  13.881 -0.8265 -0.0158  0.1631
  620TMC3    H1 9242   2.950   3.571  14.223  0.0388  0.0758 -0.0805
  620TMC3    H2 9243   2.701   3.846  13.991  0.0078 -0.1573 -1.3994
  620TMC3    C7 9244   2.893   3.835  14.198 -0.3514 -0.5808 -1.2420
  620TMC3    C8 9245   2.558   3.660  13.887  0.0512 -0.8126  0.1217
  620TMC3    O1 9246   2.974   3.794  14.284  0.0626 -0.0128 -0.0830
  620TMC3    O2 9247   2.500   3.759  13.933 -0.0613  0.1665  0.0635
  621MPD2     C 9248   3.139   2.971  10.408 -0.6889  0.6866 -0.0714
  621MPD2    C1 9249   3.091   2.921  10.286  0.0961 -0.4142  0.1801
  621MPD2    C2 9250   3.119   2.990  10.165  0.4913 -0.0439 -0.3023
  621MPD2    C3 9251   3.207   3.096  10.170  0.0875 -0.2906  0.0709
  621MPD2    C4 9252   3.250   3.144  10.288  0.0498  0.0466  0.0176
  621MPD2    C5 9253   3.216   3.086  10.407  0.3393  0.4362 -0.8534
  621MPD2     H 9254   3.087   2.953  10.069  0.1062 -0.1714 -0.1237
  621MPD2    H1 9255   3.326   3.220  10.286  1.2452 -1.1063  2.0726
  621MPD2    H2 9256   3.122   2.904  10.491 -2.0730  1.5719  0.3488
  621MPD2    H3 9257   3.278   3.119  10.490  0.8237 -1.7932 -0.3297
  621MPD2     N 9258   3.268   3.150  10.058 -0.4542 -0.3900 -0.5690
  621MPD2    H5 9259   3.355   3.199  10.072 -0.2416 -0.1197 -2.7704
  621MPD2    N1 9260   3.004   2.808  10.281  0.1951 -0.2353  0.0094
  621MPD2    H7 9261   2.985   2.782  10.184 -1.3788  0.0957  0.2323
  622TMC3    C1 9262   2.874   2.619  10.345  0.3115  0.0239  0.2955
  622TMC3    C2 9263   2.757   2.601  10.422 -0.0427  0.3003  0.1793
  622TMC3    C3 9264   2.666   2.516  10.374  0.2122  0.3681  0.5961
  622TMC3    C4 9265   2.893   2.560  10.225 -0.1054  0.5036  0.2914
  622TMC3    C5 9266   2.798   2.472  10.183  0.2757  0.1787 -0.4981
  622TMC3    C6 9267   2.686   2.445  10.257  0.5464  0.0711 -0.3826
  622TMC3     C 9268   2.961   2.728  10.383  0.7031 -0.2588 -0.3353
  622TMC3     O 9269   2.965   2.749  10.505  0.0932  0.3123 -0.0663
  622TMC3     H 9270   2.751   2.657  10.515  2.0775 -1.2288  1.2447
  622TMC3    H1 9271   2.986   2.567  10.169 -0.4137  0.9717 -0.1660
  622TMC3    H2 9272   2.608   2.382  10.217  1.9875 -1.6557 -0.4469
  622TMC3    C7 9273   2.817   2.384  10.077  0.4756  0.1943 -0.0986
  622TMC3    C8 9274   2.539   2.520  10.438  0.6669 -0.4061 -0.8196
  622TMC3    O1 9275   2.773   2.272  10.085 -0.5610  0.2097 -0.3854
  622TMC3    O2 9276   2.542   2.554  10.556  0.4808 -0.6776 -0.7837
  623MPD2     C 9277   1.472   4.164  16.148 -0.4177 -0.1815  0.1129
  623MPD2    C1 9278   1.435   4.166  16.277  0.2250  0.1695 -0.2515
  623MPD2    C2 9279   1.526   4.185  16.374 -0.4161 -0.4056 -0.1954
  623MPD2    C3 9280   1.659   4.197  16.341 -0.4616  0.3934 -0.1189
  623MPD2    C4 9281   1.695   4.180  16.216 -0.4458  0.1448 -0.3120
  623MPD2    C5 9282   1.606   4.162  16.119 -0.4274  1.1758 -0.0472
  623MPD2     H 9283   1.498   4.194  16.478  0.9805  1.5093  0.0223
  623MPD2    H1 9284   1.799   4.177  16.186 -0.4341 -0.4712 -0.2063
  623MPD2    H2 9285   1.393   4.162  16.074 -1.1875  0.5785  0.9167
  623MPD2    H3 9286   1.640   4.154  16.017 -0.2372 -0.9343  0.1653
  623MPD2     N 9287   1.742   4.202  16.451  0.8913 -0.1042  0.1454
  623MPD2    H5 9288   1.692   4.199  16.540  1.9249  1.8316  0.7980
  623MPD2    N1 9289   1.304   4.145  16.326  0.0986 -0.1042  0.8351
  623MPD2    H7 9290   1.285   4.162  16.424  0.6980 -0.5859  1.0385
  624TMC3    C1 9291   2.059   4.214  16.749  0.1840 -0.0057 -0.5631
  624TMC3    C2 9292   1.976   4.261  16.845 -0.0318 -0.3753 -0.7265
  624TMC3    C3 9293   1.863   4.328  16.797  0.2385  0.6784  0.4058
  624TMC3    C4 9294   2.042   4.223  16.615  0.5396 -0.5788 -0.2355
  624TMC3    C5 9295   1.913   4.266  16.578  0.1019  0.7877 -0.3110
  624TMC3    C6 9296   1.830   4.325  16.664  0.2284 -0.5198 -0.0183
  624TMC3     C 9297   2.183   4.156  16.797 -0.6120  0.3747 -0.8255
  624TMC3     O 9298   2.177   4.094  16.908 -0.6640  0.1331  0.0218
  624TMC3     H 9299   2.005   4.267  16.949  0.5228 -0.5143 -0.8739
  624TMC3    H1 9300   2.107   4.183  16.538 -1.4132 -0.2742 -2.0316
  624TMC3    H2 9301   1.737   4.374  16.637  0.7847 -0.7802 -2.4102
  624TMC3    C7 9302   1.871   4.234  16.445 -0.5887  0.1394 -0.2832
  624TMC3    C8 9303   1.743   4.304  16.861 -1.3154 -0.2254 -0.5959
  624TMC3    O1 9304   1.954   4.215  16.357  0.1911 -0.3335 -0.0428
  624TMC3    O2 9305   1.664   4.232  16.803  0.4996  0.5543  0.1100
  625MPD2     C 9306   2.248   0.723   1.090  1.0591  0.9687  0.5054
  625MPD2    C1 9307   2.252   0.851   1.037 -0.1992  0.5726 -0.6491
  625MPD2    C2 9308   2.373   0.905   1.011 -0.1734 -0.3402 -0.5105
  625MPD2    C3 9309   2.497   0.847   1.031  0.6746  0.3814 -0.4376
  625MPD2    C4 9310   2.495   0.723   1.083 -0.3625 -0.0045 -0.9241
  625MPD2    C5 9311   2.372   0.666   1.118  0.5812  0.1652 -0.1481
  625MPD2     H 9312   2.373   1.004   0.967 -2.5573 -0.7527 -1.4286
  625MPD2    H1 9313   2.583   0.662   1.099  0.0881  1.2481  1.4393
  625MPD2    H2 9314   2.162   0.665   1.122  0.5519  2.7706  2.4050
  625MPD2    H3 9315   2.376   0.562   1.150 -0.8603 -0.0094 -0.5321
  625MPD2     N 9316   2.607   0.916   1.001 -0.2210 -0.6055 -0.6429
  625MPD2    H5 9317   2.595   1.009   0.961 -0.1728 -1.4242 -2.5554
  625MPD2    N1 9318   2.140   0.933   1.003  0.0007 -0.0233 -0.1700
  625MPD2    H7 9319   2.167   1.027   0.978 -1.9179  1.1541  2.3127
  626TMC3    C1 9320   1.907   0.988   0.995  0.3392  0.4500  0.7413
  626TMC3    C2 9321   1.934   1.089   0.902 -0.0581 -1.1378  0.0947
  626TMC3    C3 9322   1.838   1.196   0.902 -0.0403 -0.4723 -0.2987
  626TMC3    C4 9323   1.797   0.988   1.073 -0.4499  0.4559  0.1109
  626TMC3    C5 9324   1.714   1.095   1.079 -0.1836 -0.0493 -0.7881
  626TMC3    C6 9325   1.735   1.203   0.992  0.3429 -0.0095 -0.2095
  626TMC3     C 9326   2.009   0.886   1.020 -0.0097  0.2768  0.0426
  626TMC3     O 9327   1.972   0.777   1.066 -0.6670  0.3215  0.3767
  626TMC3     H 9328   2.021   1.100   0.838 -0.6907  3.2906 -0.0355
  626TMC3    H1 9329   1.775   0.892   1.119 -2.4582  0.9662  0.2025
  626TMC3    H2 9330   1.697   1.301   1.016  1.1410  0.3926 -0.5890
  626TMC3    C7 9331   1.583   1.073   1.143  0.6592  0.0226 -0.4743
  626TMC3    C8 9332   1.827   1.276   0.779 -0.1212 -0.2810 -0.0698
  626TMC3    O1 9333   1.568   0.983   1.223  0.7842  0.5851 -0.3508
  626TMC3    O2 9334   1.928   1.272   0.708  0.1125  0.2485  0.4554
  627MPD2     C 9335   0.329   0.698  14.638 -0.0150 -0.6386 -0.4525
  627MPD2    C1 9336   0.460   0.659  14.617  0.8175  0.0931  0.1580
  627MPD2    C2 9337   0.482   0.527  14.606 -0.2684 -0.4891 -0.0644
  627MPD2    C3 9338   0.383   0.429  14.603 -0.1199 -0.4800 -0.3118
  627MPD2    C4 9339   0.249   0.469  14.629 -0.3840 -0.2836  0.0557
  627MPD2    C5 9340   0.227   0.605  14.647  0.2548 -0.2530 -0.4989
  627MPD2     H 9341   0.579   0.497  14.570 -1.7953 -2.9384 -2.1627
  627MPD2    H1 9342   0.164   0.402  14.630 -0.0443 -0.7186 -0.4751
  627MPD2    H2 9343   0.299   0.801  14.655  0.1821 -1.0157  2.2323
  627MPD2    H3 9344   0.123   0.631  14.667  0.1953 -0.1455 -0.9366
  627MPD2     N 9345   0.414   0.290  14.575 -0.0899 -0.4268 -0.4103
  627MPD2    H5 9346   0.511   0.269  14.552 -0.1503  0.2557 -1.2983
  627MPD2    N1 9347   0.569   0.748  14.613 -0.2097  0.0739  0.5335
  627MPD2    H7 9348   0.661   0.705  14.605 -0.2686  0.3373 -1.5234
  628TMC3    C1 9349   0.688   0.941  14.681 -0.3219 -0.1303  0.1858
  628TMC3    C2 9350   0.793   0.861  14.729 -0.3168 -0.4874  0.0765
  628TMC3    C3 9351   0.910   0.920  14.778 -0.4627 -0.1932 -0.1510
  628TMC3    C4 9352   0.713   1.079  14.675 -0.2087 -0.4103  0.8591
  628TMC3    C5 9353   0.828   1.129  14.730  1.0213 -0.3170  0.3336
  628TMC3    C6 9354   0.930   1.054  14.774  0.7214  0.1283 -0.2063
  628TMC3     C 9355   0.561   0.882  14.640 -0.0782 -0.1940  0.0217
  628TMC3     O 9356   0.469   0.956  14.637 -0.1427  0.0628  0.2201
  628TMC3     H 9357   0.786   0.753  14.739  0.4302 -0.4621  0.8527
  628TMC3    H1 9358   0.627   1.140  14.649  1.0298  0.6068 -0.8759
  628TMC3    H2 9359   1.015   1.101  14.822  0.7044  0.4637 -0.5033
  628TMC3    C7 9360   0.852   1.275  14.731  0.3949 -0.4830  0.0350
  628TMC3    C8 9361   1.025   0.836  14.804  0.3683 -0.2617 -1.0068
  628TMC3    O1 9362   0.945   1.327  14.788 -0.2118  0.0707 -0.0849
  628TMC3    O2 9363   1.016   0.727  14.744 -0.0048 -0.4921  0.0415
  629MPD2     C 9364   3.540   4.575  16.568 -0.3218  0.1061  0.3510
  629MPD2    C1 9365   3.595   4.459  16.621 -0.6880  0.1705  0.3839
  629MPD2    C2 9366   3.529   4.337  16.611  0.1544  0.0460 -0.2089
  629MPD2    C3 9367   3.418   4.324  16.531 -0.1060 -0.8143 -0.3678
  629MPD2    C4 9368   3.360   4.435  16.470 -0.2909  0.0336  0.0791
  629MPD2    C5 9369   3.422   4.556  16.495 -0.5063  0.2881  0.3597
  629MPD2     H 9370   3.580   4.247  16.642 -2.9362 -1.2213  1.1732
  629MPD2    H1 9371   3.263   4.434  16.422  0.5541  1.1855 -1.6581
  629MPD2    H2 9372   3.583   4.675  16.571  1.8857 -0.8365  0.1657
  629MPD2    H3 9373   3.378   4.645  16.452 -2.6505 -1.7275 -1.6474
  629MPD2     N 9374   3.354   4.198  16.517  0.4868  0.2760 -0.0391
  629MPD2    H5 9375   3.406   4.126  16.565 -0.8785 -1.3483 -1.0024
  629MPD2    N1 9376   3.721   4.482  16.676  0.2781  0.1477  0.1797
  629MPD2    H7 9377   3.763   4.571  16.649 -0.0353  1.5617  4.3440
  630TMC3    C1 9378   3.935   4.412  16.746  0.2659 -0.6573  0.4003
  630TMC3    C2 9379   3.989   4.500  16.649  0.1392  0.6258 -0.0473
  630TMC3    C3 9380   4.126   4.510  16.655 -0.7917  1.0080  0.7132
  630TMC3    C4 9381   4.008   4.339  16.833  0.4512  0.2010  0.9648
  630TMC3    C5 9382   4.140   4.351  16.833  0.2613 -0.4339 -0.1218
  630TMC3    C6 9383   4.201   4.440  16.748  0.2933 -0.0998 -0.3184
  630TMC3     C 9384   3.795   4.379  16.744  0.3137 -0.6194 -0.0950
  630TMC3     O 9385   3.755   4.284  16.805 -0.2011 -0.5717  0.6429
  630TMC3     H 9386   3.927   4.551  16.576  0.1932 -1.2180 -1.3789
  630TMC3    H1 9387   3.959   4.283  16.911  1.0630 -1.2259  0.3104
  630TMC3    H2 9388   4.309   4.443  16.737  0.4502 -2.0898  0.7596
  630TMC3    C7 9389   4.208   4.305  16.944 -0.6679 -0.7427  0.0903
  630TMC3    C8 9390   4.196   4.610  16.576 -0.1170 -0.2903  0.0647
  630TMC3    O1 9391   4.147   4.217  17.006  0.3032 -0.2070 -0.0852
  630TMC3    O2 9392   4.308   4.635  16.608  0.4134  0.0608  0.3774
  631MPD2     C 9393   2.049   4.705  15.881 -0.1641 -0.0096 -0.2353
  631MPD2    C1 9394   2.141   0.054  15.827  0.7147 -0.6276  0.6535
  631MPD2    C2 9395   2.263   0.003  15.787  0.7711  0.0967 -0.0802
  631MPD2    C3 9396   2.292   4.608  15.782  0.2377  0.6447 -0.7439
  631MPD2    C4 9397   2.190   4.525  15.811 -0.7253  0.4881 -0.5761
  631MPD2    C5 9398   2.074   4.571  15.863 -0.4622 -0.0237  0.0177
  631MPD2     H 9399   2.338   0.073  15.751 -0.9399  0.9797 -1.9240
  631MPD2    H1 9400   2.204   4.418  15.797 -0.8896  0.2978  0.6615
  631MPD2    H2 9401   1.954   0.002  15.918  0.6793  0.7587  1.1311
  631MPD2    H3 9402   2.001   4.502  15.905 -1.6407  0.5726 -1.0667
  631MPD2     N 9403   2.421   4.567  15.741 -0.2715  0.0611 -0.2055
  631MPD2    H5 9404   2.476   4.645  15.707  2.2248 -2.3093 -1.6245
  631MPD2    N1 9405   2.105   0.188  15.831  0.2070 -0.4495  0.4053
  631MPD2    H7 9406   2.018   0.213  15.877  0.8340 -1.1118  1.9474
  632TMC3    C1 9407   2.095   0.407  15.757 -0.3483  0.3049 -0.4508
  632TMC3    C2 9408   1.962   0.371  15.788 -0.1194 -0.4370  0.1638
  632TMC3    C3 9409   1.882   0.349  15.680 -1.2846 -0.1823 -0.1174
  632TMC3    C4 9410   2.124   0.463  15.637 -1.1622  0.7843  0.5779
  632TMC3    C5 9411   2.032   0.448  15.534  0.2917 -0.0880 -0.1130
  632TMC3    C6 9412   1.916   0.383  15.553 -0.0531  0.4442 -0.6437
  632TMC3     C 9413   2.185   0.293  15.779 -0.2856 -0.2291  0.1651
  632TMC3     O 9414   2.277   0.276  15.697 -0.1431  0.2900 -0.2707
  632TMC3     H 9415   1.932   0.352  15.890  0.3325 -0.0627  0.3700
  632TMC3    H1 9416   2.209   0.530  15.633 -1.3053  0.8364 -1.2122
  632TMC3    H2 9417   1.868   0.350  15.461 -1.0776 -0.3455  0.1789
  632TMC3    C7 9418   2.089   0.416  15.412 -0.4274  0.7139 -0.6549
  632TMC3    C8 9419   1.758   0.276  15.715 -0.1181 -0.9571 -0.2812
  632TMC3    O1 9420   2.028   0.416  15.305 -0.3831  0.0781 -0.1890
  632TMC3    O2 9421   1.756   0.240  15.830 -0.2925  0.4189  0.4117
  633MPD2     C 9422   1.811   2.418  17.471  0.6826  0.4117 -0.2193
  633MPD2    C1 9423   1.845   2.340  17.364 -0.1161 -0.0973 -0.0893
  633MPD2    C2 9424   1.850   2.206  17.382  0.3873  0.2138  0.3079
  633MPD2    C3 9425   1.825   2.146  17.506 -0.5678  0.4641 -0.5402
  633MPD2    C4 9426   1.800   2.223  17.612  0.1126  0.3750 -0.5486
  633MPD2    C5 9427   1.799   2.357  17.595  0.2795  0.3560 -0.0373
  633MPD2     H 9428   1.871   2.147  17.294 -0.6028 -1.7180  1.3795
  633MPD2    H1 9429   1.798   2.194  17.716 -0.3179 -0.4407 -0.7805
  633MPD2    H2 9430   1.812   2.526  17.463  0.2186  0.5360  1.4209
  633MPD2    H3 9431   1.797   2.419  17.684 -1.1014 -0.8533  0.7677
  633MPD2     N 9432   1.829   2.011  17.532  0.1510 -0.4917  0.1478
  633MPD2    H5 9433   1.835   1.986  17.630 -1.4474  0.6050  0.5247
  633MPD2    N1 9434   1.884   2.392  17.235 -0.2336 -0.4021  0.2607
  633MPD2    H7 9435   1.899   2.331  17.155 -1.7530 -0.5758  0.1094
  634TMC3    C1 9436   1.949   2.565  17.086 -0.1839  0.1586  0.4206
  634TMC3    C2 9437   1.994   2.470  16.998  0.4846  0.9269  0.5085
  634TMC3    C3 9438   2.020   2.507  16.869  0.1730 -0.1064  0.4572
  634TMC3    C4 9439   1.927   2.695  17.053 -0.4023  0.3186  0.5086
  634TMC3    C5 9440   1.949   2.721  16.915  0.1155 -0.4291 -0.3607
  634TMC3    C6 9441   1.988   2.630  16.822 -0.2774 -1.0458  0.3140
  634TMC3     C 9442   1.898   2.527  17.218 -0.0768  0.4057  0.0758
  634TMC3     O 9443   1.877   2.631  17.286  0.5708  0.2393 -0.3900
  634TMC3     H 9444   1.992   2.364  17.020 -1.5825  0.9162  0.2712
  634TMC3    H1 9445   1.893   2.771  17.123  1.3661 -0.1332  1.8592
  634TMC3    H2 9446   2.004   2.653  16.717  0.4031  1.2004  0.9095
  634TMC3    C7 9447   1.900   2.851  16.859 -0.3624 -0.2904 -0.3666
  634TMC3    C8 9448   2.056   2.400  16.782  0.0952 -0.1130 -0.3679
  634TMC3    O1 9449   1.918   2.869  16.741 -0.0540  0.6430 -0.0713
  634TMC3    O2 9450   2.064   2.293  16.838  0.2851  0.4308  0.0665
  635TMC3    C1 9451   1.708   4.075   0.340  0.4631 -0.0949  0.0733
  635TMC3    C2 9452   1.709   3.986   0.232 -0.2341  0.0603 -0.7573
  635TMC3    C3 9453   1.674   3.859   0.260  0.1267 -0.1900  0.3602
  635TMC3    C4 9454   1.663   4.040   0.463 -0.2382 -0.6530  0.2875
  635TMC3    C5 9455   1.634   3.905   0.485 -0.4231  0.3503  0.3849
  635TMC3    C6 9456   1.629   3.812   0.390  0.0733 -0.2619  0.5708
  635TMC3     C 9457   1.764   4.209   0.325  0.0294  0.0050 -0.1238
  635TMC3     O 9458   1.837   4.255   0.406  0.2694 -0.2727  0.5028
  635TMC3     H 9459   1.757   4.017   0.140 -0.1387 -2.1838 -1.4528
  635TMC3    H1 9460   1.663   4.104   0.550 -3.5161  0.4935 -0.5158
  635TMC3    H2 9461   1.615   3.707   0.414  2.4567 -0.5263  0.8035
  635TMC3    C7 9462   1.605   3.865   0.626  0.3837  0.3738 -0.0645
  635TMC3    C8 9463   1.702   3.748   0.168 -0.0878  0.0204  0.1541
  635TMC3    O1 9464   1.541   3.759   0.643  0.5899  0.1326 -0.0357
  635TMC3    O2 9465   1.685   3.633   0.208 -0.2053 -0.1368 -0.1304
  636MPD2     C 9466   2.804   2.795  16.267  0.6494 -0.7059  0.3312
  636MPD2    C1 9467   2.886   2.800  16.378 -0.1486 -0.6264  0.0154
  636MPD2    C2 9468   2.914   2.679  16.440 -1.1612 -0.7543  0.0524
  636MPD2    C3 9469   2.864   2.557  16.396  0.3506 -0.0535 -0.1089
  636MPD2    C4 9470   2.795   2.559  16.276 -0.0685 -0.5554  0.1364
  636MPD2    C5 9471   2.764   2.676  16.213  0.2210  0.7939 -0.4120
  636MPD2     H 9472   2.963   2.693  16.536  1.6131 -0.9082 -1.3436
  636MPD2    H1 9473   2.757   2.468  16.232 -3.7263  0.5616  0.9468
  636MPD2    H2 9474   2.763   2.887  16.226  1.0318  0.0731  1.6844
  636MPD2    H3 9475   2.708   2.672  16.120  0.0312  1.0007 -0.3068
  636MPD2     N 9476   2.906   2.443  16.467  0.5519  0.1360  0.5080
  636MPD2    H5 9477   2.956   2.457  16.555 -1.4894  0.2214  1.6602
  636MPD2    N1 9478   2.926   2.915  16.440  0.6244 -0.0472  0.0932
  636MPD2    H7 9479   2.996   2.907  16.513  0.1069 -2.2163  0.3535
  637TMC3    C1 9480   2.954   2.216  16.512 -0.0173 -0.4023  0.4305
  637TMC3    C2 9481   2.985   2.249  16.636  0.1414 -0.1276  0.8797
  637TMC3    C3 9482   3.089   2.186  16.700  0.6942  0.0284  0.3653
  637TMC3    C4 9483   3.020   2.115  16.445  0.5783  0.6658 -0.6733
  637TMC3    C5 9484   3.119   2.053  16.516  0.1238 -0.0627  0.6753
  637TMC3    C6 9485   3.157   2.089  16.640 -0.2763  0.5246  0.5036
  637TMC3     C 9486   2.887   2.313  16.423 -0.2955 -0.3682  0.0759
  637TMC3     O 9487   2.868   2.283  16.305 -0.6145  0.3653 -0.0664
  637TMC3     H 9488   2.944   2.340  16.679 -1.2775  0.8975 -2.6534
  637TMC3    H1 9489   2.990   2.081  16.347 -0.7663  1.0808 -0.4039
  637TMC3    H2 9490   3.238   2.038  16.693  0.4875  0.0962 -1.0906
  637TMC3    C7 9491   3.236   1.999  16.449 -1.2560  0.3893  0.6443
  637TMC3    C8 9492   3.183   2.283  16.760 -1.1604  0.6757  0.5960
  637TMC3    O1 9493   3.291   1.897  16.488 -0.1315  0.2814  0.8018
  637TMC3    O2 9494   3.159   2.396  16.720 -0.0992  0.1517 -0.2808
  638MPD2     C 9495   2.960   1.806  14.944 -0.0345 -0.2649 -0.5446
  638MPD2    C1 9496   3.007   1.681  14.904 -0.5347  0.1189  0.1688
  638MPD2    C2 9497   2.989   1.570  14.986  0.4617  0.3939 -0.3330
  638MPD2    C3 9498   2.915   1.576  15.101 -0.5673  0.8618  0.5704
  638MPD2    C4 9499   2.868   1.697  15.141  0.5744  0.8915  0.3125
  638MPD2    C5 9500   2.887   1.808  15.059  0.2088  0.2701  0.4593
  638MPD2     H 9501   3.039   1.479  14.956  1.0512  0.3598  0.7694
  638MPD2    H1 9502   2.815   1.711  15.234  0.5049 -0.9868  0.5592
  638MPD2    H2 9503   2.985   1.894  14.885 -1.3244  0.3068 -0.2292
  638MPD2    H3 9504   2.852   1.901  15.103  1.4821  0.5010  0.9696
  638MPD2     N 9505   2.886   1.459  15.177 -0.2280 -0.3468  0.1716
  638MPD2    H5 9506   2.820   1.472  15.253 -1.9600 -1.4441 -1.1596
  638MPD2    N1 9507   3.083   1.682  14.778  0.1521 -0.8726  0.1844
  638MPD2    H7 9508   3.106   1.762  14.721  0.6027 -1.2489 -0.1624
  639TMC3    C1 9509   2.907   1.243  15.247 -0.1433  0.1885 -1.0453
  639TMC3    C2 9510   2.779   1.200  15.240  0.1735 -0.1304 -0.3665
  639TMC3    C3 9511   2.743   1.080  15.301 -0.5559 -0.2765  0.2371
  639TMC3    C4 9512   3.003   1.168  15.308 -0.2454  0.4330  0.2065
  639TMC3    C5 9513   2.964   1.051  15.367  0.2092  0.4670  0.5314
  639TMC3    C6 9514   2.828   1.009  15.372 -0.2517 -0.5415  0.6822
  639TMC3     C 9515   2.950   1.342  15.158 -0.5336 -0.3681 -0.7598
  639TMC3     O 9516   3.041   1.307  15.084  0.1320  0.4598 -0.3243
  639TMC3     H 9517   2.722   1.244  15.159  0.7395  1.1288 -0.0798
  639TMC3    H1 9518   3.109   1.186  15.304 -0.4062  1.0108 -1.6409
  639TMC3    H2 9519   2.802   0.913  15.416 -3.2962 -0.0845 -0.0909
  639TMC3    C7 9520   3.059   0.949  15.405 -0.1873  0.1874  0.1559
  639TMC3    C8 9521   2.676   1.001  15.203 -0.1306 -0.3923  0.0492
  639TMC3    O1 9522   3.022   0.875  15.498  0.6382  0.6357 -0.6695
  639TMC3    O2 9523   2.707   1.011  15.083  0.1312  0.4573 -0.0972
  640MPD2     C 9524   3.467   4.112  10.180  0.2043 -0.2374  0.1394
  640MPD2    C1 9525   3.569   4.199  10.145 -0.5875 -0.6515  0.0476
  640MPD2    C2 9526   3.560   4.323  10.204  0.5084 -0.4734  0.5521
  640MPD2    C3 9527   3.442   4.368  10.260 -0.0559  0.4932 -0.5569
  640MPD2    C4 9528   3.340   4.280  10.269 -0.7430  0.0219  0.8888
  640MPD2    C5 9529   3.356   4.152  10.239  0.2639 -0.4003 -0.2878
  640MPD2     H 9530   3.651   4.382  10.216  0.0006  0.5504 -0.6512
  640MPD2    H1 9531   3.245   4.314  10.308 -1.1373  0.4186 -0.4233
  640MPD2    H2 9532   3.474   4.008  10.150  0.4405 -0.2257  0.1524
  640MPD2    H3 9533   3.276   4.083  10.264 -0.4786  0.8456  0.7875
  640MPD2     N 9534   3.428   4.498  10.320 -0.3180  0.1071 -0.0807
  640MPD2    H5 9535   3.339   4.515  10.365 -0.1870  1.2949 -0.2564
  640MPD2    N1 9536   3.678   4.159  10.069 -0.0214  0.0503 -0.3803
  640MPD2    H7 9537   3.671   4.066  10.030  2.4884 -0.5589  0.5925
  641TMC3    C1 9538   3.871   4.172   9.933  0.1229  0.1460  0.5710
  641TMC3    C2 9539   3.900   4.042   9.957 -0.2638  0.4960 -0.0412
  641TMC3    C3 9540   4.029   4.002   9.941  0.2589  0.2591  0.5445
  641TMC3    C4 9541   3.967   4.256   9.880 -0.1595 -0.5661  0.5149
  641TMC3    C5 9542   4.090   4.207   9.848  0.2704 -0.0037  0.3682
  641TMC3    C6 9543   4.128   4.081   9.886 -0.4267 -0.4988 -0.6895
  641TMC3     C 9544   3.771   4.244  10.015 -0.2848  0.7484 -0.5128
  641TMC3     O 9545   3.778   4.366  10.011 -0.7483 -0.5028 -0.9655
  641TMC3     H 9546   3.828   3.968   9.991 -0.6079  1.3782  1.1267
  641TMC3    H1 9547   3.941   4.358   9.854  0.1900 -0.5840  0.0860
  641TMC3    H2 9548   4.221   4.029   9.868 -0.0822 -0.1728  0.1608
  641TMC3    C7 9549   4.185   4.279   9.764  0.7521  0.2026 -0.3221
  641TMC3    C8 9550   4.048   3.859   9.961  0.2982  0.1569 -0.4461
  641TMC3    O1 9551   4.297   4.234   9.750  0.5902  0.9407  0.3699
  641TMC3    O2 9552   3.972   3.779   9.915 -0.2447  0.8971 -0.1035
  642TMC3    C1 9553   4.687   0.871  12.277  0.0599  0.3756 -0.6863
  642TMC3    C2 9554   0.081   0.860  12.262 -0.2503  0.2431 -0.1734
  642TMC3    C3 9555   0.147   0.801  12.370  0.0637  0.3435 -0.1364
  642TMC3    C4 9556   4.611   0.814  12.377 -0.2742 -0.9699 -0.4783
  642TMC3    C5 9557   4.681   0.761  12.485  0.1436 -0.0346  0.0305
  642TMC3    C6 9558   0.079   0.764  12.483  0.3374  0.4083 -1.1907
  642TMC3     C 9559   4.608   0.960  12.186 -0.3962  0.8127 -0.4835
  642TMC3     O 9560   4.654   0.972  12.075 -0.5437 -0.1651 -0.7138
  642TMC3     H 9561   0.139   0.904  12.182 -0.3653  0.5350 -0.0975
  642TMC3    H1 9562   4.503   0.812  12.376 -0.3432  3.7196 -1.8875
  642TMC3    H2 9563   0.136   0.724  12.566  0.6521 -1.4885 -2.3191
  642TMC3    C7 9564   4.608   0.655  12.560 -0.0675 -1.0502 -0.8357
  642TMC3    C8 9565   0.292   0.821  12.392 -0.4717 -0.1219 -0.0636
  642TMC3    O1 9566   4.499   0.625  12.519 -0.0748 -0.1434 -0.4428
  642TMC3    O2 9567   0.349   0.759  12.481  0.5058  0.5137  0.0139
  643TMC3    C1 9568   3.739   1.210   0.855 -0.2035 -0.1358  0.1641
  643TMC3    C2 9569   3.613   1.248   0.909  0.1529  0.0321  0.3136
  643TMC3    C3 9570   3.503   1.195   0.847  0.0667  0.5327 -0.0086
  643TMC3    C4 9571   3.755   1.115   0.754  0.9328 -0.1012  0.1837
  643TMC3    C5 9572   3.639   1.052   0.708 -0.2258  0.6549  0.0541
  643TMC3    C6 9573   3.518   1.092   0.749  0.7687 -0.5240 -0.0417
  643TMC3     C 9574   3.840   1.299   0.907  0.4070 -0.5997  0.4924
  643TMC3     O 9575   3.816   1.417   0.913  0.0400 -0.1239  0.4748
  643TMC3     H 9576   3.606   1.328   0.981 -1.1098  2.1706 -2.1620
  643TMC3    H1 9577   3.856   1.110   0.715  1.3265  0.7196  1.1250
  643TMC3    H2 9578   3.437   1.040   0.700 -0.2911 -1.7670  3.0040
  643TMC3    C7 9579   3.664   0.971   0.594  0.5038  0.1232  0.3459
  643TMC3    C8 9580   3.419   1.305   0.823 -0.6189  0.0729  0.3628
  643TMC3    O1 9581   3.764   0.997   0.531 -0.1501 -0.5837 -0.1459
  643TMC3    O2 9582   3.301   1.289   0.854  0.3235 -0.1233 -0.5752
  644MPD2     C 9583   4.248   4.488  10.092  0.4658  0.2275 -0.5790
  644MPD2    C1 9584   4.318   4.527   9.981 -0.4933 -0.2314 -0.3605
  644MPD2    C2 9585   4.245   4.603   9.890 -0.3715  0.4645 -0.5545
  644MPD2    C3 9586   4.114   4.641   9.905 -0.4679 -0.1410  1.0644
  644MPD2    C4 9587   4.046   4.583  10.012 -0.6569  0.3730  0.5328
  644MPD2    C5 9588   4.113   4.508  10.105 -0.0406  0.3226 -0.2122
  644MPD2     H 9589   4.293   4.638   9.799 -1.1160  0.8192 -0.8133
  644MPD2    H1 9590   3.942   4.600  10.037 -0.5613  1.2874  0.3012
  644MPD2    H2 9591   4.286   4.424  10.171  1.4745 -0.7079 -1.8246
  644MPD2    H3 9592   4.059   4.459  10.186  0.6895 -1.7569 -0.9794
  644MPD2     N 9593   4.047   4.722   9.813  0.1181 -0.5993  0.5040
  644MPD2    H5 9594   4.108   0.032   9.749  1.7405 -1.6034  1.2742
  644MPD2    N1 9595   4.455   4.513   9.982 -0.7073  0.0774 -0.3133
  644MPD2    H7 9596   4.496   4.456  10.056 -1.0968 -0.8105 -0.7869
  645TMC3    C1 9597   3.889   0.140   9.733  0.5128 -0.2439  0.2335
  645TMC3    C2 9598   3.787   0.225   9.766 -1.4690  0.2715 -0.1261
  645TMC3    C3 9599   3.746   0.320   9.671  0.0269  0.0085  0.1247
  645TMC3    C4 9600   3.951   0.145   9.611 -0.5470 -0.4382  0.2879
  645TMC3    C5 9601   3.915   0.252   9.532 -0.3686 -0.2580  0.5829
  645TMC3    C6 9602   3.822   0.339   9.568  0.7984  0.6159  0.5091
  645TMC3     C 9603   3.920   0.028   9.821  0.2004 -0.3173  0.7794
  645TMC3     O 9604   3.837   0.008   9.903 -0.5109  0.0098  0.6020
  645TMC3     H 9605   3.722   0.202   9.850 -2.2181  3.3067  0.1081
  645TMC3    H1 9606   4.015   0.066   9.571  0.4160  0.1498  0.6511
  645TMC3    H2 9607   3.787   0.418   9.502 -1.7342 -0.6575  0.3592
  645TMC3    C7 9608   3.981   0.267   9.404  0.2413  0.4778 -0.1524
  645TMC3    C8 9609   3.643   0.412   9.693  1.0553  1.0431 -0.0772
  645TMC3    O1 9610   3.925   0.341   9.324 -0.2872 -0.3669 -0.4088
  645TMC3    O2 9611   3.641   0.520   9.635  0.1636  0.2443 -0.0609
  646MPD2     C 9612   3.150   0.208  14.577 -0.2567 -0.1117  0.0275
  646MPD2    C1 9613   3.095   0.214  14.704 -0.6693 -0.2008 -0.1728
  646MPD2    C2 9614   2.973   0.281  14.721 -0.6522 -0.2874  0.2377
  646MPD2    C3 9615   2.911   0.346  14.612  0.3777 -0.2407  0.0888
  646MPD2    C4 9616   2.979   0.340  14.486 -0.4822 -0.3160  0.0154
  646MPD2    C5 9617   3.097   0.275  14.474 -0.1654 -0.4023 -0.4389
  646MPD2     H 9618   2.917   0.287  14.813 -0.5965  2.0401  0.1124
  646MPD2    H1 9619   2.944   0.385  14.394 -2.6160 -1.4000  0.2950
  646MPD2    H2 9620   3.237   0.147  14.558 -0.9693 -1.1385  0.0677
  646MPD2    H3 9621   3.137   0.281  14.373 -0.0768 -0.5406 -0.4120
  646MPD2     N 9622   2.788   0.412  14.629  0.4110 -0.1565  0.5130
  646MPD2    H5 9623   2.743   0.392  14.717 -0.8091  2.7339  0.5413
  646MPD2    N1 9624   3.163   0.142  14.802  0.0998 -0.2800 -0.1671
  646MPD2    H7 9625   3.254   0.101  14.785  1.3780  1.6819  1.9681
  647TMC3    C1 9626   3.198   0.041  15.006 -0.6257  0.7469 -0.4829
  647TMC3    C2 9627   3.144   4.726  15.121  0.5278 -0.4736 -0.0562
  647TMC3    C3 9628   3.231   4.662  15.205 -0.2238  0.1203  0.1397
  647TMC3    C4 9629   3.335   0.033  14.984 -0.1890 -0.3272 -0.2501
  647TMC3    C5 9630   3.413   4.711  15.080  0.0326  0.0630  0.5476
  647TMC3    C6 9631   3.364   4.650  15.186 -0.0716 -0.3469 -0.1587
  647TMC3     C 9632   3.111   0.123  14.927  0.7655  0.6461  0.0289
  647TMC3     O 9633   2.995   0.135  14.965 -0.1809  0.0680  0.6172
  647TMC3     H 9634   3.040   4.717  15.148  0.5812  1.9083  0.9063
  647TMC3    H1 9635   3.384   0.095  14.910  0.5450  3.0565  3.0404
  647TMC3    H2 9636   3.439   4.615  15.257 -0.9618 -0.1960  0.8625
  647TMC3    C7 9637   3.551   4.664  15.050 -0.6170 -0.3359  0.5597
  647TMC3    C8 9638   3.181   4.575  15.314 -0.2644 -0.1712  0.5126
  647TMC3    O1 9639   3.597   4.566  15.109  0.2734 -1.0250 -0.1408
  647TMC3    O2 9640   3.257   4.552  15.406 -0.0486  0.3356  0.3181
  648TMC3    C1 9641   2.453   2.534  16.287  0.0139 -0.0763 -0.6722
  648TMC3    C2 9642   2.511   2.424  16.241  0.2512 -0.5436 -0.2207
  648TMC3    C3 9643   2.504   2.393  16.109  0.1950 -0.2794 -0.3460
  648TMC3    C4 9644   2.396   2.629  16.206 -0.0066 -0.1544 -0.1285
  648TMC3    C5 9645   2.389   2.600  16.072 -0.4717 -0.1379 -0.2665
  648TMC3    C6 9646   2.450   2.491  16.023 -0.1515  0.3784  0.1137
  648TMC3     C 9647   2.460   2.571  16.427  0.4338  0.6203 -0.7250
  648TMC3     O 9648   2.449   2.691  16.452  0.0051 -0.2046 -0.5023
  648TMC3     H 9649   2.575   2.361  16.302  0.7618  0.6490  0.4740
  648TMC3    H1 9650   2.357   2.721  16.248 -1.1061  0.3890 -2.3424
  648TMC3    H2 9651   2.465   2.481  15.916  1.4086 -3.6126  0.6783
  648TMC3    C7 9652   2.334   2.705  15.982  0.3327 -0.7903  0.2935
  648TMC3    C8 9653   2.609   2.309  16.058  0.0520  1.2285  0.3247
  648TMC3    O1 9654   2.349   2.686  15.866  0.0260  0.1926 -0.3329
  648TMC3    O2 9655   2.636   2.329  15.939  0.2779 -0.1892 -0.2972
  649TMC3    C1 9656   1.820   3.164  13.071  0.2846 -0.0216  0.5044
  649TMC3    C2 9657   1.947   3.165  13.118 -0.0016  0.2191  0.1358
  649TMC3    C3 9658   1.971   3.160  13.250  0.2499  0.2576  0.1224
  649TMC3    C4 9659   1.711   3.146  13.150 -0.1078  0.1282 -0.2871
  649TMC3    C5 9660   1.734   3.141  13.288 -1.2001  0.6994  0.2113
  649TMC3    C6 9661   1.863   3.154  13.341  0.2734 -0.0248  0.0546
  649TMC3     C 9662   1.789   3.183  12.928  0.0248  0.1097 -0.0731
  649TMC3     O 9663   1.669   3.190  12.900 -0.0181  0.0301  0.2406
  649TMC3     H 9664   2.027   3.179  13.047 -1.7531  1.4926 -1.5990
  649TMC3    H1 9665   1.612   3.133  13.110  0.3425  1.2759 -1.7421
  649TMC3    H2 9666   1.878   3.156  13.448 -1.7550 -0.5747  0.3478
  649TMC3    C7 9667   1.621   3.081  13.370  0.0812 -0.3006 -0.0116
  649TMC3    C8 9668   2.104   3.132  13.302  0.1248  0.6206 -0.0950
  649TMC3    O1 9669   1.512   3.074  13.314 -1.0946  0.3762 -0.0944
  649TMC3    O2 9670   2.116   3.120  13.422 -0.2175  0.2073 -0.4267
  650TMC3    C1 9671   4.040   0.248  12.784  0.2455 -0.0829 -0.2874
  650TMC3    C2 9672   3.939   0.347  12.775  0.3808  0.0563 -0.3470
  650TMC3    C3 9673   3.922   0.405  12.652  0.2966  0.3236 -0.3107
  650TMC3    C4 9674   4.125   0.223  12.680 -0.5014 -0.2839 -0.5963
  650TMC3    C5 9675   4.109   0.293  12.566 -0.1838  0.3278 -0.2902
  650TMC3    C6 9676   4.005   0.375  12.549  0.4892  0.3335 -0.0391
  650TMC3     C 9677   4.061   0.200  12.924  0.3954 -0.1071  0.1346
  650TMC3     O 9678   4.009   0.262  13.016  0.4028 -0.9158 -0.2687
  650TMC3     H 9679   3.876   0.376  12.858  2.5873  2.8026  0.3526
  650TMC3    H1 9680   4.205   0.152  12.695 -0.1778 -0.0243 -1.1099
  650TMC3    H2 9681   3.990   0.420  12.451 -1.2738 -0.3282 -0.0620
  650TMC3    C7 9682   4.219   0.290  12.475 -0.1568 -0.3023 -0.2688
  650TMC3    C8 9683   3.853   0.537  12.636 -0.3261 -0.6659  0.2758
  650TMC3    O1 9684   4.293   0.194  12.466 -0.1137 -0.3056  0.1554
  650TMC3    O2 9685   3.860   0.597  12.529  0.5339  0.0349  0.2484
  651MPD2     C 9686   2.525   2.017  10.504 -0.5744  0.2320  0.4875
  651MPD2    C1 9687   2.492   2.097  10.612  0.9117  0.1958 -0.2162
  651MPD2    C2 9688   2.577   2.206  10.647  0.3744  0.8068 -0.7889
  651MPD2    C3 9689   2.691   2.224  10.575 -0.1145 -0.0017  0.0309
  651MPD2    C4 9690   2.725   2.145  10.462  0.5388  0.5939  0.1344
  651MPD2    C5 9691   2.631   2.043  10.426 -0.2560  0.0222  0.3782
  651MPD2     H 9692   2.553   2.267  10.733 -1.1391 -0.3552 -0.4042
  651MPD2    H1 9693   2.820   2.144  10.410 -0.3160 -0.9248 -1.4103
  651MPD2    H2 9694   2.469   1.930  10.469  1.1343 -1.5969  2.2927
  651MPD2    H3 9695   2.660   1.966  10.355 -1.0470 -0.3149  0.4232
  651MPD2     N 9696   2.783   2.323  10.628  0.7040 -0.6727 -0.9981
  651MPD2    H5 9697   2.754   2.366  10.716  0.5987  0.5855 -1.6463
  651MPD2    N1 9698   2.369   2.087  10.690  0.1391 -0.0965  0.1210
  651MPD2    H7 9699   2.357   2.156  10.763  1.5804  0.3953 -0.1145
  652TMC3    C1 9700   3.176   2.528  10.764  0.6034  0.0687  0.6620
  652TMC3    C2 9701   3.105   2.425  10.705 -0.0541  0.5186  0.3573
  652TMC3    C3 9702   2.971   2.438  10.685 -0.7267 -0.4715 -0.1220
  652TMC3    C4 9703   3.112   2.626  10.831  0.1387  0.9789  0.2114
  652TMC3    C5 9704   2.978   2.631  10.820  0.2724  0.2539 -0.0333
  652TMC3    C6 9705   2.907   2.544  10.739 -0.7453 -0.1479  0.5038
  652TMC3     C 9706   3.294   2.482  10.819  0.3471 -0.0149  0.4907
  652TMC3     O 9707   3.324   2.363  10.799 -0.1665 -0.4380  0.1614
  652TMC3     H 9708   3.141   2.333  10.660  1.1254 -0.3986  3.1729
  652TMC3    H1 9709   3.161   2.693  10.900 -0.4004  1.1828  0.3961
  652TMC3    H2 9710   2.806   2.575  10.715 -0.2675  0.4048 -0.7818
  652TMC3    C7 9711   2.911   2.763  10.836  0.5048 -0.2169 -0.1096
  652TMC3    C8 9712   2.913   2.345  10.593  0.4532  0.0944  0.2463
  652TMC3    O1 9713   2.792   2.773  10.853 -0.1997 -0.1965 -0.4197
  652TMC3    O2 9714   2.984   2.298  10.507  0.2095 -0.1231 -0.3694
  653MPD2     C 9715   1.574   2.675   0.065  0.0483 -1.1466  0.5589
  653MPD2    C1 9716   1.517   2.752  17.721 -0.0039  0.0266 -0.1370
  653MPD2    C2 9717   1.458   2.683  17.619  0.1058 -0.5289 -0.1154
  653MPD2    C3 9718   1.459   2.540  17.608 -0.4166 -0.5057 -0.3654
  653MPD2    C4 9719   1.523   2.469  17.711 -0.0351 -0.5820  0.1434
  653MPD2    C5 9720   1.575   2.543   0.058 -0.1299  0.1451  0.3947
  653MPD2     H 9721   1.400   2.737  17.545  0.5351 -1.1578 -0.9065
  653MPD2    H1 9722   1.535   2.361  17.717  0.1322 -0.4697  1.8592
  653MPD2    H2 9723   1.635   2.719   0.143  2.5420 -2.9105 -0.4045
  653MPD2    H3 9724   1.617   2.486   0.139  0.9966 -0.6208 -0.7379
  653MPD2     N 9725   1.392   2.481  17.501 -0.8965  0.9427  0.3933
  653MPD2    H5 9726   1.339   2.543  17.440 -2.7622  0.6346  1.6935
  653MPD2    N1 9727   1.516   2.896  17.717  0.1484  0.1309 -0.6083
  653MPD2    H7 9728   1.487   2.936  17.628 -0.2077 -0.0788 -0.5858
  654TMC3    C1 9729   1.363   2.328  17.327  0.1166 -0.5461 -0.0051
  654TMC3    C2 9730   1.240   2.379  17.291  0.3755  0.5637 -0.1104
  654TMC3    C3 9731   1.184   2.327  17.181 -0.1524  0.7492 -0.0891
  654TMC3    C4 9732   1.420   2.215  17.261 -0.4866  0.1913 -0.1744
  654TMC3    C5 9733   1.349   2.161  17.157 -0.4432  0.1421 -0.1187
  654TMC3    C6 9734   1.242   2.224  17.102  0.1067 -0.0063 -0.2231
  654TMC3     C 9735   1.409   2.351  17.458 -0.5860 -0.3034  0.5119
  654TMC3     O 9736   1.464   2.256  17.511 -0.7674 -0.3776 -0.7085
  654TMC3     H 9737   1.185   2.448  17.354  4.1106  2.2250  1.3106
  654TMC3    H1 9738   1.508   2.174  17.309  0.5495  2.0900 -0.4718
  654TMC3    H2 9739   1.210   2.180  17.009 -0.9028 -1.0179  0.6066
  654TMC3    C7 9740   1.364   2.027  17.120 -0.8224 -0.6187  0.3366
  654TMC3    C8 9741   1.044   2.358  17.163 -0.2995  0.2459  0.4779
  654TMC3    O1 9742   1.331   1.990  17.004 -0.0268  0.7684 -0.6017
  654TMC3    O2 9743   1.001   2.468  17.196 -0.0802 -0.4852  0.0473
  655MPD2     C 9744   2.701   2.629  15.648  0.5417  0.1308  0.1661
  655MPD2    C1 9745   2.627   2.743  15.607  0.5390  0.3431  0.1442
  655MPD2    C2 9746   2.587   2.749  15.474 -0.2284 -0.1963 -0.1602
  655MPD2    C3 9747   2.635   2.653  15.379  0.2308 -0.1925 -0.7635
  655MPD2    C4 9748   2.721   2.552  15.424  0.0703  1.0585  0.0843
  655MPD2    C5 9749   2.746   2.542  15.553  1.0916  0.3314 -0.2490
  655MPD2     H 9750   2.512   2.821  15.445 -0.9949 -1.8992 -2.3940
  655MPD2    H1 9751   2.761   2.482  15.352 -2.4862  1.6498 -1.8950
  655MPD2    H2 9752   2.730   2.609  15.750 -0.6548 -1.0033  0.2747
  655MPD2    H3 9753   2.801   2.454  15.585  0.3326  0.0154  0.2080
  655MPD2     N 9754   2.617   2.663  15.237 -0.7921  0.1088 -0.2922
  655MPD2    H5 9755   2.645   2.589  15.173  2.5812  0.8459  0.3198
  655MPD2    N1 9756   2.601   2.853  15.685  0.2495  0.3640 -0.1813
  655MPD2    H7 9757   2.547   2.931  15.649  1.9253  1.4802 -0.2827
  656TMC3    C1 9758   2.591   2.985  15.871  0.2303  0.5836  0.3285
  656TMC3    C2 9759   2.571   2.982  16.009 -0.4527  0.2539 -0.2415
  656TMC3    C3 9760   2.505   3.091  16.067  0.4976 -0.5466  0.3989
  656TMC3    C4 9761   2.575   3.097  15.804 -0.1359 -0.2445  0.6346
  656TMC3    C5 9762   2.512   3.207  15.868 -0.1498  0.6387  0.2522
  656TMC3    C6 9763   2.470   3.203  15.996 -0.4163 -0.0086  0.4406
  656TMC3     C 9764   2.635   2.861  15.814  0.3712 -0.5584  0.6628
  656TMC3     O 9765   2.681   2.787  15.897 -0.6168  0.0518  0.1159
  656TMC3     H 9766   2.584   2.894  16.071  2.5536  1.8190  1.3410
  656TMC3    H1 9767   2.595   3.102  15.698 -0.6156 -0.0714  0.5542
  656TMC3    H2 9768   2.422   3.288  16.043 -1.1449  0.0366 -0.3887
  656TMC3    C7 9769   2.460   3.306  15.772 -0.1403 -0.5843 -0.9392
  656TMC3    C8 9770   2.455   3.073  16.204 -0.1197 -0.5405 -0.3293
  656TMC3    O1 9771   2.534   3.326  15.676 -0.1238 -0.0909 -0.3755
  656TMC3    O2 9772   2.461   2.955  16.236 -0.2782 -0.3460 -0.1759
  657TMC3    C1 9773   1.485   2.600  15.490  0.2579 -0.2221 -0.5781
  657TMC3    C2 9774   1.554   2.704  15.546 -0.2534  0.2878  0.1411
  657TMC3    C3 9775   1.486   2.794  15.618 -0.2009 -0.2152  0.1763
  657TMC3    C4 9776   1.346   2.590  15.509  0.7337 -0.2554  0.1083
  657TMC3    C5 9777   1.283   2.688  15.579  0.8985 -0.2580  0.6048
  657TMC3    C6 9778   1.351   2.792  15.638  0.6070 -0.9181 -0.2837
  657TMC3     C 9779   1.551   2.479  15.451 -0.0762  0.8108  0.2198
  657TMC3     O 9780   1.494   2.409  15.368 -0.1861 -0.0010 -0.1634
  657TMC3     H 9781   1.662   2.711  15.535 -0.2259 -2.3427 -1.1946
  657TMC3    H1 9782   1.299   2.506  15.460 -0.5911 -0.7353  2.1703
  657TMC3    H2 9783   1.292   2.866  15.689  0.2938 -0.1842 -1.7082
  657TMC3    C7 9784   1.138   2.674  15.590 -0.9722 -0.4396  0.4635
  657TMC3    C8 9785   1.547   2.919  15.658 -0.0067 -0.2131  0.0192
  657TMC3    O1 9786   1.075   2.745  15.667 -0.5108  0.1920 -0.3983
  657TMC3    O2 9787   1.496   2.989  15.745 -0.4218  0.1652 -0.0293
  658MPD2     C 9788   2.935   2.281  14.932  0.2547  0.1962  0.0637
  658MPD2    C1 9789   2.908   2.383  14.843  1.8652  0.2429  0.1920
  658MPD2    C2 9790   2.981   2.382  14.726  0.4631 -0.6072  0.1341
  658MPD2    C3 9791   3.077   2.286  14.700  0.2145 -0.6448  0.6044
  658MPD2    C4 9792   3.111   2.193  14.800  0.4858 -0.0637  0.7137
  658MPD2    C5 9793   3.038   2.193  14.919  0.1787 -0.8436 -0.1939
  658MPD2     H 9794   2.960   2.462  14.656  0.3406 -0.9237 -0.1898
  658MPD2    H1 9795   3.188   2.119  14.780  0.6694 -0.0586  1.4049
  658MPD2    H2 9796   2.881   2.277  15.026 -0.4449  0.9320 -0.3081
  658MPD2    H3 9797   3.043   2.112  14.990 -0.6964  1.9340  3.0250
  658MPD2     N 9798   3.141   2.301  14.573  0.4594  0.3914  0.1812
  658MPD2    H5 9799   3.108   2.377  14.514 -0.6253 -1.4140 -1.5441
  658MPD2    N1 9800   2.808   2.477  14.878 -0.2279  0.1974  0.1986
  658MPD2    H7 9801   2.756   2.467  14.964 -0.3800 -0.0842  0.0715
  659TMC3    C1 9802   2.643   2.629  14.840 -0.0327 -0.3243  0.0327
  659TMC3    C2 9803   2.652   2.671  14.972  0.0824  0.7543  0.4494
  659TMC3    C3 9804   2.551   2.750  15.028  0.3409 -0.4565 -0.5294
  659TMC3    C4 9805   2.539   2.658  14.761  0.3318  0.9034  0.1796
  659TMC3    C5 9806   2.432   2.730  14.826 -0.3102 -0.3797 -0.1975
  659TMC3    C6 9807   2.442   2.773  14.958 -0.3789 -0.8301 -0.6986
  659TMC3     C 9808   2.755   2.562  14.782  0.0946  0.1713 -0.6611
  659TMC3     O 9809   2.764   2.553  14.657  0.0212  0.1175 -0.1579
  659TMC3     H 9810   2.746   2.649  15.021  0.5759  0.8494 -0.4464
  659TMC3    H1 9811   2.537   2.633  14.655 -1.5557 -0.9397  0.6484
  659TMC3    H2 9812   2.364   2.832  15.004 -1.0822 -0.3669 -2.4908
  659TMC3    C7 9813   2.296   2.698  14.782  0.5408  0.0620 -0.0102
  659TMC3    C8 9814   2.547   2.758  15.174  0.5901 -0.7144 -0.3365
  659TMC3    O1 9815   2.211   2.716  14.867 -1.2325 -0.0768 -0.0203
  659TMC3    O2 9816   2.486   2.853  15.221  0.6082 -0.1980  0.1192
  660MPD2     C 9817   1.318   0.682  12.753  0.1259 -0.0257  0.2456
  660MPD2    C1 9818   1.214   0.733  12.697  0.3172 -0.3197 -0.4741
  660MPD2    C2 9819   1.103   0.738  12.778  0.7337 -0.1529 -0.3745
  660MPD2    C3 9820   1.094   0.704  12.909 -0.3485  0.8380  0.2034
  660MPD2    C4 9821   1.206   0.655  12.968  0.2829 -0.1269  0.4506
  660MPD2    C5 9822   1.320   0.663  12.889 -0.2245 -0.3222  0.2692
  660MPD2     H 9823   1.012   0.775  12.732  1.7373  1.5944 -0.9433
  660MPD2    H1 9824   1.215   0.614  13.068 -1.7187  0.5405  0.9025
  660MPD2    H2 9825   1.412   0.666  12.701 -0.4822 -1.1717 -0.5249
  660MPD2    H3 9826   1.406   0.613  12.932 -1.7467 -1.7736  1.5706
  660MPD2     N 9827   0.977   0.694  12.989 -0.0054 -0.5113 -0.0379
  660MPD2    H5 9828   1.004   0.666  13.083 -0.7928  1.0325  0.6407
  660MPD2    N1 9829   1.224   0.772  12.563  0.6395  0.1273  0.8991
  660MPD2    H7 9830   1.310   0.753  12.514  0.8477 -0.6899  1.5767
  661TMC3    C1 9831   1.139   0.839  12.352 -0.3182  0.6725 -0.8584
  661TMC3    C2 9832   1.230   0.754  12.291  0.2133 -0.4912 -0.0335
  661TMC3    C3 9833   1.256   0.774  12.159 -0.0279 -0.5208  0.5581
  661TMC3    C4 9834   1.066   0.928  12.285  0.5425 -0.4276 -0.0143
  661TMC3    C5 9835   1.085   0.940  12.149  0.0776  0.3189 -0.1076
  661TMC3    C6 9836   1.187   0.868  12.080 -0.3913 -0.4975  0.0943
  661TMC3     C 9837   1.123   0.841  12.496  0.1295 -0.0012  0.6873
  661TMC3     O 9838   1.033   0.904  12.547 -0.3812 -0.4216  0.2288
  661TMC3     H 9839   1.283   0.677  12.346  0.6965  0.2174  0.4808
  661TMC3    H1 9840   1.000   1.002  12.329  0.5678 -0.3169 -0.1617
  661TMC3    H2 9841   1.191   0.881  11.972 -0.2881 -0.3289  0.1202
  661TMC3    C7 9842   0.991   0.998  12.055  0.0817  0.0211 -0.0586
  661TMC3    C8 9843   1.348   0.680  12.090  0.2318 -0.3144  0.1532
  661TMC3    O1 9844   1.037   1.050  11.953 -0.1532  0.3085 -0.2848
  661TMC3    O2 9845   1.368   0.574  12.149  0.5997 -0.2446  0.0075
  662MPD2     C 9846   1.002   1.381  17.282  0.3362 -0.5271  0.2996
  662MPD2    C1 9847   0.922   1.309  17.362  0.2915 -0.3885 -0.1627
  662MPD2    C2 9848   0.874   1.362  17.483  0.3116  0.2480  0.5488
  662MPD2    C3 9849   0.930   1.475  17.535 -0.1892  0.0492 -0.2012
  662MPD2    C4 9850   1.000   1.555  17.451 -0.4190 -0.6761 -0.2757
  662MPD2    C5 9851   1.031   1.509  17.323 -0.0044  0.4211  0.0693
  662MPD2     H 9852   0.799   1.303  17.535 -2.2474  0.9019 -2.3971
  662MPD2    H1 9853   1.028   1.656  17.482 -0.7599 -0.3794 -0.9427
  662MPD2    H2 9854   1.023   1.349  17.181  0.4418 -0.7010  0.3739
  662MPD2    H3 9855   1.092   1.572  17.259  0.7298 -1.1563 -0.7722
  662MPD2     N 9856   0.896   1.511  17.671 -0.0352  0.7332 -0.0167
  662MPD2    H5 9857   0.920   1.604  17.702  0.4430  0.1413  1.3965
  662MPD2    N1 9858   0.883   1.175  17.333 -0.1931  0.0067  0.1691
  662MPD2    H7 9859   0.830   1.125  17.404 -1.8590  1.7387  0.1485
  663TMC3    C1 9860   0.839   0.973  17.225  0.0743 -0.5222  0.3924
  663TMC3    C2 9861   0.728   0.953  17.302 -0.5067  0.5618  0.1557
  663TMC3    C3 9862   0.645   0.854  17.272 -0.2507  0.8804  0.2929
  663TMC3    C4 9863   0.873   0.886  17.128  0.1488  0.2726 -0.0416
  663TMC3    C5 9864   0.798   0.773  17.118  0.2306 -0.4853 -1.0471
  663TMC3    C6 9865   0.696   0.748  17.201 -0.0551 -0.1388  1.0399
  663TMC3     C 9866   0.904   1.104  17.220 -0.1302  0.4212  0.5430
  663TMC3     O 9867   0.979   1.119  17.126 -0.9410 -0.0771  0.0988
  663TMC3     H 9868   0.681   1.039  17.348  1.0657  1.4101  0.1693
  663TMC3    H1 9869   0.966   0.886  17.071  0.2951 -0.5515  0.1853
  663TMC3    H2 9870   0.627   0.664  17.196  0.3011 -0.4038  0.6115
  663TMC3    C7 9871   0.843   0.662  17.039 -0.3655 -0.7555  0.5977
  663TMC3    C8 9872   0.543   0.819  17.371 -0.3010 -0.4567  0.2460
  663TMC3    O1 9873   0.895   0.686  16.932 -0.0394  0.4006  0.2477
  663TMC3    O2 9874   0.443   0.764  17.329 -0.0368  0.1582 -0.0515
  664MPD2     C 9875   3.759   3.929   0.117  0.6239  0.7654  0.7787
  664MPD2    C1 9876   3.840   4.046   0.112 -0.5233  0.6531  0.1326
  664MPD2    C2 9877   3.846   4.117   0.230 -0.5132  0.5131 -0.4257
  664MPD2    C3 9878   3.792   4.069   0.346  0.0279  0.8018  0.5524
  664MPD2    C4 9879   3.725   3.947   0.350  0.0207  0.4956  0.1023
  664MPD2    C5 9880   3.715   3.877   0.235  0.5945 -0.5701 -0.2066
  664MPD2     H 9881   3.901   4.210   0.238  2.8570 -1.5636  0.9279
  664MPD2    H1 9882   3.675   3.909   0.439  0.0399 -1.2660 -0.6328
  664MPD2    H2 9883   3.739   3.872   0.028  1.2726  0.1917  1.0001
  664MPD2    H3 9884   3.659   3.784   0.231  0.6152 -0.5586 -0.7344
  664MPD2     N 9885   3.815   4.146   0.465  0.6670  1.1126  0.9142
  664MPD2    H5 9886   3.880   4.220   0.442  1.4236  0.4020  0.7746
  664MPD2    N1 9887   3.903   4.094  17.754  0.3317 -0.4104  0.0550
  664MPD2    H7 9888   3.953   4.182   0.000  0.9723 -0.8840  2.5551
  665TMC3    C1 9889   3.881   4.207   0.680 -0.5844 -0.0298  0.6578
  665TMC3    C2 9890   3.950   4.163   0.784  0.2647 -0.1727 -0.4081
  665TMC3    C3 9891   3.974   4.263   0.872  0.0813  0.5356  0.5692
  665TMC3    C4 9892   3.846   4.333   0.659  0.3537 -0.0008  0.1002
  665TMC3    C5 9893   3.879   4.434   0.743  0.0986  0.3805  0.6628
  665TMC3    C6 9894   3.950   4.390   0.853  0.5189  0.6897 -0.0937
  665TMC3     C 9895   3.809   4.107   0.599 -0.6469  0.1084 -0.7619
  665TMC3     O 9896   3.805   3.997   0.647 -0.2325  0.6543 -0.6939
  665TMC3     H 9897   3.986   4.062   0.795 -0.6434 -0.3108  1.4250
  665TMC3    H1 9898   3.774   4.353   0.580  2.6717  0.7252 -1.8041
  665TMC3    H2 9899   3.997   4.456   0.925 -0.2030 -1.1838  2.0958
  665TMC3    C7 9900   3.820   4.569   0.741  0.4661 -0.4881  0.3459
  665TMC3    C8 9901   3.971   4.242   1.017  0.0760  0.3923  0.0859
  665TMC3    O1 9902   3.758   4.611   0.645  0.3997  0.2348 -0.0347
  665TMC3    O2 9903   3.925   4.332   1.085  0.3217 -0.3962  0.3676
  666TMC3    C1 9904   3.302   3.230   9.844 -0.6585  0.6421  0.9125
  666TMC3    C2 9905   3.432   3.226   9.870 -0.0134 -0.2381  0.5125
  666TMC3    C3 9906   3.510   3.335   9.867 -0.4918  0.0967  0.3864
  666TMC3    C4 9907   3.245   3.345   9.796 -0.0285  0.8412  0.3386
  666TMC3    C5 9908   3.325   3.456   9.780  0.2241 -0.8194 -0.2031
  666TMC3    C6 9909   3.457   3.453   9.823  0.0689  0.2158 -0.7015
  666TMC3     C 9910   3.227   3.144   9.930 -0.7046  0.2030 -0.3225
  666TMC3     O 9911   3.108   3.135   9.900 -0.5833 -0.5063  0.5019
  666TMC3     H 9912   3.482   3.135   9.899  2.8125  1.6243  1.4761
  666TMC3    H1 9913   3.139   3.355   9.777 -0.2205 -1.6468  0.1295
  666TMC3    H2 9914   3.507   3.549   9.831  0.4302  0.0481 -0.9181
  666TMC3    C7 9915   3.255   3.578   9.795 -0.1041 -0.4982 -0.9191
  666TMC3    C8 9916   3.574   3.341   9.994 -0.2639 -0.1169  0.3999
  666TMC3    O1 9917   3.144   3.579   9.832  0.6297 -0.4396  0.3048
  666TMC3    O2 9918   3.550   3.264  10.083  0.0597  0.3113 -0.1287
  667MPD2     C 9919   4.722   3.820  14.765  0.3308 -0.1792  0.2910
  667MPD2    C1 9920   4.626   3.832  14.857  0.3600 -0.1123 -0.0564
  667MPD2    C2 9921   4.512   3.750  14.859  0.2453 -0.4450 -0.5317
  667MPD2    C3 9922   4.488   3.666  14.750  0.0135  0.3360  0.5751
  667MPD2    C4 9923   4.583   3.670  14.652 -0.6604 -0.7493 -0.7313
  667MPD2    C5 9924   4.697   3.741  14.656 -0.3775 -0.7555  0.5212
  667MPD2     H 9925   4.448   3.755  14.947  2.2527 -3.6412  1.1260
  667MPD2    H1 9926   4.574   3.604  14.567 -1.8813 -0.9872 -0.4113
  667MPD2    H2 9927   0.078   3.869  14.773  0.1073  0.0177  1.7866
  667MPD2    H3 9928   0.034   3.723  14.582 -0.3191 -0.4455  0.5053
  667MPD2     N 9929   4.366   3.589  14.738  0.4972 -0.1859 -0.0756
  667MPD2    H5 9930   4.355   3.537  14.652 -0.3693  0.6242 -0.4552
  667MPD2    N1 9931   4.636   3.923  14.962  0.5012  0.1373 -0.2737
  667MPD2    H7 9932   4.547   3.924  15.010  0.9153 -2.0207  0.5316
  668TMC3    C1 9933   4.720   4.095  15.108 -0.0254  0.0503  0.0575
  668TMC3    C2 9934   0.054   4.211  15.122 -0.3185  0.3513  0.0746
  668TMC3    C3 9935   0.031   4.282  15.237 -0.3484 -1.0115  0.1535
  668TMC3    C4 9936   4.637   4.047  15.201  0.0445 -0.3642  0.5659
  668TMC3    C5 9937   4.625   4.118  15.314 -0.1922 -0.0567  0.1406
  668TMC3    C6 9938   4.694   4.235  15.342  0.7122  0.0880 -0.8174
  668TMC3     C 9939   0.000   4.017  14.984  0.2136 -0.3242 -0.3565
  668TMC3     O 9940   0.108   4.030  14.930 -0.6703 -0.4804  0.2224
  668TMC3     H 9941   0.110   4.250  15.037 -0.6686 -0.1649 -0.3966
  668TMC3    H1 9942   4.594   3.948  15.198  0.8657 -0.7169  0.4024
  668TMC3    H2 9943   4.676   4.293  15.431  1.8280 -1.6753  0.5390
  668TMC3    C7 9944   4.550   4.064  15.425  0.6894  0.2505 -0.7922
  668TMC3    C8 9945   0.134   4.378  15.272  0.2574  0.4013  0.1840
  668TMC3    O1 9946   4.583   4.098  15.539  0.0488  0.1189  0.7010
  668TMC3    O2 9947   0.120   4.432  15.378 -0.0839  0.1713  0.1874
  669TMC3    C1 9948   2.726   4.005  15.030 -0.1774 -0.2803  0.3323
  669TMC3    C2 9949   2.617   4.009  14.945 -0.2515 -0.3125 -1.1844
  669TMC3    C3 9950   2.635   4.078  14.834 -0.0648 -0.3457 -0.5216
  669TMC3    C4 9951   2.844   4.068  15.012  0.3328  0.5144  0.1802
  669TMC3    C5 9952   2.853   4.138  14.896  0.3374 -0.3654 -0.5695
  669TMC3    C6 9953   2.755   4.139  14.802 -0.7618  0.3973 -0.2091
  669TMC3     C 9954   2.694   3.916  15.142 -0.1760  0.1001  0.9987
  669TMC3     O 9955   2.574   3.905  15.172 -0.8212  0.5304  0.5646
  669TMC3     H 9956   2.519   3.965  14.958 -0.1173  0.5398  2.7340
  669TMC3    H1 9957   2.913   4.055  15.094 -1.7469 -1.2794  1.6540
  669TMC3    H2 9958   2.761   4.203  14.715 -0.7168  0.5774 -0.0758
  669TMC3    C7 9959   2.973   4.204  14.872  0.3465  0.0657  0.1254
  669TMC3    C8 9960   2.530   4.058  14.735 -0.1142 -0.4956  0.3521
  669TMC3    O1 9961   3.005   4.235  14.757  0.5169 -0.4202  0.1812
  669TMC3    O2 9962   2.479   3.951  14.741 -0.9603 -1.1272  0.2931
  670MPD2     C 9963   0.974   1.474  13.308 -0.4787 -0.7155 -0.8365
  670MPD2    C1 9964   1.079   1.514  13.392  0.4428 -0.2334 -0.0311
  670MPD2    C2 9965   1.069   1.501  13.528 -0.5082 -0.2451 -0.0534
  670MPD2    C3 9966   0.961   1.444  13.592 -0.4541  0.0548  0.1617
  670MPD2    C4 9967   0.858   1.409  13.509 -0.4978 -0.4400  0.7069
  670MPD2    C5 9968   0.864   1.418  13.370 -0.1724 -0.2704 -0.3801
  670MPD2     H 9969   1.136   1.555  13.595 -1.3324  0.0671  0.5105
  670MPD2    H1 9970   0.774   1.359  13.556  0.7246 -2.5234  0.6648
  670MPD2    H2 9971   0.978   1.490  13.201 -2.4507  0.0746 -0.7915
  670MPD2    H3 9972   0.787   1.378  13.305  1.2722 -2.4216 -0.7803
  670MPD2     N 9973   0.952   1.437  13.732 -0.0185 -0.0993  0.4911
  670MPD2    H5 9974   1.026   1.481  13.786 -1.2745  0.0993  2.0735
  670MPD2    N1 9975   1.197   1.587  13.346 -0.6725  0.1629 -0.3773
  670MPD2    H7 9976   1.263   1.614  13.417 -0.5192 -1.2626  0.0343
  671TMC3    C1 9977   0.873   1.382  13.941  0.5329 -0.0569  0.0617
  671TMC3    C2 9978   0.993   1.372  14.000  0.5306 -0.1687 -0.5271
  671TMC3    C3 9979   0.999   1.375  14.138 -0.0537 -0.4485  0.3320
  671TMC3    C4 9980   0.752   1.381  14.019  0.3749  0.2568 -0.7257
  671TMC3    C5 9981   0.760   1.385  14.157  0.9639  0.2334 -0.1809
  671TMC3    C6 9982   0.888   1.384  14.213  0.4663  0.5022 -0.5906
  671TMC3     C 9983   0.853   1.377  13.802 -0.0445  0.4179  0.7988
  671TMC3     O 9984   0.762   1.301  13.772 -0.2576 -0.0190 -0.1167
  671TMC3     H 9985   1.080   1.337  13.947  0.4600 -1.2513  0.0798
  671TMC3    H1 9986   0.658   1.407  13.973  0.5302  1.0251 -0.6143
  671TMC3    H2 9987   0.894   1.417  14.316 -4.1351 -2.6210  0.6808
  671TMC3    C7 9988   0.674   1.270  14.191 -0.5605  0.4323 -1.0987
  671TMC3    C8 9989   1.098   1.289  14.204  0.2962 -0.5013  0.1465
  671TMC3    O1 9990   0.584   1.256  14.108 -0.2991  0.5721 -0.0338
  671TMC3    O2 9991   1.115   1.182  14.148  0.2474 -0.1786 -0.3367
  672MPD2     C 9992   1.171   1.821   1.233  0.5725 -0.4193  1.1492
  672MPD2    C1 9993   1.197   1.928   1.148 -0.4020  0.9750  0.2812
  672MPD2    C2 9994   1.243   2.050   1.189 -0.2619 -0.4441 -0.7654
  672MPD2    C3 9995   1.287   2.061   1.318 -0.0424 -0.3615 -0.5333
  672MPD2    C4 9996   1.261   1.962   1.406 -0.3428 -0.0652  0.1465
  672MPD2    C5 9997   1.210   1.844   1.364 -0.8221 -0.2213  0.0383
  672MPD2     H 9998   1.264   2.130   1.120  0.1963  1.7419  1.8994
  672MPD2    H1 9999   1.287   1.968   1.511  1.5478 -2.5022 -0.1708
  672MPD2    H210000   1.116   1.734   1.201 -0.1821  1.3453 -2.3370
  672MPD2    H310001   1.196   1.771   1.443  0.1705  1.6841  1.9704
  672MPD2     N10002   1.357   2.162   1.375 -0.0607 -0.0539  0.0563
  672MPD2    H510003   1.369   2.155   1.476 -3.4400  2.1857  0.6495
  672MPD2    N110004   1.180   1.921   1.000 -0.7252  0.2420  0.9928
  672MPD2    H710005   1.206   2.000   0.942  1.9617 -1.5309 -0.2611
  673TMC3    C110006   1.189   1.826   0.783  0.8541 -0.1183 -0.1655
  673TMC3    C210007   1.277   1.735   0.739 -0.0590 -0.1958 -0.7537
  673TMC3    C310008   1.316   1.744   0.607 -0.2282  0.0573 -0.1114
  673TMC3    C410009   1.136   1.927   0.706  0.4615  0.5051 -0.4585
  673TMC3    C510010   1.168   1.925   0.574 -0.4969 -0.6431  0.0838
  673TMC3    C610011   1.260   1.837   0.524  0.3914 -0.0295  0.0078
  673TMC3     C10012   1.157   1.809   0.927 -0.0540 -0.5136  0.3030
  673TMC3     O10013   1.146   1.691   0.963  0.3751 -0.5449 -0.1921
  673TMC3     H10014   1.328   1.663   0.802 -1.4621  0.0190  0.6302
  673TMC3    H110015   1.060   1.996   0.742  0.2838  1.3658 -2.4623
  673TMC3    H210016   1.288   1.849   0.421  1.0398 -0.3625  0.1502
  673TMC3    C710017   1.113   2.022   0.481  0.3518 -0.5719 -0.2850
  673TMC3    C810018   1.448   1.716   0.562 -0.5688  0.0284 -0.1711
  673TMC3    O110019   1.106   1.995   0.362 -0.0208 -0.5298 -0.6780
  673TMC3    O210020   1.471   1.730   0.444 -0.2715  0.0317  0.0328
  674MPD2     C10021   0.960   2.780  17.724 -0.0609 -1.2048  0.5508
  674MPD2    C110022   0.954   2.645  17.737 -0.7971 -0.1598  0.1045
  674MPD2    C210023   0.837   2.591   0.020 -0.5339  0.8833 -0.5388
  674MPD2    C310024   0.732   2.673   0.049 -0.8016 -0.5501  0.7269
  674MPD2    C410025   0.736   2.811   0.021  0.3669  0.5664 -0.0255
  674MPD2    C510026   0.853   2.861  17.743 -0.7236 -0.5216  0.0557
  674MPD2     H10027   0.823   2.485   0.040  1.2907  0.4525 -1.5755
  674MPD2    H110028   0.653   2.877   0.045 -0.2203  0.1066 -0.7962
  674MPD2    H210029   1.046   2.836  17.690 -1.5248  1.2536  0.8848
  674MPD2    H310030   0.863   2.968  17.730  0.4228 -0.5908  0.3644
  674MPD2     N10031   0.631   2.611   0.121 -0.5749 -0.4920  0.2937
  674MPD2    H510032   0.642   2.512   0.143 -0.9562 -0.9603 -1.6158
  674MPD2    N110033   1.071   2.568  17.724  0.4116 -0.4727 -0.7439
  674MPD2    H710034   1.159   2.602   0.004 -0.0539  1.4629 -1.4150
  675TMC3    C110035   1.190   2.375   0.009 -0.9156 -0.4204  0.5151
  675TMC3    C210036   1.193   2.244  17.726 -0.4156  0.8712 -0.2355
  675TMC3    C310037   1.229   2.155   0.072  0.4238 -0.2470 -0.4297
  675TMC3    C410038   1.228   2.416   0.135  0.0364  0.3263  0.5072
  675TMC3    C510039   1.276   2.319   0.223 -0.0442  0.0742  0.3724
  675TMC3    C610040   1.275   2.191   0.192 -0.2333  0.1433 -0.2675
  675TMC3     C10041   1.072   2.435  17.706 -0.3618  0.0076 -0.5328
  675TMC3     O10042   0.990   2.356  17.653  0.3196 -0.1487 -0.2010
  675TMC3     H10043   1.161   2.212  17.627  0.0683  0.2283 -0.1841
  675TMC3    H110044   1.192   2.513   0.166  0.5508  1.2983 -1.9023
  675TMC3    H210045   1.330   2.120   0.253 -1.6049 -0.8074 -0.1273
  675TMC3    C710046   1.343   2.362   0.345 -0.2553  0.1244 -0.2295
  675TMC3    C810047   1.254   2.017   0.025 -0.2802  0.5815 -0.0445
  675TMC3    O110048   1.384   2.269   0.414 -0.1070  0.0513  0.1165
  675TMC3    O210049   1.269   1.998  17.662  0.4409 -0.5430  0.1004
  676MPD2     C10050   3.888   4.502  11.218  0.8708 -0.6634 -0.2500
  676MPD2    C110051   3.815   4.523  11.332  0.6236 -0.4674 -0.1430
  676MPD2    C210052   3.695   4.460  11.346 -0.0689 -0.4579  0.4426
  676MPD2    C310053   3.633   4.401  11.236 -0.0779  1.0375 -0.7391
  676MPD2    C410054   3.709   4.382  11.122 -0.3835 -0.1399 -0.2491
  676MPD2    C510055   3.840   4.418  11.117  0.5226  0.9393 -0.2005
  676MPD2     H10056   3.631   4.496  11.426  0.4166 -0.1512  0.6991
  676MPD2    H110057   3.663   4.355  11.028 -0.6754  0.0683 -0.1643
  676MPD2    H210058   3.975   4.564  11.199  1.4411 -1.1679  0.7106
  676MPD2    H310059   3.903   4.405  11.030  0.3377  2.1432 -0.5180
  676MPD2     N10060   3.498   4.371  11.230  0.6195  0.3987 -0.5184
  676MPD2    H510061   3.466   4.333  11.142  0.3557  3.1326 -1.5888
  676MPD2    N110062   3.853   4.615  11.428  0.5192 -0.2737 -0.4952
  676MPD2    H710063   3.792   4.623  11.508 -0.7521 -2.7075 -1.2204
  677TMC3    C110064   3.983   0.017  11.563 -0.3006  0.6659 -0.0630
  677TMC3    C210065   3.935   4.686  11.677  0.3800 -0.8576  0.2407
  677TMC3    C310066   3.959   4.736  11.802 -0.0804  0.0641 -0.1228
  677TMC3    C410067   4.059   0.130  11.571  0.2648  0.0816  0.1775
  677TMC3    C510068   4.093   0.163  11.700  0.2214 -0.1418 -0.0482
  677TMC3    C610069   4.031   0.108  11.808  0.1867  0.0049 -0.0524
  677TMC3     C10070   3.966   4.688  11.437 -0.3782  0.0203  0.1718
  677TMC3     O10071   4.054   4.705  11.353  0.4859  0.7633  0.2284
  677TMC3     H10072   3.897   4.585  11.666 -1.4213 -0.2129  0.5573
  677TMC3    H110073   4.076   0.194  11.485 -0.7460 -0.1820 -0.2216
  677TMC3    H210074   4.062   0.136  11.908 -1.4078  3.1298 -0.4132
  677TMC3    C710075   4.198   0.256  11.727  0.2468 -0.5605 -0.4118
  677TMC3    C810076   3.999   4.646  11.899  0.0840 -0.3623  0.5132
  677TMC3    O110077   4.214   0.292  11.842 -0.2478  0.3753 -0.3308
  677TMC3    O210078   4.113   4.591  11.902  0.4718 -0.3431 -0.3176
  678MPD2     C10079   0.395   0.274   1.622  0.3383 -0.0089 -0.0219
  678MPD2    C110080   0.384   0.310   1.492  0.0983  0.0208 -0.3004
  678MPD2    C210081   0.317   0.421   1.458 -0.3856 -1.0573  0.4904
  678MPD2    C310082   0.253   0.501   1.556 -0.4300  0.3059 -0.6200
  678MPD2    C410083   0.260   0.458   1.686 -0.2603  0.2575 -0.0193
  678MPD2    C510084   0.328   0.349   1.720 -0.0393 -0.2698  0.3644
  678MPD2     H10085   0.316   0.449   1.353 -1.4102  1.8736  1.2999
  678MPD2    H110086   0.208   0.503   1.770  1.5592 -1.3589  1.9972
  678MPD2    H210087   0.448   0.191   1.668  0.2419 -0.7311 -1.2147
  678MPD2    H310088   0.332   0.310   1.821 -1.7519  0.4703  0.7078
  678MPD2     N10089   0.177   0.615   1.516  0.3664  0.0854  0.3920
  678MPD2    H510090   0.179   0.641   1.417  0.0394 -1.2122  0.0488
  678MPD2    N110091   0.445   0.234   1.396 -0.9196 -0.4431 -0.1252
  678MPD2    H710092   0.457   0.275   1.304  1.5549  3.2185  1.8581
  679TMC3    C110093   0.756   4.666   1.219  0.4646 -1.3126  0.4144
  679TMC3    C210094   0.660   4.701   1.316 -0.0325 -0.4953 -0.0463
  679TMC3    C310095   0.586   0.071   1.299  0.2915 -0.1560 -0.5288
  679TMC3    C410096   0.784   0.015   1.119  0.3229  0.4879 -0.5523
  679TMC3    C510097   0.711   0.132   1.111 -0.5797  0.2465  0.0496
  679TMC3    C610098   0.606   0.155   1.190 -0.8283  0.0677 -0.3520
  679TMC3     C10099   0.847   4.551   1.229 -0.8183  1.0467 -0.1612
  679TMC3     O10100   0.947   4.548   1.152 -0.9326 -0.6939  0.2676
  679TMC3     H10101   0.624   4.623   1.382 -2.4558 -0.4245 -1.2919
  679TMC3    H110102   0.853   4.720   1.043  0.6818 -2.3412  1.0797
  679TMC3    H210103   0.541   0.241   1.180 -1.1895 -0.2342 -0.5825
  679TMC3    C710104   0.745   0.223   1.005 -0.5117 -0.3407  0.6556
  679TMC3    C810105   0.495   0.105   1.405  0.8355 -0.0232 -0.2958
  679TMC3    O110106   0.646   0.284   0.964  0.3806  0.2763  0.0280
  679TMC3    O210107   0.493   0.037   1.506 -1.3223  0.6876  0.0835
  680MPD2     C10108   0.924   3.441  13.604 -0.2775 -0.1121 -0.1149
  680MPD2    C110109   0.973   3.387  13.720 -0.3078 -0.5370 -0.0927
  680MPD2    C210110   1.033   3.467  13.818 -0.3809 -0.1483  0.8607
  680MPD2    C310111   1.057   3.599  13.795  1.1173 -0.4806  0.2375
  680MPD2    C410112   1.010   3.652  13.682  0.0885 -0.5586  0.1773
  680MPD2    C510113   0.941   3.576  13.588  0.3560  0.1117 -0.2300
  680MPD2     H10114   1.058   3.424  13.915  1.4856 -0.3888  0.2710
  680MPD2    H110115   1.034   3.755  13.660  2.4183 -1.1113  0.0404
  680MPD2    H210116   0.882   3.381  13.524 -2.5784  1.0512  0.2150
  680MPD2    H310117   0.902   3.625  13.500 -2.4825  1.6161  1.8836
  680MPD2     N10118   1.150   3.681  13.871  0.7514 -0.1042  0.1738
  680MPD2    H510119   1.173   3.762  13.815 -1.7734  0.2750 -0.3157
  680MPD2    N110120   0.965   3.252  13.752 -0.5490 -0.0015 -0.2622
  680MPD2    H710121   1.012   3.219  13.836 -0.2907 -0.3385 -0.5420
  681TMC3    C110122   0.901   3.024  13.745 -0.2888 -0.5566  0.0696
  681TMC3    C210123   0.782   2.950  13.761  0.2725 -0.2443 -0.3749
  681TMC3    C310124   0.800   2.815  13.765 -0.0110 -0.1511  0.2300
  681TMC3    C410125   1.022   2.973  13.729  0.8706  0.7198  0.0308
  681TMC3    C510126   1.035   2.839  13.747 -0.6504 -0.1093  0.5319
  681TMC3    C610127   0.920   2.756  13.751  0.3941  0.4217  0.3759
  681TMC3     C10128   0.886   3.158  13.689  0.0313  0.2208  0.1003
  681TMC3     O10129   0.804   3.167  13.596  0.0687  0.2509  0.2813
  681TMC3     H10130   0.684   2.996  13.767 -0.1255 -1.2510  0.8708
  681TMC3    H110131   1.108   3.039  13.724  0.5509  1.2075  0.9544
  681TMC3    H210132   0.931   2.649  13.767 -2.2850  0.1145  0.0624
  681TMC3    C710133   1.164   2.787  13.750 -0.4002  0.1700  0.3400
  681TMC3    C810134   0.678   2.727  13.805 -0.2288 -0.4089  0.0871
  681TMC3    O110135   1.188   2.689  13.817  0.2260  0.1107  0.0596
  681TMC3    O210136   0.686   2.610  13.770 -0.8478 -0.3942 -0.0220
  682MPD2     C10137   2.986   4.526  10.728 -0.0392 -0.1496  0.3054
  682MPD2    C110138   2.910   4.411  10.734  0.0735 -0.5771  0.4773
  682MPD2    C210139   2.842   4.391  10.852  0.1288  0.0021  0.3910
  682MPD2    C310140   2.847   4.473  10.960 -0.0282 -0.4507 -0.0067
  682MPD2    C410141   2.925   4.590  10.942 -0.1688 -0.0575 -0.7538
  682MPD2    C510142   2.984   4.618  10.825 -0.4213  0.3295  0.0726
  682MPD2     H10143   2.791   4.297  10.872  1.6454 -1.1990 -1.2556
  682MPD2    H110144   2.952   4.655  11.024 -1.4746 -0.4559  0.0012
  682MPD2    H210145   3.052   4.539  10.643  0.7826 -0.9106  0.8199
  682MPD2    H310146   3.059   4.696  10.818 -0.8785  1.0479  3.2106
  682MPD2     N10147   2.780   4.455  11.081  0.4809  0.0093  0.0814
  682MPD2    H510148   2.802   4.514  11.161  0.5067 -2.8599  2.1855
  682MPD2    N110149   2.905   4.318  10.631 -0.0084  0.1192  0.1368
  682MPD2    H710150   2.855   4.232  10.648  0.8966 -0.9247 -2.3393
  683TMC3    C110151   2.604   4.481  11.438 -0.0327 -0.4966  0.7649
  683TMC3    C210152   2.617   4.372  11.522  0.2336  0.3964  0.1121
  683TMC3    C310153   2.641   4.248  11.466  0.6058 -0.2375 -0.3909
  683TMC3    C410154   2.632   4.475  11.303 -0.1465  0.2104 -0.3297
  683TMC3    C510155   2.666   4.354  11.251  0.1759 -0.3139 -0.2322
  683TMC3    C610156   2.667   4.239  11.326 -0.6231  1.3259  1.1545
  683TMC3     C10157   2.575   4.610  11.500  0.4439  0.5875  0.2110
  683TMC3     O10158   2.585   4.614  11.622 -0.0877  0.1740 -0.4187
  683TMC3     H10159   2.601   4.382  11.628 -0.1670  0.2758  0.0622
  683TMC3    H110160   2.623   4.562  11.238  1.0255  0.2212 -0.4806
  683TMC3    H210161   2.696   4.144  11.283  0.3542  2.0820  0.1574
  683TMC3    C710162   2.700   4.351  11.112  0.4717 -0.2769  0.9586
  683TMC3    C810163   2.615   4.123  11.539  0.0168 -0.0337  0.5403
  683TMC3    O110164   2.685   4.244  11.052 -0.2818 -0.0557 -0.0546
  683TMC3    O210165   2.573   4.026  11.477  0.0786  0.2458 -0.6664
  684MPD2     C10166   1.008   4.634  16.626 -0.7263 -0.2844  0.0188
  684MPD2    C110167   0.967   4.592  16.499  0.0521  0.7484 -0.2926
  684MPD2    C210168   0.984   4.678  16.391  0.0107 -0.5097 -0.0772
  684MPD2    C310169   1.037   0.063  16.410  0.4040 -0.3256 -0.0580
  684MPD2    C410170   1.081   0.104  16.536  1.0340 -0.2247  0.1429
  684MPD2    C510171   1.058   0.022  16.644  0.2965  0.5545  0.0484
  684MPD2     H10172   0.963   4.648  16.289 -0.4526 -0.4000 -0.0133
  684MPD2    H110173   1.115   0.203  16.563  0.9902  0.0031 -0.6320
  684MPD2    H210174   0.998   4.570  16.712  3.1969 -0.8964  0.0354
  684MPD2    H310175   1.092   0.057  16.741  1.5175  1.9823 -0.8946
  684MPD2     N10176   1.057   0.153  16.297  0.2776 -0.3320  0.0153
  684MPD2    H510177   1.113   0.237  16.306 -0.5442  0.4176 -1.9191
  684MPD2    N110178   0.934   4.456  16.476  0.3756 -0.6014 -0.7250
  684MPD2    H710179   0.905   4.429  16.382 -0.1403 -1.1925 -0.3947
  685TMC3    C110180   0.944   4.222  16.501 -0.1380 -0.2821 -0.4804
  685TMC3    C210181   0.833   4.192  16.432 -0.3115 -0.6107 -0.0401
  685TMC3    C310182   0.842   4.101  16.327  0.1778 -0.2170 -0.4863
  685TMC3    C410183   1.065   4.182  16.445  0.1333 -0.2249  0.0565
  685TMC3    C510184   1.075   4.103  16.331  0.1675  0.3798  0.5268
  685TMC3    C610185   0.956   4.049  16.277  0.2340 -0.2074  0.3868
  685TMC3     C10186   0.954   4.355  16.567 -0.2092 -0.4468 -0.1969
  685TMC3     O10187   0.986   4.354  16.685 -0.0780  0.2725  0.0596
  685TMC3     H10188   0.738   4.223  16.477  0.4082 -1.1595  1.8822
  685TMC3    H110189   1.150   4.229  16.493 -1.2955  1.3421  1.0378
  685TMC3    H210190   0.954   3.993  16.184  0.7346  0.9966 -0.3510
  685TMC3    C710191   1.196   4.106  16.254 -0.7121 -1.1827  0.0980
  685TMC3    C810192   0.726   4.043  16.277  0.5982  0.2704 -0.7571
  685TMC3    O110193   1.194   4.036  16.156 -0.2609 -0.3464  0.7335
  685TMC3    O210194   0.730   3.924  16.240 -0.3090 -0.6351 -0.0009
  686MPD2     C10195   2.514   0.209  15.919  0.7470  0.1743 -0.2456
  686MPD2    C110196   2.560   0.083  15.939 -0.7394 -0.6125 -0.0124
  686MPD2    C210197   2.655   0.022  15.862  0.3369  0.7200  0.1990
  686MPD2    C310198   2.710   0.106  15.764 -0.0349 -0.0105  0.1722
  686MPD2    C410199   2.663   0.235  15.746 -0.8104 -0.0853 -1.0636
  686MPD2    C510200   2.568   0.284  15.821 -0.3082  0.3324  0.2356
  686MPD2     H10201   2.695   4.662  15.877  0.2403  1.0180  2.4166
  686MPD2    H110202   2.705   0.288  15.661 -0.6762  0.1514 -0.8497
  686MPD2    H210203   2.420   0.235  15.966  1.8044  0.3799  1.7821
  686MPD2    H310204   2.540   0.388  15.811  0.8922  0.6478  0.1728
  686MPD2     N10205   2.815   0.062  15.678  0.4204 -0.4093 -0.2963
  686MPD2    H510206   2.863   0.140  15.636  0.9412 -2.2468 -3.1331
  686MPD2    N110207   2.491   0.021  16.043  0.0032 -0.1800 -0.4334
  686MPD2    H710208   2.415   0.066  16.093 -0.1171  1.7939 -2.4121
  687TMC3    C110209   2.802   4.554  15.692 -0.8249  0.5727 -1.0067
  687TMC3    C210210   2.672   4.543  15.653  0.0368  0.6519 -0.1066
  687TMC3    C310211   2.602   4.425  15.678  0.3810 -0.1772 -0.6174
  687TMC3    C410212   2.876   4.446  15.723  0.1070  0.2697 -0.4054
  687TMC3    C510213   2.811   4.326  15.733  0.4367 -0.0518 -0.3718
  687TMC3    C610214   2.670   4.309  15.715 -0.0088 -0.0715 -0.1970
  687TMC3     C10215   2.879   4.680  15.682  0.5338 -0.3665  0.0742
  687TMC3     O10216   3.003   4.673  15.676 -0.1054  0.2157 -0.2381
  687TMC3     H10217   2.622   4.638  15.638  0.8746  1.2988  1.2395
  687TMC3    H110218   2.979   4.463  15.752  0.0764 -0.4891  0.1506
  687TMC3    H210219   2.607   4.225  15.743  0.3679 -0.4708 -0.5709
  687TMC3    C710220   2.885   4.207  15.782 -0.4762  0.2770  0.2040
  687TMC3    C810221   2.467   4.434  15.734  0.5861  0.0368 -1.0122
  687TMC3    O110222   2.984   4.241  15.847 -0.5285 -0.1609  0.1359
  687TMC3    O210223   2.403   4.330  15.753  0.2421 -0.2519 -0.0608
  688MPD2     C10224   1.686   3.446  17.281 -0.6381  0.1185 -0.1178
  688MPD2    C110225   1.704   3.323  17.328  0.9411  0.8477 -0.5703
  688MPD2    C210226   1.813   3.245  17.289 -0.4030  0.0949 -0.1132
  688MPD2    C310227   1.911   3.301  17.211 -0.1742  0.1040 -0.5863
  688MPD2    C410228   1.900   3.430  17.166  0.3208  0.4422 -0.1541
  688MPD2    C510229   1.779   3.496  17.192  0.7258  0.2328 -0.3959
  688MPD2     H10230   1.818   3.142  17.322 -0.7436 -0.1587 -0.8654
  688MPD2    H110231   1.972   3.466  17.094  1.5661  0.6345  1.1830
  688MPD2    H210232   1.599   3.505  17.308  0.6495  2.5372 -1.2756
  688MPD2    H310233   1.762   3.593  17.146 -2.2555  0.2122  0.6709
  688MPD2     N10234   2.028   3.233  17.175  0.3037  0.5805 -0.4999
  688MPD2    H510235   2.087   3.292  17.117  0.6096  2.3671  1.6140
  688MPD2    N110236   1.623   3.272  17.432  0.3987  0.2966 -0.3547
  688MPD2    H710237   1.660   3.196  17.489  1.0757 -1.9964 -3.8656
  689TMC3    C110238   1.484   3.263  17.616 -0.6077 -0.1522 -0.4361
  689TMC3    C210239   1.386   3.328  17.687 -0.2409 -0.5138 -0.9489
  689TMC3    C310240   1.364   3.289   0.054 -0.1386  0.0874 -0.2779
  689TMC3    C410241   1.550   3.155  17.668  0.0334  0.3805  0.4154
  689TMC3    C510242   1.525   3.116   0.037  0.5488 -0.5022  0.1713
  689TMC3    C610243   1.431   3.189   0.116  0.2670 -0.6239  0.1594
  689TMC3     C10244   1.507   3.320  17.483 -0.2525  0.4956  0.4490
  689TMC3     O10245   1.447   3.424  17.449  0.3064  0.2608  0.9503
  689TMC3     H10246   1.340   3.417  17.645 -0.8273  0.6557  2.2231
  689TMC3    H110247   1.629   3.102  17.615 -1.6363 -1.2302 -0.4425
  689TMC3    H210248   1.402   3.151   0.213  0.1244 -1.5056 -0.2369
  689TMC3    C710249   1.535   2.976   0.068  0.3359  0.0230 -0.0491
  689TMC3    C810250   1.265   3.374   0.116 -0.2797 -0.1581  0.7947
  689TMC3    O110251   1.549   2.947   0.185  0.3338  0.1134  0.0847
  689TMC3    O210252   1.182   3.436   0.050 -0.2084 -0.0334  0.4329
  690MPD2     C10253   4.315   0.361  15.844  0.5135 -0.1564 -0.1840
  690MPD2    C110254   4.276   0.318  15.717 -0.1650  0.1758 -1.1910
  690MPD2    C210255   4.361   0.317  15.616 -0.8096 -0.7926  0.3930
  690MPD2    C310256   4.497   0.362  15.631  0.4739  0.0650 -0.1278
  690MPD2    C410257   4.538   0.402  15.758 -0.4344 -0.5237  0.1421
  690MPD2    C510258   4.445   0.401  15.860 -0.0578 -0.7024 -0.0794
  690MPD2     H10259   4.323   0.304  15.515 -0.8584  1.2798  0.1316
  690MPD2    H110260   4.637   0.439  15.783  0.3358 -0.6599 -2.6226
  690MPD2    H210261   4.253   0.353  15.932 -0.2530 -0.1429 -0.7299
  690MPD2    H310262   4.477   0.435  15.958  0.9857  0.2947 -0.7704
  690MPD2     N10263   4.579   0.373  15.518 -0.4812  0.6185  0.4254
  690MPD2    H510264   4.545   0.342  15.427  0.5372 -1.0403  0.6221
  690MPD2    N110265   4.144   0.272  15.691  0.4349 -0.6344 -0.0738
  690MPD2    H710266   4.120   0.245  15.596 -0.4685 -0.1127  0.0046
  691TMC3    C110267   3.936   0.175  15.754  0.3533  0.2690  0.7514
  691TMC3    C210268   3.867   0.192  15.638  0.1718 -0.2863 -0.0275
  691TMC3    C310269   3.772   0.097  15.617  0.4271  0.9560  0.8055
  691TMC3    C410270   3.906   0.087  15.855  0.1903  0.4639  0.3153
  691TMC3    C510271   3.799   4.738  15.830  0.3689  0.6933 -0.2704
  691TMC3    C610272   3.732   0.003  15.713 -0.3511  0.5636  0.0001
  691TMC3     C10273   4.045   0.261  15.785 -0.1151  0.0992  0.5703
  691TMC3     O10274   4.040   0.290  15.902 -0.0344  0.1700  0.6032
  691TMC3     H10275   3.890   0.265  15.562 -2.7313  2.7580  2.0469
  691TMC3    H110276   3.968   0.064  15.942 -0.2828 -0.6493  0.3648
  691TMC3    H210277   3.642   4.686  15.695 -0.0899  0.9570 -2.5659
  691TMC3    C710278   3.760   4.645  15.931 -0.2280  0.5137 -0.3373
  691TMC3    C810279   3.662   0.144  15.539 -0.0951 -0.4820 -0.3103
  691TMC3    O110280   3.796   4.674  16.043  0.1533  0.1783  0.6385
  691TMC3    O210281   3.631   0.083  15.440 -0.1154  0.8271 -0.7909
  692TMC3    C110282   0.187   1.124  15.878 -0.7092  0.1505 -0.2191
  692TMC3    C210283   0.230   1.225  15.790  0.6206  0.3877  0.3925
  692TMC3    C310284   0.345   1.221  15.716  0.6437 -0.0288  0.1992
  692TMC3    C410285   0.246   1.001  15.875 -0.7673 -0.2858 -0.3681
  692TMC3    C510286   0.363   0.991  15.804  0.1957 -0.0180  0.4598
  692TMC3    C610287   0.415   1.107  15.740 -0.5848  0.0426 -0.0710
  692TMC3     C10288   0.092   1.164  15.989 -0.0998 -0.5164 -0.4301
  692TMC3     O10289   0.074   1.283  16.003  0.1438 -0.0537  0.0448
  692TMC3     H10290   0.193   1.326  15.797 -0.3371  0.2094 -2.2003
  692TMC3    H110291   0.190   0.917  15.914 -0.5894 -0.1101  0.2648
  692TMC3    H210292   0.502   1.093  15.677  1.3970  0.7147  2.5169
  692TMC3    C710293   0.389   0.856  15.753 -0.0569  0.0714  0.1734
  692TMC3    C810294   0.413   1.349  15.745  0.6158 -0.4303  0.2906
  692TMC3    O110295   0.289   0.796  15.715  0.3875 -0.4531 -0.0508
  692TMC3    O210296   0.363   1.448  15.691 -0.0415  0.0192 -0.4377
  693MPD2     C10297   0.248   3.047  10.622  0.2696  0.2617  0.4739
  693MPD2    C110298   0.224   3.047  10.754 -0.1890  0.7096  0.0972
  693MPD2    C210299   0.317   2.987  10.837 -0.2989  0.7418 -0.5057
  693MPD2    C310300   0.424   2.916  10.785 -0.4335  1.1264  0.1071
  693MPD2    C410301   0.458   2.941  10.654  0.2736 -0.3137 -0.2989
  693MPD2    C510302   0.369   3.007  10.571 -0.2533  0.2599 -0.1234
  693MPD2     H10303   0.301   2.997  10.944  0.4121 -0.3327 -0.2937
  693MPD2    H110304   0.551   2.902  10.614 -0.4286 -0.3022 -1.9224
  693MPD2    H210305   0.170   3.090  10.561  1.0325  0.4160 -0.3971
  693MPD2    H310306   0.387   3.031  10.467  0.7571 -2.1913 -0.5103
  693MPD2     N10307   0.503   2.840  10.867 -0.5380  0.2049  0.3688
  693MPD2    H510308   0.587   2.797  10.830 -2.1723 -1.2645 -1.6315
  693MPD2    N110309   0.099   3.101  10.793  0.0570  0.2980 -0.1109
  693MPD2    H710310   0.038   3.138  10.720 -0.0837  2.4646  1.0983
  694TMC3    C110311   4.669   3.175  10.910 -0.3386  0.1928  0.0856
  694TMC3    C210312   4.575   3.086  10.852  0.3820  0.3343 -1.3782
  694TMC3    C310313   4.440   3.099  10.886 -0.1009 -0.5754  0.1440
  694TMC3    C410314   4.635   3.271  11.003  0.0716  0.3054 -0.6253
  694TMC3    C510315   4.507   3.277  11.039 -0.2129 -0.4886  0.0530
  694TMC3    C610316   4.408   3.191  10.981  0.2378 -0.0051  0.1709
  694TMC3     C10317   0.063   3.121  10.916  0.3588  0.4987 -0.1589
  694TMC3     O10318   0.127   3.132  11.018 -0.4476  0.3384  0.5060
  694TMC3     H10319   4.612   3.004  10.791  1.8284 -0.4490  0.5433
  694TMC3    H110320   4.711   3.332  11.050  1.3179 -0.3339 -1.8146
  694TMC3    H210321   4.304   3.218  10.993 -0.2111 -2.6895  2.0918
  694TMC3    C710322   4.460   3.378  11.126  0.8593  0.6737 -0.1466
  694TMC3    C810323   4.339   3.034  10.812  0.2017  0.1088 -0.3551
  694TMC3    O110324   4.533   3.471  11.132  0.5262  0.2760  0.2321
  694TMC3    O210325   4.227   3.055  10.846 -0.9175 -0.0326 -0.6657
  695MPD2     C10326   1.185   0.452  13.899 -0.4523  0.0422  0.0151
  695MPD2    C110327   1.121   0.512  14.005  0.3990 -0.2653  0.5625
  695MPD2    C210328   0.997   0.563  13.978  0.0628  0.2358 -0.0127
  695MPD2    C310329   0.940   0.557  13.850 -0.1381 -0.5969  0.4968
  695MPD2    C410330   1.015   0.505  13.746  0.1414  0.2244 -0.2827
  695MPD2    C510331   1.135   0.450  13.777  0.2272  0.4067  0.0747
  695MPD2     H10332   0.948   0.607  14.063 -0.2276 -1.4920  0.7173
  695MPD2    H110333   0.978   0.491  13.645  1.7162 -0.8883 -0.6980
  695MPD2    H210334   1.286   0.418  13.918 -0.8745 -1.1034  0.1913
  695MPD2    H310335   1.201   0.416  13.698 -0.7509 -0.6597 -0.3013
  695MPD2     N10336   0.807   0.600  13.841  0.3796  0.0353 -0.6362
  695MPD2    H510337   0.759   0.636  13.922  0.3316  0.9473 -1.0682
  695MPD2    N110338   1.172   0.525  14.138 -0.1725 -0.5252 -0.2871
  695MPD2    H710339   1.106   0.567  14.203  1.3937  2.6273 -0.7078
  696TMC3    C110340   0.611   0.686  13.738 -0.3589 -0.1388  0.0539
  696TMC3    C210341   0.559   0.681  13.863 -0.1822 -0.1402 -0.2928
  696TMC3    C310342   0.464   0.774  13.890  0.1318 -0.2207 -0.3646
  696TMC3    C410343   0.560   0.759  13.633 -0.2938 -0.4388 -0.1060
  696TMC3    C510344   0.454   0.837  13.666  0.0729  0.5575  0.1507
  696TMC3    C610345   0.413   0.857  13.796 -0.5450 -0.5299  0.1006
  696TMC3     C10346   0.742   0.640  13.719 -0.4734 -0.2527  0.0374
  696TMC3     O10347   0.789   0.636  13.609  0.0380 -0.0354 -0.0624
  696TMC3     H10348   0.594   0.613  13.941  1.0322  1.4712  0.5610
  696TMC3    H110349   0.592   0.739  13.531  0.4809  2.7609 -0.5060
  696TMC3    H210350   0.334   0.926  13.822 -1.1519 -1.7612  1.5554
  696TMC3    C710351   0.438   0.946  13.575  0.5532  0.1770  0.0797
  696TMC3    C810352   0.456   0.827  14.027  0.3491  0.1163 -0.4735
  696TMC3    O110353   0.458   0.920  13.458  0.0806  0.2773  0.1338
  696TMC3    O210354   0.382   0.926  14.036  0.0853 -0.5159 -0.0345
  697MPD2     C10355   0.126   2.833  15.620 -0.1716  0.1430 -0.0920
  697MPD2    C110356   0.114   2.759  15.506  0.8206 -0.3564  0.3530
  697MPD2    C210357   0.118   2.825  15.386  0.0723 -0.1377  0.1063
  697MPD2    C310358   0.104   2.963  15.374  0.1961 -0.3174  0.4404
  697MPD2    C410359   0.116   3.038  15.487  0.4887 -0.4633 -0.5098
  697MPD2    C510360   0.120   2.971  15.610  0.4985 -0.5054 -0.3323
  697MPD2     H10361   0.131   2.764  15.298  2.6248 -0.3064  0.6135
  697MPD2    H110362   0.114   3.146  15.483 -1.8011 -0.5783 -2.0165
  697MPD2    H210363   0.124   2.787  15.719 -0.5906 -3.2741 -1.6978
  697MPD2    H310364   0.130   3.032  15.699 -1.5923 -1.1201  0.3134
  697MPD2     N10365   0.100   3.012  15.238  0.2058 -0.8303  0.0133
  697MPD2    H510366   0.097   2.941  15.166  2.5643 -0.4581 -0.4313
  697MPD2    N110367   0.118   2.620  15.520 -0.1649  0.0347 -0.1112
  697MPD2    H710368   0.154   2.584  15.608  0.6660  2.6157  0.5767
  698TMC3    C110369   0.146   3.147  15.055  0.3507  1.1368  0.1374
  698TMC3    C210370   0.236   3.242  15.016 -0.7656  0.9554  0.1499
  698TMC3    C310371   0.243   3.251  14.879 -0.2375 -0.0025  0.0958
  698TMC3    C410372   0.091   3.048  14.983  0.0128  0.4153  1.4031
  698TMC3    C510373   0.099   3.071  14.844  0.5396 -0.3660  0.2669
  698TMC3    C610374   0.172   3.176  14.793  0.3262  0.2682 -0.2798
  698TMC3     C10375   0.124   3.142  15.200  0.6776  0.2137 -0.8014
  698TMC3     O10376   0.140   3.240  15.264  0.5135  0.5560 -0.5614
  698TMC3     H10377   0.279   3.323  15.074  2.2718  1.6951 -3.1496
  698TMC3    H110378   0.014   2.981  15.020 -0.4478 -0.0460 -0.3813
  698TMC3    H210379   0.179   3.194  14.686 -2.1336  0.1555 -0.4533
  698TMC3    C710380   0.040   2.982  14.740  0.4341  0.2585 -0.3575
  698TMC3    C810381   0.344   3.333  14.817 -0.5596  0.1878 -0.3248
  698TMC3    O110382   0.046   3.030  14.627 -0.4103 -0.0458  0.9398
  698TMC3    O210383   0.320   3.351  14.694  0.9106 -0.0008  0.0551
  699TMC3    C110384   0.756   0.743  13.069  0.1131  0.4593 -0.4560
  699TMC3    C210385   0.758   0.639  13.150  0.0585 -0.4782  0.1265
  699TMC3    C310386   0.649   0.618  13.232 -0.2941 -0.5491  0.9175
  699TMC3    C410387   0.645   0.818  13.050  0.2899 -0.0553 -0.2483
  699TMC3    C510388   0.542   0.800  13.132 -0.1552 -0.1216  0.0264
  699TMC3    C610389   0.539   0.694  13.217  0.6040  0.0770  0.1169
  699TMC3     C10390   0.850   0.742  12.961 -0.6331  0.0246 -0.1623
  699TMC3     O10391   0.812   0.782  12.851 -0.1209  0.3127 -0.4348
  699TMC3     H10392   0.851   0.584  13.162  1.1489  1.2294 -0.5471
  699TMC3    H110393   0.638   0.901  12.981 -0.6880 -1.9520 -2.4603
  699TMC3    H210394   0.443   0.668  13.259  0.6601  0.1029  0.2630
  699TMC3    C710395   0.420   0.878  13.126 -0.2080  0.7103  0.0061
  699TMC3    C810396   0.639   0.501  13.317 -0.0729 -0.4726  0.2910
  699TMC3    O110397   0.325   0.843  13.199 -0.2227  0.2937  0.0898
  699TMC3    O210398   0.536   0.483  13.377 -0.3438 -0.8047 -0.1750
  700TMC3    C110399   4.229   3.396   0.029 -0.0047  0.3096 -0.5664
  700TMC3    C210400   4.301   3.296  17.721 -0.0458 -0.7487  0.3769
  700TMC3    C310401   4.435   3.281   0.001  0.0875  0.2600  0.5998
  700TMC3    C410402   4.282   3.464   0.133 -0.1178  0.6569  0.1876
  700TMC3    C510403   4.416   3.450   0.158 -0.4393  0.1700 -0.7112
  700TMC3    C610404   4.500   3.356   0.098  0.1811 -0.6803  0.2628
  700TMC3     C10405   4.152   3.479  17.698 -0.2238  0.3591  0.0103
  700TMC3     O10406   4.056   3.540  17.738 -0.2087 -0.0811  0.0503
  700TMC3     H10407   4.249   3.244  17.641  3.2865 -0.7571 -1.7945
  700TMC3    H110408   4.220   3.546   0.166  0.2270  1.3024 -0.7663
  700TMC3    H210409   4.601   3.336   0.132  0.5038  1.9985  0.9226
  700TMC3    C710410   4.477   3.553   0.250  0.6850 -0.2506  0.3024
  700TMC3    C810411   4.506   3.164  17.706 -0.2631  0.4191 -0.0619
  700TMC3    O110412   4.598   3.579   0.237  0.2180  0.6810  0.2956
  700TMC3    O210413   4.627   3.155  17.733 -0.3769  0.1298  0.7998
  701TMC3    C110414   4.544   1.837  15.788  0.4132  0.3511  0.2133
  701TMC3    C210415   4.563   1.765  15.672  0.4376 -0.0567  0.1899
  701TMC3    C310416   4.631   1.830  15.571 -0.2369 -0.6572  0.2701
  701TMC3    C410417   4.594   1.964  15.801  0.0653 -0.7486  0.2025
  701TMC3    C510418   4.658   2.028  15.696  0.4098  0.4296  0.1690
  701TMC3    C610419   4.675   1.958  15.575 -0.6664 -0.2354  0.0368
  701TMC3     C10420   4.494   1.774  15.905 -0.4182  0.2876  0.9981
  701TMC3     O10421   4.455   1.841  15.997  0.2784  0.3635  0.1094
  701TMC3     H10422   4.513   1.672  15.649 -2.8153  1.7143  0.1792
  701TMC3    H110423   4.571   2.010  15.896 -0.8040  1.7432 -1.2140
  701TMC3    H210424   4.719   2.006  15.489 -0.2847 -0.7340 -0.0439
  701TMC3    C710425   4.667   2.168  15.698 -0.3978 -0.2105 -0.2054
  701TMC3    C810426   4.615   1.784  15.433  0.2595  0.3646  0.4145
  701TMC3    O110427   4.653   2.219  15.589 -0.5685 -0.5377 -0.1900
  701TMC3    O210428   4.530   1.700  15.416 -0.3038  0.0967 -0.2765
  702MPD2     C10429   3.176   3.963  10.787 -0.1341 -0.2777  0.1225
  702MPD2    C110430   3.213   4.095  10.794  0.4884 -0.0121  0.4201
  702MPD2    C210431   3.315   4.134  10.704 -0.3730 -0.0919  0.0023
  702MPD2    C310432   3.377   4.041  10.620  0.4473 -0.2188  0.0347
  702MPD2    C410433   3.333   3.907  10.611  0.4020 -0.1633 -0.2127
  702MPD2    C510434   3.221   3.878  10.691 -0.3129 -0.2140  0.3162
  702MPD2     H10435   3.348   4.238  10.705  2.7334 -1.1093  3.4677
  702MPD2    H110436   3.375   3.824  10.556  1.2822  1.1289 -1.4803
  702MPD2    H210437   3.084   3.935  10.836 -0.6694  1.4917  0.1380
  702MPD2    H310438   3.184   3.776  10.692 -0.2073 -0.2431  1.2217
  702MPD2     N10439   3.500   4.092  10.580  0.5752  0.1710 -0.0121
  702MPD2    H510440   3.513   4.189  10.606  0.0670  0.0916  0.5225
  702MPD2    N110441   3.160   4.178  10.898 -0.1730 -0.3965 -0.0802
  702MPD2    H710442   3.093   4.133  10.960 -3.2904  3.4157 -0.6943
  703TMC3    C110443   3.713   4.107  10.474 -0.5211 -0.5729 -0.0328
  703TMC3    C210444   3.713   4.245  10.494  0.1044 -0.7714 -0.3049
  703TMC3    C310445   3.829   4.312  10.472  0.6020  0.1530  0.4408
  703TMC3    C410446   3.829   4.039  10.435 -0.5116 -0.0612  0.1418
  703TMC3    C510447   3.943   4.117  10.418 -0.3338  0.5649 -0.0428
  703TMC3    C610448   3.943   4.252  10.434  0.4639 -0.4593  0.2728
  703TMC3     C10449   3.605   4.020  10.523 -0.0820 -0.2970 -0.3069
  703TMC3     O10450   3.613   3.899  10.502  0.1986 -0.7171  0.2360
  703TMC3     H10451   3.627   4.302  10.526  0.4196 -1.4103  1.6480
  703TMC3    H110452   3.832   3.931  10.427  1.2672 -0.0316  0.4252
  703TMC3    H210453   4.036   4.308  10.433 -0.6053  1.3301  0.1925
  703TMC3    C710454   4.073   4.050  10.392  0.4635  0.8708  0.1260
  703TMC3    C810455   3.844   4.457  10.490 -0.4265  0.6907  0.0678
  703TMC3    O110456   4.166   4.115  10.343 -0.3388  0.8228 -0.7313
  703TMC3    O210457   3.926   4.510  10.420  0.4075  0.6496  0.0834
  704TMC3    C110458   2.118   2.586  12.691 -0.8957 -0.3471 -0.7682
  704TMC3    C210459   2.120   2.575  12.557 -0.4281  0.1321  0.1175
  704TMC3    C310460   2.224   2.512  12.491  0.7115 -0.1075 -0.1033
  704TMC3    C410461   2.228   2.542  12.770  0.1873 -0.1703 -0.3484
  704TMC3    C510462   2.333   2.486  12.702 -0.3249  0.4217 -0.4031
  704TMC3    C610463   2.334   2.481  12.564 -1.1592  0.6291 -0.6877
  704TMC3     C10464   1.990   2.543  12.751 -0.6141 -1.0696 -0.1672
  704TMC3     O10465   1.970   2.562  12.869 -0.1332  0.1248 -0.2284
  704TMC3     H10466   2.039   2.612  12.494  1.4163  0.7804 -1.8734
  704TMC3    H110467   2.221   2.546  12.878 -1.2229  0.6898 -0.4662
  704TMC3    H210468   2.421   2.434  12.519 -0.9932  1.9999 -1.8022
  704TMC3    C710469   2.446   2.425  12.771  0.0454 -0.0395  0.0677
  704TMC3    C810470   2.209   2.485  12.355  0.1368 -0.5199  0.2861
  704TMC3    O110471   2.545   2.408  12.700 -0.0254  0.9662  0.1706
  704TMC3    O210472   2.095   2.454  12.321 -0.4037 -0.2542  0.4941
  705MPD2     C10473   0.911   0.521  16.378 -0.4394  0.3161 -0.0204
  705MPD2    C110474   0.916   0.652  16.420  0.3639  0.6686 -0.1667
  705MPD2    C210475   0.822   0.697  16.506  0.4585  0.4516  0.3834
  705MPD2    C310476   0.726   0.615  16.561  0.4963  0.2108 -0.2459
  705MPD2    C410477   0.718   0.487  16.518  0.4086 -0.8439  0.7065
  705MPD2    C510478   0.807   0.437  16.428 -0.2986  0.1293  0.8670
  705MPD2     H10479   0.830   0.800  16.539 -1.1814  0.2199  1.4634
  705MPD2    H110480   0.640   0.417  16.545 -0.7071  0.4554  0.8665
  705MPD2    H210481   0.979   0.476  16.306 -0.8425  2.8275 -1.9559
  705MPD2    H310482   0.803   0.333  16.397 -0.2808  0.2577  0.4383
  705MPD2     N10483   0.637   0.661  16.667 -0.2491  0.1915 -0.5049
  705MPD2    H510484   0.566   0.597  16.700 -0.0160 -0.0131 -0.3977
  705MPD2    N110485   1.019   0.739  16.380 -0.0574 -0.1703 -0.5319
  705MPD2    H710486   1.018   0.835  16.415 -1.5519 -0.3315 -0.1249
  706TMC3    C110487   1.445   0.895  16.343  0.9114 -0.2635 -0.3776
  706TMC3    C210488   1.391   1.022  16.384 -0.8795 -0.1544 -0.4527
  706TMC3    C310489   1.258   1.047  16.375 -1.0134 -0.0096  0.0463
  706TMC3    C410490   1.366   0.802  16.293  0.2018 -0.3412  0.2713
  706TMC3    C510491   1.229   0.822  16.313  0.2262  1.4160 -0.2269
  706TMC3    C610492   1.177   0.943  16.350  0.6806  0.0990  0.2920
  706TMC3     C10493   1.582   0.906  16.299  0.6208 -0.2403  0.2507
  706TMC3     O10494   1.660   0.964  16.378 -0.5067  0.0315  0.0707
  706TMC3     H10495   1.460   1.105  16.390 -0.9393 -0.2049  1.0671
  706TMC3    H110496   1.410   0.715  16.247 -0.4917 -0.8166  0.5104
  706TMC3    H210497   1.072   0.970  16.347  0.7005  0.1704  0.2234
  706TMC3    C710498   1.136   0.708  16.310 -0.9604 -0.1470  0.9085
  706TMC3    C810499   1.211   1.179  16.409  0.2212  0.0558 -0.5138
  706TMC3    O110500   1.179   0.600  16.269 -0.1522  0.0466  0.4711
  706TMC3    O210501   1.106   1.216  16.359 -0.6546 -0.4228 -0.3052
  707TMC3    C110502   3.144   0.523   1.075 -0.4111 -0.1610 -0.2637
  707TMC3    C210503   3.222   0.531   1.189 -0.3026  0.0115  0.7295
  707TMC3    C310504   3.217   0.419   1.269  0.2472 -0.0177  0.5691
  707TMC3    C410505   3.073   0.411   1.038 -0.1056  0.3908 -0.3526
  707TMC3    C510506   3.062   0.310   1.128 -0.8013  0.2075 -0.0503
  707TMC3    C610507   3.140   0.305   1.239 -0.0617  0.4310 -0.1797
  707TMC3     C10508   3.176   0.621   0.976 -0.0352  0.0037 -0.3975
  707TMC3     O10509   3.182   0.738   1.012 -0.0159 -0.6516  0.1093
  707TMC3     H10510   3.273   0.625   1.205 -1.6194  0.7661  0.4552
  707TMC3    H110511   3.023   0.394   0.943  0.3543 -1.0194 -0.3469
  707TMC3    H210512   3.122   0.213   1.293  2.8366 -0.8783 -1.4163
  707TMC3    C710513   3.007   0.187   1.069  0.0425  0.5246  0.1885
  707TMC3    C810514   3.274   0.428   1.399 -0.7543  0.8767 -0.2701
  707TMC3    O110515   3.084   0.093   1.079 -0.7393 -0.2987 -0.6931
  707TMC3    O210516   3.304   0.534   1.448 -0.0754  0.1451 -0.1055
  708MPD2     C10517   4.281   3.773  14.118  0.6313 -0.3043  0.6421
  708MPD2    C110518   4.300   3.907  14.155 -0.0848 -0.3745  1.1632
  708MPD2    C210519   4.428   3.930  14.207 -0.4714  0.1196  0.1843
  708MPD2    C310520   4.519   3.825  14.234  0.6260  0.2170  0.5556
  708MPD2    C410521   4.489   3.698  14.193 -0.1191 -0.3603 -0.1774
  708MPD2    C510522   4.373   3.675  14.130  0.0270 -0.9112  0.2247
  708MPD2     H10523   4.455   4.032  14.233 -0.2814  0.1746 -0.2361
  708MPD2    H110524   4.554   3.616  14.222  1.6281  0.5581 -1.5323
  708MPD2    H210525   4.178   3.754  14.088  0.8130 -2.2085  1.2686
  708MPD2    H310526   4.350   3.571  14.115  2.9821 -1.6488  0.8639
  708MPD2     N10527   4.645   3.833  14.301 -0.1836  0.1500 -0.3538
  708MPD2    H510528   4.711   3.756  14.303  0.6016  0.8320  0.2189
  708MPD2    N110529   4.196   3.999  14.149 -0.6414 -0.2915  0.1170
  708MPD2    H710530   4.108   3.982  14.102 -1.2842  0.5822  1.0179
  709TMC3    C110531   4.075   4.203  14.181  0.5970  0.4220 -0.1004
  709TMC3    C210532   3.996   4.146  14.087 -0.2145  0.9323  0.3381
  709TMC3    C310533   3.860   4.157  14.097 -0.4245  0.3151 -0.3918
  709TMC3    C410534   4.021   4.273  14.289 -0.4107  0.9254 -0.0713
  709TMC3    C510535   3.888   4.258  14.310  0.9298  0.4400  0.3729
  709TMC3    C610536   3.805   4.199  14.220  0.3202 -0.5228 -0.2142
  709TMC3     C10537   4.197   4.128  14.210 -0.4905  0.0437 -0.0070
  709TMC3     O10538   4.280   4.184  14.281 -0.0964 -0.0214  0.4546
  709TMC3     H10539   4.045   4.112  13.996 -0.7471  0.4526  0.2315
  709TMC3    H110540   4.091   4.300  14.367  0.2616  0.2394 -0.4389
  709TMC3    H210541   3.698   4.184  14.235 -0.1951  0.5416 -2.9145
  709TMC3    C710542   3.859   4.230  14.443  0.7489 -0.5912  0.6278
  709TMC3    C810543   3.770   4.127  13.980 -0.2018 -0.7986  0.2715
  709TMC3    O110544   3.926   4.289  14.526 -0.1309  0.3167 -0.0983
  709TMC3    O210545   3.652   4.122  14.000 -0.5907  0.1696 -0.1773
  710TMC3    C110546   0.534   0.934   0.609  0.2365  0.1578  0.3714
  710TMC3    C210547   0.546   0.936   0.475  0.1636 -0.2292 -0.4341
  710TMC3    C310548   0.640   0.857   0.410 -0.6653 -0.3610  0.0019
  710TMC3    C410549   0.610   0.843   0.678 -0.1295  0.0479  1.1742
  710TMC3    C510550   0.697   0.757   0.604 -0.5781 -0.0990  0.6485
  710TMC3    C610551   0.728   0.769   0.469 -0.3990  0.2326  0.1551
  710TMC3     C10552   0.424   1.007   0.666  0.1473  0.3917 -0.4149
  710TMC3     O10553   0.349   1.055   0.584  0.0316  0.1466  0.8633
  710TMC3     H10554   0.487   1.004   0.415 -0.0046 -0.2926 -0.3414
  710TMC3    H110555   0.593   0.830   0.784  0.9995 -1.2450  1.1991
  710TMC3    H210556   0.791   0.702   0.412 -1.2192  0.3906 -0.9218
  710TMC3    C710557   0.738   0.641   0.683 -0.0199  0.7530 -0.2453
  710TMC3    C810558   0.630   0.848   0.266  0.4664  0.1661 -0.4093
  710TMC3    O110559   0.670   0.610   0.782 -0.2548  0.5734  0.1066
  710TMC3    O210560   0.737   0.846   0.206  0.4769 -0.4357  0.8568
  711TMC3    C110561   0.455   1.506  15.197  0.3013 -0.2009 -0.0375
  711TMC3    C210562   0.514   1.618  15.239 -1.2512  0.3306  0.1773
  711TMC3    C310563   0.573   1.614  15.361 -0.1286 -0.4431  0.0298
  711TMC3    C410564   0.446   1.396  15.266  0.1268  0.6995 -0.1837
  711TMC3    C510565   0.498   1.391  15.392  0.4812 -0.6109  0.2339
  711TMC3    C610566   0.560   1.504  15.446  0.1760 -0.7908  0.5913
  711TMC3     C10567   0.377   1.517  15.077  0.1695  0.0919  0.0223
  711TMC3     O10568   0.286   1.437  15.066  0.0937  0.7394 -0.2041
  711TMC3     H10569   0.501   1.713  15.187  0.3197 -0.9839 -2.6108
  711TMC3    H110570   0.403   1.311  15.215  1.1231  0.1416 -0.0841
  711TMC3    H210571   0.601   1.499  15.546  0.7672 -0.1444  0.3816
  711TMC3    C710572   0.561   1.271  15.440 -0.3610  0.1161  0.4272
  711TMC3    C810573   0.592   1.739  15.424 -0.6161 -0.1336  0.2611
  711TMC3    O110574   0.644   1.275  15.530  0.1907  0.0387 -0.4054
  711TMC3    O210575   0.537   1.835  15.370  0.3131 -0.3064  0.3957
  712MPD2     C10576   1.920   2.238  14.117  0.0844  0.4666  0.0708
  712MPD2    C110577   1.857   2.306  14.010  0.8932  0.4349  0.2788
  712MPD2    C210578   1.895   2.433  13.986 -0.7467  0.8903  0.1210
  712MPD2    C310579   1.989   2.498  14.065  0.2134  0.0355  0.0575
  712MPD2    C410580   2.047   2.436  14.163  0.8205 -0.2265  0.2923
  712MPD2    C510581   2.020   2.302  14.186 -0.4836  0.3419 -0.0787
  712MPD2     H10582   1.858   2.485  13.898  0.9129  0.0231 -1.1047
  712MPD2    H110583   2.120   2.477  14.233 -0.5349 -0.1090  1.6406
  712MPD2    H210584   1.896   2.135  14.137 -0.5169  0.6204  0.1247
  712MPD2    H310585   2.082   2.250  14.258  2.4146  1.1505 -1.9921
  712MPD2     N10586   2.021   2.638  14.054 -0.7923 -0.1218 -0.2663
  712MPD2    H510587   2.089   2.674  14.120 -0.2679 -1.3857 -0.1183
  712MPD2    N110588   1.754   2.251  13.931 -0.2685 -1.2033 -0.3993
  712MPD2    H710589   1.721   2.302  13.849  0.4534 -1.1666 -0.6693
  713TMC3    C110590   2.005   2.869  13.992 -0.6487 -0.3172  0.1250
  713TMC3    C210591   2.115   2.894  14.066 -0.5685 -0.3320  0.3903
  713TMC3    C310592   2.133   3.012  14.136  0.0974 -0.0570  0.4037
  713TMC3    C410593   1.904   2.959  14.002 -0.1634  0.1057 -0.5251
  713TMC3    C510594   1.925   3.085  14.058  0.1125  0.0114  0.1207
  713TMC3    C610595   2.039   3.106  14.131  0.3913  1.0160  0.5546
  713TMC3     C10596   1.958   2.731  13.967 -0.1642 -0.0214 -0.2738
  713TMC3     O10597   1.864   2.701  13.895  0.1985  0.0538 -0.9288
  713TMC3     H10598   2.197   2.825  14.049 -0.1936  0.8679 -2.7042
  713TMC3    H110599   1.810   2.921  13.965 -1.4347  0.0745  2.7044
  713TMC3    H210600   2.059   3.197  14.187  0.1404  0.9755  0.7115
  713TMC3    C710601   1.817   3.183  14.051 -0.0389  0.1116  0.1832
  713TMC3    C810602   2.259   3.080  14.126  0.7600 -0.8414 -0.0575
  713TMC3    O110603   1.834   3.270  14.138  0.4194 -0.6654 -0.4383
  713TMC3    O210604   2.268   3.198  14.098 -1.3452  0.2515  0.0016
  714MPD2     C10605   4.329   2.114   1.932 -0.1702  0.2484  0.5093
  714MPD2    C110606   4.339   2.054   1.812 -0.4752  0.2729 -0.6846
  714MPD2    C210607   4.239   2.073   1.716  0.0667 -0.2711 -0.3375
  714MPD2    C310608   4.147   2.176   1.729 -0.2228 -0.0716  0.4094
  714MPD2    C410609   4.154   2.253   1.839  0.1012 -0.4226 -0.1149
  714MPD2    C510610   4.237   2.215   1.945  0.1618 -0.0638  0.7673
  714MPD2     H10611   4.238   2.019   1.622  0.1649  0.4335 -0.7413
  714MPD2    H110612   4.079   2.328   1.862 -1.0996 -1.8360  0.5807
  714MPD2    H210613   4.399   2.100   2.014 -0.3993  1.5345  0.9277
  714MPD2    H310614   4.233   2.280   2.032  1.0956  3.8556 -2.1266
  714MPD2     N10615   4.066   2.198   1.622 -0.3304  0.3924 -0.5490
  714MPD2    H510616   4.066   2.125   1.552 -1.5270  0.7576 -0.9117
  714MPD2    N110617   4.442   1.951   1.809 -0.4727  0.1693  0.6142
  714MPD2    H710618   4.483   1.938   1.901  0.3675 -0.7857  0.0973
  715TMC3    C110619   4.573   1.762   1.754  0.1694 -0.8499  0.1395
  715TMC3    C210620   4.594   1.659   1.670 -0.3561  0.6063  0.0224
  715TMC3    C310621   4.684   1.565   1.713  0.2882  0.5596 -0.3595
  715TMC3    C410622   4.639   1.782   1.873  0.6318  0.0843 -0.6648
  715TMC3    C510623   4.733   1.688   1.911  0.2689 -0.1946  0.2259
  715TMC3    C610624   0.006   1.578   1.835 -0.1713 -0.8278 -0.2090
  715TMC3     C10625   4.486   1.871   1.701 -0.3733  0.9902  0.4969
  715TMC3     O10626   4.454   1.873   1.586  0.2551 -0.4939 -0.1298
  715TMC3     H10627   4.559   1.654   1.568 -1.7372  1.4292  0.4623
  715TMC3    H110628   4.640   1.877   1.926 -0.2827 -0.0585 -0.3926
  715TMC3    H210629   0.090   1.515   1.863  0.9426 -0.4337 -2.6939
  715TMC3    C710630   0.074   1.696   2.034 -0.4502  0.7127  0.0743
  715TMC3    C810631   4.713   1.453   1.628  0.1633  1.5411 -0.4449
  715TMC3    O110632   0.176   1.622   2.036 -0.3258 -0.2192 -0.2054
  715TMC3    O210633   4.647   1.457   1.523  0.2943 -0.0900 -0.4666
  716MPD2     C10634   4.336   3.674  10.133  1.5525  0.4325  0.0008
  716MPD2    C110635   4.226   3.697  10.053 -0.0443  0.1247  0.1420
  716MPD2    C210636   4.174   3.585  10.001  0.0936 -0.4169 -0.0037
  716MPD2    C310637   4.235   3.459  10.014  0.3598  0.2979 -0.5169
  716MPD2    C410638   4.334   3.445  10.110 -0.1978  0.0442 -0.1811
  716MPD2    C510639   4.384   3.554  10.169 -0.0865 -0.0783  0.2994
  716MPD2     H10640   4.090   3.568   9.935  0.3974 -0.8397 -0.2781
  716MPD2    H110641   4.382   3.348  10.125  2.3324  1.2139 -0.8267
  716MPD2    H210642   4.388   3.761  10.173  3.1228 -0.8469  0.7682
  716MPD2    H310643   4.467   3.539  10.237  0.6153  1.9403 -0.1195
  716MPD2     N10644   4.187   3.357   9.930  0.7958 -0.4972 -0.0461
  716MPD2    H510645   4.120   3.395   9.863  0.7443 -0.2953  0.1188
  716MPD2    N110646   4.170   3.829  10.035 -0.0482 -0.4573  0.3502
  716MPD2    H710647   4.224   3.906  10.074 -0.9159 -0.2287  1.1142
  717TMC3    C110648   4.215   3.156   9.802  0.3701  0.2929 -0.7296
  717TMC3    C210649   4.136   3.213   9.709  0.5930  0.1068 -0.0588
  717TMC3    C310650   4.089   3.135   9.607 -0.4167  0.4546 -0.0442
  717TMC3    C410651   4.214   3.023   9.820  0.3588 -0.6544 -0.6517
  717TMC3    C510652   4.159   2.944   9.723 -0.7119 -0.0379  1.2249
  717TMC3    C610653   4.096   2.995   9.613  0.1332  0.6909  0.2278
  717TMC3     C10654   4.237   3.226   9.927 -0.0897 -0.2469  0.1878
  717TMC3     O10655   4.291   3.167  10.018 -0.3636  0.3139 -0.3368
  717TMC3     H10656   4.133   3.319   9.686  0.7814  0.2178  0.4382
  717TMC3    H110657   4.278   2.967   9.887 -0.6803  1.3073  1.9569
  717TMC3    H210658   4.058   2.927   9.537  1.0406 -0.8476  1.1419
  717TMC3    C710659   4.173   2.803   9.739  0.1632 -0.1119 -0.3644
  717TMC3    C810660   4.008   3.192   9.504  0.4267 -0.1856 -0.4251
  717TMC3    O110661   4.189   2.759   9.852 -0.2296 -0.3031 -0.1404
  717TMC3    O210662   4.026   3.311   9.486 -0.2158 -0.0200  0.2018
  718MPD2     C10663   3.304   3.047  13.064 -0.0104 -0.5692  0.3539
  718MPD2    C110664   3.327   2.913  13.087  0.0674  0.1901  0.1741
  718MPD2    C210665   3.339   2.876  13.215  0.5843  0.0895 -0.1568
  718MPD2    C310666   3.328   2.960  13.326 -0.4334 -0.5169  0.4335
  718MPD2    C410667   3.309   3.091  13.292  0.1812  0.0056 -0.2468
  718MPD2    C510668   3.305   3.138  13.169  0.3467 -0.5533  0.5432
  718MPD2     H10669   3.345   2.770  13.236  1.6561 -0.0529 -1.1654
  718MPD2    H110670   3.301   3.168  13.368  0.9169 -1.1671  1.0204
  718MPD2    H210671   3.297   3.077  12.960 -2.7816 -0.7983  0.4643
  718MPD2    H310672   3.293   3.244  13.149 -1.8660 -0.9491 -0.2382
  718MPD2     N10673   3.328   2.915  13.461 -0.4185 -0.3710 -0.1910
  718MPD2    H510674   3.297   2.982  13.529 -0.9564  0.8197 -1.6207
  718MPD2    N110675   3.354   2.824  12.975 -0.7438  0.3510 -0.3632
  718MPD2    H710676   3.359   2.861  12.881  1.7746 -3.0296 -1.5567
  719TMC3    C110677   3.377   2.619  12.866  0.2679  0.2407 -0.5858
  719TMC3    C210678   3.359   2.486  12.888  0.1052  0.3652 -0.1077
  719TMC3    C310679   3.468   2.411  12.876  0.1327 -0.3068  1.6551
  719TMC3    C410680   3.491   2.669  12.802  0.2261  0.5415  0.5518
  719TMC3    C510681   3.586   2.578  12.770 -0.0056  0.0782  0.1963
  719TMC3    C610682   3.580   2.448  12.819 -0.1145 -0.5286  0.4881
  719TMC3     C10683   3.350   2.687  12.987  1.0032  0.9554  0.1491
  719TMC3     O10684   3.336   2.621  13.089  0.1899  0.4471  0.8137
  719TMC3     H10685   3.271   2.445  12.937  0.9038 -1.1540  0.0378
  719TMC3    H110686   3.502   2.773  12.775  1.0221  1.0139  2.7575
  719TMC3    H210687   3.662   2.377  12.817 -1.3456 -1.9464  0.6679
  719TMC3    C710688   3.703   2.625  12.707  1.0068  0.0597 -0.6192
  719TMC3    C810689   3.483   2.313  12.987  0.8916  0.0759  0.2515
  719TMC3    O110690   3.720   2.745  12.710  0.2264  0.2536  0.5728
  719TMC3    O210691   3.524   2.197  12.969 -0.5437  0.0388 -0.3526
  720MPD2     C10692   1.703   4.520  14.440 -0.5137  0.0714 -0.2330
  720MPD2    C110693   1.788   4.563  14.339 -0.3010  0.4473 -0.0274
  720MPD2    C210694   1.919   4.594  14.373 -0.0690 -0.1665 -0.1566
  720MPD2    C310695   1.958   4.582  14.509 -0.3330  0.4317 -0.7005
  720MPD2    C410696   1.868   4.536  14.600 -0.6435 -0.4314 -0.2878
  720MPD2    C510697   1.744   4.503  14.571  0.5105  0.5870 -0.4705
  720MPD2     H10698   1.991   4.640  14.306  0.7929 -1.0971  0.1314
  720MPD2    H110699   1.902   4.500  14.696 -2.2712 -1.1394  0.0181
  720MPD2    H210700   1.598   4.498  14.421 -0.8431 -0.9085  2.8106
  720MPD2    H310701   1.674   4.470  14.646  0.4891  1.1834 -0.2271
  720MPD2     N10702   2.086   4.624  14.549 -0.8490 -0.2699 -0.3823
  720MPD2    H510703   2.142   4.656  14.470 -2.2123 -1.2383 -1.7362
  720MPD2    N110704   1.757   4.597  14.203 -0.3404  0.5245 -0.4405
  720MPD2    H710705   1.826   4.638  14.141  3.3769 -2.3827  1.7062
  721TMC3    C110706   2.251   4.717  14.686 -0.1930  0.8020  0.0282
  721TMC3    C210707   2.267   0.066  14.788 -0.5988 -0.1190 -0.7178
  721TMC3    C310708   2.369   0.157  14.782 -0.3023  0.4869  0.4474
  721TMC3    C410709   2.346   4.707  14.588  0.0240 -0.8537 -0.3657
  721TMC3    C510710   2.445   0.060  14.584  0.2324 -0.5909  0.1180
  721TMC3    C610711   2.460   0.154  14.678  0.5459 -0.2400  0.4119
  721TMC3     C10712   2.124   4.650  14.678  0.0904  0.9224 -0.6582
  721TMC3     O10713   2.061   4.649  14.788  0.3144  0.7083  0.5556
  721TMC3     H10714   2.203   0.053  14.875  2.7030 -1.5324  1.4706
  721TMC3    H110715   2.343   4.626  14.516  2.0758 -0.9642 -0.3049
  721TMC3    H210716   2.544   0.224  14.675 -0.8654  1.4926  1.5056
  721TMC3    C710717   2.575   4.734  14.565  0.0924 -0.4218  0.1130
  721TMC3    C810718   2.442   0.175  14.907 -0.4843  0.4334 -0.6330
  721TMC3    O110719   2.591   4.658  14.468  0.3706 -0.2415  0.2610
  721TMC3    O210720   2.557   0.135  14.918  0.0218  0.8936  0.0449
  722MPD2     C10721   0.906   2.873  13.337 -0.9102 -0.1676  0.2980
  722MPD2    C110722   0.884   3.002  13.299  0.7031  0.0429 -0.4666
  722MPD2    C210723   0.761   3.030  13.248  0.5570 -0.4599  0.2778
  722MPD2    C310724   0.688   2.931  13.196  0.1273 -0.4375 -0.6736
  722MPD2    C410725   0.717   2.794  13.234 -0.5555  0.1801 -0.4793
  722MPD2    C510726   0.825   2.765  13.316  0.2150 -0.2151  0.4651
  722MPD2     H10727   0.738   3.129  13.211  0.5775 -1.5287 -2.5905
  722MPD2    H110728   0.645   2.718  13.208  0.3255 -1.2562  1.2642
  722MPD2    H210729   0.994   2.855  13.399 -0.5829  2.3842  0.5705
  722MPD2    H310730   0.858   2.672  13.361  1.9743 -0.6154 -1.6401
  722MPD2     N10731   0.578   2.966  13.126  0.1103 -0.6918 -0.2399
  722MPD2    H510732   0.567   3.066  13.115 -0.6369 -0.8384 -0.8652
  722MPD2    N110733   0.968   3.111  13.330 -0.3069  0.1348 -0.1201
  722MPD2    H710734   0.935   3.204  13.309 -2.2621 -0.6347 -0.4081
  723TMC3    C110735   0.365   2.955  13.026  0.6633 -0.3734  0.0163
  723TMC3    C210736   0.260   2.872  12.986 -0.0601  0.2592  0.3156
  723TMC3    C310737   0.133   2.926  12.963  0.1809 -0.2983 -0.6776
  723TMC3    C410738   0.340   3.087  13.066 -0.4321 -0.0195 -0.3929
  723TMC3    C510739   0.210   3.131  13.048 -0.2196 -0.6404  0.0376
  723TMC3    C610740   0.108   3.057  12.991  0.9180  0.8192 -0.5680
  723TMC3     C10741   0.489   2.884  13.061  0.4182  0.2173 -0.2143
  723TMC3     O10742   0.480   2.759  13.056 -0.3444 -0.6023  0.7984
  723TMC3     H10743   0.269   2.767  12.963  0.8982  0.3521  0.2853
  723TMC3    H110744   0.419   3.154  13.096 -0.0169  0.4140 -2.4605
  723TMC3    H210745   0.003   3.085  12.992  1.0535  1.2983 -0.0250
  723TMC3    C710746   0.179   3.256  13.116 -0.0802 -0.5120 -0.2395
  723TMC3    C810747   0.025   2.823  12.959 -0.0717  0.8378  0.0135
  723TMC3    O110748   0.260   3.296  13.201 -0.3170  0.6440 -0.0395
  723TMC3    O210749   4.663   2.839  13.028  0.0759 -0.0403  0.0673
  724TMC3    C110750   1.211   0.476  10.137  0.2322  0.4952  0.0521
  724TMC3    C210751   1.279   0.515  10.024 -0.0549 -0.8055 -0.5626
  724TMC3    C310752   1.330   0.639  10.015 -0.5352  0.5334 -0.1440
  724TMC3    C410753   1.188   0.565  10.240  0.5193  0.3940 -0.0654
  724TMC3    C510754   1.229   0.691  10.217 -1.2272 -0.2597 -0.4895
  724TMC3    C610755   1.297   0.736  10.107 -0.0796 -0.1321  0.0123
  724TMC3     C10756   1.186   0.334  10.162 -0.0387  0.5005  0.1107
  724TMC3     O10757   1.137   0.309  10.269 -0.1085  0.0725 -0.3423
  724TMC3     H10758   1.301   0.445   9.944  2.9741 -0.5972  0.0968
  724TMC3    H110759   1.120   0.531  10.318  0.0372 -0.9886 -1.0712
  724TMC3    H210760   1.328   0.839  10.091  3.1547 -1.2274 -0.8100
  724TMC3    C710761   1.248   0.768  10.335  0.2369  0.6122 -0.0981
  724TMC3    C810762   1.378   0.674   9.886 -0.4858 -0.2662 -0.9958
  724TMC3    O110763   1.332   0.863  10.338  0.5150 -0.1069 -0.8343
  724TMC3    O210764   1.332   0.612   9.791 -0.0906  0.1519 -0.5491
  725TMC3    C110765   2.350   0.351  13.344  0.2290 -0.1103  1.0242
  725TMC3    C210766   2.269   0.270  13.268  0.1082 -0.4140 -0.4260
  725TMC3    C310767   2.322   0.147  13.239  0.2308  0.2239 -0.5549
  725TMC3    C410768   2.473   0.306  13.389 -0.1980  0.6408  0.3414
  725TMC3    C510769   2.525   0.184  13.355  0.1906  0.0109 -0.2568
  725TMC3    C610770   2.450   0.102  13.276 -0.0757  0.0023  0.3084
  725TMC3     C10771   2.375   0.486  13.299  0.3770  0.1173  0.0282
  725TMC3     O10772   2.487   0.502  13.251 -0.6265 -0.2137  0.2552
  725TMC3     H10773   2.174   0.303  13.226 -0.0262 -2.1819 -1.4881
  725TMC3    H110774   2.542   0.377  13.434  2.4411 -1.7804  0.0895
  725TMC3    H210775   2.494   0.028  13.209 -2.5474 -0.6523 -0.5983
  725TMC3    C710776   2.672   0.194  13.313  0.7164  0.5123  0.3251
  725TMC3    C810777   2.270   0.078  13.124 -0.3477  0.4831 -0.7932
  725TMC3    O110778   2.694   0.168  13.199  0.1265 -0.7587 -0.6906
  725TMC3    O210779   2.280   4.696  13.104  0.3689  1.0728 -0.5851
  726MPD2     C10780   0.592   1.149   9.882 -0.2678 -0.2333 -0.2787
  726MPD2    C110781   0.458   1.157   9.845 -0.7788 -0.0885 -0.3702
  726MPD2    C210782   0.389   1.034   9.847  0.4484 -0.1094  0.8654
  726MPD2    C310783   0.443   0.927   9.916  0.4183 -0.1905 -0.3757
  726MPD2    C410784   0.575   0.928   9.963 -0.1460  0.4878 -1.1089
  726MPD2    C510785   0.648   1.041   9.948  0.0340  0.3155  0.2751
  726MPD2     H10786   0.284   1.025   9.822  0.5932 -0.7822  0.5033
  726MPD2    H110787   0.621   0.840  10.004 -3.0492 -1.1283 -1.2841
  726MPD2    H210788   0.648   1.241   9.887  0.4964 -0.7980  1.7373
  726MPD2    H310789   0.750   1.037   9.985 -0.3462 -1.2911  1.1591
  726MPD2     N10790   0.375   0.803   9.939 -0.2544  0.3216 -0.2210
  726MPD2    H510791   0.424   0.739  10.002 -0.1757 -0.0298 -0.6407
  726MPD2    N110792   0.393   1.284   9.811  0.3669  0.0313 -0.3759
  726MPD2    H710793   0.301   1.272   9.770 -0.0697  1.4888  0.2033
  727TMC3    C110794   0.339   1.525   9.818 -0.1577 -0.3117 -0.1485
  727TMC3    C210795   0.363   1.645   9.881 -0.5335 -0.0832  0.2969
  727TMC3    C310796   0.256   1.728   9.916 -0.2799  0.2050 -0.7825
  727TMC3    C410797   0.213   1.504   9.772 -0.2531  0.4446 -0.5803
  727TMC3    C510798   0.115   1.601   9.793 -0.1250  0.2364  0.4233
  727TMC3    C610799   0.133   1.713   9.868  0.2455  0.5368  0.1100
  727TMC3     C10800   0.443   1.418   9.822 -0.7632  0.4736 -0.2562
  727TMC3     O10801   0.549   1.453   9.869  0.2485 -0.4978  0.5709
  727TMC3     H10802   0.460   1.650   9.930 -0.0890 -0.9622 -0.4894
  727TMC3    H110803   0.199   1.426   9.699  0.2221  2.0422 -2.3824
  727TMC3    H210804   0.051   1.780   9.888  0.3960  0.6380  0.3848
  727TMC3    C710805   4.728   1.606   9.715  0.4334 -0.7138  0.3603
  727TMC3    C810806   0.281   1.823  10.019  0.1602  0.3747  0.3649
  727TMC3    O110807   4.673   1.713   9.714  0.0895  0.3152 -0.0514
  727TMC3    O210808   0.400   1.828  10.053  0.8385  0.6585  0.3188
  728TMC3    C110809   0.026   0.418  15.385 -0.1538 -0.7950 -0.3389
  728TMC3    C210810   0.158   0.402  15.365 -0.0298  0.0705 -1.0395
  728TMC3    C310811   0.204   0.434  15.241  0.3306  0.2597 -0.0334
  728TMC3    C410812   4.683   0.484  15.301 -0.1478 -0.3044  0.1438
  728TMC3    C510813   4.738   0.528  15.189 -0.0116  0.5029  0.0577
  728TMC3    C610814   0.131   0.491  15.146  0.0134  0.3492 -0.4715
  728TMC3     C10815   4.710   0.411  15.519 -0.4046 -0.1671 -0.0502
  728TMC3     O10816   0.045   0.436  15.611  0.0855  0.1940 -1.0797
  728TMC3     H10817   0.216   0.358  15.445 -1.6680 -0.0626  0.0903
  728TMC3    H110818   4.583   0.514  15.329  0.3987 -0.2778  2.0098
  728TMC3    H210819   0.159   0.486  15.041 -0.9663 -0.2201 -0.7048
  728TMC3    C710820   4.644   0.561  15.087 -0.5377 -0.9651 -0.2309
  728TMC3    C810821   0.353   0.432  15.233  0.0089 -0.9088 -0.8615
  728TMC3    O110822   4.529   0.565  15.126 -0.0241  0.4497 -0.1344
  728TMC3    O210823   0.415   0.350  15.298  0.0194 -0.3258 -0.1439
  729MPD2     C10824   1.831   1.534  16.771 -0.4028 -0.2178 -0.0787
  729MPD2    C110825   1.958   1.568  16.814 -0.2546  0.0976 -0.7382
  729MPD2    C210826   1.981   1.569  16.950  0.0130 -0.1733 -0.1759
  729MPD2    C310827   1.882   1.530  17.042  0.0209  0.4438 -0.2780
  729MPD2    C410828   1.760   1.489  17.002 -0.5947 -1.0030 -0.1780
  729MPD2    C510829   1.740   1.490  16.867  0.4931 -0.0984 -0.0668
  729MPD2     H10830   2.080   1.603  16.979  0.2229 -0.7472 -0.2116
  729MPD2    H110831   1.678   1.450  17.061  0.4321  1.2919  2.7469
  729MPD2    H210832   1.801   1.544  16.667  0.4602 -0.2458 -0.3295
  729MPD2    H310833   1.649   1.455  16.819  0.1091  3.1021 -1.6142
  729MPD2     N10834   1.905   1.525  17.182 -0.0020  0.2816 -0.4920
  729MPD2    H510835   1.829   1.477  17.230  0.7832 -0.6927 -0.2096
  729MPD2    N110836   2.052   1.614  16.724 -0.0178 -0.8596  0.1622
  729MPD2    H710837   2.027   1.629  16.627  0.2313 -0.1156  0.2095
  730TMC3    C110838   1.997   1.590  17.398  0.5661  0.1987 -0.6537
  730TMC3    C210839   2.123   1.609  17.453  0.3904 -0.0999  1.1595
  730TMC3    C310840   2.136   1.721  17.534 -0.0024 -0.1873  0.6520
  730TMC3    C410841   1.896   1.681  17.410  0.1765  0.0467  0.5132
  730TMC3    C510842   1.910   1.793  17.487 -0.7254 -0.1991  0.2403
  730TMC3    C610843   2.032   1.809  17.551 -0.4140  0.1219  0.1978
  730TMC3     C10844   2.013   1.562  17.256  0.8851  0.2409 -0.5863
  730TMC3     O10845   2.113   1.608  17.210 -0.5911  0.3824 -0.1188
  730TMC3     H10846   2.209   1.545  17.439  0.0576 -0.3490  0.2613
  730TMC3    H110847   1.806   1.677  17.350  1.1883 -1.1632 -0.9119
  730TMC3    H210848   2.064   1.905  17.590 -0.0823  0.3027 -0.5185
  730TMC3    C710849   1.848   1.914  17.435  0.3492  0.8690  0.2591
  730TMC3    C810850   2.263   1.790  17.526 -0.0375  0.3001  0.2163
  730TMC3    O110851   1.841   1.918  17.313 -0.5465  0.6994 -0.1414
  730TMC3    O210852   2.293   1.866  17.616  0.3358  0.1805 -0.3821
  731MPD2     C10853   2.257   3.964  12.611  0.1541 -0.2423 -0.7540
  731MPD2    C110854   2.341   4.072  12.631  0.2774  0.4398 -0.2002
  731MPD2    C210855   2.341   4.126  12.757 -0.1479 -0.6780  0.2244
  731MPD2    C310856   2.264   4.073  12.856 -0.1997 -0.2330 -0.2544
  731MPD2    C410857   2.176   3.967  12.827  0.6934  0.1434 -0.7980
  731MPD2    C510858   2.174   3.917  12.703  0.0089 -0.0856 -0.1485
  731MPD2     H10859   2.397   4.215  12.784 -0.9188  1.0899 -4.0668
  731MPD2    H110860   2.137   3.908  12.909 -1.1475  0.9057 -1.1328
  731MPD2    H210861   2.242   3.925  12.511  0.5802 -1.6460 -0.2693
  731MPD2    H310862   2.124   3.825  12.674 -1.2508  0.5575 -0.0248
  731MPD2     N10863   2.255   4.141  12.978  0.1416 -0.3234  0.0795
  731MPD2    H510864   2.320   4.219  12.984 -1.5945  1.1932 -0.5953
  731MPD2    N110865   2.403   4.120  12.512  0.8683 -0.5415  0.5359
  731MPD2    H710866   2.380   4.068  12.427 -1.8775 -0.9729  1.5351
  732TMC3    C110867   2.533   4.250  12.368 -0.2477 -0.5341 -0.0614
  732TMC3    C210868   2.471   4.195  12.256  0.4797 -0.9298  0.5746
  732TMC3    C310869   2.520   4.236  12.135 -0.9270  0.5934 -0.8518
  732TMC3    C410870   2.638   4.343  12.348 -0.5420 -0.5945  0.5091
  732TMC3    C510871   2.684   4.371  12.226  0.2473 -0.6391 -0.1885
  732TMC3    C610872   2.628   4.316  12.116  0.0755 -0.2836  0.2937
  732TMC3     C10873   2.482   4.236  12.503 -0.0864  0.0291  0.3747
  732TMC3     O10874   2.532   4.304  12.596  0.3853  0.1519 -0.1524
  732TMC3     H10875   2.385   4.130  12.271 -1.3568  1.2350 -0.6419
  732TMC3    H110876   2.667   4.393  12.439  2.3724  1.0855 -1.3447
  732TMC3    H210877   2.657   4.342  12.015 -0.8708 -0.1219  0.0614
  732TMC3    C710878   2.787   4.470  12.201  0.9331  0.0984  0.0777
  732TMC3    C810879   2.445   4.203  12.010 -0.2596 -0.1950 -0.2799
  732TMC3    O110880   2.824   4.504  12.085  0.4723  0.3012 -0.1998
  732TMC3    O210881   2.455   4.282  11.916  0.3905 -0.2353 -0.4630
  733TMC3    C110882   3.155   2.688  13.756  0.1753  0.6302 -0.0440
  733TMC3    C210883   3.208   2.787  13.680  0.3592 -0.1036 -0.8781
  733TMC3    C310884   3.343   2.775  13.644  0.1321  0.2063 -0.0398
  733TMC3    C410885   3.232   2.586  13.807  0.0939 -0.7476 -0.3316
  733TMC3    C510886   3.365   2.571  13.762  0.2831 -0.3187 -0.1026
  733TMC3    C610887   3.418   2.671  13.688 -0.7814  0.2733 -0.2425
  733TMC3     C10888   3.005   2.683  13.754  0.9811 -0.5829 -0.0625
  733TMC3     O10889   2.932   2.763  13.694  0.1616  0.1766  0.2036
  733TMC3     H10890   3.152   2.877  13.656 -0.8639 -0.2608  1.4293
  733TMC3    H110891   3.190   2.494  13.845 -1.2326 -0.4925 -1.1595
  733TMC3    H210892   3.519   2.665  13.649 -1.2115 -1.3358 -1.1185
  733TMC3    C710893   3.380   2.443  13.699  0.1284  0.0640  0.2565
  733TMC3    C810894   3.370   2.793  13.503 -0.4407  0.1462  1.0123
  733TMC3    O110895   3.356   2.343  13.764 -0.2676 -0.1574 -0.3949
  733TMC3    O210896   3.425   2.700  13.445 -0.4021 -0.7735  0.0583
  734MPD2     C10897   0.528   4.542  12.851  0.2901 -0.2480  0.3975
  734MPD2    C110898   0.421   4.483  12.789 -0.4468 -0.2498  0.0977
  734MPD2    C210899   0.381   4.532  12.666  0.1411 -0.4074  0.2920
  734MPD2    C310900   0.443   4.645  12.614 -0.6304 -0.3932 -0.3022
  734MPD2    C410901   0.556   4.702  12.677  0.2665  0.1822 -0.4864
  734MPD2    C510902   0.591   4.652  12.800 -0.0236  0.7951 -0.2972
  734MPD2     H10903   0.308   4.484  12.602  0.1629  1.0532 -0.8200
  734MPD2    H110904   0.605   0.054  12.646 -1.1466  1.4785  1.1311
  734MPD2    H210905   0.579   4.504  12.940  2.0645  1.6025  0.1729
  734MPD2    H310906   0.684   4.690  12.842  0.7911 -1.8803  0.2686
  734MPD2     N10907   0.410   4.680  12.483 -0.1927  0.2520  0.6065
  734MPD2    H510908   0.331   4.627  12.448 -1.2887  2.6009 -0.4477
  734MPD2    N110909   0.377   4.357  12.839  1.1460  0.2886 -0.5837
  734MPD2    H710910   0.425   4.320  12.920  0.9844 -2.5641 -1.7968
  735TMC3    C110911   0.276   4.147  12.820  0.3167  0.3059  0.0244
  735TMC3    C210912   0.169   4.087  12.766  0.3133 -0.2429  0.4547
  735TMC3    C310913   0.187   3.970  12.697 -0.1538  0.5137  0.0962
  735TMC3    C410914   0.396   4.085  12.818 -0.0816  0.3619  1.1063
  735TMC3    C510915   0.407   3.957  12.774  0.2150  0.5855 -0.1098
  735TMC3    C610916   0.309   3.904  12.706 -0.0026 -0.1352 -0.0368
  735TMC3     C10917   0.284   4.284  12.769  0.0961 -0.1820  0.8617
  735TMC3     O10918   0.222   4.302  12.666 -0.8007 -0.2220  0.8803
  735TMC3     H10919   0.074   4.138  12.764  0.6788  0.3824 -1.7381
  735TMC3    H110920   0.483   4.139  12.852  0.1688  0.4411  0.3200
  735TMC3    H210921   0.313   3.801  12.675  1.0078 -0.1448  0.1335
  735TMC3    C710922   0.549   3.924  12.746  0.2899  0.5765 -0.1562
  735TMC3    C810923   0.153   3.982  12.555 -0.4207 -0.8015 -0.5251
  735TMC3    O110924   0.627   4.014  12.717  0.9693  0.3920 -0.0060
  735TMC3    O210925   0.176   3.882  12.491 -0.7321  0.1309 -0.6837
  736MPD2     C10926   0.639   3.578  12.619  0.2344  0.6185 -0.0180
  736MPD2    C110927   0.647   3.723  12.629  0.5117  0.4875  0.2570
  736MPD2    C210928   0.735   3.783  12.537 -0.4472  0.3634 -0.0608
  736MPD2    C310929   0.815   3.707  12.448  0.9335 -0.4278 -0.4612
  736MPD2    C410930   0.810   3.568  12.444  0.2519  0.0696 -0.2456
  736MPD2    C510931   0.718   3.505  12.534  0.2292 -0.4849  0.1238
  736MPD2     H10932   0.731   3.891  12.541 -0.8287  0.3923 -1.1340
  736MPD2    H110933   0.869   3.527  12.362  2.5317  1.1218  0.8713
  736MPD2    H210934   0.560   3.526  12.672  0.0782  0.4917 -0.3736
  736MPD2    H310935   0.722   3.397  12.526 -1.6573 -0.7006  2.2543
  736MPD2     N10936   0.908   3.763  12.361 -0.2342  0.4113  0.2346
  736MPD2    H510937   0.987   3.705  12.337 -0.8990 -0.0754 -0.7777
  736MPD2    N110938   0.555   3.785  12.718 -0.0002  0.2723 -0.0895
  736MPD2    H710939   0.488   3.731  12.771 -1.1125  1.1579 -0.5892
  737TMC3    C110940   0.991   3.911  12.196 -0.0619 -0.0198  0.4889
  737TMC3    C210941   1.007   4.034  12.139  0.3710  0.0045 -0.2925
  737TMC3    C310942   1.087   4.052  12.031 -0.4502 -0.1003 -0.2934
  737TMC3    C410943   1.033   3.799  12.125 -0.1314  0.1792 -0.4400
  737TMC3    C510944   1.093   3.821  11.999 -0.0040 -0.7355  0.1596
  737TMC3    C610945   1.124   3.946  11.951  0.4855 -0.0006  0.8575
  737TMC3     C10946   0.913   3.894  12.321  0.5742  0.5497  0.2634
  737TMC3     O10947   0.838   3.987  12.362 -0.1299 -0.3116  0.5069
  737TMC3     H10948   0.969   4.121  12.189  0.8186  1.2493 -2.1027
  737TMC3    H110949   1.023   3.700  12.168  2.6623 -0.7731 -1.9786
  737TMC3    H210950   1.165   3.963  11.852  3.1232 -1.9024  1.6041
  737TMC3    C710951   1.147   3.698  11.940  0.1778 -0.8304  0.4754
  737TMC3    C810952   1.059   4.181  11.967  0.1025  0.3335  0.2635
  737TMC3    O110953   1.082   3.594  11.960  0.0517  0.4097  0.9539
  737TMC3    O210954   1.027   4.268  12.043 -0.0555  0.1167  0.3743
  738MPD2     C10955   0.591   3.439  14.704 -0.3719  0.3166  0.1927
  738MPD2    C110956   0.563   3.444  14.841 -0.5444 -0.1585  0.5532
  738MPD2    C210957   0.663   3.488  14.925 -0.3356 -0.2391  0.1818
  738MPD2    C310958   0.793   3.528  14.878 -0.4999 -0.0552  0.5266
  738MPD2    C410959   0.820   3.519  14.751 -0.5085 -0.5894  0.2288
  738MPD2    C510960   0.720   3.476  14.666  0.2177 -0.1706  0.3705
  738MPD2     H10961   0.640   3.474  15.030 -1.2024  0.9865  0.1542
  738MPD2    H110962   0.910   3.558  14.705 -1.7852  2.4795  0.2924
  738MPD2    H210963   0.524   3.421  14.621 -2.1011 -0.6078  1.7804
  738MPD2    H310964   0.746   3.478  14.560  0.5226 -0.4099  0.4381
  738MPD2     N10965   0.900   3.567  14.965 -0.3974  0.1789  0.4317
  738MPD2    H510966   0.985   3.593  14.916  0.5518 -1.6616  1.1172
  738MPD2    N110967   0.443   3.384  14.895  0.9010 -0.1716 -0.3884
  738MPD2    H710968   0.433   3.381  14.996 -1.3412 -1.7831 -0.6819
  739TMC3    C110969   1.037   3.603  15.148 -0.0942 -0.1550  0.1700
  739TMC3    C210970   1.126   3.616  15.045 -0.0098  0.5724  0.7617
  739TMC3    C310971   1.221   3.717  15.049 -0.2804  0.0523  0.1877
  739TMC3    C410972   1.056   3.679  15.261  0.2196 -0.1384  1.1674
  739TMC3    C510973   1.145   3.781  15.270 -0.2396 -0.2872  0.2161
  739TMC3    C610974   1.220   3.804  15.162 -0.6043 -0.7015  0.4897
  739TMC3     C10975   0.900   3.580  15.102  0.0395  0.4073 -0.0680
  739TMC3     O10976   0.817   3.563  15.189  0.0764  0.0227  0.6568
  739TMC3     H10977   1.136   3.546  14.963 -0.2605  0.6161  0.6965
  739TMC3    H110978   0.985   3.655  15.339  0.1378 -0.2241  1.0673
  739TMC3    H210979   1.288   3.888  15.173 -0.5602 -0.9716  2.2447
  739TMC3    C710980   1.155   3.858  15.393  0.1598  0.3518  0.5255
  739TMC3    C810981   1.270   3.766  14.924 -0.3063 -0.9032 -0.3058
  739TMC3    O110982   1.255   3.930  15.400  0.1065  0.2641 -0.7320
  739TMC3    O210983   1.217   3.720  14.821  0.9371  0.1642 -0.3976
  740TMC3    C110984   1.654   0.264  14.807  0.3943 -0.2402 -0.5001
  740TMC3    C210985   1.721   0.213  14.916 -0.1032  0.3955  1.1451
  740TMC3    C310986   1.856   0.200  14.909 -0.5699 -0.8980  0.5159
  740TMC3    C410987   1.724   0.282  14.683 -0.9647 -0.7382 -0.4301
  740TMC3    C510988   1.862   0.265  14.686 -0.3719 -1.2528 -0.8660
  740TMC3    C610989   1.928   0.223  14.799 -0.4275  0.0419  0.0363
  740TMC3     C10990   1.511   0.256  14.804 -0.4081  0.2225  0.1514
  740TMC3     O10991   1.454   0.307  14.710 -0.0790 -0.0298  0.0700
  740TMC3     H10992   1.675   0.200  15.013 -0.4367  0.8051  1.0407
  740TMC3    H110993   1.681   0.322  14.592  1.2547  0.0567 -1.1290
  740TMC3    H210994   2.035   0.207  14.810 -0.4887 -0.0952  0.4401
  740TMC3    C710995   1.944   0.261  14.573 -0.0089 -0.0232  0.3382
  740TMC3    C810996   1.930   0.157  15.028 -0.2214  0.0001  0.3135
  740TMC3    O110997   2.062   0.265  14.582 -0.0015 -0.2780 -0.5488
  740TMC3    O210998   2.050   0.185  15.032 -0.0431  0.4721  0.2028
  741TMC3    C110999   0.941   3.942  14.233  0.1966  1.0268 -0.6904
  741TMC3    C211000   0.897   3.925  14.108 -0.2107 -0.0828  0.7052
  741TMC3    C311001   0.865   3.803  14.065  0.0939  0.4645  0.4231
  741TMC3    C411002   0.990   3.839  14.315  0.1106 -0.7354 -0.4437
  741TMC3    C511003   0.982   3.710  14.260 -0.8002 -0.2696  0.3338
  741TMC3    C611004   0.909   3.696  14.144  0.2341 -0.7871 -0.5871
  741TMC3     C11005   0.945   4.086  14.275  0.4629 -0.1485  0.1008
  741TMC3     O11006   0.878   4.165  14.213  0.1946  0.8050  0.3506
  741TMC3     H11007   0.861   4.006  14.047 -1.5007 -0.4928  0.9133
  741TMC3    H111008   1.010   3.854  14.420  2.2604 -2.5432 -0.5883
  741TMC3    H211009   0.893   3.596  14.105  1.5400 -0.6132 -1.5357
  741TMC3    C711010   0.988   3.592  14.348 -0.4516 -0.5757 -0.5569
  741TMC3    C811011   0.741   3.787  13.988  0.6092  0.2389  0.1799
  741TMC3    O111012   0.892   3.518  14.335 -0.7479  0.6040 -0.3197
  741TMC3    O211013   0.673   3.886  13.977 -0.1220 -0.2385  0.1241
  742TMC3    C111014   0.642   2.617  15.242  0.4048 -0.3216 -0.2406
  742TMC3    C211015   0.591   2.543  15.138 -0.3012  0.4341 -0.5502
  742TMC3    C311016   0.653   2.585  15.017  0.2753 -0.2935  0.2074
  742TMC3    C411017   0.756   2.695  15.247  0.5020 -0.1302  0.1885
  742TMC3    C511018   0.822   2.711  15.127  0.7276  0.3216 -0.6813
  742TMC3    C611019   0.773   2.652  15.016  0.0352 -0.0825 -0.1898
  742TMC3     C11020   0.563   2.606  15.360 -0.4485  1.5995 -0.4059
  742TMC3     O11021   0.477   2.521  15.340 -0.4589 -0.0085  0.1158
  742TMC3     H11022   0.532   2.453  15.146  0.1431  0.0175 -1.9579
  742TMC3    H111023   0.791   2.733  15.343  0.9118  0.2603 -0.1168
  742TMC3    H211024   0.823   2.667  14.921 -1.2915 -0.0059 -0.8834
  742TMC3    C711025   0.967   2.739  15.124  0.0518  0.1951  0.2964
  742TMC3    C811026   0.618   2.518  14.898 -0.3798  0.0075  0.2473
  742TMC3    O111027   1.037   2.672  15.049  0.5618 -0.0601 -0.5875
  742TMC3    O211028   0.694   2.523  14.800 -0.4143  0.6113 -0.0034
  743MPD2     C11029   4.048   4.435   2.140  0.0074 -0.4434  0.9753
  743MPD2    C111030   4.066   4.427   2.006  0.0006 -0.6245 -0.5587
  743MPD2    C211031   4.192   4.431   1.953  0.2472  0.0914  0.1722
  743MPD2    C311032   4.296   4.452   2.030 -0.4204  0.6158 -0.1338
  743MPD2    C411033   4.279   4.457   2.168 -0.5302  0.4953 -0.0786
  743MPD2    C511034   4.158   4.456   2.226 -0.7746 -0.5717 -0.5488
  743MPD2     H11035   4.203   4.424   1.845  0.4019  1.1445  0.1276
  743MPD2    H111036   4.362   4.477   2.235 -0.5842 -0.6560  0.3202
  743MPD2    H211037   3.950   4.448   2.186  0.7949 -0.7037  2.7120
  743MPD2    H311038   4.138   4.467   2.332  1.4432 -0.0381 -0.1925
  743MPD2     N11039   4.418   4.444   1.965  0.2552 -0.7989 -0.4506
  743MPD2    H511040   4.411   4.433   1.864  0.3945  1.7354 -0.7460
  743MPD2    N111041   3.961   4.408   1.913  0.5634 -0.3392  0.2947
  743MPD2    H711042   3.991   4.384   1.819 -0.4381  1.1514 -0.4031
  744TMC3    C111043   3.745   4.390   1.835  0.1999  0.1597  0.6368
  744TMC3    C211044   3.646   4.479   1.812  0.4343 -0.3405  0.2680
  744TMC3    C311045   3.622   4.497   1.679  0.0386 -0.0402  1.1083
  744TMC3    C411046   3.807   4.306   1.742 -0.0460  0.3533  0.2280
  744TMC3    C511047   3.758   4.317   1.619  0.5321  0.0771 -0.7753
  744TMC3    C611048   3.662   4.406   1.582  0.0157  0.7522 -0.6997
  744TMC3     C11049   3.825   4.415   1.953 -0.4116  0.2298 -0.3352
  744TMC3     O11050   3.771   4.462   2.052  0.1935 -0.2908  0.1700
  744TMC3     H11051   3.617   4.551   1.888  1.2856 -0.1182  0.3847
  744TMC3    H111052   3.865   4.221   1.776 -0.5979  0.1867  0.7595
  744TMC3    H211053   3.645   4.423   1.477  2.9065  2.8517 -0.8053
  744TMC3    C711054   3.795   4.219   1.513 -0.1192  0.2263  0.4653
  744TMC3    C811055   3.549   4.609   1.628 -1.1667 -0.0601  0.4373
  744TMC3    O111056   3.713   4.217   1.421  0.3381 -0.2523  0.6285
  744TMC3    O211057   3.486   4.607   1.521  0.2197  0.5207 -0.3147
  745TMC3    C111058   1.586   2.109  13.872 -0.1502 -0.0294 -0.4709
  745TMC3    C211059   1.456   2.094  13.923  0.4725  0.0916  0.7055
  745TMC3    C311060   1.360   2.091  13.828  0.0365  0.2834 -0.2826
  745TMC3    C411061   1.617   2.139  13.747  0.2555  0.3682 -0.2658
  745TMC3    C511062   1.507   2.137  13.661 -0.4926 -0.7205  0.6352
  745TMC3    C611063   1.381   2.108  13.692  0.6009  0.5121  0.0997
  745TMC3     C11064   1.683   2.141  13.971 -0.0105  0.3809  0.5747
  745TMC3     O11065   1.666   2.095  14.080  0.3415  0.0618  0.0132
  745TMC3     H11066   1.437   2.082  14.029 -1.3693 -0.1118  0.3646
  745TMC3    H111067   1.720   2.142  13.713 -0.2393  4.3253 -1.3927
  745TMC3    H211068   1.305   2.111  13.615  1.2597  0.1252 -0.5655
  745TMC3    C711069   1.531   2.168  13.519  0.5157 -0.4512  0.3998
  745TMC3    C811070   1.219   2.114  13.866 -0.3300  0.0955  0.3411
  745TMC3    O111071   1.461   2.117  13.432 -0.2927  1.1258  0.2586
  745TMC3    O211072   1.134   2.106  13.777 -0.1284 -0.0551 -0.5363
  746TMC3    C111073   3.266   4.391  11.268  0.6675  0.0139  0.6389
  746TMC3    C211074   3.264   4.413  11.135 -0.9472  0.3979  0.3900
  746TMC3    C311075   3.160   4.358  11.061  0.2166  0.1355 -0.2676
  746TMC3    C411076   3.174   4.317  11.334 -0.0028  0.7282  0.0638
  746TMC3    C511077   3.065   4.280  11.256 -0.1000  0.3809  0.1652
  746TMC3    C611078   3.061   4.287  11.123  0.5921 -0.3269  0.6122
  746TMC3     C11079   3.397   4.394  11.329 -0.1258  0.3873  0.2540
  746TMC3     O11080   3.410   4.414  11.446 -0.3227  0.3246  0.0063
  746TMC3     H11081   3.336   4.475  11.084 -0.6954 -0.7631 -0.6712
  746TMC3    H111082   3.167   4.328  11.442  0.1704 -0.8711  0.2431
  746TMC3    H211083   2.973   4.250  11.071  0.9807  0.6221 -0.6954
  746TMC3    C711084   3.029   4.145  11.286  0.5135  0.6140 -0.1483
  746TMC3    C811085   3.200   4.308  10.933  0.2775  0.4922 -0.3546
  746TMC3    O111086   3.025   4.071  11.193 -0.0913  0.5023 -0.0252
  746TMC3    O211087   3.276   4.378  10.864  0.1737  1.2649  0.0901
  747TMC3    C111088   1.898   3.592  11.167  0.7160 -0.0928 -0.1562
  747TMC3    C211089   1.815   3.528  11.255 -0.3437 -0.3565 -0.9030
  747TMC3    C311090   1.755   3.604  11.350 -0.0888  0.0099  0.2626
  747TMC3    C411091   1.927   3.726  11.176  0.8230 -0.5789  0.9498
  747TMC3    C511092   1.862   3.797  11.273 -0.0372 -0.5559 -1.3094
  747TMC3    C611093   1.770   3.742  11.359 -0.1572  0.0393 -0.2424
  747TMC3     C11094   1.992   3.509  11.100 -0.2254  0.1742 -0.2619
  747TMC3     O11095   2.105   3.544  11.113  0.2641 -0.5265 -0.1847
  747TMC3     H11096   1.803   3.420  11.254  1.5543 -0.5717 -0.9610
  747TMC3    H111097   1.994   3.774  11.106 -0.4542  0.8967  0.7416
  747TMC3    H211098   1.721   3.805  11.433 -0.1942 -2.3950  1.8201
  747TMC3    C711099   1.892   3.932  11.299  0.1422 -0.2906 -0.6768
  747TMC3    C811100   1.648   3.537  11.424 -0.7863 -0.1888 -0.0877
  747TMC3    O111101   1.822   3.996  11.378 -0.1737  0.7562  0.1877
  747TMC3    O211102   1.620   3.426  11.383  0.1447  0.1958  0.2175
  748MPD2     C11103   3.256   0.869   1.394  0.5398  0.4743  0.1617
  748MPD2    C111104   3.337   0.898   1.506  0.2418 -0.0479 -0.2672
  748MPD2    C211105   3.438   0.988   1.495  0.0865  0.0845 -0.0358
  748MPD2    C311106   3.461   1.051   1.374  0.1933  0.0879 -0.9569
  748MPD2    C411107   3.368   1.032   1.274  0.0570 -0.3797  0.0903
  748MPD2    C511108   3.263   0.949   1.282 -0.0646  0.6241  0.2613
  748MPD2     H11109   3.513   1.006   1.571 -0.3810  0.5618  0.3132
  748MPD2    H111110   3.367   1.087   1.180 -2.7942 -2.0717 -0.8781
  748MPD2    H211111   3.168   0.806   1.388 -0.0361  1.3185 -0.2907
  748MPD2    H311112   3.197   0.947   1.196 -0.3607  1.4391  0.4694
  748MPD2     N11113   3.565   1.140   1.368  0.5424  0.2146 -0.4755
  748MPD2    H511114   3.637   1.128   1.438  4.1528 -1.4519 -4.4389
  748MPD2    N111115   3.318   0.815   1.624  0.3697 -0.7851  0.0822
  748MPD2    H711116   3.235   0.757   1.624  0.1298 -0.4349 -2.2429
  749TMC3    C111117   3.692   1.321   1.314 -0.4117 -0.1176 -0.0570
  749TMC3    C211118   3.808   1.256   1.333 -0.4448  0.2435 -0.7455
  749TMC3    C311119   3.922   1.333   1.320 -0.3511  0.3657  0.0069
  749TMC3    C411120   3.687   1.444   1.261 -0.2007 -0.0486 -0.1148
  749TMC3    C511121   3.801   1.518   1.255 -0.0038  0.1046  0.7223
  749TMC3    C611122   3.923   1.456   1.262  0.1695  0.0065 -0.2027
  749TMC3     C11123   3.575   1.239   1.275  0.1496 -0.4074 -0.5668
  749TMC3     O11124   3.490   1.285   1.197  0.2900 -0.3041 -0.4412
  749TMC3     H11125   3.815   1.155   1.373  0.4494  1.7271  2.8398
  749TMC3    H111126   3.594   1.476   1.214 -0.4391  1.0127  1.0773
  749TMC3    H211127   4.016   1.507   1.241  0.3729 -0.7451 -1.0799
  749TMC3    C711128   3.802   1.633   1.168  0.6137  0.0174  0.4206
  749TMC3    C811129   4.045   1.280   1.382  0.5134  0.0705  0.4120
  749TMC3    O111130   3.908   1.690   1.167 -0.1857 -0.1539  0.3546
  749TMC3    O211131   4.126   1.358   1.426 -1.0076 -0.1333  0.7421
  750MPD2     C11132   3.752   1.381  11.151  0.7821 -0.6056  0.0956
  750MPD2    C111133   3.711   1.314  11.267  0.3261  0.0187  0.1589
  750MPD2    C211134   3.783   1.203  11.310 -0.1431  0.5552  0.3904
  750MPD2    C311135   3.899   1.161  11.237 -0.1142 -0.4048 -0.7293
  750MPD2    C411136   3.935   1.228  11.123 -0.1727  0.1589  0.1749
  750MPD2    C511137   3.856   1.331  11.082  0.5652  0.2804 -1.1998
  750MPD2     H11138   3.757   1.150  11.401 -1.7076  2.3712  1.0035
  750MPD2    H111139   4.018   1.188  11.065 -1.2831 -1.2936 -0.4248
  750MPD2    H211140   3.696   1.464  11.110  0.8310 -0.5882  0.0650
  750MPD2    H311141   3.882   1.372  10.985 -1.2742 -1.8773 -2.6014
  750MPD2     N11142   3.978   1.051  11.279 -0.2436  0.3875  0.2229
  750MPD2    H511143   4.054   1.034  11.214  1.1737  1.9857  1.4531
  750MPD2    N111144   3.597   1.370  11.335 -0.0684 -0.4217 -0.0905
  750MPD2    H711145   3.538   1.436  11.286  0.2923 -0.5236 -0.6579
  751TMC3    C111146   4.070   0.879  11.421 -0.2674  0.0710 -0.3927
  751TMC3    C211147   4.053   0.804  11.528 -0.2403 -0.2453  0.2799
  751TMC3    C311148   4.130   0.689  11.527 -0.6353  0.1610 -0.2159
  751TMC3    C411149   4.148   0.842  11.311  0.9109 -0.8396  0.7374
  751TMC3    C511150   4.229   0.737  11.314 -0.2242 -0.5518  1.5320
  751TMC3    C611151   4.224   0.666  11.429  0.3283 -0.0161 -0.3020
  751TMC3     C11152   3.965   0.981  11.397 -0.7209  0.0022 -0.4310
  751TMC3     O11153   3.885   0.994  11.486 -0.1929 -0.0015  0.4553
  751TMC3     H11154   4.000   0.844  11.614 -1.4250  2.1205 -1.5165
  751TMC3    H111155   4.142   0.896  11.218 -1.5862 -1.6833  0.4260
  751TMC3    H211156   4.285   0.579  11.445 -0.3512 -0.1849  1.3518
  751TMC3    C711157   4.203   0.652  11.190  0.3812 -0.1327 -0.3323
  751TMC3    C811158   4.045   0.572  11.551  0.0833 -0.4690  0.3144
  751TMC3    O111159   4.228   0.696  11.079 -0.1441 -0.1416 -0.4285
  751TMC3    O211160   4.069   0.475  11.483  0.0039 -0.2906  0.3191
  752TMC3    C111161   2.889   1.813  17.316  0.6956 -0.2094 -0.1050
  752TMC3    C211162   2.811   1.713  17.367 -0.1224  0.1168 -0.4623
  752TMC3    C311163   2.778   1.716  17.504  0.8305  0.5310  0.4052
  752TMC3    C411164   2.935   1.911  17.401  0.4994 -0.1808 -0.4157
  752TMC3    C511165   2.886   1.917  17.529 -0.3323  0.1485  0.7063
  752TMC3    C611166   2.816   1.817  17.587  0.5515  0.1946  0.1623
  752TMC3     C11167   2.920   1.818  17.175  0.1422  0.0914  0.7324
  752TMC3     O11168   3.013   1.886  17.137 -0.0645  0.2936 -0.0027
  752TMC3     H11169   2.772   1.629  17.310  1.6620 -1.0239  0.0164
  752TMC3    H111170   2.988   1.994  17.356  2.0046 -0.1492  1.4747
  752TMC3    H211171   2.778   1.835  17.687  1.7531 -1.2698  0.8761
  752TMC3    C711172   2.890   2.045  17.592  0.1085 -0.0408 -0.1040
  752TMC3    C811173   2.709   1.598  17.555 -0.6455 -0.2426  0.1379
  752TMC3    O111174   2.976   2.127  17.558 -0.4971  0.0262 -0.6412
  752TMC3    O211175   2.731   1.494  17.493  0.4454 -0.2194  0.3501
  753TMC3    C111176   4.732   2.411  13.244 -0.2909  0.8089  0.2454
  753TMC3    C211177   4.634   2.360  13.322  0.2996 -0.1708 -0.5414
  753TMC3    C311178   4.618   2.221  13.335  0.3431  0.7112 -0.3226
  753TMC3    C411179   0.056   2.329  13.154 -1.0542 -0.1317  0.6678
  753TMC3    C511180   0.032   2.199  13.164 -0.2760  0.0361  0.3168
  753TMC3    C611181   4.684   2.138  13.250  0.2755 -0.0469 -0.7296
  753TMC3     C11182   0.024   2.550  13.265  0.1991  0.4301  0.5683
  753TMC3     O11183   4.674   2.627  13.296  0.8410 -0.7791  0.3926
  753TMC3     H11184   4.587   2.429  13.391  0.3264  0.9424 -1.6479
  753TMC3    H111185   0.146   2.361  13.102 -1.3129 -0.0698  0.2602
  753TMC3    H211186   4.666   2.031  13.250  0.7598 -0.1126  2.0682
  753TMC3    C711187   0.073   2.126  13.048 -1.3048  1.1172 -0.4851
  753TMC3    C811188   4.594   2.163  13.464  0.6974 -0.1894 -0.3969
  753TMC3    O111189   0.167   2.165  12.984 -0.4497  0.6871  0.5710
  753TMC3    O211190   4.610   2.043  13.477 -0.1292  0.6591  0.5219
  754MPD2     C11191   3.471   1.061  13.264  0.1239 -0.0280 -0.1543
  754MPD2    C111192   3.351   1.051  13.325  0.3862 -0.0449 -0.7845
  754MPD2    C211193   3.238   1.052  13.242  0.8603  0.3398  0.0692
  754MPD2    C311194   3.250   1.076  13.103  0.3612  0.1131 -0.5272
  754MPD2    C411195   3.373   1.107  13.049 -0.0796 -0.3938  0.5375
  754MPD2    C511196   3.487   1.083  13.128  0.4242 -0.3399 -0.2501
  754MPD2     H11197   3.136   1.036  13.275  0.9222  1.4622  0.8059
  754MPD2    H111198   3.382   1.127  12.943  2.2222  1.8509  1.1409
  754MPD2    H211199   3.555   1.030  13.325  0.1305 -0.9126 -0.6180
  754MPD2    H311200   3.586   1.092  13.086  1.2763 -0.1673  1.8022
  754MPD2     N11201   3.145   1.074  13.015 -0.7616  0.2805  0.3338
  754MPD2    H511202   3.165   1.104  12.920 -0.5761 -0.2540  0.2035
  754MPD2    N111203   3.350   1.012  13.452 -0.1448  0.4445 -0.4663
  754MPD2    H711204   3.436   1.004  13.506 -1.5214 -1.2387  1.4639
  755MPD2     C11205   2.847   1.859  13.019  0.3615 -0.1387  0.7710
  755MPD2    C111206   2.730   1.784  13.019  0.0711 -0.2143  0.0953
  755MPD2    C211207   2.729   1.644  13.002 -0.0627 -0.1743  0.5823
  755MPD2    C311208   2.844   1.573  12.983 -1.1607  0.5468  0.1110
  755MPD2    C411209   2.958   1.645  12.976  0.3211 -0.0349  0.0039
  755MPD2    C511210   2.959   1.778  12.990  0.2463 -0.1773 -0.7664
  755MPD2     H11211   2.633   1.594  12.996  0.3693 -1.1052  1.4318
  755MPD2    H111212   3.057   1.607  12.954  0.8701 -0.0403  2.4925
  755MPD2    H211213   2.843   1.968  13.021 -0.6909 -0.1341 -2.3992
  755MPD2    H311214   3.058   1.822  12.987  0.3804 -0.2566  2.1337
  755MPD2     N11215   2.847   1.438  12.959  0.5480 -0.3647 -0.0788
  755MPD2    H511216   2.940   1.403  12.983  0.3199 -2.1980 -1.8606
  755MPD2    N111217   2.603   1.844  13.012 -0.2993  0.1460  0.4487
  755MPD2    H711218   2.518   1.788  13.018 -1.6016  1.9784 -1.0573
  756MPD2     C11219   3.628   1.289   9.627  0.1769 -0.0432 -0.2157
  756MPD2    C111220   3.575   1.187   9.703 -0.2535 -1.1178  0.8470
  756MPD2    C211221   3.446   1.154   9.681 -0.0066 -0.1387 -0.2511
  756MPD2    C311222   3.374   1.206   9.571 -0.5710  0.3484 -0.8827
  756MPD2    C411223   3.431   1.303   9.494  0.1012 -0.1628 -0.2696
  756MPD2    C511224   3.557   1.347   9.522  0.1462 -0.3962 -0.0037
  756MPD2     H11225   3.400   1.075   9.740  0.8187  0.5754  1.3574
  756MPD2    H111226   3.381   1.352   9.411  1.0224  0.0947 -0.6856
  756MPD2    H211227   3.729   1.329   9.632 -0.3989  1.4269 -0.3463
  756MPD2    H311228   3.620   1.417   9.468 -0.3402 -1.0803 -1.4606
  756MPD2     N11229   3.240   1.164   9.548  0.2871 -0.0204  0.5907
  756MPD2    H511230   3.203   1.113   9.628  0.9203  0.2067  1.0250
  756MPD2    N111231   3.644   1.116   9.811  0.7264  0.3270 -0.8795
  756MPD2    H711232   3.595   1.035   9.846  0.5834  1.2106  0.9850
  757MPD2     C11233   2.843   0.644  10.066 -0.0783 -0.2296  0.4364
  757MPD2    C111234   2.970   0.689  10.037  0.1696  0.3703 -0.2062
  757MPD2    C211235   2.981   0.768   9.929 -1.1596  0.2703  0.7276
  757MPD2    C311236   2.871   0.795   9.841  0.0366  0.9402  0.3370
  757MPD2    C411237   2.750   0.739   9.866  0.7218  1.0743  0.2612
  757MPD2    C511238   2.736   0.670   9.987  0.2885  0.8385  0.6224
  757MPD2     H11239   3.069   0.825   9.903 -2.9157  1.9093 -1.6148
  757MPD2    H111240   2.665   0.773   9.808  2.2581  2.1565 -1.3376
  757MPD2    H211241   2.828   0.588  10.158  2.1941  0.4217  1.1891
  757MPD2    H311242   2.638   0.637  10.019  1.4269 -1.4761  1.7517
  757MPD2     N11243   2.895   0.876   9.727  0.4688 -0.3391 -0.1770
  757MPD2    H511244   2.980   0.931   9.734  1.2572 -1.6440  0.3940
  757MPD2    N111245   3.077   0.644  10.122  0.3191 -0.5083 -0.5972
  757MPD2    H711246   3.055   0.575  10.193  2.0179  1.2737  1.6723
  758MPD2     C11247   3.462   1.022  16.003 -0.8310  0.3512  0.2513
  758MPD2    C111248   3.472   0.898  16.059  0.5563 -0.6955  0.4949
  758MPD2    C211249   3.407   0.877  16.181  0.6306  0.0882 -0.5627
  758MPD2    C311250   3.344   0.983  16.246  0.1906 -0.0733 -1.3989
  758MPD2    C411251   3.314   1.097  16.174 -0.0322  0.0585  0.5291
  758MPD2    C511252   3.371   1.116  16.046  0.0923 -0.6773  0.4671
  758MPD2     H11253   3.409   0.780  16.229 -0.5742  0.3583  0.0324
  758MPD2    H111254   3.252   1.178  16.208  1.8843  0.3465  3.2924
  758MPD2    H211255   3.511   1.052  15.911 -0.3029  2.0404  1.0826
  758MPD2    H311256   3.345   1.210  15.998  1.5439 -0.7399 -0.4282
  758MPD2     N11257   3.296   0.969  16.381 -0.5301 -0.1567  0.2612
  758MPD2    H511258   3.246   1.050  16.417 -0.7388 -1.3405  2.5881
  758MPD2    N111259   3.565   0.805  15.997 -0.1597 -0.0312 -0.3450
  758MPD2    H711260   3.634   0.846  15.934  0.6301 -0.4122  0.2734
  759MPD2     C11261   1.931   3.354   9.823 -0.0612 -0.6106  0.3657
  759MPD2    C111262   2.011   3.245   9.866  0.9812 -0.3041  0.6115
  759MPD2    C211263   2.138   3.274   9.903 -0.4339 -0.8879 -0.2291
  759MPD2    C311264   2.194   3.399   9.916 -0.3553 -0.6185 -0.0948
  759MPD2    C411265   2.113   3.506   9.883 -0.0926 -0.0360 -0.3361
  759MPD2    C511266   1.981   3.488   9.833 -0.2238  0.1867 -0.5855
  759MPD2     H11267   2.199   3.192   9.939  0.0983 -0.0078  0.8717
  759MPD2    H111268   2.157   3.605   9.893  0.7761 -0.5767  1.2429
  759MPD2    H211269   1.835   3.337   9.776  0.8175 -2.9852 -0.5801
  759MPD2    H311270   1.927   3.573   9.792  1.5717  1.2245 -0.8393
  759MPD2     N11271   2.333   3.413   9.946 -0.0471  0.6672 -0.0852
  759MPD2    H511272   2.376   3.328   9.982 -1.1320  0.4754  0.7469
  759MPD2    N111273   1.976   3.109   9.868 -0.0182 -0.1695 -0.4529
  759MPD2    H711274   2.039   3.048   9.920  1.2003  0.7845 -0.8282
  760MPD2     C11275   1.760   1.302  12.427  0.0871 -0.6731 -0.1272
  760MPD2    C111276   1.891   1.320  12.413  0.1678  0.2415 -0.4269
  760MPD2    C211277   1.971   1.210  12.429 -0.1152 -0.0870 -0.1666
  760MPD2    C311278   1.920   1.084  12.466  0.9066 -0.5643 -0.1570
  760MPD2    C411279   1.787   1.068  12.498  0.1236  0.2481 -0.3607
  760MPD2    C511280   1.709   1.181  12.467  0.2793 -0.2105  0.3334
  760MPD2     H11281   2.078   1.214  12.411  0.0457 -0.3808  0.7061
  760MPD2    H111282   1.745   0.974  12.532  0.0862  0.7261  0.8914
  760MPD2    H211283   1.689   1.384  12.424 -0.1255 -0.8332  0.4303
  760MPD2    H311284   1.606   1.172  12.500  0.0717  1.9021  0.2150
  760MPD2     N11285   2.019   0.980  12.465  0.0301 -0.9527 -0.0592
  760MPD2    H511286   2.110   1.003  12.428 -0.1665 -0.7407 -0.4160
  760MPD2    N111287   1.956   1.438  12.367  0.0262 -0.0615 -0.1240
  760MPD2    H711288   2.053   1.436  12.338 -0.1527 -2.5920 -0.5276
  761MPD2     C11289   3.710   0.305  11.802 -0.0312  0.6575  1.3287
  761MPD2    C111290   3.742   0.303  11.674 -0.1463 -0.0648 -0.4901
  761MPD2    C211291   3.828   0.399  11.634  0.0379  0.2275  0.6609
  761MPD2    C311292   3.876   0.499  11.708  0.2365 -0.2827 -0.3776
  761MPD2    C411293   3.821   0.514  11.831  0.1796  0.1231  0.5751
  761MPD2    C511294   3.737   0.415  11.872  0.1673  0.1704  0.2547
  761MPD2     H11295   3.849   0.410  11.529  2.0115  1.1221  1.1586
  761MPD2    H111296   3.837   0.600  11.894 -2.3647  0.7731  0.3343
  761MPD2    H211297   3.655   0.222  11.845  2.0913 -1.3538  0.1933
  761MPD2    H311298   3.680   0.422  11.964  2.3255  1.9207  1.4608
  761MPD2     N11299   3.957   0.591  11.655 -0.0453 -0.0362  0.2739
  761MPD2    H511300   3.959   0.677  11.708  3.8653  0.2480 -0.3127
  761MPD2    N111301   3.676   0.212  11.583 -0.2706 -0.3442 -0.2047
  761MPD2    H711302   3.605   0.147  11.616  0.0817  0.1584  1.5966
  762MPD2     C11303   3.805   0.128  10.804 -0.5989 -0.0749 -0.2629
  762MPD2    C111304   3.719   0.032  10.852  0.1093  0.4465  0.1681
  762MPD2    C211305   3.710   4.654  10.778 -0.1198  0.5757 -0.3496
  762MPD2    C311306   3.780   4.633  10.661 -0.1659 -0.0737  0.1778
  762MPD2    C411307   3.852   4.740  10.604  0.7333 -0.4286  0.3473
  762MPD2    C511308   3.865   0.114  10.678  0.0935  0.1215 -0.4020
  762MPD2     H11309   3.646   4.579  10.825  2.0361 -1.6585 -0.9657
  762MPD2    H111310   3.902   4.736  10.508  1.9474 -1.3694  0.9979
  762MPD2    H211311   3.817   0.222  10.855 -1.9212  0.6645 -1.2957
  762MPD2    H311312   3.919   0.201  10.643 -0.7783  0.9505  0.3085
  762MPD2     N11313   3.779   4.501  10.602  0.3674 -1.0073 -0.7513
  762MPD2    H511314   3.725   4.433  10.655 -1.6177  1.0557 -0.1538
  762MPD2    N111315   3.664   0.064  10.978  0.2390  0.6065 -0.2254
  762MPD2    H711316   3.700   0.147  11.024 -1.5331  1.9572 -1.2617
  763MPD2     C11317   0.775   0.745  16.097  0.2990  1.1599 -0.1712
  763MPD2    C111318   0.664   0.760  16.172 -0.2267 -0.5865 -0.1742
  763MPD2    C211319   0.649   0.872  16.251  0.4857 -0.9662 -0.1499
  763MPD2    C311320   0.751   0.967  16.260  0.1344  0.5249  0.6104
  763MPD2    C411321   0.862   0.943  16.188  0.6066  0.0793  0.6912
  763MPD2    C511322   0.882   0.831  16.108  0.7174 -0.0680  0.6429
  763MPD2     H11323   0.561   0.888  16.312  0.7080 -1.7927  0.4059
  763MPD2    H111324   0.944   1.014  16.179 -0.9623  1.6382 -1.1268
  763MPD2    H211325   0.789   0.660  16.031 -2.8708  0.1886  0.4131
  763MPD2    H311326   0.972   0.818  16.050  0.9643 -0.7277  1.1787
  763MPD2     N11327   0.749   1.091  16.334 -0.0982  0.8785 -0.1026
  763MPD2    H511328   0.836   1.144  16.333 -0.3590  1.2624 -2.0385
  763MPD2    N111329   0.550   0.675  16.154 -0.1996 -0.1059  0.3680
  763MPD2    H711330   0.465   0.691  16.206  0.0118 -0.3656  0.7973
  764MPD2     C11331   3.264   3.283  17.736 -0.2412  0.4360 -0.5113
  764MPD2    C111332   3.215   3.157  17.714  0.0722  1.1747  0.0417
  764MPD2    C211333   3.272   3.054   0.030 -0.5441  0.0093  0.3570
  764MPD2    C311334   3.372   3.072   0.123 -0.7550  0.4142  0.4261
  764MPD2    C411335   3.413   3.197   0.146 -0.7814  0.5615  0.2430
  764MPD2    C511336   3.362   3.304   0.073 -0.1946 -0.5037  0.6190
  764MPD2     H11337   3.228   2.954   0.026 -0.7291  0.2333 -3.2554
  764MPD2    H111338   3.481   3.225   0.226  2.0345  2.7542 -2.8963
  764MPD2    H211339   3.222   3.370  17.687  0.3044  1.6048  1.0859
  764MPD2    H311340   3.395   3.406   0.088  0.0369 -0.6367  1.0004
  764MPD2     N11341   3.412   2.952   0.196  0.1136  0.0023 -0.4497
  764MPD2    H511342   3.372   2.862   0.170 -1.1769  0.0059  1.5345
  764MPD2    N111343   3.116   3.125  17.623  0.4702  0.0841  1.0369
  764MPD2    H711344   3.101   3.027  17.602  1.1798 -0.0364  1.0975
  765MPD2     C11345   3.178   0.296  15.616 -0.0549 -0.3055  0.0687
  765MPD2    C111346   3.265   0.390  15.675  0.4773  0.0652  0.4297
  765MPD2    C211347   3.398   0.365  15.678  0.1830  0.3340 -1.0004
  765MPD2    C311348   3.449   0.258  15.604 -0.4504  0.3788  0.0347
  765MPD2    C411349   3.365   0.166  15.537  0.5626 -0.2554  0.0584
  765MPD2    C511350   3.226   0.189  15.549  0.3046  0.3078 -0.0499
  765MPD2     H11351   3.470   0.435  15.719  0.0254 -0.9656  1.4620
  765MPD2    H111352   3.393   0.078  15.480 -1.1161 -1.9511  1.8592
  765MPD2    H211353   3.072   0.312  15.631 -0.0060  0.4773 -0.4035
  765MPD2    H311354   3.159   0.108  15.523  0.3557  0.0540  0.5856
  765MPD2     N11355   3.590   0.238  15.609 -0.3448  0.1317 -0.1697
  765MPD2    H511356   3.640   0.265  15.693 -0.4166 -0.2375 -0.0082
  765MPD2    N111357   3.204   0.495  15.743 -0.1471 -0.2654  0.3038
  765MPD2    H711358   3.103   0.491  15.753 -0.2879  1.6325 -0.1960
  766MPD2     C11359   2.659   0.581  15.545  0.5353 -0.3099  0.3540
  766MPD2    C111360   2.782   0.635  15.520  0.6543 -0.8081  0.1162
  766MPD2    C211361   2.835   0.627  15.393 -0.1217 -0.4282  0.4843
  766MPD2    C311362   2.779   0.554  15.293  0.2199 -0.5310  0.6079
  766MPD2    C411363   2.660   0.497  15.321 -1.0190  0.4716 -0.0148
  766MPD2    C511364   2.596   0.515  15.442  0.3566 -0.0508 -0.5800
  766MPD2     H11365   2.932   0.674  15.380 -1.7759  3.2792  1.3252
  766MPD2    H111366   2.605   0.435  15.251  0.6047 -1.6153  0.5496
  766MPD2    H211367   2.596   0.600  15.631  0.5114  0.1593  0.2293
  766MPD2    H311368   2.492   0.486  15.456  0.1516  1.1116  0.3567
  766MPD2     N11369   2.835   0.546  15.160  0.3757 -1.2605  0.0329
  766MPD2    H511370   2.782   0.513  15.081 -1.3658 -1.0917  1.1413
  766MPD2    N111371   2.854   0.703  15.617  0.0628  0.7053 -0.5092
  766MPD2    H711372   2.919   0.776  15.590  3.5045 -2.5741 -1.0791
  767MPD2     C11373   2.403   0.767  15.291 -0.0920  0.2844  0.3360
  767MPD2    C111374   2.493   0.829  15.212 -0.9761 -0.1775  0.3597
  767MPD2    C211375   2.486   0.800  15.079  0.3848 -0.2345  0.0985
  767MPD2    C311376   2.396   0.706  15.031  0.0778 -0.1998 -0.6307
  767MPD2    C411377   2.307   0.644  15.122  0.0282 -0.4194  0.4162
  767MPD2    C511378   2.309   0.678  15.249 -0.2249 -0.0251 -0.5971
  767MPD2     H11379   2.562   0.839  15.012  0.8456 -2.4096 -0.6206
  767MPD2    H111380   2.230   0.570  15.100  0.1286 -0.8411  1.4591
  767MPD2    H211381   2.401   0.780  15.399  1.4060  2.7993  0.0598
  767MPD2    H311382   2.249   0.632  15.327 -0.7914  0.0059 -1.0206
  767MPD2     N11383   2.413   0.652  14.901 -0.3148 -0.0003  0.3217
  767MPD2    H511384   2.473   0.708  14.841 -0.0466  0.2279  0.7987
  767MPD2    N111385   2.590   0.918  15.266  0.1241  0.3441 -0.8247
  767MPD2    H711386   2.607   0.921  15.366 -1.2185 -1.4504 -0.5543
  768MPD2     C11387   2.800   3.075  11.304  0.1783 -0.9320  0.1509
  768MPD2    C111388   2.754   3.194  11.358  0.1066  0.0683 -0.5452
  768MPD2    C211389   2.813   3.241  11.469 -0.1168  0.2483  0.1893
  768MPD2    C311390   2.916   3.171  11.532 -0.6046 -0.0103  0.2857
  768MPD2    C411391   2.964   3.057  11.476 -0.0596 -0.0244  0.4635
  768MPD2    C511392   2.908   3.007  11.364 -0.3353  0.1954  0.2529
  768MPD2     H11393   2.799   3.342  11.504 -1.3732 -0.5805  2.0524
  768MPD2    H111394   3.045   2.998  11.515  0.5835 -0.2689 -1.2308
  768MPD2    H211395   2.748   3.035  11.218 -2.1701  0.9811  0.6651
  768MPD2    H311396   2.954   2.921  11.317  1.2396  1.0374  0.2743
  768MPD2     N11397   2.978   3.226  11.646  0.1496  0.7048 -0.1586
  768MPD2    H511398   2.926   3.305  11.683 -2.1993 -1.0018  0.2020
  768MPD2    N111399   2.654   3.278  11.300 -0.0794 -0.4006  0.3259
  768MPD2    H711400   2.639   3.368  11.343  1.0629  0.3609 -0.8317
  769MPD2     C11401   0.087   1.736  14.971 -0.7558  0.4024  0.0129
  769MPD2    C111402   4.700   1.717  15.016  0.2920 -1.1122  0.2765
  769MPD2    C211403   4.664   1.740  15.143 -0.4513  0.1491 -0.5796
  769MPD2    C311404   0.015   1.792  15.230  0.0045 -0.6234  0.2396
  769MPD2    C411405   0.141   1.812  15.185 -0.1796 -0.3764  0.8383
  769MPD2    C511406   0.179   1.786  15.058 -0.1838 -0.0539  0.8394
  769MPD2     H11407   4.562   1.724  15.174  0.0904 -1.7531  0.2664
  769MPD2    H111408   0.218   1.848  15.251 -0.7375 -0.3965  1.5017
  769MPD2    H211409   0.112   1.711  14.869 -2.2910 -1.6498  0.1540
  769MPD2    H311410   0.282   1.807  15.031 -0.6870 -0.1571 -1.1367
  769MPD2     N11411   4.725   1.821  15.361  0.0516 -0.0456 -0.0055
  769MPD2    H511412   0.062   1.868  15.408 -0.5809  0.3268  0.6731
  769MPD2    N111413   4.608   1.671  14.917  0.2009 -0.2672 -0.4027
  769MPD2    H711414   4.648   1.654  14.825  0.7123  0.9668 -0.4221
  770MPD2     C11415   4.296   0.836  14.942  0.7039  0.2537  0.5081
  770MPD2    C111416   4.195   0.874  14.855  0.1486 -0.0131 -0.2948
  770MPD2    C211417   4.206   0.986  14.778 -0.7599 -0.3964  0.5568
  770MPD2    C311418   4.323   1.066  14.792  0.1355 -1.0981  0.0325
  770MPD2    C411419   4.420   1.028  14.886 -0.5086  0.5500 -0.2045
  770MPD2    C511420   4.402   0.917  14.957  0.1508 -0.1969 -0.6344
  770MPD2     H11421   4.130   1.001  14.702 -1.0795  3.1975  1.5792
  770MPD2    H111422   4.512   1.083  14.900  0.8076 -1.4499 -0.9580
  770MPD2    H211423   4.290   0.744  14.998  0.5175 -0.1288 -0.1497
  770MPD2    H311424   4.480   0.896  15.030 -0.9092 -0.3647  0.4476
  770MPD2     N11425   4.328   1.192  14.726 -0.8329  0.1953 -0.5091
  770MPD2    H511426   4.238   1.226  14.693 -1.2003 -0.1347  0.1594
  770MPD2    N111427   4.088   0.786  14.842 -0.1478 -0.5587  0.3538
  770MPD2    H711428   4.105   0.690  14.871  2.6955  0.5476  2.3024
  771MPD2     C11429   0.149   4.567  14.023  0.1627 -0.1122 -0.6157
  771MPD2    C111430   0.270   4.540  13.977 -0.2141  0.9298 -0.3437
  771MPD2    C211431   0.292   4.446  13.879 -0.4006 -0.1152  0.0151
  771MPD2    C311432   0.192   4.381  13.821  0.0717 -0.6433  0.6658
  771MPD2    C411433   0.063   4.411  13.867  0.1218  0.3307  0.3651
  771MPD2    C511434   0.043   4.497  13.970  0.4102  0.4827 -0.5002
  771MPD2     H11435   0.394   4.428  13.848 -0.4530  0.6946 -0.6216
  771MPD2    H111436   4.718   4.357  13.825 -0.5840  0.2485  1.8916
  771MPD2    H211437   0.139   4.635  14.107 -0.8384  0.5818 -1.2896
  771MPD2    H311438   4.679   4.515  13.998  1.0820  0.5688  1.9571
  771MPD2     N11439   0.225   4.279  13.731 -0.1503  0.3412  0.2445
  771MPD2    H511440   0.322   4.274  13.700 -0.9228 -1.0572 -2.0186
  771MPD2    N111441   0.391   4.600  14.028  0.1308 -0.9122 -0.1165
  771MPD2    H711442   0.477   4.565  13.988 -0.8716 -1.5421 -1.7399
  772MPD2     C11443   0.254   0.566  14.269  0.7836  0.1093  0.3554
  772MPD2    C111444   0.250   0.427  14.254  0.3758  0.3107 -0.3726
  772MPD2    C211445   0.134   0.364  14.282 -0.1340  0.3290  0.2255
  772MPD2    C311446   0.019   0.434  14.311 -0.0647 -0.5166 -0.0339
  772MPD2    C411447   0.023   0.569  14.326 -0.2067  0.1151  0.8663
  772MPD2    C511448   0.140   0.639  14.298 -0.1195  0.2974 -0.6058
  772MPD2     H11449   0.141   0.256  14.288  2.3013  0.4807  0.2500
  772MPD2    H111450   4.679   0.636  14.341 -0.4519  0.6567 -2.9332
  772MPD2    H211451   0.343   0.622  14.244 -0.1938  1.6895  0.4268
  772MPD2    H311452   0.141   0.747  14.310 -0.5815  0.1763  0.5077
  772MPD2     N11453   4.628   0.378  14.327  0.2171  0.1903  0.6405
  772MPD2    H511454   4.554   0.443  14.350 -0.5671 -0.0797 -1.1275
  772MPD2    N111455   0.358   0.341  14.220  0.2188  0.0425 -0.4358
  772MPD2    H711456   0.337   0.243  14.231  4.5734 -0.6156  1.9530
  773MPD2     C11457   4.299   1.709   0.594 -0.4083 -0.2772  0.5752
  773MPD2    C111458   4.169   1.664   0.572  0.1682 -0.1236 -0.2035
  773MPD2    C211459   4.148   1.522   0.579  0.1598  0.3468 -0.3707
  773MPD2    C311460   4.249   1.430   0.594  0.1214  0.1837 -0.4227
  773MPD2    C411461   4.371   1.484   0.612  0.2570  0.0156 -0.2285
  773MPD2    C511462   4.397   1.617   0.608 -0.2003 -0.2136  0.2147
  773MPD2     H11463   4.051   1.481   0.553 -0.2673  1.5951 -0.7083
  773MPD2    H111464   4.458   1.424   0.635  0.4883  0.8533  1.0732
  773MPD2    H211465   4.329   1.812   0.575 -1.0970 -0.3435 -0.9021
  773MPD2    H311466   4.501   1.646   0.616 -1.0568  2.7267  0.7279
  773MPD2     N11467   4.221   1.289   0.599 -0.4317 -0.7772 -0.2949
  773MPD2    H511468   4.124   1.259   0.594 -0.0443 -1.7463 -1.9152
  773MPD2    N111469   4.073   1.746   0.532  0.0108  0.3175  0.0278
  773MPD2    H711470   3.981   1.706   0.524  0.1955 -0.4634  2.0724
  774MPD2     C11471   3.409   0.091  13.779 -0.0659 -0.3198  0.8606
  774MPD2    C111472   3.344   0.146  13.889 -0.0834  0.3910 -0.6933
  774MPD2    C211473   3.308   0.277  13.900 -0.9653 -0.4369 -0.1372
  774MPD2    C311474   3.342   0.363  13.792 -0.3863 -0.2153  0.1617
  774MPD2    C411475   3.407   0.307  13.678 -0.2107 -0.0041  0.0155
  774MPD2    C511476   3.427   0.169  13.669 -0.6540  0.0129 -0.4961
  774MPD2     H11477   3.259   0.320  13.987  3.9570  1.0223  1.9168
  774MPD2    H111478   3.423   0.361  13.586 -0.7950 -0.6663 -0.4728
  774MPD2    H211479   3.432   4.725  13.772 -2.0425 -0.6134 -1.1254
  774MPD2    H311480   3.476   0.131  13.580  1.5012  1.1925  0.2030
  774MPD2     N11481   3.310   0.499  13.808  0.0116  0.5413  0.1164
  774MPD2    H511482   3.247   0.518  13.886  0.8980 -0.9929  1.2107
  774MPD2    N111483   3.328   0.047  13.990 -0.0594  0.2640 -1.1085
  774MPD2    H711484   3.372   4.697  13.972 -0.0216  0.4407 -1.9109
  775MPD2     C11485   0.164   1.785  15.988 -0.1141 -0.0224 -0.1037
  775MPD2    C111486   0.157   1.915  16.027 -0.0967  0.3937 -0.1296
  775MPD2    C211487   0.195   2.013  15.938  1.3114  0.1779 -0.4319
  775MPD2    C311488   0.251   1.975  15.814 -0.5678 -0.6246  0.5544
  775MPD2    C411489   0.274   1.841  15.780  0.0375  0.0443  0.1864
  775MPD2    C511490   0.224   1.750  15.868 -0.5611 -0.7561 -0.7382
  775MPD2     H11491   0.174   2.118  15.954  1.6422  0.6843 -3.3254
  775MPD2    H111492   0.330   1.810  15.692  1.2095 -0.3996  1.0894
  775MPD2    H211493   0.136   1.710  16.061 -0.8230 -0.2150 -0.5708
  775MPD2    H311494   0.248   1.645  15.857 -2.1249 -1.2217  0.3978
  775MPD2     N11495   0.287   2.068  15.710  0.1525 -0.4217  0.5545
  775MPD2    H511496   0.298   2.020  15.622 -0.9645 -0.4215  0.4110
  775MPD2    N111497   0.102   1.938  16.158  0.3827  0.3277  0.1071
  775MPD2    H711498   0.064   1.855  16.201 -0.9877  1.1998  0.5738
  776MPD2     C11499   3.785   1.833  11.606 -0.8024 -0.0799 -0.0956
  776MPD2    C111500   3.657   1.858  11.568 -0.2605 -0.8636  0.5125
  776MPD2    C211501   3.609   1.986  11.552  0.5824  0.3232  0.1981
  776MPD2    C311502   3.695   2.097  11.558 -0.9119 -0.6694 -0.0699
  776MPD2    C411503   3.821   2.069  11.601  0.7983 -0.5732  0.2578
  776MPD2    C511504   3.869   1.939  11.613 -0.9176 -0.3874 -0.1923
  776MPD2     H11505   3.503   2.000  11.537  0.7314 -0.0035 -1.1725
  776MPD2    H111506   3.892   2.149  11.622  0.8263 -0.6152  0.3231
  776MPD2    H211507   3.814   1.736  11.643 -0.2533  0.5206  1.0776
  776MPD2    H311508   3.973   1.929  11.640 -0.1292  0.6673 -2.8604
  776MPD2     N11509   3.661   2.229  11.526  0.6687  0.3331 -0.5785
  776MPD2    H511510   3.732   2.302  11.530  0.2099  0.8759 -1.9973
  776MPD2    N111511   3.566   1.749  11.578 -0.1608 -0.2541  0.2315
  776MPD2    H711512   3.609   1.659  11.595  0.3675 -0.3667 -1.6924
  777MPD2     C11513   3.843   0.299   0.949 -0.3138 -0.1356 -0.0727
  777MPD2    C111514   3.920   0.218   1.033  0.0805 -0.1503  0.1207
  777MPD2    C211515   3.915   0.085   1.004  1.2285  0.0135  0.4391
  777MPD2    C311516   3.852   0.032   0.887  0.4240  0.6830 -0.1251
  777MPD2    C411517   3.777   0.115   0.811  0.5160  0.0604 -0.1082
  777MPD2    C511518   3.777   0.250   0.841 -0.0195 -0.4274 -0.1834
  777MPD2     H11519   3.978   0.018   1.061 -1.3083 -2.9064 -0.1842
  777MPD2    H111520   3.713   0.082   0.730  0.1844  0.5054 -0.0294
  777MPD2    H211521   3.844   0.405   0.967 -0.7366  0.2109 -2.0519
  777MPD2    H311522   3.721   0.312   0.771  0.1189 -1.1104 -0.8959
  777MPD2     N11523   3.856   4.632   0.863 -0.0613  0.5732 -0.1122
  777MPD2    H511524   3.910   4.582   0.933  0.5737  0.1569 -0.9013
  777MPD2    N111525   3.994   0.273   1.134 -0.5788  0.5328 -0.8303
  777MPD2    H711526   3.978   0.370   1.158  0.0258  0.6897 -1.0664
  778MPD2     C11527   0.331   4.588  15.254 -0.8012 -0.1894 -0.4771
  778MPD2    C111528   0.350   4.471  15.190  0.5059  0.6664  0.5696
  778MPD2    C211529   0.469   4.435  15.130 -0.4111 -0.1943  0.0144
  778MPD2    C311530   0.566   4.539  15.126 -0.5495 -0.7100  0.3606
  778MPD2    C411531   0.538   4.669  15.173  0.5920 -0.0394  0.1611
  778MPD2    C511532   0.426   4.688  15.246 -0.4110 -0.3255 -0.5479
  778MPD2     H11533   0.482   4.343  15.074  1.9264  1.5262 -2.2812
  778MPD2    H111534   0.616   0.004  15.168 -0.6255  1.3481  1.8811
  778MPD2    H211535   0.239   4.617  15.304  0.0489  0.9251  0.4494
  778MPD2    H311536   0.401   0.040  15.299  0.5214 -1.3428  1.6533
  778MPD2     N11537   0.684   4.505  15.056  0.2991  0.4252 -0.1280
  778MPD2    H511538   0.681   4.414  15.011  3.2222  0.2228  0.1296
  778MPD2    N111539   0.249   4.382  15.193  0.1855 -0.4463  0.3590
  778MPD2    H711540   0.258   4.311  15.121  2.0574  1.0669 -0.8879
  779MPD2     C11541   4.219   3.288  13.802  0.1371  0.5878 -0.3400
  779MPD2    C111542   4.340   3.273  13.863  0.1287  0.3754 -0.3912
  779MPD2    C211543   4.435   3.375  13.851  0.1941  0.5894 -0.2356
  779MPD2    C311544   4.407   3.493  13.786 -0.4181 -0.0128  0.3854
  779MPD2    C411545   4.284   3.505  13.729  0.3487  0.4652 -0.3608
  779MPD2    C511546   4.190   3.404  13.735  0.5058 -0.2820 -0.0383
  779MPD2     H11547   4.521   3.365  13.916 -1.5912 -0.9186  1.8740
  779MPD2    H111548   4.250   3.598  13.684 -0.6747  0.0065 -0.5204
  779MPD2    H211549   4.141   3.213  13.794 -0.9804  1.7203 -0.1032
  779MPD2    H311550   4.095   3.423  13.687  0.7016  0.2014 -0.2413
  779MPD2     N11551   4.507   3.596  13.779 -0.5353 -0.1173 -0.2255
  779MPD2    H511552   4.601   3.565  13.800 -0.1802  0.6124 -0.7573
  779MPD2    N111553   4.377   3.156  13.925  0.0581  0.0000  0.0329
  779MPD2    H711554   4.476   3.154  13.950 -0.2307 -0.8148  1.1144
  780MPD2     C11555   0.349   3.427   1.372 -0.2981 -0.3504 -0.5420
  780MPD2    C111556   0.227   3.483   1.344  0.4913  0.0407  0.4064
  780MPD2    C211557   0.194   3.514   1.210  0.4365 -0.2325  0.0952
  780MPD2    C311558   0.271   3.473   1.113  0.1201  0.3007 -0.5404
  780MPD2    C411559   0.383   3.401   1.136 -0.1752 -0.9000  0.2335
  780MPD2    C511560   0.421   3.386   1.267  0.1741 -0.3278  0.3759
  780MPD2     H11561   0.104   3.569   1.185  0.6122 -0.6279 -1.3737
  780MPD2    H111562   0.455   3.356   1.068  1.1864 -0.1008  1.1407
  780MPD2    H211563   0.389   3.396   1.468  2.5805 -0.2591 -1.7106
  780MPD2    H311564   0.517   3.336   1.276 -1.0147 -2.2354  2.4599
  780MPD2     N11565   0.231   3.492   0.982  0.2113 -0.0871 -0.2854
  780MPD2    H511566   0.152   3.555   0.969 -0.0640 -0.4306 -0.2830
  780MPD2    N111567   0.155   3.526   1.456 -0.1508  0.6483 -0.5428
  780MPD2    H711568   0.199   3.499   1.543 -1.5602  1.5491  0.4532
  781MPD2     C11569   2.304   4.515  12.490  0.1964  0.7251  0.4496
  781MPD2    C111570   2.189   4.470  12.427 -0.8926 -1.1112 -0.0975
  781MPD2    C211571   2.186   4.481  12.290  0.4005  0.1723  0.1073
  781MPD2    C311572   2.293   4.536  12.214 -0.3592 -0.0857  0.2126
  781MPD2    C411573   2.401   4.579  12.284  0.0713  0.0325  0.3648
  781MPD2    C511574   2.410   4.571  12.422 -0.0060 -0.4685  0.4466
  781MPD2     H11575   2.088   4.475  12.245 -0.8673  1.1081  2.7468
  781MPD2    H111576   2.482   4.627  12.230 -0.1024  1.2170  1.1609
  781MPD2    H211577   2.324   4.508  12.596  0.0583  0.3593  0.4505
  781MPD2    H311578   2.501   4.605  12.471  0.8485 -0.0319 -1.4581
  781MPD2     N11579   2.272   4.570  12.079  0.3596  0.1646 -0.6402
  781MPD2    H511580   2.345   4.636  12.053  1.9980 -1.0351  0.9551
  781MPD2    N111581   2.074   4.433  12.503 -0.4275 -0.0283  0.4665
  781MPD2    H711582   1.988   4.424  12.451  0.6062  0.3998 -1.3101
  782MPD2     C11583   4.296   0.150  10.130  0.3901  0.4731  0.2885
  782MPD2    C111584   4.404   0.134  10.209  1.0745 -0.4567 -0.2962
  782MPD2    C211585   4.523   0.188  10.175 -0.1045 -0.0533  0.3685
  782MPD2    C311586   4.540   0.259  10.059  0.1811 -0.0049 -0.6703
  782MPD2    C411587   4.430   0.269   9.972  0.1347  0.0567  0.1698
  782MPD2    C511588   4.314   0.211  10.007  0.0776 -0.1103  0.2544
  782MPD2     H11589   4.614   0.157  10.226 -0.0464 -0.3411  0.0924
  782MPD2    H111590   4.445   0.318   9.877 -3.4038 -1.4325 -1.1346
  782MPD2    H211591   4.204   0.095  10.146  1.3847 -1.0521  0.7832
  782MPD2    H311592   4.234   0.211   9.934 -1.8929  0.8716  2.4226
  782MPD2     N11593   4.666   0.307  10.029 -0.0609  0.2385 -0.0719
  782MPD2    H511594   4.723   0.279  10.109  0.8820  0.5258 -0.6420
  782MPD2    N111595   4.383   0.048  10.320  0.0017  0.4832  0.5992
  782MPD2    H711596   4.288   0.021  10.346 -0.3203  1.2408  0.2049
  783MPD2     C11597   4.051   0.321  11.202  0.4595  0.5731  0.9310
  783MPD2    C111598   4.122   0.427  11.143 -0.7091 -1.0805  0.2564
  783MPD2    C211599   4.167   0.406  11.014  0.6298 -0.8914  0.3071
  783MPD2    C311600   4.142   0.290  10.944 -0.4663  0.1260  0.2062
  783MPD2    C411601   4.074   0.184  11.004  0.3593 -0.1457  0.1964
  783MPD2    C511602   4.024   0.205  11.129  0.2289 -0.7827 -0.1802
  783MPD2     H11603   4.227   0.483  10.966  0.1711  0.3088  1.6500
  783MPD2    H111604   4.060   0.086  10.959 -0.1050  1.1206 -2.4485
  783MPD2    H211605   4.013   0.342  11.301  2.4662  1.2677  1.5484
  783MPD2    H311606   3.979   0.123  11.185  2.7776 -1.0156  1.5669
  783MPD2     N11607   4.224   0.262  10.836  0.3821  0.0825  0.6572
  783MPD2    H511608   4.284   0.336  10.801  0.0326  0.4047  0.7382
  783MPD2    N111609   4.152   0.532  11.228 -0.2577 -0.0841  0.6624
  783MPD2    H711610   4.124   0.526  11.326 -3.7916  2.2908 -0.1797
  784MPD2     C11611   1.940   1.673   0.627  0.1883 -0.0457  0.4848
  784MPD2    C111612   1.889   1.704   0.750 -0.0718 -1.1679  0.5645
  784MPD2    C211613   1.751   1.717   0.759 -0.3500  0.6599  0.6774
  784MPD2    C311614   1.675   1.698   0.647 -0.4158  0.0111 -0.6058
  784MPD2    C411615   1.730   1.662   0.529  0.0727 -0.2936  0.2175
  784MPD2    C511616   1.864   1.653   0.519 -0.1593  0.3012  0.3564
  784MPD2     H11617   1.708   1.739   0.856  0.5220 -0.1290  1.2500
  784MPD2    H111618   1.669   1.633   0.444 -1.0846  0.4604  0.7898
  784MPD2    H211619   2.046   1.654   0.616 -0.1047  0.3257 -3.3165
  784MPD2    H311620   1.916   1.621   0.430  1.0546 -0.5581  1.3613
  784MPD2     N11621   1.540   1.726   0.665 -0.4373  0.1622  0.1230
  784MPD2    H511622   1.511   1.758   0.757 -0.8088  1.2201 -0.3696
  784MPD2    N111623   1.973   1.725   0.861  0.0663 -0.1996  0.4181
  784MPD2    H711624   1.932   1.765   0.945  1.7454  1.0272  0.6354
  785MPD2     C11625   2.564   0.123  10.853  0.5277 -0.2484  0.6321
  785MPD2    C111626   2.462   0.178  10.924  0.7988 -0.1842  0.7159
  785MPD2    C211627   2.384   0.084  10.997  0.6342 -0.2680 -0.1302
  785MPD2    C311628   2.426   4.696  11.021  0.1327  0.4499 -0.4292
  785MPD2    C411629   2.540   4.654  10.960 -0.2942  0.3198 -0.4381
  785MPD2    C511630   2.609   4.732  10.872 -0.6146 -0.2447 -0.0179
  785MPD2     H11631   2.282   0.113  11.016  0.6397  0.0120 -0.5268
  785MPD2    H111632   2.571   4.550  10.954  0.9194  0.5890  1.3226
  785MPD2    H211633   2.601   0.187  10.773 -1.1227  0.3257  0.3356
  785MPD2    H311634   2.676   4.681  10.804 -1.1365 -0.3707 -0.4380
  785MPD2     N11635   2.332   4.615  11.092 -0.5491 -0.4918  0.3213
  785MPD2    H511636   2.241   4.654  11.116 -0.1741 -0.6545  1.9927
  785MPD2    N111637   2.426   0.313  10.898  0.5705  0.2175 -0.6066
  785MPD2    H711638   2.488   0.362  10.834 -1.2619  1.0369 -1.7394
  786MPD2     C11639   0.267   2.328  14.576 -0.8522  0.4041 -0.9584
  786MPD2    C111640   0.404   2.342  14.559  0.2846 -0.5441  0.0429
  786MPD2    C211641   0.475   2.382  14.669  0.0645 -0.2455 -0.5679
  786MPD2    C311642   0.414   2.435  14.781 -1.1400 -0.2051 -0.0909
  786MPD2    C411643   0.275   2.424  14.796  0.1764  0.0150  0.5886
  786MPD2    C511644   0.204   2.366  14.689 -0.1372  0.3293 -0.6611
  786MPD2     H11645   0.582   2.377  14.652  0.3606  0.6876  1.0557
  786MPD2    H111646   0.221   2.461  14.882 -0.1546  0.2287  0.2933
  786MPD2    H211647   0.204   2.295  14.494 -3.2977 -1.0787  1.5289
  786MPD2    H311648   0.097   2.365  14.703  0.2517 -0.8284  2.2066
  786MPD2     N11649   0.483   2.479  14.893  0.3843  0.1878 -0.3903
  786MPD2    H511650   0.435   2.496  14.981  0.4271  1.7984 -0.6761
  786MPD2    N111651   0.478   2.292  14.451  0.8051 -0.0438  0.2407
  786MPD2    H711652   0.578   2.300  14.469  1.0392  1.4328 -1.6723
  787MPD2     C11653   1.145   2.260  14.458 -0.0631 -0.1693 -0.1812
  787MPD2    C111654   1.088   2.164  14.375 -0.5790  0.5374  0.3878
  787MPD2    C211655   1.159   2.051  14.334 -0.1289 -0.5032 -0.3862
  787MPD2    C311656   1.295   2.039  14.365 -0.2260  0.4067  0.5841
  787MPD2    C411657   1.347   2.131  14.457  0.1393  0.1251 -0.3535
  787MPD2    C511658   1.273   2.233  14.499 -0.3088 -0.4931  0.1926
  787MPD2     H11659   1.124   1.978  14.263 -1.5740  0.4681 -0.6572
  787MPD2    H111660   1.447   2.116  14.498  0.1004 -1.4890 -0.8427
  787MPD2    H211661   1.079   2.340  14.490  0.3262  0.0996 -0.0526
  787MPD2    H311662   1.321   2.306  14.563  1.0235 -1.4453  0.2663
  787MPD2     N11663   1.374   1.926  14.318  0.1104  0.2083  0.4605
  787MPD2    H511664   1.321   1.855  14.269  1.0980 -1.9079  2.4577
  787MPD2    N111665   0.960   2.183  14.331 -0.5939  0.4882  0.8291
  787MPD2    H711666   0.912   2.272  14.338 -1.5303  0.1102 -0.9162
  788MPD2     C11667   3.051   1.626   1.065 -0.0938 -0.4456 -0.7768
  788MPD2    C111668   2.937   1.566   1.006  0.4251 -0.0141 -0.1443
  788MPD2    C211669   2.834   1.641   0.946 -0.3252 -0.8264 -0.6697
  788MPD2    C311670   2.840   1.781   0.943 -0.5273  0.5712 -0.3278
  788MPD2    C411671   2.951   1.841   1.008  0.0705 -0.0697  0.0677
  788MPD2    C511672   3.052   1.764   1.066 -0.0859 -0.2531  0.1608
  788MPD2     H11673   2.749   1.592   0.900 -0.8502 -0.1825 -0.3933
  788MPD2    H111674   2.977   1.946   1.000 -0.4425 -0.1232 -2.1366
  788MPD2    H211675   3.133   1.567   1.106 -1.2902 -0.2396  1.9248
  788MPD2    H311676   3.128   1.822   1.116 -0.4148 -0.5495  1.0138
  788MPD2     N11677   2.743   1.867   0.885  0.0565 -0.2034  0.0427
  788MPD2    H511678   2.776   1.961   0.868  1.0195 -0.9126 -1.9551
  788MPD2    N111679   2.936   1.421   1.006 -0.2329 -0.0445 -0.0142
  788MPD2    H711680   3.024   1.382   1.038 -1.4944 -3.8504 -1.1865
  789MPD2     C11681   2.961   0.784  16.521  1.1332  0.4126  0.3595
  789MPD2    C111682   2.968   0.713  16.644 -0.1919 -0.4908 -0.6040
  789MPD2    C211683   2.934   0.774  16.764  0.1403  0.8765  0.8894
  789MPD2    C311684   2.876   0.902  16.757  0.0840 -0.5721  0.3293
  789MPD2    C411685   2.874   0.968  16.636 -0.0683  0.5052  0.6680
  789MPD2    C511686   2.917   0.910  16.524 -0.1458 -0.0631 -0.4579
  789MPD2     H11687   2.938   0.719  16.858  2.5226 -2.3225 -1.0620
  789MPD2    H111688   2.831   1.067  16.628  0.5863  0.5770 -1.7492
  789MPD2    H211689   2.992   0.741  16.426  1.8176  1.3363  0.1675
  789MPD2    H311690   2.913   0.965  16.431  1.2140  3.3232  1.5119
  789MPD2     N11691   2.805   0.962  16.862 -0.1458  0.0103 -0.6073
  789MPD2    H511692   2.741   1.036  16.835 -0.8851 -0.2997  0.2803
  789MPD2    N111693   3.028   0.585  16.652 -0.0580 -0.5085  0.0027
  789MPD2    H711694   3.032   0.544  16.745  2.9732  0.5556  0.3258
  790MPD2     C11695   4.195   2.429  13.205 -0.3719 -0.1701  0.1766
  790MPD2    C111696   4.170   2.299  13.247  0.1889 -0.3196  0.5551
  790MPD2    C211697   4.118   2.213  13.153 -0.0481 -0.7627 -0.3125
  790MPD2    C311698   4.084   2.253  13.026 -0.0983 -0.4355  0.6685
  790MPD2    C411699   4.103   2.384  12.985 -0.7932  0.4753  0.0641
  790MPD2    C511700   4.164   2.474  13.078 -0.4263 -0.1082  0.1107
  790MPD2     H11701   4.100   2.110  13.181 -2.3630 -0.2797 -0.0254
  790MPD2    H111702   4.091   2.413  12.882  2.8063  1.6304 -0.0445
  790MPD2    H211703   4.259   2.494  13.264  1.4953  0.7057 -2.7812
  790MPD2    H311704   4.193   2.573  13.045  1.1920 -0.6281 -0.0235
  790MPD2     N11705   4.013   2.157  12.946 -0.4903  0.2139 -0.5671
  790MPD2    H511706   4.026   2.061  12.975 -1.0777  0.4452  0.4367
  790MPD2    N111707   4.188   2.262  13.378 -0.4946  0.1320 -0.0119
  790MPD2    H711708   4.213   2.331  13.448 -0.6884 -0.4738  0.6547
  791MPD2     C11709   3.325   2.210  12.582 -1.0855 -0.0371  0.2079
  791MPD2    C111710   3.369   2.087  12.618 -0.0683  0.3743  0.1481
  791MPD2    C211711   3.281   1.990  12.634 -0.2176  0.4708  0.3341
  791MPD2    C311712   3.145   2.017  12.620  0.0311  0.5626  0.1706
  791MPD2    C411713   3.096   2.147  12.613 -0.2960  0.9377 -0.0366
  791MPD2    C511714   3.194   2.247  12.593  0.3520 -0.2657  0.1145
  791MPD2     H11715   3.311   1.887  12.649 -1.4556  0.1313  0.4595
  791MPD2    H111716   2.990   2.165  12.601 -0.4856  0.0536  0.2791
  791MPD2    H211717   3.403   2.283  12.563  0.2541 -0.8614  2.4199
  791MPD2    H311718   3.163   2.345  12.560  0.1653 -0.2534  0.3304
  791MPD2     N11719   3.058   1.906  12.635  0.2169 -0.1971  0.4711
  791MPD2    H511720   3.097   1.812  12.634 -2.2183 -1.2292  1.6369
  791MPD2    N111721   3.512   2.065  12.620  0.1611  0.3528 -0.5366
  791MPD2    H711722   3.570   2.144  12.594 -0.0573  1.2507  1.6845
  792MPD2     C11723   3.197   1.933  11.121 -0.3331  0.8751 -0.3591
  792MPD2    C111724   3.299   1.843  11.104  0.7665  0.0529 -0.6211
  792MPD2    C211725   3.267   1.728  11.028 -0.6620 -0.4854  0.2822
  792MPD2    C311726   3.141   1.694  10.996 -0.2917 -0.1928 -0.3430
  792MPD2    C411727   3.037   1.772  11.024  0.4726  0.1120 -0.7297
  792MPD2    C511728   3.066   1.892  11.083 -0.4000 -0.1617  0.6557
  792MPD2     H11729   3.347   1.663  10.993  0.0950  0.8707 -0.4985
  792MPD2    H111730   2.934   1.758  10.992 -0.8935  0.7862  3.4300
  792MPD2    H211731   3.208   2.029  11.169  0.0053  0.3177  0.6850
  792MPD2    H311732   2.986   1.961  11.110 -1.8703 -2.0350  1.0903
  792MPD2     N11733   3.110   1.580  10.918  0.5008 -0.3190 -0.2995
  792MPD2    H511734   3.010   1.576  10.901  1.0443 -0.0620 -3.6031
  792MPD2    N111735   3.423   1.882  11.158 -0.0830 -1.0288 -0.6244
  792MPD2    H711736   3.436   1.976  11.195 -1.1865 -0.6624 -1.1958
  793MPD2     C11737   3.599   0.761  10.480 -0.3110  0.5912  0.3621
  793MPD2    C111738   3.573   0.878  10.414 -0.1347  0.1805 -0.0447
  793MPD2    C211739   3.477   0.966  10.456  0.2031 -0.5054 -0.2503
  793MPD2    C311740   3.416   0.943  10.580 -0.1195  0.1159  0.3022
  793MPD2    C411741   3.434   0.819  10.639  0.5978  0.2094  0.9472
  793MPD2    C511742   3.530   0.728  10.593 -0.2820  0.1979  0.0634
  793MPD2     H11743   3.463   1.060  10.405  1.9087 -1.4325 -2.4305
  793MPD2    H111744   3.383   0.794  10.731 -1.2108  2.1899  0.4667
  793MPD2    H211745   3.662   0.689  10.430 -0.2392  0.6909  0.3090
  793MPD2    H311746   3.563   0.637  10.642 -0.8099  0.4345  0.8648
  793MPD2     N11747   3.326   1.039  10.633  0.3446 -0.8940  0.2197
  793MPD2    H511748   3.294   1.119  10.579  4.1412  0.3550 -0.1506
  793MPD2    N111749   3.643   0.921  10.298  0.2635  0.0175 -0.2743
  793MPD2    H711750   3.607   1.001  10.246  0.1731 -0.4836 -0.9897
  794MPD2     C11751   3.834   2.399  17.742 -0.1490 -0.5034 -0.6942
  794MPD2    C111752   3.783   2.271  17.754 -1.0664 -0.1976 -0.5279
  794MPD2    C211753   3.711   2.215  17.651 -0.0914  0.1518  0.0958
  794MPD2    C311754   3.683   2.290  17.544 -0.0015  0.6471  0.2333
  794MPD2    C411755   3.743   2.416  17.528 -0.0806 -0.7676 -0.3225
  794MPD2    C511756   3.814   2.469  17.631  0.0587 -0.7990 -0.3820
  794MPD2     H11757   3.667   2.117  17.667 -1.6073  0.7073 -0.7177
  794MPD2    H111758   3.705   2.483  17.451  1.2423  1.4495  0.9565
  794MPD2    H211759   3.883   2.448   0.068  0.4244 -0.7006 -0.9182
  794MPD2    H311760   3.853   2.571  17.630 -0.3437 -0.6456 -0.6633
  794MPD2     N11761   3.591   2.253  17.441  0.2446  0.3664 -0.0760
  794MPD2    H511762   3.562   2.325  17.375 -0.6152 -1.1398 -1.3326
  794MPD2    N111763   3.812   2.186   0.104  0.1164 -0.4647 -0.0937
  794MPD2    H711764   3.758   2.101   0.111 -0.5928 -0.1825 -2.0144
  795MPD2     C11765   1.486   3.492  13.831  0.1467 -0.2080  0.2073
  795MPD2    C111766   1.477   3.374  13.756  0.1846 -0.9592 -0.1903
  795MPD2    C211767   1.564   3.272  13.792 -0.3262 -0.2171  0.3655
  795MPD2    C311768   1.644   3.285  13.907  0.0378 -0.0189  0.4115
  795MPD2    C411769   1.648   3.415  13.968 -0.6818 -0.4958  0.0806
  795MPD2    C511770   1.564   3.517  13.937 -0.2563  0.2553  0.4617
  795MPD2     H11771   1.572   3.184  13.730 -1.5283  0.5982 -0.9344
  795MPD2    H111772   1.695   3.424  14.065 -2.1583  0.0319  0.7451
  795MPD2    H211773   1.411   3.567  13.809  1.3389  0.5644 -1.2152
  795MPD2    H311774   1.554   3.612  13.988 -0.8616  0.8020 -0.6661
  795MPD2     N11775   1.731   3.182  13.943  0.3108  0.5932  0.2458
  795MPD2    H511776   1.741   3.098  13.886 -1.5163  1.0129 -0.6900
  795MPD2    N111777   1.402   3.361  13.635 -0.1431  0.1088 -0.6809
  795MPD2    H711778   1.410   3.274  13.583 -0.6672 -1.0358  1.1722
  796MPD2     C11779   0.651   0.424  15.685 -0.7333  0.4214 -0.4336
  796MPD2    C111780   0.729   0.511  15.762 -0.1428 -0.6085 -0.1186
  796MPD2    C211781   0.686   0.640  15.780  0.4755 -0.5571  0.5698
  796MPD2    C311782   0.565   0.682  15.731  0.4480 -0.3419  0.4321
  796MPD2    C411783   0.495   0.594  15.649 -0.5959 -0.4858 -0.8107
  796MPD2    C511784   0.539   0.466  15.627  0.1278  0.3647 -0.1926
  796MPD2     H11785   0.745   0.709  15.840  0.0124 -1.2743  1.8602
  796MPD2    H111786   0.395   0.622  15.620 -1.1000 -0.5117  0.8741
  796MPD2    H211787   0.679   0.321  15.669 -2.7512 -0.1058 -0.6143
  796MPD2    H311788   0.481   0.404  15.560 -2.7116  2.5805  0.2216
  796MPD2     N11789   0.516   0.806  15.771 -1.2640 -0.0717 -0.3027
  796MPD2    H511790   0.568   0.862  15.837 -0.2580 -1.1969 -0.1353
  796MPD2    N111791   0.832   0.447  15.829  0.1078  0.2911  0.0167
  796MPD2    H711792   0.826   0.347  15.812 -0.4288  0.6015 -1.6526
  797MPD2     C11793   2.582   0.648  16.839 -0.4644 -0.1045  0.0261
  797MPD2    C111794   2.476   0.727  16.811 -0.2845  0.4743 -0.2193
  797MPD2    C211795   2.436   0.741  16.678  0.2850 -0.1260  0.0868
  797MPD2    C311796   2.513   0.682  16.572 -0.0952  0.8821  0.3056
  797MPD2    C411797   2.629   0.616  16.611 -0.2430  0.2448 -0.0442
  797MPD2    C511798   2.659   0.592  16.740 -0.1929  0.1643 -0.2890
  797MPD2     H11799   2.342   0.780  16.641 -0.1386 -0.2900  0.9824
  797MPD2    H111800   2.692   0.579  16.531  1.5533  3.7931 -0.2564
  797MPD2    H211801   2.611   0.609  16.936  1.4952 -1.2970 -1.0282
  797MPD2    H311802   2.750   0.539  16.767 -0.6515  0.4301  1.7663
  797MPD2     N11803   2.480   0.685  16.435  0.7819  0.0557 -0.0742
  797MPD2    H511804   2.527   0.618  16.374 -3.7381 -2.1014 -1.1724
  797MPD2    N111805   2.392   0.765  16.914 -0.4187  1.0875 -0.1656
  797MPD2    H711806   2.307   0.817  16.895  0.4147  2.2527 -0.7099
  798MPD2     C11807   1.788   0.359  16.701 -0.0128  0.0010  0.3806
  798MPD2    C111808   1.902   0.429  16.675  0.0413  0.6633  0.0720
  798MPD2    C211809   1.942   0.517  16.774 -0.3288 -0.4674  0.7503
  798MPD2    C311810   1.882   0.517  16.903  0.2388  0.6142 -0.3950
  798MPD2    C411811   1.770   0.447  16.927 -0.0580 -0.6216 -0.2391
  798MPD2    C511812   1.722   0.369  16.829 -0.1273 -0.0507  0.0572
  798MPD2     H11813   2.030   0.578  16.761  0.0143 -1.3162 -0.8430
  798MPD2    H111814   1.721   0.456  17.024 -0.4895 -2.0764 -0.3194
  798MPD2    H211815   1.741   0.290  16.632  0.3776 -1.2436  1.3675
  798MPD2    H311816   1.638   0.304  16.849  0.2144 -0.3908  0.3893
  798MPD2     N11817   1.948   0.605  16.992 -0.3686 -0.1096 -0.5733
  798MPD2    H511818   2.021   0.660  16.947 -1.7541  1.0430 -1.4251
  798MPD2    N111819   1.964   0.411  16.555  0.4407  0.6949 -0.6848
  798MPD2    H711820   1.911   0.365  16.482  0.1696 -0.5222  0.2652
  799MPD2     C11821   0.834   1.563  14.681  1.6002  0.0033 -0.6289
  799MPD2    C111822   0.776   1.469  14.598 -0.1446 -1.0299 -0.4883
  799MPD2    C211823   0.720   1.523  14.483 -0.0368 -0.2842 -0.1160
  799MPD2    C311824   0.731   1.655  14.454  0.2386 -0.4374 -0.0436
  799MPD2    C411825   0.813   1.740  14.529  0.3287 -0.2239 -0.3713
  799MPD2    C511826   0.846   1.694  14.651  0.0939 -0.4700 -0.6935
  799MPD2     H11827   0.668   1.458  14.414  0.6364 -1.8856  0.8896
  799MPD2    H111828   0.827   1.842  14.496  3.0422 -0.4980 -0.0958
  799MPD2    H211829   0.891   1.542  14.770  1.1002 -2.0056 -0.7823
  799MPD2    H311830   0.891   1.761  14.723  1.5947  0.3188 -2.3655
  799MPD2     N11831   0.684   1.713  14.335  0.2491 -0.8055 -0.3722
  799MPD2    H511832   0.724   1.801  14.303 -2.5632  0.6791  0.1849
  799MPD2    N111833   0.782   1.331  14.622  0.0323  0.1169  0.1842
  799MPD2    H711834   0.731   1.270  14.560  0.9971 -1.4147  0.9020
  800MPD2     C11835   0.891   2.487  14.003 -0.6152 -0.3761 -0.4468
  800MPD2    C111836   1.020   2.509  14.071  0.5125 -0.7801  0.2173
  800MPD2    C211837   1.120   2.404  14.070  0.0661 -0.5948  0.5066
  800MPD2    C311838   1.098   2.287  13.999  0.1007 -0.2434 -0.1248
  800MPD2    C411839   0.974   2.263  13.947 -0.8547 -0.5598 -0.1784
  800MPD2    C511840   0.881   2.362  13.940  0.6591 -0.7962  0.4325
  800MPD2     H11841   1.216   2.428  14.114  1.5448 -1.5405 -2.1978
  800MPD2    H111842   0.951   2.165  13.908 -1.4639 -0.3369 -0.3859
  800MPD2    H211843   0.805   2.553  14.001 -0.9984 -0.8201  1.1219
  800MPD2    H311844   0.781   2.334  13.908  0.4306  0.3340  0.1576
  800MPD2     N11845   1.208   2.195  13.979  0.0865 -0.2000  0.4871
  800MPD2    H511846   1.288   2.218  14.037 -0.3447  1.9845  0.2243
  800MPD2    N111847   1.048   2.635  14.136  0.3997  0.6319  0.3248
  800MPD2    H711848   0.978   2.707  14.131 -1.0464 -0.9588 -2.1687
  801MPD2     C11849   0.838   3.282  14.117  0.3468  0.7842 -0.5614
  801MPD2    C111850   0.878   3.200  14.221 -0.4845  0.7712 -0.2471
  801MPD2    C211851   0.799   3.179  14.329 -1.3370  0.2400 -0.4856
  801MPD2    C311852   0.666   3.229  14.331 -0.2211 -0.0650 -0.8700
  801MPD2    C411853   0.625   3.298  14.221 -0.5265 -0.3580 -0.5636
  801MPD2    C511854   0.709   3.328  14.120  0.1808 -0.1827  0.3470
  801MPD2     H11855   0.839   3.112  14.404 -0.8014  0.0165 -0.9738
  801MPD2    H111856   0.528   3.347  14.222 -0.9422 -1.1745 -1.0648
  801MPD2    H211857   0.898   3.309  14.031 -2.1979 -0.6728 -2.7731
  801MPD2    H311858   0.672   3.395  14.043 -0.9945 -3.0393 -1.5968
  801MPD2     N11859   0.568   3.192  14.421 -0.1307  0.2488  0.0474
  801MPD2    H511860   0.471   3.213  14.399  0.8359  1.2660 -3.2818
  801MPD2    N111861   0.998   3.120  14.210 -0.1477 -0.4680 -0.3463
  801MPD2    H711862   1.024   3.062  14.289  1.0555  0.5575  0.0197
  802MPD2     C11863   0.695   4.657   0.307  0.3924 -0.0698  0.2876
  802MPD2    C111864   0.656   4.541   0.364  0.0538 -0.3750 -0.7463
  802MPD2    C211865   0.726   4.422   0.347  0.2094 -0.2545  0.4458
  802MPD2    C311866   0.834   4.429   0.268  0.5144 -0.0314 -0.1766
  802MPD2    C411867   0.884   4.551   0.224 -0.5822 -0.1125 -0.0932
  802MPD2    C511868   0.819   4.666   0.243 -0.4246  0.1984  0.8589
  802MPD2     H11869   0.688   4.328   0.384 -0.9411  0.4644  1.1055
  802MPD2    H111870   0.976   4.553   0.167  0.9963 -1.7074  2.4264
  802MPD2    H211871   0.647   0.012   0.328  0.4800  0.2506 -0.9694
  802MPD2    H311872   0.854   0.017   0.196 -0.9819 -0.2236 -0.3705
  802MPD2     N11873   0.903   4.311   0.252 -0.1894 -0.1253 -0.4753
  802MPD2    H511874   0.849   4.226   0.266  0.5759 -0.5086  0.1088
  802MPD2    N111875   0.542   4.527   0.449 -0.4897 -0.9476  0.1363
  802MPD2    H711876   0.526   4.452   0.515  0.2648 -1.6324 -0.4448
  803MPD2     C11877   1.581   1.967  11.959 -0.5373  0.1371  0.2481
  803MPD2    C111878   1.690   2.041  11.992  1.4343  0.3949 -0.4160
  803MPD2    C211879   1.718   2.039  12.127 -0.8215 -0.0053 -0.2634
  803MPD2    C311880   1.648   1.967  12.222  0.0459  0.2619  0.1816
  803MPD2    C411881   1.529   1.906  12.178 -0.4859 -0.4054 -0.1927
  803MPD2    C511882   1.498   1.902  12.045  0.0185 -0.7099 -0.4087
  803MPD2     H11883   1.807   2.089  12.164 -1.4007 -0.2501  1.4481
  803MPD2    H111884   1.471   1.833  12.233 -0.7326 -1.0283 -1.2829
  803MPD2    H211885   1.559   1.953  11.853 -0.4302  0.9709  0.1166
  803MPD2    H311886   1.414   1.840  12.018 -2.4182  0.8755  3.4228
  803MPD2     N11887   1.679   1.959  12.366  0.3264 -0.0608 -0.3646
  803MPD2    H511888   1.617   1.904  12.425 -1.4172  0.8356 -1.3532
  803MPD2    N111889   1.773   2.116  11.900  0.5502 -0.1542  0.4501
  803MPD2    H711890   1.837   2.187  11.934  1.9843 -1.3653  0.3219
  804MPD2     C11891   1.310   3.512  16.954 -0.1254 -0.6611  0.2921
  804MPD2    C111892   1.316   3.493  17.094 -0.0502 -0.0111  0.0483
  804MPD2    C211893   1.364   3.595  17.179  0.4000 -0.4415  0.3706
  804MPD2    C311894   1.417   3.712  17.120  0.1345  0.8668  0.4116
  804MPD2    C411895   1.413   3.725  16.984 -0.7563 -0.6429  0.4776
  804MPD2    C511896   1.358   3.628  16.900  0.4301 -0.7403  0.0038
  804MPD2     H11897   1.364   3.569  17.284  0.5498 -2.3739 -0.1077
  804MPD2    H111898   1.458   3.811  16.936  0.1716  0.1240  2.7079
  804MPD2    H211899   1.267   3.442  16.884 -1.4830  0.4670  0.0051
  804MPD2    H311900   1.336   3.641  16.794 -3.1643  1.5710  1.0544
  804MPD2     N11901   1.494   3.788  17.209 -0.3933  0.2286 -0.5952
  804MPD2    H511902   1.493   3.757  17.306  0.6206  0.8657 -0.3744
  804MPD2    N111903   1.281   3.370  17.159  0.1661  0.6596 -0.0443
  804MPD2    H711904   1.307   3.374  17.258  1.5571  2.4748 -0.4714
  805MPD2     C11905   0.601   1.946  15.623 -0.8988 -1.1280 -0.4457
  805MPD2    C111906   0.675   1.829  15.636 -0.0818 -0.0270  0.1084
  805MPD2    C211907   0.767   1.805  15.733 -0.6242 -0.2026 -0.4023
  805MPD2    C311908   0.780   1.903  15.830  0.4883 -0.0058 -0.6530
  805MPD2    C411909   0.703   2.014  15.824  0.3571 -0.2968  0.0934
  805MPD2    C511910   0.618   2.035  15.719  0.3943 -0.2467  0.6763
  805MPD2     H11911   0.811   1.707  15.744  1.3515  0.7058 -0.1800
  805MPD2    H111912   0.706   2.103  15.887 -0.5135 -0.1259 -0.1185
  805MPD2    H211913   0.534   1.971  15.542  0.4126  2.7660 -0.3197
  805MPD2    H311914   0.580   2.136  15.705  1.5492  0.1068  0.0932
  805MPD2     N11915   0.882   1.884  15.923 -0.9790  0.3779 -1.1066
  805MPD2    H511916   0.922   1.791  15.926 -1.5909  0.2238  1.8566
  805MPD2    N111917   0.661   1.723  15.544 -0.3997 -0.1949 -0.4295
  805MPD2    H711918   0.702   1.632  15.564 -1.9507 -0.5268  1.2913
  806MPD2     C11919   1.210   1.515   0.097 -0.5886 -0.2242 -0.1268
  806MPD2    C111920   1.150   1.578   0.212 -0.2612  0.1619  0.1682
  806MPD2    C211921   1.171   1.719   0.220 -0.0648  0.2549  0.1294
  806MPD2    C311922   1.228   1.785   0.113  0.0872 -0.0731  0.4349
  806MPD2    C411923   1.285   1.722   0.005 -0.0631  0.1717 -0.0646
  806MPD2    C511924   1.266   1.583  17.750  0.0399 -0.2126  0.5451
  806MPD2     H11925   1.131   1.770   0.307  2.6247  0.4717  1.2581
  806MPD2    H111926   1.349   1.770  17.689 -0.2423  1.2570  0.4892
  806MPD2    H211927   1.210   1.407   0.092  4.1947 -0.2069 -0.3920
  806MPD2    H311928   1.318   1.524  17.675 -1.3756 -0.2571 -0.4097
  806MPD2     N11929   1.227   1.925   0.126  0.3463 -0.1674 -0.0046
  806MPD2    H511930   1.187   1.971   0.207 -2.2836 -1.7967 -0.3728
  806MPD2    N111931   1.097   1.492   0.312 -0.3191  0.4576  0.5551
  806MPD2    H711932   1.112   1.392   0.307 -0.2787  0.5390 -0.7804
  807MPD2     C11933   1.103   0.845   0.587 -0.1387 -0.2991 -0.6451
  807MPD2    C111934   1.029   0.910   0.682 -0.7247  0.3623  0.0312
  807MPD2    C211935   1.018   0.855   0.808  0.1826 -0.0005 -0.8968
  807MPD2    C311936   1.103   0.752   0.840 -0.4486  0.0460 -0.2594
  807MPD2    C411937   1.186   0.692   0.750 -0.0898 -0.3005  0.2062
  807MPD2    C511938   1.183   0.739   0.623  0.3605  0.3178 -0.3531
  807MPD2     H11939   0.964   0.914   0.881  1.3488  0.8558 -0.7148
  807MPD2    H111940   1.260   0.614   0.761  0.8964  0.1040 -3.3691
  807MPD2    H211941   1.118   0.891   0.490 -1.0589 -1.7521 -1.4704
  807MPD2    H311942   1.247   0.695   0.548 -3.4213 -4.0265 -1.0814
  807MPD2     N11943   1.088   0.705   0.977  0.1970  0.0619 -0.7338
  807MPD2    H511944   1.016   0.754   1.029 -0.8496 -1.5199 -0.6738
  807MPD2    N111945   0.965   1.034   0.666  0.0160  0.0790 -0.6875
  807MPD2    H711946   0.910   1.078   0.738  1.2286 -3.4335  2.3486
  808MPD2     C11947   2.354   1.373   9.273 -0.5007  0.1071  0.3083
  808MPD2    C111948   2.287   1.464   9.354  0.2085 -0.6478 -0.9839
  808MPD2    C211949   2.285   1.593   9.304  0.6290 -0.3395  0.8893
  808MPD2    C311950   2.342   1.634   9.190 -0.4727  0.0419 -0.5879
  808MPD2    C411951   2.407   1.544   9.116 -0.0103  0.8403  0.0232
  808MPD2    C511952   2.421   1.411   9.161 -0.0346  0.1437  0.9545
  808MPD2     H11953   2.245   1.663   9.376  2.0201  0.9174  0.4518
  808MPD2    H111954   2.465   1.575   9.030  0.4511 -1.1826 -0.4038
  808MPD2    H211955   2.362   1.268   9.300 -1.3819 -0.0984 -0.2514
  808MPD2    H311956   2.472   1.341   9.096  0.9644  2.2262 -0.4980
  808MPD2     N11957   2.332   1.768   9.146  0.1785 -0.5320 -0.7356
  808MPD2    H511958   2.384   1.784   9.060 -0.4913  0.4420 -0.9534
  808MPD2    N111959   2.207   1.440   9.465 -0.1684  0.3888  1.2096
  808MPD2    H711960   2.174   1.517   9.523  0.6966  0.1870  1.9703
  809MPD2     C11961   2.923   2.374   8.859 -0.2491  0.7599  0.2589
  809MPD2    C111962   2.888   2.412   8.989  1.0527 -0.0235 -0.1452
  809MPD2    C211963   2.770   2.363   9.042 -0.1773  0.1908  0.4527
  809MPD2    C311964   2.691   2.271   8.981  0.1806  0.2741  0.4681
  809MPD2    C411965   2.727   2.239   8.849 -0.5334 -0.0666  0.3702
  809MPD2    C511966   2.840   2.290   8.790 -0.1092  0.0485 -1.1412
  809MPD2     H11967   2.753   2.392   9.145  1.5639 -0.0989  0.8272
  809MPD2    H111968   2.667   2.169   8.793 -0.2927  0.3220 -0.3729
  809MPD2    H211969   3.013   2.403   8.806 -0.6682 -0.1081 -0.9314
  809MPD2    H311970   2.871   2.265   8.690  0.4371 -0.1724 -0.9134
  809MPD2     N11971   2.571   2.210   9.033  0.9507  0.1548  0.3480
  809MPD2    H511972   2.517   2.151   8.972  3.0315 -1.3744 -0.0214
  809MPD2    N111973   2.976   2.480   9.076  0.4291  0.4064 -0.2087
  809MPD2    H711974   2.942   2.493   9.171  0.0355  0.2170 -0.3198
  810MPD2     C11975   0.832   1.455  11.092 -0.0805 -0.2186 -0.2172
  810MPD2    C111976   0.850   1.463  10.955  0.4537  0.2092 -0.5626
  810MPD2    C211977   0.812   1.587  10.893 -0.1566 -0.2962  0.4669
  810MPD2    C311978   0.765   1.694  10.963  0.5519 -0.1426  0.5240
  810MPD2    C411979   0.767   1.687  11.098 -0.1095 -0.0650 -0.0572
  810MPD2    C511980   0.794   1.562  11.162  0.0796 -0.0592 -0.4587
  810MPD2     H11981   0.821   1.594  10.785  2.0812  0.4010  0.6948
  810MPD2    H111982   0.732   1.772  11.156 -0.6810 -1.3479  1.4498
  810MPD2    H211983   0.841   1.356  11.135  0.6938  0.6595  1.6291
  810MPD2    H311984   0.779   1.539  11.267  1.2613 -1.0021 -0.5071
  810MPD2     N11985   0.722   1.822  10.904 -0.0572  0.2843  0.8850
  810MPD2    H511986   0.695   1.899  10.964 -0.3215  0.3566  0.6716
  810MPD2    N111987   0.883   1.349  10.887 -0.5127  0.1925 -0.2793
  810MPD2    H711988   0.866   1.261  10.934  0.9151  0.4383  0.6921
  811MPD2     C11989   0.909   0.832  10.093 -0.2098 -0.1256 -0.0127
  811MPD2    C111990   0.975   0.934  10.157 -0.4804  0.7007  0.2013
  811MPD2    C211991   1.063   1.007  10.077  0.5770  0.5282  0.7606
  811MPD2    C311992   1.092   0.977   9.945  0.4483 -0.2188  0.2558
  811MPD2    C411993   1.028   0.867   9.889  0.0029 -0.2266  0.0723
  811MPD2    C511994   0.938   0.792   9.965  0.4636 -0.4945 -0.2683
  811MPD2     H11995   1.126   1.079  10.129  1.7872  0.9257 -1.2721
  811MPD2    H111996   1.053   0.837   9.788  0.7357 -0.7174  0.4004
  811MPD2    H211997   0.835   0.770  10.140  1.0750 -1.4763  0.2229
  811MPD2    H311998   0.887   0.705   9.925  1.9164 -0.7182 -1.6411
  811MPD2     N11999   1.187   1.052   9.870 -0.1967  0.1921  0.1578
  811MPD2    H512000   1.190   1.045   9.768 -0.5542  3.0440 -0.0308
  811MPD2    N112001   0.924   0.968  10.286 -0.1372 -0.8066 -0.0398
  811MPD2    H712002   0.842   0.914  10.312 -0.9609  0.9133  0.9619
  812MPD2     C12003   4.542   1.845  11.587  0.0019 -0.0905 -0.5940
  812MPD2    C112004   4.554   1.918  11.707 -0.1298 -0.0738 -0.4020
  812MPD2    C212005   4.601   1.853  11.819 -0.2517  0.5294  0.0267
  812MPD2    C312006   4.634   1.721  11.819 -0.0619 -0.1816  0.4474
  812MPD2    C412007   4.609   1.650  11.704 -0.1104 -0.1955 -0.5909
  812MPD2    C512008   4.567   1.710  11.591 -0.2437  0.2767 -0.0709
  812MPD2     H12009   4.605   1.904  11.914  2.1857  0.2598  0.0787
  812MPD2    H112010   4.636   1.545  11.692  2.1846 -0.0126  2.9119
  812MPD2    H212011   4.505   1.892  11.497  1.4734  0.8534 -0.7014
  812MPD2    H312012   4.561   1.642  11.507 -0.7848  0.4216 -0.1492
  812MPD2     N12013   4.696   1.668  11.936 -0.0277  0.1209 -0.9701
  812MPD2    H512014   4.713   1.726  12.017  3.3023 -1.6445 -0.4392
  812MPD2    N112015   4.519   2.060  11.706 -0.2619  0.5296 -0.2865
  812MPD2    H712016   4.497   2.097  11.614 -1.1530  0.2298 -0.1907
  813MPD2     C12017   3.496   3.848  13.133 -0.9837  0.0274  0.0388
  813MPD2    C112018   3.570   3.955  13.176 -0.5268 -0.0069  0.5169
  813MPD2    C212019   3.529   4.029  13.286  0.5460  0.1408 -0.0227
  813MPD2    C312020   3.410   4.002  13.346 -0.3802 -0.2988 -0.4517
  813MPD2    C412021   3.326   3.913  13.293 -0.6426 -0.9483 -0.0192
  813MPD2    C512022   3.374   3.830  13.192 -0.1702 -0.4413 -0.3658
  813MPD2     H12023   3.584   4.117  13.318 -1.6406  1.2404  0.7249
  813MPD2    H112024   3.221   3.906  13.317 -0.1678  1.2923  2.8490
  813MPD2    H212025   3.526   3.777  13.057  4.3346 -0.2592  2.4242
  813MPD2    H312026   3.302   3.756  13.161  0.8284 -1.2953 -0.6695
  813MPD2     N12027   3.380   4.079  13.461  0.3273  0.7466 -0.3815
  813MPD2    H512028   3.450   4.150  13.480  1.0429 -0.9979  3.5224
  813MPD2    N112029   3.696   3.993  13.115 -0.0878  0.1211  0.1472
  813MPD2    H712030   3.748   4.067  13.159  0.5072 -0.8739  1.1184
  814MPD2     C12031   4.622   0.249  12.853  0.6771 -0.0567  0.2315
  814MPD2    C112032   4.557   0.271  12.732 -0.2436  0.7224  0.6795
  814MPD2    C212033   4.572   0.396  12.673 -0.0921 -0.6612  0.4128
  814MPD2    C312034   4.641   0.496  12.741  0.5983 -0.6535 -0.1039
  814MPD2    C412035   4.698   0.478  12.860 -0.6019  0.5894 -0.1527
  814MPD2    C512036   4.689   0.353  12.916  0.2078  0.4559 -0.3432
  814MPD2     H12037   4.545   0.402  12.569 -1.3327  0.1493  0.7835
  814MPD2    H112038   0.020   0.546  12.917  1.1932 -0.3376 -0.9970
  814MPD2    H212039   4.628   0.149  12.895  0.6002  0.1485  0.7373
  814MPD2    H312040   4.739   0.332  13.010  0.5039 -0.3523 -0.6829
  814MPD2     N12041   4.670   0.615  12.676  0.5714 -0.0533 -0.3395
  814MPD2    H512042   4.738   0.678  12.716 -1.2185  0.8785  1.2172
  814MPD2    N112043   4.491   0.174  12.659  0.3821 -0.1630  0.1147
  814MPD2    H712044   4.467   0.200  12.564  0.0403 -0.6635  0.0680
  815MPD2     C12045   4.476   3.165  11.491  0.2560  0.7782 -0.0353
  815MPD2    C112046   4.524   3.052  11.560 -0.5891 -0.8568  0.0878
  815MPD2    C212047   4.470   3.026  11.688  0.1516 -0.5926 -0.2957
  815MPD2    C312048   4.360   3.106  11.727  0.3663  0.1079  0.5353
  815MPD2    C412049   4.337   3.226  11.663 -0.1128  0.3732 -0.1492
  815MPD2    C512050   4.394   3.257  11.542 -0.2579 -0.0449  0.1523
  815MPD2     H12051   4.489   2.932  11.737  0.5679 -0.1666  0.3629
  815MPD2    H112052   4.268   3.298  11.705 -1.1808 -1.0390  0.5121
  815MPD2    H212053   4.518   3.189  11.394 -0.7997 -2.1268 -1.2073
  815MPD2    H312054   4.378   3.346  11.483 -1.5133 -1.2067 -1.2637
  815MPD2     N12055   4.294   3.075  11.847 -0.3743 -0.1292  0.4347
  815MPD2    H512056   4.324   3.000  11.909 -0.6114  0.3387  1.1254
  815MPD2    N112057   4.600   2.961  11.482  0.2492 -0.7027 -0.7046
  815MPD2    H712058   4.627   2.992  11.389 -1.4664  1.3425 -0.5052
  816MPD2     C12059   4.347   2.884  17.525  0.0623  0.4464  0.6538
  816MPD2    C112060   4.459   2.960  17.570 -0.5746 -0.4437  0.3211
  816MPD2    C212061   4.584   2.933  17.526 -0.3936  0.1841  0.0028
  816MPD2    C312062   4.603   2.815  17.448 -0.4880 -0.3277  0.1748
  816MPD2    C412063   4.503   2.734  17.413  0.0483 -0.0438  0.2193
  816MPD2    C512064   4.380   2.766  17.461  0.0892 -0.5388 -0.6117
  816MPD2     H12065   4.669   2.997  17.547 -0.0970 -0.6943  1.4838
  816MPD2    H112066   4.509   2.650  17.344 -0.1803 -0.9658  1.3108
  816MPD2    H212067   4.245   2.888  17.563 -0.3693 -0.9255 -0.3466
  816MPD2    H312068   4.297   2.704  17.428  0.9109 -1.9833  0.0395
  816MPD2     N12069   4.734   2.783  17.408  0.3866 -0.1715  0.1405
  816MPD2    H512070   0.065   2.856  17.404  0.5171 -0.2536  0.8217
  816MPD2    N112071   4.418   3.067  17.658 -0.2008 -0.9347  0.2398
  816MPD2    H712072   4.319   3.073  17.680 -0.0705 -1.8306  1.0798
  817MPD2     C12073   0.167   3.811  10.048 -0.3808  0.2229  0.2876
  817MPD2    C112074   0.043   3.869  10.015 -0.3085 -0.3160 -0.0529
  817MPD2    C212075   0.022   4.005  10.003  0.1717 -0.7247  0.0995
  817MPD2    C312076   0.121   4.088  10.051 -0.0188  0.1963 -1.2188
  817MPD2    C412077   0.242   4.037  10.092 -0.2346  0.2199 -0.5764
  817MPD2    C512078   0.265   3.902  10.092  0.6333 -0.1429  0.0740
  817MPD2     H12079   4.673   4.048   9.959  0.6870 -0.0460 -0.2769
  817MPD2    H112080   0.323   4.099  10.129  0.6330 -0.1929 -1.7780
  817MPD2    H212081   0.184   3.705  10.057  0.0089  0.2970  0.4239
  817MPD2    H312082   0.360   3.869  10.131  0.1146  0.0625  1.5125
  817MPD2     N12083   0.096   4.229  10.046  0.5218 -0.4476  0.1620
  817MPD2    H512084   0.007   4.266  10.012  1.1463 -0.5369 -1.5764
  817MPD2    N112085   4.683   3.784   9.963 -0.0981  0.3651 -0.3321
  817MPD2    H712086   4.613   3.835   9.910  1.5269  1.5544 -1.3532
  818MPD2     C12087   3.207   4.074   9.843 -0.0640  0.8304 -0.3861
  818MPD2    C112088   3.184   3.967   9.937 -0.5695  0.4741 -0.3016
  818MPD2    C212089   3.220   3.842   9.899 -0.4552  0.2752 -0.4723
  818MPD2    C312090   3.303   3.815   9.790  0.5411  0.2918 -0.1121
  818MPD2    C412091   3.330   3.922   9.709  0.2185 -0.0262  0.0569
  818MPD2    C512092   3.280   4.046   9.728  0.1074 -0.5673  0.0226
  818MPD2     H12093   3.214   3.770   9.980  0.9265  2.2963  1.4373
  818MPD2    H112094   3.398   3.903   9.626  1.8132 -1.4085  1.6665
  818MPD2    H212095   3.175   4.178   9.850 -1.3852  0.2250  2.2404
  818MPD2    H312096   3.301   4.125   9.657 -0.6261 -0.6951 -0.3454
  818MPD2     N12097   3.334   3.684   9.755 -0.6740 -0.3849 -0.3962
  818MPD2    H512098   3.405   3.670   9.683 -0.8523  0.7058 -0.7868
  818MPD2    N112099   3.120   3.982  10.067 -0.2730 -0.2941 -0.3266
  818MPD2    H712100   3.124   3.900  10.126  1.1372  0.0472  0.0683
  819MPD2     C12101   1.221   1.314  16.027  0.7840  0.1766 -0.1784
  819MPD2    C112102   1.296   1.198  16.011 -0.7775  0.0392  0.2945
  819MPD2    C212103   1.426   1.195  16.051  0.3758 -0.2238  0.3031
  819MPD2    C312104   1.473   1.296  16.135 -0.3833 -0.1296 -0.1237
  819MPD2    C412105   1.395   1.409  16.159 -0.2850 -0.0065  0.1615
  819MPD2    C512106   1.273   1.419  16.106 -0.3650  0.2267  0.7567
  819MPD2     H12107   1.487   1.110  16.023  2.8775  1.5503  0.3640
  819MPD2    H112108   1.425   1.488  16.226  0.5196  0.7176 -1.0586
  819MPD2    H212109   1.122   1.329  15.985 -0.1072  0.3558  1.9691
  819MPD2    H312110   1.213   1.509  16.107 -0.4129  0.2095 -0.3808
  819MPD2     N12111   1.599   1.277  16.196  0.2433  0.8171  0.3153
  819MPD2    H512112   1.662   1.217  16.144 -1.2206 -2.3449  2.2545
  819MPD2    N112113   1.228   1.095  15.942  0.2677  0.0109  0.1111
  819MPD2    H712114   1.133   1.108  15.908  0.3520  0.6390  0.1212
  820MPD2     C12115   0.460   0.921  15.362  0.5969 -0.6756 -0.0331
  820MPD2    C112116   0.540   1.020  15.409  0.7535  0.0960  0.2394
  820MPD2    C212117   0.663   0.990  15.468 -0.3050  0.2965 -0.8616
  820MPD2    C312118   0.709   0.862  15.477  0.5648  0.4862  0.3267
  820MPD2    C412119   0.635   0.765  15.419 -0.2126 -0.1948  0.0825
  820MPD2    C512120   0.512   0.798  15.358  1.2161  0.4712  0.8986
  820MPD2     H12121   0.734   1.070  15.488  1.0890 -0.8214 -1.3145
  820MPD2    H112122   0.656   0.659  15.420  1.2696  0.0958 -0.6800
  820MPD2    H212123   0.367   0.942  15.312  0.4508 -1.1418  0.0419
  820MPD2    H312124   0.469   0.707  15.318 -1.0805  0.9175  2.3692
  820MPD2     N12125   0.838   0.834  15.534 -0.1410 -0.1333  0.5824
  820MPD2    H512126   0.885   0.745  15.522  0.3004  0.0442  1.0234
  820MPD2    N112127   0.494   1.154  15.401 -0.6180 -0.4187  0.0146
  820MPD2    H712128   0.405   1.160  15.353  0.9398  0.4308 -2.7785
  821MPD2     C12129   1.638   2.277  13.263  0.5844 -0.1314  0.0571
  821MPD2    C112130   1.699   2.294  13.387  0.0595 -0.1937  0.0034
  821MPD2    C212131   1.818   2.357  13.390 -0.6403  0.1222 -0.5240
  821MPD2    C312132   1.875   2.400  13.269  0.7297  0.1654  0.1332
  821MPD2    C412133   1.811   2.373  13.153 -0.3694  0.5831  0.3628
  821MPD2    C512134   1.687   2.325  13.143 -0.0968  0.1180  0.0699
  821MPD2     H12135   1.862   2.385  13.485 -1.3378  0.3940 -0.2820
  821MPD2    H112136   1.854   2.411  13.061  1.3920 -1.0788  0.4876
  821MPD2    H212137   1.543   2.228  13.250  1.4720 -1.8713  0.1612
  821MPD2    H312138   1.645   2.298  13.047 -2.1129 -0.0308  0.9945
  821MPD2     N12139   2.000   2.467  13.270  0.4264  0.3079  0.1753
  821MPD2    H512140   2.036   2.483  13.176 -0.1870 -0.9775 -0.2786
  821MPD2    N112141   1.646   2.246  13.507 -0.3768  0.5653 -0.1794
  821MPD2    H712142   1.691   2.279  13.592  0.1777 -0.5644 -0.0384
  822MPD2     C12143   2.210   2.940  15.849 -0.4374  0.6154  0.0304
  822MPD2    C112144   2.180   2.907  15.975  0.2344  0.4029 -0.2381
  822MPD2    C212145   2.095   2.985  16.051  0.0306 -0.4795 -0.2640
  822MPD2    C312146   2.042   3.099  16.001 -0.1238 -0.9061  0.1175
  822MPD2    C412147   2.062   3.134  15.864 -0.3966  0.0807  1.7719
  822MPD2    C512148   2.149   3.052  15.792 -0.1737 -0.0244 -0.4843
  822MPD2     H12149   2.093   2.959  16.156 -1.1461 -0.9381 -0.3986
  822MPD2    H112150   2.011   3.213  15.810  1.2391 -0.5629 -0.7232
  822MPD2    H212151   2.278   2.882  15.788  0.5499 -0.9084  2.5963
  822MPD2    H312152   2.176   3.078  15.690  0.6783  0.1261 -0.2171
  822MPD2     N12153   1.962   3.177  16.089  0.1255  0.2482  0.4549
  822MPD2    H512154   1.961   3.146  16.186  0.2087 -0.2339  0.3025
  822MPD2    N112155   2.254   2.800  16.040  0.0629  0.1978  0.2341
  822MPD2    H712156   2.232   2.788  16.139  2.3674  1.4016  0.8818
  823MPD2     C12157   1.630   3.291  16.880  0.1849 -0.8760  0.7711
  823MPD2    C112158   1.687   3.224  16.773  0.6474  0.7140 -0.3251
  823MPD2    C212159   1.748   3.100  16.795 -0.1632 -0.0457 -0.1126
  823MPD2    C312160   1.742   3.033  16.915 -0.4873 -0.2391  0.0360
  823MPD2    C412161   1.673   3.097  17.014 -0.5655 -0.1471  0.3717
  823MPD2    C512162   1.617   3.219  16.998 -0.3409  0.0792  0.1131
  823MPD2     H12163   1.804   3.058  16.713 -0.3666  1.7729 -1.1775
  823MPD2    H112164   1.662   3.048  17.109 -1.6559 -1.2024 -0.2964
  823MPD2    H212165   1.595   3.393  16.877  3.5154  0.2535  0.6421
  823MPD2    H312166   1.577   3.277  17.080 -0.8752  0.5811 -0.5000
  823MPD2     N12167   1.817   2.914  16.950  0.2905 -0.6116 -0.3727
  823MPD2    H512168   1.805   2.869  17.040 -0.1931  2.0332  0.8861
  823MPD2    N112169   1.678   3.291  16.646  0.8201  0.3197 -0.6837
  823MPD2    H712170   1.658   3.390  16.651  1.6371  0.3820  1.0630
  824MPD2     C12171   2.703   1.979  16.191 -0.2649 -0.9360  0.8324
  824MPD2    C112172   2.703   2.083  16.103  0.3460  0.6141 -0.2147
  824MPD2    C212173   2.774   2.064  15.982 -0.3512 -0.5049  0.0673
  824MPD2    C312174   2.846   1.955  15.951 -0.3918  0.0089 -0.6090
  824MPD2    C412175   2.847   1.860  16.047 -0.7260  0.5112 -0.2310
  824MPD2    C512176   2.781   1.867  16.166 -0.1835 -0.0711 -0.6278
  824MPD2     H12177   2.764   2.140  15.906  0.0531 -0.4011  0.1177
  824MPD2    H112178   2.917   1.778  16.031 -0.5566  0.6659 -0.2867
  824MPD2    H212179   2.645   1.984  16.282 -0.1465  1.4658  0.7761
  824MPD2    H312180   2.804   1.804  16.252 -1.3583 -0.8316 -0.8649
  824MPD2     N12181   2.917   1.938  15.825  0.3428  0.0815  0.1404
  824MPD2    H512182   2.910   2.022  15.768  0.1707 -1.3623 -1.9437
  824MPD2    N112183   2.623   2.190  16.134  0.3614  0.6611  0.1369
  824MPD2    H712184   2.578   2.184  16.225  0.6836  2.3652  0.4091
  825MPD2     C12185   3.343   2.206  15.100  0.6598  0.0109 -0.5491
  825MPD2    C112186   3.250   2.210  15.198 -0.6992 -0.3135  0.3202
  825MPD2    C212187   3.189   2.332  15.224 -0.2526 -0.1664  0.7743
  825MPD2    C312188   3.208   2.451  15.155 -0.6371 -0.1533  0.3469
  825MPD2    C412189   3.306   2.451  15.060  0.2994  0.1917 -0.1048
  825MPD2    C512190   3.365   2.323  15.032  0.4733  0.6098  0.3860
  825MPD2     H12191   3.113   2.342  15.300 -1.0456  3.2346 -0.4544
  825MPD2    H112192   3.331   2.543  15.009  1.3247 -0.8733 -1.5313
  825MPD2    H212193   3.406   2.124  15.067 -1.3961 -1.3147 -1.1464
  825MPD2    H312194   3.451   2.314  14.967  0.9520 -0.0020  1.1038
  825MPD2     N12195   3.152   2.578  15.194  0.2245 -0.4414  0.4987
  825MPD2    H512196   3.181   2.656  15.136  0.7744  0.9848  2.6775
  825MPD2    N112197   3.225   2.094  15.277 -0.3508 -0.4268  0.2228
  825MPD2    H712198   3.271   2.007  15.254 -1.9615 -1.4118  0.7575
  826MPD2     C12199   2.074   1.381  13.969 -0.0068 -0.8310 -0.2457
  826MPD2    C112200   2.098   1.454  13.853 -0.0240  0.0689 -0.8169
  826MPD2    C212201   2.150   1.582  13.867  0.1089 -0.4804 -0.5571
  826MPD2    C312202   2.194   1.622  13.992 -0.0035  0.0380 -0.5118
  826MPD2    C412203   2.185   1.538  14.102 -0.0224 -0.4437  0.8601
  826MPD2    C512204   2.121   1.419  14.090 -0.4862 -0.4718 -1.0760
  826MPD2     H12205   2.163   1.646  13.780 -0.4037 -0.7181 -0.8134
  826MPD2    H112206   2.227   1.572  14.195  0.3234  0.6695  0.2955
  826MPD2    H212207   2.010   1.293  13.969  1.9230 -2.2124  0.7871
  826MPD2    H312208   2.109   1.359  14.179  1.0927  1.6157  0.5369
  826MPD2     N12209   2.260   1.746  14.013  0.1662 -0.2264  0.4397
  826MPD2    H512210   2.297   1.764  14.106  1.3825  0.5363 -0.1928
  826MPD2    N112211   2.077   1.378  13.735  0.3009  0.2968  0.3306
  826MPD2    H712212   2.043   1.283  13.745  0.8603  0.1076  0.4042
  827MPD2     C12213   3.543   2.912  10.024  0.5677  0.0378 -0.0198
  827MPD2    C112214   3.501   2.817  10.112  0.6432  0.4678 -0.6804
  827MPD2    C212215   3.440   2.694  10.069  0.7483 -0.0294  0.0193
  827MPD2    C312216   3.444   2.660   9.934 -0.0334  0.3010 -0.5954
  827MPD2    C412217   3.484   2.761   9.847 -0.4021  0.1102 -0.1320
  827MPD2    C512218   3.529   2.883   9.892  0.6743  0.2983  0.4173
  827MPD2     H12219   3.404   2.621  10.141  2.3731  0.1023  0.9658
  827MPD2    H112220   3.480   2.757   9.739 -0.0826 -2.5094 -0.0595
  827MPD2    H212221   3.587   3.005  10.056 -0.0930  0.2809  0.1874
  827MPD2    H312222   3.560   2.954   9.816  0.5818  0.5440  0.6047
  827MPD2     N12223   3.391   2.536   9.894 -0.3847  0.2108 -0.6879
  827MPD2    H512224   3.340   2.482   9.964  1.3179  1.0975  1.2016
  827MPD2    N112225   3.529   2.851  10.243 -0.4464  0.4069 -0.3704
  827MPD2    H712226   3.569   2.941  10.269  0.7673 -0.4575  0.7375
  828MPD2     C12227   2.250   2.854  12.381 -0.4301  0.4848  0.2148
  828MPD2    C112228   2.127   2.890  12.332 -0.1945  0.1063  0.4747
  828MPD2    C212229   2.106   2.880  12.199 -0.4472  0.1672 -0.3698
  828MPD2    C312230   2.210   2.851  12.116  0.5098  0.7061 -0.1950
  828MPD2    C412231   2.343   2.849  12.164 -0.5354  0.3068 -0.7549
  828MPD2    C512232   2.357   2.855  12.297 -0.1434  0.6374  0.1525
  828MPD2     H12233   2.005   2.902  12.167 -0.7829 -0.7697  0.0577
  828MPD2    H112234   2.436   2.848  12.110  0.1415  2.2512  0.3884
  828MPD2    H212235   2.267   2.838  12.487  0.8561  4.0156  0.5456
  828MPD2    H312236   2.456   2.856  12.341  1.1260 -3.3631 -2.6324
  828MPD2     N12237   2.187   2.824  11.979 -0.6755 -0.1577 -0.2858
  828MPD2    H512238   2.272   2.818  11.925 -0.5483  1.2705 -0.2333
  828MPD2    N112239   2.013   2.906  12.413 -0.3686 -0.0850 -0.5674
  828MPD2    H712240   1.921   2.895  12.373 -0.0853  1.8586 -1.8014
  829MPD2     C12241   1.308   2.970  12.007 -1.4529  0.5276  0.5425
  829MPD2    C112242   1.259   2.944  12.129  0.2999  0.8579  0.1324
  829MPD2    C212243   1.335   2.949  12.246  0.9880 -0.3330  0.7101
  829MPD2    C312244   1.471   2.962  12.232  0.6566  0.0965  0.0853
  829MPD2    C412245   1.527   2.982  12.111 -0.1805  0.7400 -0.1383
  829MPD2    C512246   1.446   2.982  11.999 -0.1055 -0.7228 -0.0668
  829MPD2     H12247   1.292   2.929  12.343 -0.9922  3.0080  0.5455
  829MPD2    H112248   1.632   2.998  12.092  0.0064 -0.5399 -0.2036
  829MPD2    H212249   1.253   2.964  11.914  0.8917 -2.6646 -0.6405
  829MPD2    H312250   1.494   2.990  11.902 -0.9157 -2.4999 -0.6161
  829MPD2     N12251   1.566   2.942  12.339  0.3420  0.2332  0.5557
  829MPD2    H512252   1.661   2.957  12.307  0.1767  0.4473  0.1619
  829MPD2    N112253   1.122   2.912  12.133  0.5495 -0.0010  0.1351
  829MPD2    H712254   1.083   2.921  12.039  1.4614 -1.7827 -0.4112
  830MPD2     C12255   2.446   1.459  16.160  0.5737  0.0447 -0.0986
  830MPD2    C112256   2.314   1.485  16.142 -0.0525  0.3423  0.0370
  830MPD2    C212257   2.281   1.614  16.092 -0.2985 -0.3239  0.4458
  830MPD2    C312258   2.377   1.705  16.062  0.1889  0.1192 -0.1080
  830MPD2    C412259   2.505   1.667  16.082  0.0479  0.0349 -0.1695
  830MPD2    C512260   2.547   1.548  16.139 -0.0604 -0.4205 -0.0749
  830MPD2     H12261   2.180   1.641  16.062  0.4683  1.2523 -0.7233
  830MPD2    H112262   2.578   1.743  16.058 -1.2274  1.6007  0.9095
  830MPD2    H212263   2.465   1.356  16.188  3.6013  0.5300 -0.3958
  830MPD2    H312264   2.650   1.519  16.151 -0.6170 -2.2392  0.3055
  830MPD2     N12265   2.352   1.835  16.014  0.2157 -0.0445 -0.2447
  830MPD2    H512266   2.432   1.897  16.010 -1.0021  1.6883  1.7829
  830MPD2    N112267   2.219   1.383  16.174 -0.4644 -0.0129 -0.1288
  830MPD2    H712268   2.263   1.299  16.211  0.6565  0.2855 -0.7683
  831MPD2     C12269   2.261   3.265  16.444  0.7981 -1.0186  0.8540
  831MPD2    C112270   2.287   3.157  16.367  0.0527 -0.4163 -0.2229
  831MPD2    C212271   2.214   3.045  16.378  0.6996 -0.8399 -0.0500
  831MPD2    C312272   2.106   3.033  16.462  0.0603 -0.7444 -0.0657
  831MPD2    C412273   2.077   3.142  16.541 -0.0951 -0.6408  0.1012
  831MPD2    C512274   2.149   3.258  16.524 -0.8529  0.1675 -0.1227
  831MPD2     H12275   2.249   2.957  16.326  0.8792 -2.0918  2.1712
  831MPD2    H112276   1.991   3.147  16.606  1.1624 -0.3240  1.7446
  831MPD2    H212277   2.318   3.358  16.448 -1.1551  0.2397 -0.8432
  831MPD2    H312278   2.126   3.347  16.581 -0.5572  0.8580 -1.0701
  831MPD2     N12279   2.007   2.925  16.468 -0.7853  0.1698 -0.1516
  831MPD2    H512280   1.929   2.934  16.532 -1.2549 -0.3127 -0.6612
  831MPD2    N112281   2.379   3.176  16.266  0.1624  0.3691  0.0775
  831MPD2    H712282   2.406   3.269  16.236 -0.5301  0.5057 -0.1312
  832MPD2     C12283   0.478   4.102  17.612 -0.1253 -0.4977  0.1509
  832MPD2    C112284   0.456   4.183  17.504 -0.4019 -0.2182  0.5195
  832MPD2    C212285   0.360   4.149  17.410  0.2416 -0.7033 -0.1771
  832MPD2    C312286   0.293   4.027  17.418 -0.1132  0.8147  0.2816
  832MPD2    C412287   0.321   3.944  17.526  0.9426  0.4531 -0.6121
  832MPD2    C512288   0.406   3.988  17.626  0.4434 -0.1338 -0.1486
  832MPD2     H12289   0.349   4.207  17.319 -1.4425 -0.4733  0.1792
  832MPD2    H112290   0.280   3.844  17.532 -0.3901  1.0223  0.0433
  832MPD2    H212291   0.562   4.132  17.675 -0.3395  2.6849 -1.0966
  832MPD2    H312292   0.436   3.937  17.717  1.0145 -1.1694 -0.9192
  832MPD2     N12293   0.202   3.985  17.320  0.3110  0.8877 -0.9794
  832MPD2    H512294   0.166   3.891  17.332 -1.3265  1.7623  1.1286
  832MPD2    N112295   0.544   4.288  17.483 -0.3154 -0.2719 -0.3751
  832MPD2    H712296   0.610   4.306  17.559  0.5972 -1.5759 -0.8454
  833MPD2     C12297   2.500   0.250  12.668  0.1557 -0.6549 -0.9192
  833MPD2    C112298   2.524   0.382  12.629 -0.4641 -0.1093  0.2545
  833MPD2    C212299   2.568   0.410  12.502 -0.2358  0.1706 -0.1608
  833MPD2    C312300   2.583   0.301  12.415  0.5056 -0.4282 -0.1044
  833MPD2    C412301   2.564   0.173  12.459  0.1421  0.4786  0.0204
  833MPD2    C512302   2.525   0.149  12.584  0.3372 -0.0217  0.1010
  833MPD2     H12303   2.578   0.512  12.468  0.6234 -0.3440 -1.4317
  833MPD2    H112304   2.582   0.085  12.398 -1.2800 -0.7720  1.3854
  833MPD2    H212305   2.482   0.240  12.775 -0.9704  3.0183 -0.7563
  833MPD2    H312306   2.513   0.050  12.627 -0.2137 -0.1303 -0.2938
  833MPD2     N12307   2.631   0.333  12.287  0.1433  0.5120 -0.1441
  833MPD2    H512308   2.669   0.427  12.281  0.3223  0.3406 -1.8361
  833MPD2    N112309   2.504   0.484  12.729  0.2263 -0.2813  0.1226
  833MPD2    H712310   2.463   0.460  12.819 -2.2724  1.0792 -0.6886
  834MPD2     C12311   2.457   0.195  11.359  0.2129 -0.0427  0.0238
  834MPD2    C112312   2.508   0.104  11.449  0.3010 -0.5952  0.4801
  834MPD2    C212313   2.568   0.165  11.553 -0.3951 -0.3883  0.3447
  834MPD2    C312314   2.554   0.298  11.587 -0.7474 -0.4170 -0.1109
  834MPD2    C412315   2.488   0.384  11.500  0.2284 -0.0711  0.2303
  834MPD2    C512316   2.437   0.329  11.389  0.1044  0.6435  0.0655
  834MPD2     H12317   2.631   0.108  11.620 -1.3921 -1.8698  0.0106
  834MPD2    H112318   2.461   0.488  11.516 -0.2313 -0.1583  0.0398
  834MPD2    H212319   2.425   0.168  11.259 -1.9687  0.2511  0.6320
  834MPD2    H312320   2.366   0.388  11.332  0.9082  0.2882 -1.2852
  834MPD2     N12321   2.586   0.344  11.720 -0.1809 -0.1498  0.1878
  834MPD2    H512322   2.602   0.268  11.786  1.5900  0.0944  0.0287
  834MPD2    N112323   2.527   4.710  11.416 -0.0443 -0.0701  0.0597
  834MPD2    H712324   2.504   4.672  11.325  3.8850  2.1408 -1.8133
  835MPD2     C12325   2.734   2.754  11.190 -0.1587  0.2072 -0.1432
  835MPD2    C112326   2.669   2.781  11.312  0.0533  0.4432 -0.6404
  835MPD2    C212327   2.722   2.737  11.431 -0.3650  0.0830 -0.8369
  835MPD2    C312328   2.841   2.667  11.437 -0.6212 -0.3846 -0.2782
  835MPD2    C412329   2.894   2.629  11.316  0.3363  0.2784  0.0185
  835MPD2    C512330   2.839   2.671  11.194  0.0640 -0.2582 -0.2337
  835MPD2     H12331   2.665   2.761  11.520  2.7631  1.7460  0.6870
  835MPD2    H112332   2.987   2.573  11.310  0.0312 -0.3210  1.0044
  835MPD2    H212333   2.708   2.804  11.098  1.4651  0.2258 -0.5952
  835MPD2    H312334   2.899   2.641  11.109  0.5030  2.3579 -0.8448
  835MPD2     N12335   2.911   2.629  11.552  0.2962 -0.1780  0.1497
  835MPD2    H512336   2.996   2.575  11.539  0.0851 -0.1721 -1.2896
  835MPD2    N112337   2.543   2.852  11.317 -0.0530 -0.2168  0.3710
  835MPD2    H712338   2.504   2.866  11.410  1.0984 -0.3007  0.8649
  836MPD2     C12339   2.579   2.973  11.859  0.3010  0.0756 -0.1905
  836MPD2    C112340   2.670   2.962  11.963 -0.2474  0.4255  0.2760
  836MPD2    C212341   2.652   3.041  12.074 -0.2130  0.2324 -0.1070
  836MPD2    C312342   2.543   3.129  12.079 -0.3676  0.2549 -0.2027
  836MPD2    C412343   2.460   3.151  11.975 -0.6023 -0.4158  0.0663
  836MPD2    C512344   2.479   3.068  11.865 -0.3898  0.4495  0.2234
  836MPD2     H12345   2.715   3.032  12.162  0.4819  1.8225 -0.4370
  836MPD2    H112346   2.378   3.223  11.970 -0.1769  0.3146  3.3340
  836MPD2    H212347   2.576   2.916  11.767  0.8876 -0.0044 -0.1607
  836MPD2    H312348   2.412   3.086  11.781 -0.7535 -1.1928  0.1708
  836MPD2     N12349   2.515   3.180  12.208 -0.3086 -0.3148 -0.2466
  836MPD2    H512350   2.566   3.132  12.281 -3.0149  2.5531  3.5277
  836MPD2    N112351   2.769   2.868  11.949  0.6004 -0.8008  0.7943
  836MPD2    H712352   2.773   2.818  11.860 -0.9808 -0.4634  0.5428
  837MPD2     C12353   1.650   1.729  10.071 -0.0775 -0.4475  0.3723
  837MPD2    C112354   1.559   1.633  10.106  0.5285 -0.1365  0.5367
  837MPD2    C212355   1.491   1.647  10.222 -0.3975  0.2615 -1.5238
  837MPD2    C312356   1.498   1.759  10.301 -0.3203 -0.5030  0.1409
  837MPD2    C412357   1.593   1.852  10.273 -0.3439  0.7291 -0.0823
  837MPD2    C512358   1.668   1.830  10.161  0.3835  0.2315  0.1073
  837MPD2     H12359   1.413   1.575  10.243 -0.4613  0.8949  0.4288
  837MPD2    H112360   1.603   1.951  10.316  0.4789  1.0726 -1.0517
  837MPD2    H212361   1.701   1.735   9.975 -0.6726  0.8274  0.1336
  837MPD2    H312362   1.742   1.903  10.132  0.6589 -0.5598 -1.2146
  837MPD2     N12363   1.388   1.769  10.399 -0.0385  0.5661 -0.4287
  837MPD2    H512364   1.313   1.700  10.394  0.3366  0.1538 -0.4544
  837MPD2    N112365   1.524   1.514  10.028 -0.6570  0.0031 -0.3216
  837MPD2    H712366   1.444   1.459  10.057 -0.4971  0.5063  1.0846
  838MPD2     C12367   4.387   1.135  11.166  0.2339 -0.3679  0.4095
  838MPD2    C112368   4.439   1.031  11.238  0.5325 -0.7661 -0.2208
  838MPD2    C212369   4.425   1.020  11.374 -0.5090 -0.2580  0.3725
  838MPD2    C312370   4.348   1.114  11.445  0.0594  1.5362 -0.1011
  838MPD2    C412371   4.282   1.208  11.366  0.7260  0.4761  0.2262
  838MPD2    C512372   4.305   1.225  11.233  1.1739  0.4731 -0.3020
  838MPD2     H12373   4.458   0.929  11.423  0.2227 -0.1199  0.1285
  838MPD2    H112374   4.205   1.264  11.418 -1.2952 -2.5779  0.5224
  838MPD2    H212375   4.397   1.140  11.059  0.6103  1.0393  0.5125
  838MPD2    H312376   4.248   1.297  11.175 -1.2011 -2.0698 -1.1268
  838MPD2     N12377   4.311   1.099  11.580 -0.2997 -0.1084  0.0706
  838MPD2    H512378   4.250   1.166  11.626 -1.1195  0.5855 -2.0149
  838MPD2    N112379   4.513   0.933  11.177  0.0325 -0.3032  0.1342
  838MPD2    H712380   4.550   0.865  11.243  1.3891  0.3274  0.0253
  839MPD2     C12381   4.442   0.415  11.715 -0.3326  0.1093 -0.7572
  839MPD2    C112382   4.390   0.345  11.613  0.1431  0.6215  0.0307
  839MPD2    C212383   4.451   0.365  11.492 -0.1220 -1.0349  0.1821
  839MPD2    C312384   4.552   0.457  11.471 -0.2704  0.4445 -0.0155
  839MPD2    C412385   4.597   0.531  11.578  0.6545 -0.2699 -0.2650
  839MPD2    C512386   4.544   0.503  11.701 -0.1520 -0.1237 -1.1306
  839MPD2     H12387   4.405   0.316  11.407 -1.3302  0.5334 -0.0544
  839MPD2    H112388   4.669   0.612  11.579  0.3809 -0.0129 -0.9104
  839MPD2    H212389   4.412   0.406  11.818 -2.0507 -2.6503 -1.4992
  839MPD2    H312390   4.580   0.564  11.783 -0.4579 -2.5445  0.8113
  839MPD2     N12391   4.593   0.499  11.343  0.0395  0.2873  0.5511
  839MPD2    H512392   4.655   0.578  11.336  1.1246 -0.4533  2.0027
  839MPD2    N112393   4.274   0.271  11.624 -0.7157  0.4404 -0.2449
  839MPD2    H712394   4.235   0.236  11.537  0.2154  1.0504 -0.9032
  840MPD2     C12395   4.168   2.740  10.426 -0.3034 -0.0501 -0.2520
  840MPD2    C112396   4.101   2.797  10.527 -0.6267 -0.2286 -0.1379
  840MPD2    C212397   4.175   2.863  10.627 -0.0705 -0.0752  0.2685
  840MPD2    C312398   4.310   2.885  10.620 -0.0005 -0.0296 -0.0973
  840MPD2    C412399   4.371   2.819  10.512  0.7522  0.2255 -0.3533
  840MPD2    C512400   4.300   2.747  10.417  0.0354  0.6700 -0.0387
  840MPD2     H12401   4.129   2.904  10.716  1.7215 -0.3413  1.3231
  840MPD2    H112402   4.478   2.808  10.497  1.2887  1.7901  2.4489
  840MPD2    H212403   4.110   2.692  10.349  0.2535 -3.1365  1.2596
  840MPD2    H312404   4.343   2.693  10.333  2.2630  0.2982  1.3451
  840MPD2     N12405   4.387   2.967  10.700 -0.8686 -0.7489 -0.3403
  840MPD2    H512406   4.484   2.962  10.671 -0.2930  1.2773  1.2378
  840MPD2    N112407   3.961   2.788  10.532  0.0966  0.5154  0.1713
  840MPD2    H712408   3.923   2.715  10.473  2.3693  0.4386 -1.2040
  841MPD2     C12409   3.658   3.155  14.205  0.0084 -0.3629 -0.2153
  841MPD2    C112410   3.695   3.055  14.295 -0.6240  0.1589  0.1830
  841MPD2    C212411   3.757   3.092  14.418  0.6608  0.7010 -0.6242
  841MPD2    C312412   3.793   3.225  14.441 -0.4353  0.2652  0.4278
  841MPD2    C412413   3.760   3.311  14.344  0.0492 -0.8033 -0.3337
  841MPD2    C512414   3.675   3.285  14.238  0.2467 -0.0114 -0.0842
  841MPD2     H12415   3.769   3.019  14.497 -0.0232 -0.5328 -1.6634
  841MPD2    H112416   3.777   3.417  14.360  0.2008 -0.6304 -1.6086
  841MPD2    H212417   3.604   3.140  14.113  0.5014  0.2182 -0.5952
  841MPD2    H312418   3.645   3.369  14.176  1.9451 -0.2200 -1.1833
  841MPD2     N12419   3.873   3.253  14.548  0.4846 -0.1848  0.3588
  841MPD2    H512420   3.909   3.182  14.612 -2.0040 -3.3878 -1.7943
  841MPD2    N112421   3.671   2.921  14.265 -0.2178 -0.2464 -0.1898
  841MPD2    H712422   3.701   2.853  14.335  0.2062  0.4990  0.3599
  842MPD2     C12423   4.516   4.439  17.105  0.3792  0.5037 -0.4043
  842MPD2    C112424   4.404   4.356  17.093  0.4955  0.0040 -0.9984
  842MPD2    C212425   4.390   4.259  17.188  0.5780  0.3900 -0.2679
  842MPD2    C312426   4.474   4.243  17.297  0.1932  0.2122  0.6628
  842MPD2    C412427   4.586   4.318  17.294 -0.1927 -0.2532 -0.0032
  842MPD2    C512428   4.609   4.419  17.204 -0.3756 -0.0556 -0.3539
  842MPD2     H12429   4.307   4.189  17.193  0.9033 -0.2318 -3.3995
  842MPD2    H112430   4.670   4.310  17.362 -0.4306  1.4586  0.4992
  842MPD2    H212431   4.536   4.508  17.024  1.9973  1.9975  1.2586
  842MPD2    H312432   4.699   4.480  17.206  1.0159 -2.1075  0.4680
  842MPD2     N12433   4.462   4.146  17.400  0.3379  0.2863 -0.1231
  842MPD2    H512434   4.545   4.127  17.455  0.9161 -0.0242 -1.1161
  842MPD2    N112435   4.323   4.368  16.978  0.8024 -0.5858  0.2173
  842MPD2    H712436   4.343   4.454  16.928 -3.4380  0.0217 -0.4390
  843MPD2     C12437   1.438   0.959   0.785 -0.2845  0.0630 -0.5702
  843MPD2    C112438   1.530   0.874   0.831 -0.4846 -0.2313  0.2534
  843MPD2    C212439   1.657   0.872   0.766 -0.5368 -0.1316  0.2098
  843MPD2    C312440   1.677   0.946   0.653  0.7074  0.6217  0.1861
  843MPD2    C412441   1.572   1.017   0.595 -0.1602 -0.6355  0.4471
  843MPD2    C512442   1.451   1.014   0.661 -0.4822 -0.0506 -0.3116
  843MPD2     H12443   1.737   0.815   0.811 -1.1768  0.1726  1.7232
  843MPD2    H112444   1.583   1.061   0.496 -2.0166 -0.0831  0.4804
  843MPD2    H212445   1.343   0.975   0.834  1.0605 -0.6032  2.3109
  843MPD2    H312446   1.370   1.072   0.619  0.1624  0.3612 -0.9819
  843MPD2     N12447   1.803   0.958   0.588  0.3277  0.0159 -0.1911
  843MPD2    H512448   1.790   1.037   0.526 -0.3554  0.2717  0.2778
  843MPD2    N112449   1.504   0.795   0.949  0.5665  0.4433  0.0291
  843MPD2    H712450   1.414   0.820   0.989  1.6395  2.0003  1.4489
  844MPD2     C12451   4.718   3.541  16.994 -0.3964  0.4159 -0.3616
  844MPD2    C112452   4.737   3.608  16.873 -0.2615  0.6246 -0.3545
  844MPD2    C212453   0.080   3.721  16.863  0.6130  0.4640 -0.2029
  844MPD2    C312454   0.167   3.751  16.964  0.0334 -0.4678 -0.0262
  844MPD2    C412455   0.146   3.677  17.086 -0.1138  0.0096  0.5747
  844MPD2    C512456   0.049   3.579  17.099 -0.0322 -0.2367 -0.1183
  844MPD2     H12457   0.091   3.770  16.768  0.8106 -1.6989 -1.2902
  844MPD2    H112458   0.203   3.709  17.172  1.3611  0.2991 -0.5049
  844MPD2    H212459   4.644   3.465  17.014 -0.6069  1.5760  3.2695
  844MPD2    H312460   0.045   3.518  17.188  1.8237  0.5945  0.5392
  844MPD2     N12461   0.272   3.849  16.947 -0.1296  0.4146  0.6134
  844MPD2    H512462   0.282   3.910  16.866 -0.6017 -1.5881 -0.9688
  844MPD2    N112463   4.687   3.565  16.748  0.4253  0.2482  0.0415
  844MPD2    H712464   4.718   3.600  16.658  0.2964 -0.5688 -0.3161
  845MPD2     C12465   0.387   0.101  16.940 -0.5975 -0.4211 -0.2944
  845MPD2    C112466   0.423   0.063  17.063 -0.0353  0.0727  0.1760
  845MPD2    C212467   0.434   4.662  17.082  0.5021  0.4687  0.4250
  845MPD2    C312468   0.397   4.570  16.992  0.6115 -0.0185  0.0509
  845MPD2    C412469   0.364   4.611  16.868 -0.2752 -0.2212  0.1426
  845MPD2    C512470   0.355   0.004  16.846  0.2522  0.0916 -0.1262
  845MPD2     H12471   0.464   4.627  17.181  1.5508 -0.4873 -0.2326
  845MPD2    H112472   0.335   4.545  16.787  0.1237  0.6167 -0.6759
  845MPD2    H212473   0.384   0.204  16.905 -0.2575 -0.3485 -0.1113
  845MPD2    H312474   0.327   0.045  16.750  0.7683 -1.5162 -0.9532
  845MPD2     N12475   0.410   4.435  17.025  0.3689  0.5552  0.4410
  845MPD2    H512476   0.451   4.419  17.116 -0.6247 -1.8366  0.4491
  845MPD2    N112477   0.437   0.159  17.165  0.5357  0.2619  0.0799
  845MPD2    H712478   0.440   0.254  17.129  1.1370  1.0291  2.1437
  846MPD2     C12479   2.002   0.159  14.064  0.1165  0.3237  0.0207
  846MPD2    C112480   1.869   0.188  14.091 -0.3028 -0.0325 -0.2485
  846MPD2    C212481   1.836   0.214  14.224  0.9993  0.5137  0.3251
  846MPD2    C312482   1.930   0.213  14.332 -0.4560 -0.6421  0.0829
  846MPD2    C412483   2.059   0.183  14.308 -0.0988  0.1587 -0.2721
  846MPD2    C512484   2.090   0.155  14.174  0.1843  0.0120  0.1734
  846MPD2     H12485   1.732   0.235  14.250  0.4979 -1.8366  0.2043
  846MPD2    H112486   2.133   0.185  14.387  0.6543  0.0829 -0.9838
  846MPD2    H212487   2.046   0.134  13.968  2.8100 -0.2385  1.3900
  846MPD2    H312488   2.195   0.133  14.156 -0.3233 -0.2488 -2.4449
  846MPD2     N12489   1.869   0.235  14.459 -0.1306  0.2949  0.5819
  846MPD2    H512490   1.770   0.259  14.464 -0.5658 -0.9346 -1.8859
  846MPD2    N112491   1.761   0.196  13.996  0.2908  0.1358 -0.2425
  846MPD2    H712492   1.672   0.223  14.037 -0.0560 -1.0449 -0.2199
  847MPD2     C12493   2.358   1.176  15.012  0.5094  0.1223  0.0301
  847MPD2    C112494   2.424   1.277  15.080 -1.1151  0.1049 -1.0983
  847MPD2    C212495   2.417   1.276  15.225  0.6229 -0.1690  0.1958
  847MPD2    C312496   2.347   1.185  15.296 -0.0190 -1.1976 -0.7124
  847MPD2    C412497   2.282   1.086  15.224  0.4760 -0.7504 -0.1037
  847MPD2    C512498   2.292   1.085  15.087 -0.7735 -0.0145  0.3227
  847MPD2     H12499   2.466   1.355  15.280 -0.8516  0.7283  0.1993
  847MPD2    H112500   2.217   1.013  15.270  0.8886 -0.9036  0.2374
  847MPD2    H212501   2.364   1.152  14.906 -0.5056  1.0914 -0.2514
  847MPD2    H312502   2.237   1.013  15.027  0.8676  1.2872 -2.7224
  847MPD2     N12503   2.342   1.181  15.439  0.7894  0.7981  0.1540
  847MPD2    H512504   2.282   1.108  15.477  0.6304  0.5123 -0.6457
  847MPD2    N112505   2.474   1.386  15.019  0.4500  0.3258  0.1063
  847MPD2    H712506   2.475   1.469  15.077 -1.9418 -0.8986  1.9451
  848MPD2     C12507   4.471   4.220  16.628  0.0524 -0.1934  0.0017
  848MPD2    C112508   4.554   4.268  16.729 -0.0603 -0.1624 -0.1008
  848MPD2    C212509   4.627   4.386  16.706 -0.3717  0.3310 -0.7782
  848MPD2    C312510   4.613   4.456  16.591 -0.2378  0.4794  0.3977
  848MPD2    C412511   4.521   4.411  16.493 -0.2972 -0.1890  0.0807
  848MPD2    C512512   4.461   4.292  16.512  0.1543  0.2083  0.0359
  848MPD2     H12513   4.689   4.429  16.784 -0.9312 -1.8617  0.8629
  848MPD2    H112514   4.500   4.460  16.399 -0.0339  0.4498  0.3515
  848MPD2    H212515   4.403   4.136  16.638 -1.7950  1.2647 -0.3877
  848MPD2    H312516   4.388   4.249  16.445 -1.0124  1.6900  0.3641
  848MPD2     N12517   4.671   4.576  16.563 -0.2161 -0.0702  0.1962
  848MPD2    H512518   4.637   4.629  16.483  1.4411  0.6290 -0.0464
  848MPD2    N112519   4.582   4.187  16.842  0.0753 -0.1455 -0.2023
  848MPD2    H712520   4.633   4.232  16.917  0.7616 -0.8637 -0.2383
  849MPD2     C12521   3.808   3.879  14.509  0.6304 -0.1414 -0.2689
  849MPD2    C112522   3.868   3.999  14.507  0.2615  0.0698 -0.2564
  849MPD2    C212523   4.002   4.003  14.550  0.3384  0.0962 -0.9448
  849MPD2    C312524   4.080   3.896  14.566 -0.3839 -0.0022 -0.5163
  849MPD2    C412525   4.023   3.768  14.555  0.1670  0.5100  0.2909
  849MPD2    C512526   3.886   3.767  14.529  0.1811 -0.7558  0.4265
  849MPD2     H12527   4.047   4.101  14.559  2.7921 -1.0110 -1.1644
  849MPD2    H112528   4.068   3.671  14.570  1.4556  1.2125  1.0345
  849MPD2    H212529   3.702   3.867  14.490  1.0354  0.1875 -2.7061
  849MPD2    H312530   3.830   3.674  14.534 -2.6144  0.8605 -0.8186
  849MPD2     N12531   4.220   3.903  14.594  0.4975 -0.7923  0.1234
  849MPD2    H512532   4.269   3.815  14.580  0.6751 -0.5024 -1.1192
  849MPD2    N112533   3.790   4.112  14.463  0.0325  0.1663  0.6475
  849MPD2    H712534   3.708   4.090  14.408  0.2851  0.7961  0.0167
  850MPD2     C12535   1.978   2.335  14.615 -0.3385 -0.1874  0.4733
  850MPD2    C112536   1.951   2.444  14.700  0.0150  0.4426  0.8565
  850MPD2    C212537   2.051   2.538  14.717  0.4386  0.3767 -0.1645
  850MPD2    C312538   2.178   2.515  14.653 -0.1624 -0.4446  0.5918
  850MPD2    C412539   2.198   2.409  14.564 -0.4823 -0.4498  0.2895
  850MPD2    C512540   2.092   2.323  14.546 -0.4097  0.0846 -0.4392
  850MPD2     H12541   2.030   2.622  14.781 -0.3231 -0.1889  0.3234
  850MPD2    H112542   2.293   2.392  14.516 -0.4375  2.5582 -0.7300
  850MPD2    H212543   1.897   2.264  14.602 -0.3219  0.2475 -1.9301
  850MPD2    H312544   2.111   2.228  14.497 -2.8574 -0.3293 -0.5460
  850MPD2     N12545   2.292   2.599  14.680  0.4108 -0.4343  0.1187
  850MPD2    H512546   2.376   2.580  14.628 -1.1725  0.4029 -2.7612
  850MPD2    N112547   1.830   2.444  14.777  0.0452 -0.3292  1.4051
  850MPD2    H712548   1.770   2.365  14.799  0.4796 -1.0999 -0.2546
  851MPD2     C12549   2.164   2.120  15.247 -0.1279 -0.1937 -0.0712
  851MPD2    C112550   2.131   2.248  15.288 -0.2605  0.3805 -0.4083
  851MPD2    C212551   2.180   2.285  15.415 -0.4608  0.7706 -0.3265
  851MPD2    C312552   2.269   2.211  15.489 -1.0081  0.0877 -0.6011
  851MPD2    C412553   2.310   2.084  15.433 -0.1324 -0.4947  0.5163
  851MPD2    C512554   2.250   2.043  15.314 -0.5065 -0.4562 -0.1699
  851MPD2     H12555   2.157   2.377  15.467 -1.7815  0.1181  0.2498
  851MPD2    H112556   2.370   2.015  15.492 -0.0477 -0.7530  0.1222
  851MPD2    H212557   2.118   2.082  15.157  0.6515  1.3844 -1.1281
  851MPD2    H312558   2.259   1.941  15.279 -1.4670 -1.0901  1.4278
  851MPD2     N12559   2.310   2.263  15.609  0.1356  0.2231 -0.2439
  851MPD2    H512560   2.268   2.347  15.647  0.4429  1.0616 -1.7912
  851MPD2    N112561   2.027   2.321  15.226 -0.3786 -0.0089 -0.4700
  851MPD2    H712562   2.000   2.282  15.136 -0.9258 -0.4136 -0.1317
  852MPD2     C12563   2.091   4.144  10.587  0.4490 -1.3314  0.0646
  852MPD2    C112564   2.123   4.271  10.613 -0.4758  0.3090  0.4000
  852MPD2    C212565   2.199   4.343  10.521 -0.2615  0.1914 -0.0541
  852MPD2    C312566   2.241   4.293  10.399  0.1412  0.2067 -0.6279
  852MPD2    C412567   2.201   4.160  10.372 -1.5824 -0.3634  0.3283
  852MPD2    C512568   2.129   4.091  10.465  0.7236  0.3618  0.5229
  852MPD2     H12569   2.223   4.448  10.536 -0.2287  0.0346  1.0289
  852MPD2    H112570   2.215   4.099  10.283  0.4640  0.0548  0.3746
  852MPD2    H212571   2.034   4.083  10.656 -1.4868 -1.2072 -1.4363
  852MPD2    H312572   2.114   3.984  10.451  3.8272 -0.0628  0.5640
  852MPD2     N12573   2.318   4.378  10.317  0.3952  0.2621  0.2682
  852MPD2    H512574   2.331   4.475  10.344 -4.8202  0.6620  1.4394
  852MPD2    N112575   2.096   4.334  10.735  1.0130  0.0817 -0.5814
  852MPD2    H712576   2.136   4.424  10.760  1.5489 -0.7508  1.5781
  853MPD2     C12577   3.791   4.239  12.666  0.2547 -0.6364 -0.1897
  853MPD2    C112578   3.720   4.353  12.679 -0.0325  0.2165  0.6256
  853MPD2    C212579   3.607   4.363  12.607 -0.1342  0.6570 -0.3735
  853MPD2    C312580   3.571   4.270  12.510 -0.1379 -0.4676  0.7537
  853MPD2    C412581   3.643   4.157  12.496  0.0576  0.2458 -0.1024
  853MPD2    C512582   3.760   4.146  12.563 -0.0975 -0.6001 -0.1164
  853MPD2     H12583   3.532   4.439  12.627 -0.7770 -0.2410  0.5762
  853MPD2    H112584   3.623   4.074  12.428 -0.6426  0.9212 -0.7168
  853MPD2    H212585   3.884   4.232  12.722  0.1764 -0.3139 -0.0166
  853MPD2    H312586   3.832   4.067  12.549  1.6086  1.0562 -0.6281
  853MPD2     N12587   3.458   4.289  12.428  0.6958 -0.5222  0.4252
  853MPD2    H512588   3.451   4.231  12.346  2.7542 -0.4783  0.2101
  853MPD2    N112589   3.761   4.449  12.776 -0.3903 -0.2027 -0.0225
  853MPD2    H712590   3.844   4.421  12.827  0.5175  0.1081 -1.3125
  854MPD2     C12591   1.014   4.245  12.559 -0.1359  0.6493 -0.7530
  854MPD2    C112592   1.058   4.349  12.632 -0.4278 -0.0791  0.8310
  854MPD2    C212593   1.148   4.320  12.729  0.0658 -0.0090 -0.1480
  854MPD2    C312594   1.190   4.189  12.754 -0.3627 -0.1311  0.1157
  854MPD2    C412595   1.136   4.087  12.685 -0.1324  0.2890  0.2972
  854MPD2    C512596   1.039   4.118  12.592  0.0664 -0.2898 -0.1757
  854MPD2     H12597   1.191   4.402  12.786 -1.2058  1.6240 -1.5299
  854MPD2    H112598   1.166   3.985  12.703 -1.4181 -0.6404 -2.8156
  854MPD2    H212599   0.943   4.264  12.479 -1.5131 -0.6979  0.1550
  854MPD2    H312600   1.003   4.035  12.532  2.2829 -0.9883 -0.5407
  854MPD2     N12601   1.292   4.153  12.848 -0.2317  0.0065  0.2689
  854MPD2    H512602   1.313   4.054  12.848  2.3958  0.5656  0.4510
  854MPD2    N112603   1.027   4.476  12.586  0.3354 -0.4482  0.3677
  854MPD2    H712604   0.959   4.472  12.510  0.2748  0.7224  0.3535
  855MPD2     C12605   1.256   4.329  13.780  0.7907 -0.4295  0.1809
  855MPD2    C112606   1.337   4.220  13.767 -0.2987 -0.4868  0.4919
  855MPD2    C212607   1.407   4.200  13.648 -0.3246  0.3651 -0.1631
  855MPD2    C312608   1.380   4.272  13.542 -0.4647  0.0029 -0.4341
  855MPD2    C412609   1.295   4.383  13.551  0.3152 -0.3177 -0.8769
  855MPD2    C512610   1.231   4.408  13.670  0.6864  0.4488 -0.1539
  855MPD2     H12611   1.472   4.114  13.642 -0.1368  0.4681  0.3503
  855MPD2    H112612   1.270   4.446  13.466 -0.9424  0.4798  0.0767
  855MPD2    H212613   1.224   4.366  13.877  0.9534 -2.4311  1.0084
  855MPD2    H312614   1.164   4.493  13.678 -2.8252 -2.2925 -0.3433
  855MPD2     N12615   1.441   4.251  13.413 -0.6984 -0.0967  0.3227
  855MPD2    H512616   1.414   4.319  13.342  3.2374  1.4439  0.2843
  855MPD2    N112617   1.345   4.123  13.869 -0.2265 -0.2910 -1.1416
  855MPD2    H712618   1.409   4.047  13.851  0.4107  0.4009 -1.8263
  856MPD2     C12619   2.815   0.556  13.945  0.4072 -1.1046 -0.3810
  856MPD2    C112620   2.800   0.586  14.074  0.4646  0.1599  0.0967
  856MPD2    C212621   2.675   0.630  14.111  0.8527  0.1020  0.0139
  856MPD2    C312622   2.574   0.640  14.019 -0.2500 -0.4252  0.3306
  856MPD2    C412623   2.594   0.628  13.881  0.3113 -0.0764 -0.5805
  856MPD2    C512624   2.718   0.582  13.848 -0.2114  0.5455 -0.2090
  856MPD2     H12625   2.658   0.670  14.211  0.2397 -0.9379  0.3249
  856MPD2    H112626   2.517   0.646  13.808 -0.2388 -0.2843 -0.0520
  856MPD2    H212627   2.914   0.523  13.916  1.3334 -0.0371  1.5802
  856MPD2    H312628   2.748   0.582  13.743  0.5314 -3.8355  0.0207
  856MPD2     N12629   2.440   0.687  14.051  0.8479  0.2975  0.3972
  856MPD2    H512630   2.374   0.679  13.974  1.2785  0.0489  0.0531
  856MPD2    N112631   2.912   0.576  14.169 -0.4755  0.2440 -0.4939
  856MPD2    H712632   2.904   0.629  14.255 -2.1045 -0.2404 -0.3458
  857MPD2     C12633   4.604   2.346  12.849 -0.5207 -0.7670  0.3103
  857MPD2    C112634   4.702   2.381  12.760 -0.8239  0.1155  0.2329
  857MPD2    C212635   0.027   2.500  12.776 -0.1543 -0.0429  0.4928
  857MPD2    C312636   4.721   2.594  12.868 -0.0450  0.0343  0.1871
  857MPD2    C412637   4.619   2.565  12.956  0.3664  0.0855 -1.3424
  857MPD2    C512638   4.563   2.437  12.940 -0.7038 -0.4003 -0.4783
  857MPD2     H12639   0.115   2.525  12.718 -1.1123  1.8621 -0.1475
  857MPD2    H112640   4.577   2.624  13.036  1.2901  1.2179 -1.6965
  857MPD2    H212641   4.555   2.249  12.847 -2.6350  0.2558  2.4303
  857MPD2    H312642   4.496   2.404  13.019  0.0821 -0.3452  0.2171
  857MPD2     N12643   0.050   2.715  12.874  0.1553 -0.3970 -0.2637
  857MPD2    H512644   0.127   2.724  12.808  0.1308  2.3858  0.0855
  857MPD2    N112645   4.733   2.282  12.661 -0.2958 -0.2785  0.5725
  857MPD2    H712646   4.667   2.205  12.651 -1.8341  0.4862  5.0786
  858MPD2     C12647   0.329   1.605  16.927  0.1386 -0.3610  0.2732
  858MPD2    C112648   0.464   1.624  16.903  0.0132  0.6064  0.4216
  858MPD2    C212649   0.540   1.700  16.987  0.0968  0.0177 -0.2972
  858MPD2    C312650   0.477   1.772  17.086 -1.2313 -0.0692 -0.3805
  858MPD2    C412651   0.338   1.775  17.094 -0.8955  0.0282 -0.9410
  858MPD2    C512652   0.272   1.686  17.015 -0.7356 -0.4109 -0.1264
  858MPD2     H12653   0.648   1.696  16.980  0.2219  2.5283  0.2838
  858MPD2    H112654   0.278   1.842  17.154  1.0826 -0.7693  1.9357
  858MPD2    H212655   0.267   1.532  16.877 -1.5430 -0.4031  2.4349
  858MPD2    H312656   0.164   1.681  17.019 -0.8428  1.6548 -0.4792
  858MPD2     N12657   0.545   1.835  17.192  0.1191  0.7628  0.3681
  858MPD2    H512658   0.483   1.880  17.259 -2.0027 -0.0270 -1.0914
  858MPD2    N112659   0.534   1.560  16.791  0.3590  0.3839 -0.1986
  858MPD2    H712660   0.633   1.577  16.777  0.4323  0.4634  0.4214
  859MPD2     C12661   3.951   4.312  15.848 -0.2152 -0.0115  0.0837
  859MPD2    C112662   3.925   4.269  15.725  0.3548 -0.2084  0.5244
  859MPD2    C212663   3.871   4.138  15.702 -0.2594  0.5612  0.1672
  859MPD2    C312664   3.831   4.066  15.818  0.1956  0.2410 -0.1931
  859MPD2    C412665   3.857   4.107  15.945 -0.1559 -0.7052 -0.0159
  859MPD2    C512666   3.921   4.231  15.956 -0.1104 -0.5671 -0.1001
  859MPD2     H12667   3.864   4.103  15.600  0.3697 -2.3788  1.1379
  859MPD2    H112668   3.853   4.047  16.036 -0.6747 -1.2621 -0.4123
  859MPD2    H212669   3.976   4.414  15.871  1.5803 -0.5596  0.5656
  859MPD2    H312670   3.931   4.272  16.056  0.4754  0.6697 -0.6540
  859MPD2     N12671   3.776   3.931  15.812  0.3005  0.3730  0.6281
  859MPD2    H512672   3.762   3.879  15.898 -0.0350 -1.1839 -0.3556
  859MPD2    N112673   3.985   4.346  15.623  0.2081 -0.2854 -0.1710
  859MPD2    H712674   4.052   4.417  15.649 -0.3935  0.1138  0.3068
  860MPD2     C12675   2.248   4.108  11.799  0.8458 -0.2342  0.8675
  860MPD2    C112676   2.261   4.054  11.921  0.3757  0.7703 -0.1162
  860MPD2    C212677   2.171   3.956  11.962 -0.1260  0.1603  0.0485
  860MPD2    C312678   2.066   3.919  11.884 -0.4954  0.2739 -0.1707
  860MPD2    C412679   2.051   3.975  11.756  0.2173  0.4823 -0.6940
  860MPD2    C512680   2.142   4.073  11.721 -0.3997 -0.6286  0.1653
  860MPD2     H12681   2.172   3.919  12.064 -0.4919  0.3898  0.1340
  860MPD2    H112682   1.964   3.949  11.697 -0.5920  1.3595  0.1240
  860MPD2    H212683   2.314   4.191  11.777  0.5268 -0.5630 -1.4040
  860MPD2    H312684   2.133   4.131  11.630  3.3294  0.8304  0.7070
  860MPD2     N12685   1.968   3.834  11.943 -0.4199  0.6270  0.1557
  860MPD2    H512686   1.988   3.814  12.040  0.2800  0.2035 -0.0716
  860MPD2    N112687   2.345   4.110  12.027  0.4964 -0.1723 -0.5742
  860MPD2    H712688   2.359   4.049  12.107 -1.7717 -0.2993 -0.2668
  861MPD2     C12689   0.400   1.728  10.988  0.7815  0.6418 -0.4918
  861MPD2    C112690   0.284   1.709  11.062  0.1831 -0.5025 -0.8555
  861MPD2    C212691   0.166   1.720  10.991  0.3643  0.2663 -0.5416
  861MPD2    C312692   0.157   1.734  10.849 -0.0623 -0.6120  0.0825
  861MPD2    C412693   0.274   1.737  10.781  0.2716 -0.6211 -0.4582
  861MPD2    C512694   0.390   1.736  10.856 -0.0920 -0.1558  0.1411
  861MPD2     H12695   0.076   1.724  11.053  2.4453  0.8427  2.4674
  861MPD2    H112696   0.275   1.748  10.673 -0.2885 -0.0923 -0.4083
  861MPD2    H212697   0.501   1.720  11.027  0.6805 -2.1542 -0.7519
  861MPD2    H312698   0.478   1.757  10.797 -1.2535  2.1476 -0.7362
  861MPD2     N12699   0.039   1.739  10.775 -0.1707 -0.0250 -0.4322
  861MPD2    H512700   0.054   1.780  10.683 -2.6440 -0.0994 -0.8554
  861MPD2    N112701   0.269   1.679  11.200  0.4540 -0.1681 -0.1747
  861MPD2    H712702   0.175   1.678  11.239  0.2895  0.9325 -0.5227
  862MPD2     C12703   4.458   1.717  10.154  0.1537 -0.1692  0.4039
  862MPD2    C112704   4.561   1.702  10.239  0.3258 -0.1989  0.7368
  862MPD2    C212705   4.675   1.625  10.200  0.6840  0.2755  0.3505
  862MPD2    C312706   4.659   1.536  10.094  0.2254 -0.2705  0.8325
  862MPD2    C412707   4.548   1.542  10.016  0.5578  0.4229 -0.3762
  862MPD2    C512708   4.455   1.642  10.035 -0.1098 -0.0501  0.6325
  862MPD2     H12709   0.015   1.610  10.271  1.3497 -2.5766 -1.0062
  862MPD2    H112710   4.524   1.465   9.943  0.2592 -1.0595  1.2592
  862MPD2    H212711   4.374   1.782  10.174  1.0913  2.0834 -2.9455
  862MPD2    H312712   4.365   1.632   9.975  1.5694 -2.7558 -1.4397
  862MPD2     N12713   0.009   1.438  10.064  0.2266 -0.2797  0.1540
  862MPD2    H512714   4.727   1.385   9.980  1.0203 -0.5418  0.1141
  862MPD2    N112715   4.573   1.774  10.359 -0.4189 -0.2266 -0.4553
  862MPD2    H712716   4.650   1.749  10.419 -1.0289 -1.0932 -0.0323
  863MPD2     C12717   3.738   0.614  16.848 -0.0942  0.6000 -0.4411
  863MPD2    C112718   3.638   0.675  16.926 -0.0013 -0.7958  0.7678
  863MPD2    C212719   3.673   0.711  17.055 -0.1809  1.0113  0.3042
  863MPD2    C312720   3.795   0.681  17.109 -0.3668  0.2205  0.5318
  863MPD2    C412721   3.882   0.603  17.033  0.4588  0.0071 -0.5189
  863MPD2    C512722   3.852   0.569  16.906 -0.8986 -0.5600 -0.8777
  863MPD2     H12723   3.597   0.754  17.119 -1.5042  0.5286 -0.9273
  863MPD2    H112724   3.984   0.583  17.062  0.6304  0.1196 -1.0521
  863MPD2    H212725   3.722   0.570  16.750  1.4772  0.5607 -0.6755
  863MPD2    H312726   3.911   0.499  16.847 -2.6367  1.1508 -4.6739
  863MPD2     N12727   3.844   0.723  17.236  0.3566  0.4322  0.3298
  863MPD2    H512728   3.934   0.687  17.265 -0.4297  0.2621  2.6022
  863MPD2    N112729   3.519   0.708  16.862  0.0445  0.2534 -0.1752
  863MPD2    H712730   3.511   0.682  16.764  0.7880  2.0291 -0.7045
  864MPD2     C12731   4.308   2.194  17.562 -0.2563 -0.6802  0.6206
  864MPD2    C112732   4.322   2.130  17.440 -0.3285  0.8164  0.7149
  864MPD2    C212733   4.413   2.171  17.344 -0.2003  0.3487  0.4643
  864MPD2    C312734   4.483   2.292  17.361  0.0284 -0.0563 -1.2958
  864MPD2    C412735   4.459   2.361  17.476  0.0100  0.1962  0.1562
  864MPD2    C512736   4.379   2.314  17.583 -0.3580 -0.4928 -0.4268
  864MPD2     H12737   4.426   2.114  17.253 -2.5560 -0.1551  0.4566
  864MPD2    H112738   4.496   2.462  17.490 -0.0370  0.4188 -1.3639
  864MPD2    H212739   4.235   2.154  17.631 -0.7857  0.6625  0.8272
  864MPD2    H312740   4.357   2.372  17.672  1.0017 -2.0060  0.8996
  864MPD2     N12741   4.579   2.350  17.267 -0.5227  0.0954  1.0614
  864MPD2    H512742   4.610   2.447  17.269  2.6269 -0.9304  0.5457
  864MPD2    N112743   4.236   2.020  17.427 -0.0158  0.3789  0.2903
  864MPD2    H712744   4.183   2.003  17.512 -1.4927  0.6423 -0.5736
  865MPD2     C12745   4.679   2.646  16.445  0.1423  0.5181 -0.7988
  865MPD2    C112746   4.657   2.557  16.545 -0.3724  0.1383  0.4983
  865MPD2    C212747   4.663   2.592  16.677 -0.5935 -0.8604  0.0309
  865MPD2    C312748   4.685   2.724  16.707 -0.4161  0.5349  0.2527
  865MPD2    C412749   4.703   2.820  16.609 -0.3567 -0.4194  0.1789
  865MPD2    C512750   4.697   2.776  16.474  0.0573  0.0287 -0.0202
  865MPD2     H12751   4.636   2.517  16.752 -3.3064 -1.4410 -1.5297
  865MPD2    H112752   4.710   2.926  16.628  1.4480 -0.8684  1.9292
  865MPD2    H212753   4.688   2.617  16.340 -0.5041  0.0684 -0.7331
  865MPD2    H312754   4.722   2.843  16.393  2.0462 -1.4228 -0.6044
  865MPD2     N12755   4.689   2.778  16.840 -0.0346 -0.0995  0.7967
  865MPD2    H512756   4.695   2.879  16.844 -0.1811 -0.1253  1.8498
  865MPD2    N112757   4.641   2.418  16.505  0.7547 -1.2077  0.3711
  865MPD2    H712758   4.638   2.398  16.406  1.0926  0.8760 -0.0485
  866MPD2     C12759   0.724   1.827  11.523 -0.2813  0.4326 -0.1583
  866MPD2    C112760   0.749   1.881  11.402  0.9360  0.3641 -0.3108
  866MPD2    C212761   0.644   1.949  11.337 -0.2384 -0.2455 -0.8001
  866MPD2    C312762   0.521   1.966  11.387  0.2254 -0.1448  0.7116
  866MPD2    C412763   0.506   1.933  11.522  0.2439  1.3797 -0.4988
  866MPD2    C512764   0.603   1.854  11.574  0.2258  0.1447 -0.6924
  866MPD2     H12765   0.659   1.986  11.236 -0.1342 -1.3494 -1.1821
  866MPD2    H112766   0.422   1.939  11.591  0.6580 -1.7826  0.2829
  866MPD2    H212767   0.800   1.794  11.592 -2.5927 -2.5150  0.9716
  866MPD2    H312768   0.587   1.816  11.674 -0.5403  0.4809 -0.6861
  866MPD2     N12769   0.410   2.019  11.321 -0.6017 -0.2783  1.0921
  866MPD2    H512770   0.322   2.025  11.371 -0.3461 -0.8140  1.6191
  866MPD2    N112771   0.883   1.869  11.354 -0.4182  0.8578  0.1961
  866MPD2    H712772   0.955   1.836  11.418 -1.5010  0.7535  1.3684
  867MPD2     C12773   2.883   2.417  16.988 -0.8396 -0.2432  0.3285
  867MPD2    C112774   2.983   2.450  17.076  0.4299  0.1212  0.0434
  867MPD2    C212775   2.990   2.584  17.121 -0.5125  0.1868  0.6352
  867MPD2    C312776   2.892   2.668  17.083 -0.6232 -0.1754 -0.2461
  867MPD2    C412777   2.793   2.635  16.996 -0.3282 -0.0635  1.0888
  867MPD2    C512778   2.790   2.508  16.951 -0.1747  0.5156 -0.1469
  867MPD2     H12779   3.070   2.619  17.184  0.2388  1.7489 -1.1983
  867MPD2    H112780   2.711   2.704  16.982 -0.4688 -0.5490 -0.4986
  867MPD2    H212781   2.869   2.317  16.949  1.6445  0.5304 -2.5193
  867MPD2    H312782   2.713   2.468  16.886 -1.2709  3.4371 -0.6326
  867MPD2     N12783   2.887   2.803  17.129 -0.1260 -0.6292 -0.4868
  867MPD2    H512784   2.814   2.867  17.099  0.1589  0.0444  0.2618
  867MPD2    N112785   3.074   2.346  17.106  0.2527  0.1154 -0.5541
  867MPD2    H712786   3.047   2.253  17.076 -1.5983  0.4324  0.1789
  868MPD2     C12787   0.339   1.192  12.943 -0.2854  0.0227 -0.5263
  868MPD2    C112788   0.336   1.095  13.044  0.2920  1.3326  0.1416
  868MPD2    C212789   0.250   1.117  13.152  0.6597 -0.5062 -0.2500
  868MPD2    C312790   0.175   1.231  13.161  0.7304 -1.0239  0.4435
  868MPD2    C412791   0.170   1.316  13.054  0.5276  0.3459 -0.3011
  868MPD2    C512792   0.259   1.305  12.944 -0.4604 -0.3121 -0.7486
  868MPD2     H12793   0.254   1.058  13.242 -1.2293 -0.2251  0.0124
  868MPD2    H112794   0.116   1.409  13.054 -0.2207 -0.0973  1.4065
  868MPD2    H212795   0.417   1.190  12.867 -2.2178  1.5840 -2.5534
  868MPD2    H312796   0.256   1.368  12.856 -3.2873  1.4368  0.6293
  868MPD2     N12797   0.111   1.254  13.290 -0.2158 -0.5175  0.4417
  868MPD2    H512798   0.134   1.185  13.361 -1.3080 -1.2551  0.0652
  868MPD2    N112799   0.426   0.984  13.039  0.0761  0.3069  0.1956
  868MPD2    H712800   0.506   0.994  12.978 -0.4732  2.2698 -0.2162
  869MPD2     C12801   1.062   4.083   0.571  1.5379  1.1488 -0.0588
  869MPD2    C112802   1.128   4.203   0.601  0.1281  0.0274 -0.2421
  869MPD2    C212803   1.256   4.197   0.659 -0.5100  0.1891  0.1533
  869MPD2    C312804   1.299   4.072   0.713  0.6364 -0.2691 -0.3660
  869MPD2    C412805   1.246   3.958   0.666 -0.4653  0.4074  0.0620
  869MPD2    C512806   1.131   3.970   0.595  0.0541 -0.3307  0.6393
  869MPD2     H12807   1.294   4.292   0.696 -0.5115 -0.1317  0.9760
  869MPD2    H112808   1.281   3.860   0.697  1.7596  0.8354 -1.0692
  869MPD2    H212809   0.965   4.065   0.525  0.9974  0.7296  1.2509
  869MPD2    H312810   1.082   3.877   0.566 -1.0500  0.7750 -1.0125
  869MPD2     N12811   1.396   4.056   0.810  0.3319  0.0512  0.0881
  869MPD2    H512812   1.413   3.963   0.847 -1.0619 -0.1773  0.1593
  869MPD2    N112813   1.064   4.321   0.571 -0.3251  0.5838  0.0096
  869MPD2    H712814   0.968   4.323   0.539 -0.0058 -0.7121 -1.0192
  870MPD2     C12815   1.792   3.218   1.781 -0.1075 -0.1772 -0.2365
  870MPD2    C112816   1.721   3.117   1.727  0.1800 -0.5235 -0.2845
  870MPD2    C212817   1.599   3.149   1.665  0.2086 -0.5845 -0.0310
  870MPD2    C312818   1.553   3.280   1.654 -0.3575 -0.5586  0.2734
  870MPD2    C412819   1.631   3.381   1.709  0.3088 -0.0143  0.2424
  870MPD2    C512820   1.749   3.344   1.773 -0.5155  0.8914  0.1624
  870MPD2     H12821   1.536   3.073   1.620 -0.7157 -1.8443  3.4117
  870MPD2    H112822   1.614   3.488   1.705  1.8856  0.3218  2.3184
  870MPD2    H212823   1.881   3.204   1.841 -0.9164 -1.6936  0.6127
  870MPD2    H312824   1.811   3.420   1.819 -2.3718  2.4615  0.0486
  870MPD2     N12825   1.422   3.310   1.600  0.2835 -0.0523  0.0487
  870MPD2    H512826   1.381   3.243   1.536  1.1108  0.4770 -1.0312
  870MPD2    N112827   1.775   2.987   1.751 -0.2196  0.1180 -0.4937
  870MPD2    H712828   1.853   2.979   1.816  0.5652  1.1089 -1.3077
  871MPD2     C12829   2.124   2.403  16.423 -0.3054 -0.5286  0.0796
  871MPD2    C112830   2.102   2.339  16.542 -0.0586  0.8072  0.1487
  871MPD2    C212831   2.107   2.208  16.553 -0.2925 -0.0536  0.2624
  871MPD2    C312832   2.138   2.130  16.440  0.4347 -0.0900  0.1865
  871MPD2    C412833   2.162   2.193  16.320  0.4789 -0.6873  0.3588
  871MPD2    C512834   2.153   2.329  16.308  0.0450  0.0948 -0.5297
  871MPD2     H12835   2.090   2.155  16.646 -0.2515 -1.6197 -0.6229
  871MPD2    H112836   2.191   2.143  16.229 -1.3139  0.7543 -0.9911
  871MPD2    H212837   2.130   2.510  16.415 -0.7693 -0.2853  3.0704
  871MPD2    H312838   2.187   2.380  16.219  2.1207 -0.8722 -0.2885
  871MPD2     N12839   2.154   1.994  16.458  0.6039 -0.1961 -0.8640
  871MPD2    H512840   2.130   1.950  16.546  2.4538 -0.0223 -0.2769
  871MPD2    N112841   2.083   2.432  16.649 -0.2826 -0.6659 -0.8992
  871MPD2    H712842   2.111   2.529  16.636 -0.4330 -0.3594  1.0500
  872MPD2     C12843   3.030   4.562  14.735  0.1453 -0.2561  0.0706
  872MPD2    C112844   2.991   4.598  14.605 -0.0192 -0.7267  1.3593
  872MPD2    C212845   2.861   4.649  14.583  0.1843  0.2232  0.3727
  872MPD2    C312846   2.777   4.673  14.687  0.0100 -0.3003 -0.6988
  872MPD2    C412847   2.822   4.642  14.819 -0.9424  0.4193 -0.4545
  872MPD2    C512848   2.943   4.579  14.835  0.8309  0.6131  0.4772
  872MPD2     H12849   2.838   4.683  14.482  1.6645  1.9128  0.5984
  872MPD2    H112850   2.760   4.649  14.908 -1.1549 -2.6021 -0.3699
  872MPD2    H212851   3.124   4.515  14.762 -0.2073 -0.1934  1.4401
  872MPD2    H312852   2.984   4.549  14.931 -0.6670 -1.6346  0.4070
  872MPD2     N12853   2.654   4.735  14.677 -0.3724  0.3392 -0.3725
  872MPD2    H512854   2.616   0.042  14.759  0.2548  1.9688 -1.0001
  872MPD2    N112855   3.084   4.583  14.500 -0.1505  0.0814 -0.3766
  872MPD2    H712856   3.047   4.604  14.408 -1.7714  0.3713  0.3462
  873MPD2     C12857   4.207   0.743   1.115 -1.0592 -0.3277 -0.0580
  873MPD2    C112858   4.331   0.689   1.130 -0.1026  0.1659 -0.2427
  873MPD2    C212859   4.357   0.557   1.092 -0.6559  0.1123  0.4237
  873MPD2    C312860   4.268   0.493   1.010  0.5304 -0.2916  0.0167
  873MPD2    C412861   4.146   0.551   0.987  0.5090  0.4336  0.2048
  873MPD2    C512862   4.120   0.674   1.036 -0.6112  0.0467  0.2410
  873MPD2     H12863   4.453   0.512   1.116 -1.6077 -0.7058  2.7429
  873MPD2    H112864   4.071   0.505   0.923  1.5836  0.8171 -1.3166
  873MPD2    H212865   4.177   0.838   1.157  0.2419  1.0687 -2.2684
  873MPD2    H312866   4.019   0.707   1.014 -0.1501 -0.0118 -1.9748
  873MPD2     N12867   4.292   0.371   0.944  0.2028  0.0500  0.2398
  873MPD2    H512868   4.225   0.344   0.873  1.9366 -0.2339 -1.2949
  873MPD2    N112869   4.417   0.760   1.216 -0.0388  0.6717 -0.1711
  873MPD2    H712870   4.377   0.845   1.255  1.3987  1.6096 -0.7179
  874MPD2     C12871   4.093   0.074  16.282 -0.0966  0.7159 -0.0615
  874MPD2    C112872   4.174   0.008  16.366 -0.2215  0.3000  0.3868
  874MPD2    C212873   4.311   0.018  16.336 -0.1159 -0.3496 -0.2458
  874MPD2    C312874   4.368   0.111  16.245 -0.3867 -0.2059  0.1418
  874MPD2    C412875   4.277   0.187  16.176  0.3259  0.2460  0.1550
  874MPD2    C512876   4.145   0.153  16.182  0.5176  0.5008 -0.1797
  874MPD2     H12877   4.380   4.695  16.390  0.8638  1.9543  1.2125
  874MPD2    H112878   4.317   0.266  16.113 -1.5064  1.2923  0.2862
  874MPD2    H212879   3.988   0.077  16.307  0.5865 -0.6992  3.0218
  874MPD2    H312880   4.080   0.211  16.116  1.1416  1.0209 -0.3441
  874MPD2     N12881   4.506   0.142  16.241  0.5308 -0.0560  0.0004
  874MPD2    H512882   4.534   0.230  16.200 -0.8195 -0.2174 -1.2718
  874MPD2    N112883   4.124   4.660  16.470  0.4679  0.1976  0.1445
  874MPD2    H712884   4.030   4.625  16.454  0.3101  0.6400  0.1065
  875MPD2     C12885   4.525   2.568  14.580  0.2440 -0.7994  0.4133
  875MPD2    C112886   4.532   2.691  14.521  0.6366 -0.5866 -0.4803
  875MPD2    C212887   4.603   2.788  14.604  0.2184 -0.0683 -0.1588
  875MPD2    C312888   4.668   2.757  14.719 -0.0839 -0.4401  0.5396
  875MPD2    C412889   4.652   2.635  14.771  0.6390 -0.1721  0.2963
  875MPD2    C512890   4.565   2.548  14.712  0.2134 -0.0003  0.4150
  875MPD2     H12891   4.632   2.883  14.559 -1.4772 -1.0534 -3.3496
  875MPD2    H112892   4.692   2.607  14.868  0.6717 -2.0992 -0.2743
  875MPD2    H212893   4.470   2.481  14.544  0.2471 -0.9570  0.7939
  875MPD2    H312894   4.572   2.447  14.751  1.2318  0.2101  0.8031
  875MPD2     N12895   4.734   2.863  14.787  0.1754  0.0623  0.4137
  875MPD2    H512896   0.024   2.846  14.883 -2.9811 -3.9142  0.6481
  875MPD2    N112897   4.476   2.712  14.391 -0.3412 -0.1254  0.7247
  875MPD2    H712898   4.444   2.629  14.341 -2.1650 -0.3434  2.2518
  876MPD2     C12899   4.055   4.298  16.283  0.7398 -0.3999 -0.9219
  876MPD2    C112900   4.176   4.276  16.216 -0.0478  0.2966  0.1067
  876MPD2    C212901   4.245   4.160  16.237 -0.5519  0.1476  0.5571
  876MPD2    C312902   4.199   4.067  16.329  0.2650  0.2036 -0.5643
  876MPD2    C412903   4.083   4.090  16.396 -0.0884 -0.7358  0.9569
  876MPD2    C512904   4.016   4.207  16.369  0.0054  0.1191 -0.1101
  876MPD2     H12905   4.341   4.139  16.192 -1.2092 -1.1897 -0.2278
  876MPD2    H112906   4.045   4.021  16.470 -1.5064 -0.8907  0.0900
  876MPD2    H212907   3.991   4.385  16.274  0.2912 -0.7825 -1.4838
  876MPD2    H312908   3.922   4.225  16.422 -1.0939 -0.1157 -1.9888
  876MPD2     N12909   4.265   3.943  16.336 -0.2256 -0.3848 -0.9464
  876MPD2    H512910   4.327   3.923  16.258 -1.8767 -1.1393 -2.0669
  876MPD2    N112911   4.227   4.380  16.130 -0.3376  0.2826  0.2814
  876MPD2    H712912   4.160   4.454  16.112 -0.7913 -0.2247 -0.1546
  877MPD2     C12913   4.080   0.006  15.477  0.2891 -0.2275 -0.1663
  877MPD2    C112914   4.220   0.016  15.498  0.0396 -0.6525 -0.8074
  877MPD2    C212915   4.302   0.077  15.401  0.6854 -0.9712 -0.1371
  877MPD2    C312916   4.239   0.130  15.291  0.4770  0.5505 -0.2672
  877MPD2    C412917   4.102   0.114  15.266 -0.4034  0.3377  0.2302
  877MPD2    C512918   4.020   0.049  15.363 -0.3869 -0.0587  0.0155
  877MPD2     H12919   4.409   0.088  15.414  0.8341 -0.9663 -1.3734
  877MPD2    H112920   4.062   0.162  15.178 -0.8080  1.9848  1.3012
  877MPD2    H212921   4.010   4.702  15.547  1.8830  1.6168  2.5609
  877MPD2    H312922   3.914   0.026  15.356 -0.1851 -0.4278 -1.8536
  877MPD2     N12923   4.313   0.196  15.189 -0.0366  0.8600  0.2752
  877MPD2    H512924   4.265   0.208  15.100  0.7415  0.9379 -0.1324
  877MPD2    N112925   4.282   4.723  15.621 -0.1936 -0.0003 -0.6169
  877MPD2    H712926   4.376   0.021  15.627  0.6143 -1.5651 -3.6464
  878MPD2     C12927   3.708   3.886  13.528 -0.0278 -0.5538  0.0137
  878MPD2    C112928   3.828   3.949  13.518 -0.2035 -0.0409  0.1528
  878MPD2    C212929   3.871   4.021  13.632  0.4085  0.1779  0.0363
  878MPD2    C312930   3.780   4.034  13.745 -0.3781  0.0832 -0.2129
  878MPD2    C412931   3.657   3.976  13.743 -0.0279  0.8747 -0.1570
  878MPD2    C512932   3.629   3.890  13.639  0.3356  0.1323  0.4087
  878MPD2     H12933   3.962   4.078  13.623 -0.3725  1.2072 -1.3869
  878MPD2    H112934   3.588   3.971  13.826 -2.0980  0.6914 -1.8822
  878MPD2    H212935   3.674   3.833  13.439  0.6803 -2.7718  1.0738
  878MPD2    H312936   3.535   3.837  13.642  0.0828  0.6982  2.4185
  878MPD2     N12937   3.838   4.095  13.862  0.1110  0.8696  0.2610
  878MPD2    H512938   3.938   4.108  13.870  0.4335  0.2092 -2.9329
  878MPD2    N112939   3.903   3.943  13.400 -0.4248 -0.5777 -0.1705
  878MPD2    H712940   3.851   3.898  13.325 -1.7156 -0.1171  0.4506
  879MPD2     C12941   4.241   0.921  17.180 -0.0207 -0.1203  0.2430
  879MPD2    C112942   4.317   0.817  17.230 -0.3971  0.0766 -0.3052
  879MPD2    C212943   4.313   0.689  17.170 -0.3072  0.3292  0.0882
  879MPD2    C312944   4.256   0.673  17.044 -0.3844  0.1695 -0.7276
  879MPD2    C412945   4.193   0.785  16.996 -0.5978  0.5932  0.2883
  879MPD2    C512946   4.184   0.904  17.062  0.3789  0.2118  0.3690
  879MPD2     H12947   4.367   0.601  17.204  0.5884  1.0123  0.4413
  879MPD2    H112948   4.141   0.785  16.901 -0.6759 -3.4576  0.2982
  879MPD2    H212949   4.242   1.021  17.224  0.4971 -0.6069  1.3292
  879MPD2    H312950   4.140   0.992  17.016 -2.6662 -2.2245 -1.3874
  879MPD2     N12951   4.261   0.555  16.964 -0.2488  0.1475 -0.4039
  879MPD2    H512952   4.218   0.560  16.872  0.1951 -0.1181 -0.6204
  879MPD2    N112953   4.390   0.841  17.350 -0.8146 -0.3835  0.2156
  879MPD2    H712954   4.389   0.938  17.381  0.6938 -0.6909  1.2265
  880MPD2     C12955   0.946   2.482   0.350  0.3964  0.0913 -0.1787
  880MPD2    C112956   1.008   2.492   0.469 -0.0204 -0.3550 -0.0045
  880MPD2    C212957   1.058   2.382   0.534  0.6581  0.4844  0.5677
  880MPD2    C312958   1.044   2.256   0.478 -0.6002  0.1761 -0.3540
  880MPD2    C412959   0.974   2.246   0.358 -0.5164  0.4363  0.1998
  880MPD2    C512960   0.931   2.358   0.292 -0.8375  0.6019 -0.5646
  880MPD2     H12961   1.117   2.399   0.623  1.1534  0.8848  0.1657
  880MPD2    H112962   0.968   2.154   0.300  1.4262  1.2697 -1.3334
  880MPD2    H212963   0.906   2.565   0.293  1.3569 -1.8504 -3.6763
  880MPD2    H312964   0.878   2.364   0.197 -3.4190  0.8858  0.9004
  880MPD2     N12965   1.096   2.142   0.550 -0.7235  0.0699  0.3067
  880MPD2    H512966   1.143   2.161   0.638 -1.8634  1.3354  0.6463
  880MPD2    N112967   1.039   2.623   0.501 -0.6377  0.2855 -0.2142
  880MPD2    H712968   0.999   2.693   0.440 -2.0193 -1.4313 -1.2994
  881MPD2     C12969   0.888   3.259  17.689  0.2373  0.1236  0.9095
  881MPD2    C112970   1.006   3.184  17.685  0.1542 -0.3972 -0.6734
  881MPD2    C212971   1.049   3.116   0.041 -0.0420 -1.0088  0.4061
  881MPD2    C312972   0.986   3.144   0.157  0.9576 -0.1816  0.1474
  881MPD2    C412973   0.870   3.219   0.163  0.3779 -0.3450  0.0324
  881MPD2    C512974   0.822   3.282   0.049 -0.2378 -0.1478  0.3892
  881MPD2     H12975   1.142   3.060   0.036  1.6850  1.7762  1.7742
  881MPD2    H112976   0.805   3.226   0.249  1.0032  1.3267  0.3653
  881MPD2    H212977   0.864   3.301  17.593 -0.4870 -1.0686  0.5597
  881MPD2    H312978   0.724   3.329   0.052 -0.1226  0.1590 -0.8552
  881MPD2     N12979   1.027   3.111   0.289 -0.8247  0.5457  0.5539
  881MPD2    H512980   0.967   3.148   0.363  0.1968  1.4144  0.9489
  881MPD2    N112981   1.063   3.150  17.562 -0.1171 -0.2645  0.6202
  881MPD2    H712982   1.026   3.199  17.481 -1.2330 -2.1552 -0.0151
  882MPD2     C12983   4.462   4.550  14.626 -0.5321  0.4358  0.1783
  882MPD2    C112984   4.396   4.669  14.651 -0.1763  0.0573  0.4617
  882MPD2    C212985   4.258   4.662  14.632 -0.2645 -0.1158  0.2659
  882MPD2    C312986   4.188   4.549  14.580  0.2244 -0.3233 -0.1485
  882MPD2    C412987   4.259   4.433  14.547 -0.2039 -0.1147 -0.0647
  882MPD2    C512988   4.389   4.440  14.579 -0.5437  0.2412 -0.0272
  882MPD2     H12989   4.192   0.002  14.664  0.7546  0.4285  0.9941
  882MPD2    H112990   4.214   4.338  14.522 -0.8650  0.6083 -1.5976
  882MPD2    H212991   4.567   4.536  14.649 -0.4283 -0.1378 -0.6875
  882MPD2    H312992   4.449   4.350  14.563 -0.0535  0.9263 -2.0904
  882MPD2     N12993   4.044   4.534  14.578 -0.3374 -0.3013  0.0352
  882MPD2    H512994   3.999   4.444  14.563 -0.0925 -0.2419 -1.0529
  882MPD2    N112995   4.465   0.040  14.701 -0.1750 -0.2588 -0.7319
  882MPD2    H712996   4.566   0.042  14.693 -0.0540 -1.8687  0.3987
  883MPD2     C12997   1.433   4.566  16.704  0.1339 -0.1540  0.3252
  883MPD2    C112998   1.515   4.601  16.601  0.3222 -0.0048 -0.1469
  883MPD2    C212999   1.646   4.648  16.625 -0.0307 -0.2708  0.6456
  883MPD2    C313000   1.699   4.637  16.752  0.5569 -0.6538  0.2599
  883MPD2    C413001   1.618   4.590  16.854 -1.2215  0.0316  0.5658
  883MPD2    C513002   1.495   4.553  16.826  0.3784  1.1941  0.3340
  883MPD2     H13003   1.707   4.673  16.539  0.9961 -2.2199  0.7947
  883MPD2    H113004   1.652   4.579  16.957  0.3904 -0.0936  0.0250
  883MPD2    H213005   1.327   4.546  16.697  0.3092 -0.8909 -0.1880
  883MPD2    H313006   1.435   4.513  16.906  0.2296 -2.2044 -1.4549
  883MPD2     N13007   1.840   4.654  16.778  0.0141  0.1467  0.1947
  883MPD2    H513008   1.886   4.674  16.690  1.7161 -0.1165  1.0231
  883MPD2    N113009   1.469   4.602  16.468  0.6097 -0.0435 -1.2760
  883MPD2    H713010   1.530   4.643  16.398  2.9757  0.7535  1.2355
  884MPD2     C13011   3.425   0.616  15.295  0.5496 -0.1461 -0.3381
  884MPD2    C113012   3.427   0.709  15.196 -0.2034 -0.2752 -0.5051
  884MPD2    C213013   3.331   0.810  15.205  0.2270 -0.5745  0.1035
  884MPD2    C313014   3.239   0.820  15.303 -0.3309 -0.0416 -0.1493
  884MPD2    C413015   3.242   0.716  15.397  0.5376  0.1192 -0.1446
  884MPD2    C513016   3.338   0.621  15.396  0.3377  0.2535  0.0879
  884MPD2     H13017   3.338   0.890  15.132  1.4638 -1.7352 -1.0579
  884MPD2    H113018   3.177   0.711  15.483  1.2069 -2.0516  0.2396
  884MPD2    H213019   3.486   0.528  15.287 -0.3860 -0.7134 -1.2224
  884MPD2    H313020   3.343   0.532  15.458  1.0663  0.8496  0.8822
  884MPD2     N13021   3.154   0.933  15.311 -0.2751  0.2664 -0.6950
  884MPD2    H513022   3.149   0.992  15.228  1.0985 -0.0477 -0.9910
  884MPD2    N113023   3.518   0.703  15.090  0.2478 -0.6344 -0.2334
  884MPD2    H713024   3.494   0.755  15.006 -2.3010 -2.5799 -0.6996
  885MPD2     C13025   1.494   1.345   0.639 -0.4558 -0.4006  0.2525
  885MPD2    C113026   1.630   1.330   0.638  0.2233  0.6885  0.4386
  885MPD2    C213027   1.700   1.326   0.518 -0.1024  0.6621  0.3962
  885MPD2    C313028   1.631   1.345   0.400  0.3520 -0.2387 -0.1055
  885MPD2    C413029   1.496   1.366   0.395  0.2444 -0.7918 -0.3695
  885MPD2    C513030   1.427   1.373   0.516  0.3472 -0.3821  0.3792
  885MPD2     H13031   1.808   1.318   0.509 -0.3113 -0.0183 -1.5128
  885MPD2    H113032   1.443   1.380   0.301  1.3149  0.4520 -0.7901
  885MPD2    H213033   1.431   1.348   0.727 -0.7593  1.3334 -0.0178
  885MPD2    H313034   1.320   1.389   0.520  0.6826  1.7067  0.8713
  885MPD2     N13035   1.709   1.339   0.277  0.8085 -0.6673  0.6583
  885MPD2    H513036   1.809   1.321   0.283  0.9473 -0.1132 -0.0954
  885MPD2    N113037   1.692   1.294   0.759 -0.2387 -0.0284  0.3937
  885MPD2    H713038   1.634   1.286   0.843 -1.3456  4.2424  0.0315
  886MPD2     C13039   2.921   4.148  15.417 -0.2261 -0.3135 -0.2660
  886MPD2    C113040   3.040   4.199  15.469  0.4963  0.3007  0.0635
  886MPD2    C213041   3.088   4.322  15.425  0.3802  0.0944 -0.3058
  886MPD2    C313042   3.014   4.401  15.330 -0.5236  0.4478  0.3711
  886MPD2    C413043   2.896   4.344  15.283 -0.0894  0.3772 -0.2744
  886MPD2    C513044   2.848   4.221  15.330  0.3091 -0.0338 -0.4517
  886MPD2     H13045   3.184   4.357  15.460 -0.4171  1.4549  0.5067
  886MPD2    H113046   2.845   4.401  15.205 -0.3178  0.0884 -0.3380
  886MPD2    H213047   2.878   4.053  15.447  0.7732 -0.0930  1.9267
  886MPD2    H313048   2.757   4.180  15.288  0.7216 -1.6087  0.1960
  886MPD2     N13049   3.063   4.516  15.270 -0.1999 -0.6657 -0.5091
  886MPD2    H513050   3.012   4.555  15.191  1.8143 -1.3269 -2.1340
  886MPD2    N113051   3.124   4.123  15.551 -0.6120  0.0366  0.1684
  886MPD2    H713052   3.205   4.177  15.582 -0.7291  2.1243 -3.2063
  887MPD2     C13053   3.493   4.260  16.132  0.1685  0.1451  0.2756
  887MPD2    C113054   3.502   4.248  15.990 -0.0887  0.1323  0.0062
  887MPD2    C213055   3.548   4.343  15.914  0.1940 -1.0768 -0.9367
  887MPD2    C313056   3.610   4.456  15.973  0.3147  0.1913 -0.3074
  887MPD2    C413057   3.607   4.479  16.108  0.1473 -0.0440 -0.4918
  887MPD2    C513058   3.548   4.379  16.186  0.3618  0.0410 -0.0775
  887MPD2     H13059   3.553   4.333  15.807  0.5269 -2.6211 -0.7817
  887MPD2    H113060   3.642   4.565  16.164 -1.4729  0.2125  0.1312
  887MPD2    H213061   3.455   4.191  16.206  0.7428 -1.1010 -0.5742
  887MPD2    H313062   3.566   4.385  16.293 -1.8543  1.1560  0.2307
  887MPD2     N13063   3.680   4.540  15.883 -0.2577 -0.2131 -0.3292
  887MPD2    H513064   3.677   4.526  15.782 -1.7105 -0.3634 -0.2650
  887MPD2    N113065   3.434   4.140  15.923  0.0351 -0.1438  0.2231
  887MPD2    H713066   3.423   4.157  15.823 -2.6498  3.0602  1.0678
  888MPD2     C13067   0.677   3.852  15.062 -0.3244  0.2477 -0.1166
  888MPD2    C113068   0.586   3.918  15.142 -0.8647  0.3934  0.2555
  888MPD2    C213069   0.633   4.024  15.223 -0.6795  0.7238  0.5237
  888MPD2    C313070   0.765   4.074  15.208 -0.0115 -0.1617 -0.1755
  888MPD2    C413071   0.845   4.007  15.112  0.3920 -0.5358  0.1426
  888MPD2    C513072   0.803   3.893  15.047  0.2907  0.2240  0.4615
  888MPD2     H13073   0.567   4.076  15.291  0.3447  0.8674  1.4011
  888MPD2    H113074   0.946   4.041  15.091  1.4434 -2.5058  1.9528
  888MPD2    H213075   0.650   3.773  14.991 -2.1854 -0.2390  1.1371
  888MPD2    H313076   0.865   3.850  14.969  0.2073 -1.1695  1.1650
  888MPD2     N13077   0.807   4.186  15.282 -0.3583 -0.1436 -0.2852
  888MPD2    H513078   0.734   4.236  15.332  0.9277  0.7384  0.7095
  888MPD2    N113079   0.450   3.880  15.148 -0.4032  0.2199  0.0133
  888MPD2    H713080   0.400   3.905  15.233 -0.1281  3.2354 -0.6933
  889MPD2     C13081   4.644   3.487  13.029  0.3677 -0.2368 -0.2931
  889MPD2    C113082   0.028   3.454  13.078 -0.5598  0.1003  0.4459
  889MPD2    C213083   0.081   3.528  13.176 -0.2596 -0.4112  0.5254
  889MPD2    C313084   0.029   3.647  13.212  0.1796 -0.1007  0.8287
  889MPD2    C413085   4.647   3.684  13.163 -0.3003  0.4021 -0.6973
  889MPD2    C513086   4.582   3.595  13.077 -0.3273  0.2972 -0.7506
  889MPD2     H13087   0.180   3.503  13.212  0.1281  0.3493 -0.0114
  889MPD2    H113088   4.589   3.772  13.189 -1.6701 -0.9861  0.9491
  889MPD2    H213089   4.585   3.427  12.960 -1.7805  0.2025  1.1643
  889MPD2    H313090   4.485   3.633  13.046 -1.3527 -0.5824  1.3397
  889MPD2     N13091   0.101   3.726  13.299 -0.6463 -0.0186  0.2669
  889MPD2    H513092   0.192   3.699  13.335 -0.8143 -0.2431  0.5157
  889MPD2    N113093   0.077   3.328  13.051 -0.2012  0.5133  0.6541
  889MPD2    H713094   0.031   3.273  12.979  0.2320  0.9681  0.0344
  890MPD2     C13095   4.468   0.717  14.644  0.0770  0.0229  0.4155
  890MPD2    C113096   4.590   0.779  14.667  0.5312 -0.3751 -0.6358
  890MPD2    C213097   4.658   0.740  14.782  0.7251 -0.1265 -0.2305
  890MPD2    C313098   4.615   0.642  14.864 -0.3137 -0.3512  0.2685
  890MPD2    C413099   4.502   0.577  14.839 -0.3988  0.4664  0.0357
  890MPD2    C513100   4.421   0.620  14.735  0.0378  0.0569  0.7693
  890MPD2     H13101   0.011   0.789  14.809  1.3084 -1.7448  0.6854
  890MPD2    H113102   4.474   0.498  14.906 -1.1404 -0.1994 -1.0600
  890MPD2    H213103   4.415   0.750  14.555 -0.6430 -1.0240  0.4576
  890MPD2    H313104   4.323   0.578  14.715 -0.6508  1.9275  0.1851
  890MPD2     N13105   4.693   0.608  14.968  0.5050 -0.0865  0.2790
  890MPD2    H513106   0.047   0.645  14.976  1.1194 -1.3540 -1.1999
  890MPD2    N113107   4.628   0.884  14.578 -0.0560  0.5736 -0.7425
  890MPD2    H713108   4.575   0.893  14.492 -2.1847  2.1240  0.7460
  891MPD2     C13109   2.515   4.158  16.652 -0.3233  0.1104  0.0569
  891MPD2    C113110   2.419   4.115  16.741 -0.3678 -0.2067  0.3995
  891MPD2    C213111   2.459   4.033  16.842 -0.5677  0.2435  0.1904
  891MPD2    C313112   2.590   3.986  16.861 -0.5874 -0.3015  0.5751
  891MPD2    C413113   2.684   4.033  16.770 -0.1260 -0.4101  0.2716
  891MPD2    C513114   2.644   4.120  16.668  0.1788 -0.1508 -0.0329
  891MPD2     H13115   2.390   4.005  16.921 -2.3261  0.7106 -1.1862
  891MPD2    H113116   2.791   4.021  16.772  0.1186  1.3847 -1.3756
  891MPD2    H213117   2.492   4.227  16.572  1.2609  2.0484  1.2739
  891MPD2    H313118   2.719   4.164  16.603  0.3318  1.7895  1.4558
  891MPD2     N13119   2.617   3.901  16.977 -0.1715 -0.7287 -0.0958
  891MPD2    H513120   2.540   3.884  17.040  1.5179 -0.9586  1.9090
  891MPD2    N113121   2.295   4.171  16.718 -0.0181  0.4217 -0.4213
  891MPD2    H713122   2.285   4.239  16.644 -2.7665  0.2876 -0.1794
  892MPD2     C13123   3.590   0.602  14.596 -0.7198 -0.3496 -0.1665
  892MPD2    C113124   3.499   0.525  14.662  0.1600 -0.4973  0.3145
  892MPD2    C213125   3.508   0.386  14.650 -0.2389  0.4699 -0.3349
  892MPD2    C313126   3.617   0.333  14.576 -0.1402 -0.8585 -0.1821
  892MPD2    C413127   3.711   0.411  14.522 -0.5723  0.0098  0.1083
  892MPD2    C513128   3.696   0.546  14.528  0.3523 -0.2110  0.0293
  892MPD2     H13129   3.432   0.318  14.687  0.3187 -0.6981 -1.3421
  892MPD2    H113130   3.786   0.368  14.457  1.1807  1.2215  1.3342
  892MPD2    H213131   3.578   0.709  14.591 -0.8271 -0.4206 -1.5444
  892MPD2    H313132   3.772   0.607  14.481 -0.2413  2.7851  3.0250
  892MPD2     N13133   3.627   0.197  14.546  0.0076  0.6563  0.0951
  892MPD2    H513134   3.712   0.171  14.496  0.7059  0.0980  1.5754
  892MPD2    N113135   3.386   0.590  14.716 -0.0389  0.0522  0.0800
  892MPD2    H713136   3.365   0.688  14.704 -0.6298  0.0647  1.1715
  893MPD2     C13137   0.129   3.865   1.749  0.0723  0.4384 -0.1768
  893MPD2    C113138   0.135   3.953   1.651 -0.0359  0.1271 -0.0201
  893MPD2    C213139   0.019   3.992   1.580  0.3549 -0.5235  0.0080
  893MPD2    C313140   4.634   3.955   1.627  0.0117  0.1153 -0.1122
  893MPD2    C413141   4.630   3.885   1.739  0.5331  0.5044 -0.6294
  893MPD2    C513142   0.004   3.834   1.795  0.3715 -0.1449 -0.3398
  893MPD2     H13143   0.034   4.045   1.487 -2.3344  1.0482  0.4701
  893MPD2    H113144   4.535   3.862   1.786  0.3785  1.0331 -0.6898
  893MPD2    H213145   0.215   3.838   1.809  0.4062 -0.7005 -1.1680
  893MPD2    H313146   0.001   3.767   1.880  0.3072  1.4389  0.9016
  893MPD2     N13147   4.516   3.982   1.548 -0.2546 -0.8676  0.0722
  893MPD2    H513148   4.428   3.962   1.593 -0.6591  0.0292 -0.3135
  893MPD2    N113149   0.262   3.996   1.609  0.1774 -0.3743  0.5123
  893MPD2    H713150   0.343   3.945   1.643 -1.1032 -0.4538  3.4451
  894MPD2     C13151   3.147   1.965   1.336  0.1450  0.7379  0.0127
  894MPD2    C113152   3.261   1.888   1.341  0.3113 -0.2419 -0.1558
  894MPD2    C213153   3.386   1.951   1.352 -0.2499 -0.2881 -0.1419
  894MPD2    C313154   3.398   2.090   1.345  0.3896  0.1209 -0.3997
  894MPD2    C413155   3.284   2.159   1.326 -0.2491  1.0890 -0.3759
  894MPD2    C513156   3.164   2.095   1.323  0.2119 -0.0692  0.0919
  894MPD2     H13157   3.465   1.879   1.370 -2.5380 -2.1479  2.6224
  894MPD2    H113158   3.284   2.267   1.328  0.0599  1.0628  1.8547
  894MPD2    H213159   3.046   1.926   1.326  0.4168  0.0487 -0.0081
  894MPD2    H313160   3.071   2.150   1.316 -0.4823 -1.2316  0.1800
  894MPD2     N13161   3.525   2.163   1.342 -0.6137  0.5766 -0.3502
  894MPD2    H513162   3.518   2.263   1.323  1.2301  0.4948 -1.5356
  894MPD2    N113163   3.233   1.751   1.359 -0.2372 -0.0087  0.5074
  894MPD2    H713164   3.138   1.716   1.351 -0.2141  0.3125 -1.2040
  895MPD2     C13165   2.874   4.321  14.360  0.3744 -0.4015 -0.1445
  895MPD2    C113166   2.781   4.305  14.259 -0.4687  0.0059  0.4672
  895MPD2    C213167   2.769   4.179  14.205  0.0585  0.8590  0.2401
  895MPD2    C313168   2.847   4.076  14.244  0.6507  0.1343 -0.1567
  895MPD2    C413169   2.939   4.083  14.350 -0.0738 -0.1104  0.6463
  895MPD2    C513170   2.951   4.210  14.399 -0.4927 -0.7854 -0.3913
  895MPD2     H13171   2.682   4.167  14.141 -0.5303  0.9029  1.0309
  895MPD2    H113172   3.009   4.005  14.380  1.8453  0.5651 -1.9953
  895MPD2    H213173   2.890   4.419  14.402 -0.6688 -0.5064  0.4810
  895MPD2    H313174   3.012   4.226  14.487 -1.0008  1.0207 -0.3750
  895MPD2     N13175   2.832   3.959  14.171  0.0757 -0.0979 -0.2446
  895MPD2    H513176   2.763   3.956  14.096 -2.4497 -0.3511  2.1042
  895MPD2    N113177   2.701   4.404  14.202  0.5140 -0.4772  0.0818
  895MPD2    H713178   2.619   4.378  14.147  0.3130  3.2996 -1.3980
  896MPD2     C13179   0.648   1.839   1.807  0.0151  0.2478 -0.3673
  896MPD2    C113180   0.647   1.904   1.683 -0.1327 -0.6210 -0.4975
  896MPD2    C213181   0.518   1.947   1.640  0.0953  0.0955  0.2332
  896MPD2    C313182   0.408   1.938   1.718 -0.0311 -0.0515  0.2879
  896MPD2    C413183   0.421   1.884   1.847  0.1902 -0.3049  0.3644
  896MPD2    C513184   0.540   1.828   1.889 -0.4338  0.6412 -0.2742
  896MPD2     H13185   0.506   1.985   1.539 -1.1217  0.6637  0.5901
  896MPD2    H113186   0.331   1.865   1.905 -0.9028 -0.5227 -1.3968
  896MPD2    H213187   0.740   1.793   1.842 -0.3671 -0.0013  0.2920
  896MPD2    H313188   0.547   1.777   1.985 -1.2145 -0.3909 -0.7572
  896MPD2     N13189   0.285   1.980   1.658 -0.2319 -0.4524 -0.2101
  896MPD2    H513190   0.282   1.995   1.558 -1.8328 -0.1017 -0.1021
  896MPD2    N113191   0.769   1.931   1.615 -0.4076  0.2659  0.2295
  896MPD2    H713192   0.852   1.914   1.671 -2.0694  1.4826  3.0785
  897MPD2     C13193   1.348   2.971  11.147  0.3811 -0.1070  0.3254
  897MPD2    C113194   1.317   2.887  11.044  0.4910  0.7323 -0.0785
  897MPD2    C213195   1.188   2.834  11.037 -0.9122  0.4368 -0.3079
  897MPD2    C313196   1.089   2.875  11.119  0.3308  0.1756  0.7111
  897MPD2    C413197   1.120   2.974  11.215  0.1436  0.1192 -0.2171
  897MPD2    C513198   1.247   3.014  11.233 -0.3628  0.2080  0.3859
  897MPD2     H13199   1.172   2.743  10.982 -0.0578  1.0236 -1.5246
  897MPD2    H113200   1.045   3.021  11.278  0.3389 -0.1813  0.2352
  897MPD2    H213201   1.448   3.012  11.149  0.6484 -0.9021  2.9036
  897MPD2    H313202   1.267   3.091  11.308 -1.8040  1.8689 -0.9322
  897MPD2     N13203   0.961   2.820  11.111  0.3290 -0.5349 -0.7062
  897MPD2    H513204   0.938   2.756  11.035  0.8333 -1.8514  0.2553
  897MPD2    N113205   1.428   2.842  10.972 -0.0674  0.9991  1.0145
  897MPD2    H713206   1.516   2.875  11.010  1.1972  2.3374 -3.0786
  898MPD2     C13207   2.727   4.103   0.271  1.0961 -0.4741  0.2604
  898MPD2    C113208   2.844   4.155   0.320  0.8385 -0.2819 -1.3477
  898MPD2    C213209   2.874   4.289   0.290 -0.0494  0.8305 -0.9522
  898MPD2    C313210   2.793   4.370   0.206 -0.1050  0.0262  0.1599
  898MPD2    C413211   2.678   4.314   0.157 -0.0263  0.3409 -0.2217
  898MPD2    C513212   2.646   4.184   0.190 -0.5070  0.3024  0.6083
  898MPD2     H13213   2.963   4.338   0.330  1.0540 -0.5605 -1.7046
  898MPD2    H113214   2.602   4.372   0.106  0.3498  1.7456  0.8247
  898MPD2    H213215   2.688   4.006   0.298 -2.0907  0.4032 -1.2108
  898MPD2    H313216   2.549   4.149   0.156 -0.3318 -0.7992  1.2299
  898MPD2     N13217   2.834   4.499   0.184 -0.4383 -0.8277  0.8088
  898MPD2    H513218   2.911   4.544   0.232  1.2736 -2.0434 -0.8128
  898MPD2    N113219   2.943   4.086   0.391  0.2430  0.9009 -0.0175
  898MPD2    H713220   3.027   4.141   0.406  0.9882 -0.2622  0.1188
  899MPD2     C13221   3.533   0.649   0.217  0.1907  0.0712  0.1005
  899MPD2    C113222   3.623   0.751   0.213 -0.1140 -0.2579 -0.4467
  899MPD2    C213223   3.631   0.837   0.320 -0.1391 -0.8885 -0.0139
  899MPD2    C313224   3.556   0.811   0.435  0.0429 -0.1049 -0.8868
  899MPD2    C413225   3.463   0.711   0.430 -0.0168 -0.0089 -0.3038
  899MPD2    C513226   3.450   0.631   0.323  0.5830 -0.0825  0.2179
  899MPD2     H13227   3.684   0.931   0.307 -0.7318 -0.5932 -0.2624
  899MPD2    H113228   3.386   0.698   0.506  0.1035  1.6162  0.1068
  899MPD2    H213229   3.517   0.582   0.133 -1.3576 -0.6156  0.9322
  899MPD2    H313230   3.376   0.552   0.311 -1.8872  2.6710 -2.7291
  899MPD2     N13231   3.561   0.884   0.556 -0.2182  0.4679 -0.7473
  899MPD2    H513232   3.495   0.856   0.628 -0.5956  0.4729 -1.0886
  899MPD2    N113233   3.694   0.766   0.093 -0.5986  0.1084 -0.3394
  899MPD2    H713234   3.679   0.692   0.026  0.1068  0.6160 -1.0517
  900MPD2     C13235   3.821   1.928  12.292  0.6929 -0.0448 -0.1570
  900MPD2    C113236   3.730   1.828  12.318 -0.1192 -0.6172  0.0926
  900MPD2    C213237   3.594   1.855  12.322  0.2786  0.2641  0.3541
  900MPD2    C313238   3.551   1.980  12.286 -0.5696 -0.0113  0.1697
  900MPD2    C413239   3.645   2.082  12.252 -1.1013 -1.2940 -0.1229
  900MPD2    C513240   3.780   2.054  12.261  0.2354 -0.2459 -0.7609
  900MPD2     H13241   3.518   1.793  12.369  1.0612 -2.9261 -2.6058
  900MPD2    H113242   3.614   2.183  12.227 -0.3631 -0.9066  0.5177
  900MPD2    H213243   3.926   1.904  12.290  1.1783  1.7084  3.2559
  900MPD2    H313244   3.846   2.134  12.230  2.5799 -2.0757 -0.4405
  900MPD2     N13245   3.414   2.003  12.284 -0.0573 -0.2075  0.2649
  900MPD2    H513246   3.356   1.922  12.301 -0.6829 -0.0865 -1.2546
  900MPD2    N113247   3.784   1.702  12.351 -0.2531  0.1072 -0.0112
  900MPD2    H713248   3.885   1.693  12.359 -0.4005  0.2106  1.9830
  901MPD2     C13249   3.648   0.728  12.877  0.3149  0.3834 -0.9214
  901MPD2    C113250   3.737   0.718  12.771  0.0831 -0.3824 -0.8157
  901MPD2    C213251   3.774   0.827  12.692  0.3376  0.1695 -0.2153
  901MPD2    C313252   3.718   0.947  12.714 -0.4304  0.0585 -0.3926
  901MPD2    C413253   3.621   0.962  12.817 -0.1405  0.5843 -0.2208
  901MPD2    C513254   3.585   0.853  12.893 -0.4403 -0.1561 -0.1964
  901MPD2     H13255   3.838   0.814  12.606 -0.8869 -2.1712 -0.7849
  901MPD2    H113256   3.572   1.058  12.828 -0.0047  0.3535  2.2831
  901MPD2    H213257   3.621   0.651  12.949  2.0220  1.5482  0.9726
  901MPD2    H313258   3.528   0.864  12.984 -0.8591 -2.2566 -0.1854
  901MPD2     N13259   3.762   1.052  12.627  0.1806  0.7826 -0.5929
  901MPD2    H513260   3.850   1.031  12.580  0.1170 -2.1552  0.5530
  901MPD2    N113261   3.788   0.583  12.750 -0.0137 -0.1585 -0.3443
  901MPD2    H713262   3.773   0.512  12.822  0.4477  0.2691  0.1692
  902MPD2     C13263   2.945   0.283  13.541 -0.5257 -0.0061  0.8437
  902MPD2    C113264   2.888   0.258  13.416  0.8194 -0.3104  0.5983
  902MPD2    C213265   2.965   0.243  13.302 -0.6432 -0.1172 -0.1094
  902MPD2    C313266   3.100   0.229  13.315  0.1595  0.1921 -0.6574
  902MPD2    C413267   3.156   0.256  13.436  0.8119 -0.1218  0.7587
  902MPD2    C513268   3.082   0.287  13.542  0.2264 -0.1112  0.1344
  902MPD2     H13269   2.922   0.235  13.203 -0.3136  0.2168 -0.2744
  902MPD2    H113270   3.265   0.261  13.438  0.9210 -1.4970 -1.3899
  902MPD2    H213271   2.890   0.286  13.634 -2.7330 -2.5861 -0.4035
  902MPD2    H313272   3.125   0.314  13.638 -0.9559 -3.0223  1.4743
  902MPD2     N13273   3.185   0.191  13.207  0.6368  0.1578 -0.4033
  902MPD2    H513274   3.282   0.173  13.230  0.3065  0.3087  1.0564
  902MPD2    N113275   2.748   0.242  13.413  0.1215  0.1290  0.8304
  902MPD2    H713276   2.704   0.254  13.503  0.2643 -0.4067  0.9720
  903MPD2     C13277   3.085   0.128  12.345 -0.9590  0.0829 -0.4084
  903MPD2    C113278   3.068   0.041  12.447  0.1422  0.1930 -0.3239
  903MPD2    C213279   2.989   4.669  12.432 -0.3294 -0.9069 -0.0179
  903MPD2    C313280   2.909   4.649  12.323  0.1213  0.0141  0.5319
  903MPD2    C413281   2.912   0.008  12.224  0.7264  0.1453  0.5919
  903MPD2    C513282   3.006   0.108  12.239 -0.5037 -0.5698  0.5137
  903MPD2     H13283   2.995   4.597  12.513 -1.2528  1.0868  1.8246
  903MPD2    H113284   2.845   0.000  12.139  1.4316 -0.7010  0.1148
  903MPD2    H213285   3.161   0.205  12.343 -0.3531 -0.5438 -1.7239
  903MPD2    H313286   3.022   0.184  12.163 -0.2889  0.6387  1.7661
  903MPD2     N13287   2.826   4.536  12.322  0.3657 -0.2484  1.0456
  903MPD2    H513288   2.806   4.485  12.408  0.0519  1.8596  2.2191
  903MPD2    N113289   3.134   0.040  12.575 -0.4058 -0.2369 -0.4621
  903MPD2    H713290   3.126   4.703  12.639 -3.1750  1.8955  1.7267
  904MPD2     C13291   2.349   3.355  14.395  0.2672  0.4281 -0.0716
  904MPD2    C113292   2.340   3.482  14.438 -0.2866 -0.0207  0.6667
  904MPD2    C213293   2.455   3.546  14.496  0.2043  0.1323 -0.0902
  904MPD2    C313294   2.574   3.476  14.490 -0.0022  0.0768 -0.2630
  904MPD2    C413295   2.578   3.342  14.449 -0.1071  0.0004  0.3591
  904MPD2    C513296   2.464   3.275  14.405 -0.0176 -0.3160  0.1744
  904MPD2     H13297   2.450   3.649  14.528  0.8856 -0.7936  3.0280
  904MPD2    H113298   2.672   3.289  14.448  0.2125  0.5987 -1.2307
  904MPD2    H213299   2.263   3.308  14.350 -0.7470  2.5506 -0.3508
  904MPD2    H313300   2.469   3.167  14.395  1.7223 -0.2871  0.7328
  904MPD2     N13301   2.688   3.546  14.528  1.1018 -0.0231 -0.1261
  904MPD2    H513302   2.666   3.634  14.575 -0.2250  0.9972 -2.6671
  904MPD2    N113303   2.223   3.561  14.412 -0.3794 -0.1337 -0.0777
  904MPD2    H713304   2.213   3.659  14.435  1.8081  0.5994 -2.2795
  905MPD2     C13305   2.128   3.467  13.712 -0.3410  0.5322  0.7245
  905MPD2    C113306   2.162   3.539  13.825 -0.2419  0.4334  1.0291
  905MPD2    C213307   2.292   3.579  13.841 -0.0028 -0.0496  0.2325
  905MPD2    C313308   2.390   3.548  13.757 -0.3808 -0.1968 -0.5342
  905MPD2    C413309   2.362   3.467  13.641 -0.4506 -0.0559  0.1411
  905MPD2    C513310   2.228   3.429  13.625 -0.1399 -0.2233  1.0466
  905MPD2     H13311   2.306   3.639  13.930  2.3531  0.1412 -0.2760
  905MPD2    H113312   2.433   3.423  13.572 -1.6806 -0.2889 -0.9850
  905MPD2    H213313   2.026   3.435  13.695 -0.4694  0.6683  1.2291
  905MPD2    H313314   2.202   3.371  13.537 -1.5564  0.0275  1.3174
  905MPD2     N13315   2.528   3.567  13.786  0.7217  1.0761 -0.5453
  905MPD2    H513316   2.599   3.517  13.733  0.9358  0.3331  0.4559
  905MPD2    N113317   2.059   3.573  13.918 -0.0246  0.4991 -0.2776
  905MPD2    H713318   1.971   3.523  13.920  1.0027 -1.4407 -3.3515
  906MPD2     C13319   4.295   3.580  11.267 -0.1640 -0.4909  0.3428
  906MPD2    C113320   4.269   3.444  11.266 -0.5919 -0.0648  0.3038
  906MPD2    C213321   4.165   3.391  11.334 -0.2554  0.4283  0.3569
  906MPD2    C313322   4.073   3.480  11.398 -0.1317  0.1244  0.3793
  906MPD2    C413323   4.093   3.616  11.387  0.0214  0.1873 -0.3372
  906MPD2    C513324   4.206   3.671  11.329  0.1121  0.8017  0.4700
  906MPD2     H13325   4.157   3.283  11.341 -0.0932  0.4706  1.3215
  906MPD2    H113326   4.034   3.695  11.434  2.0030  1.2791  0.3233
  906MPD2    H213327   4.376   3.618  11.206 -1.4748  1.0933 -0.4140
  906MPD2    H313328   4.223   3.778  11.338 -0.8028  1.3093 -3.9313
  906MPD2     N13329   3.957   3.440  11.470 -0.5193  0.4987 -0.1363
  906MPD2    H513330   3.894   3.507  11.513 -1.9307 -0.2805 -0.9828
  906MPD2    N113331   4.350   3.349  11.200  0.1223  0.6222  0.3866
  906MPD2    H713332   4.312   3.255  11.204  0.1106  0.5368 -1.6203
  907MPD2     C13333   2.960   2.997  15.907 -0.8309  0.3111 -0.1042
  907MPD2    C113334   3.049   2.920  15.833  0.2983  0.6103  0.4585
  907MPD2    C213335   3.160   2.874  15.901 -0.0006 -0.3367  0.7118
  907MPD2    C313336   3.179   2.893  16.039 -0.2922 -0.2438  0.4898
  907MPD2    C413337   3.082   2.963  16.104 -0.1678 -0.7247 -0.0404
  907MPD2    C513338   2.972   3.013  16.042 -0.3680  0.0653 -0.2478
  907MPD2     H13339   3.242   2.833  15.844 -1.2036  1.0172 -1.9888
  907MPD2    H113340   3.097   2.990  16.208  1.0688 -0.2543 -0.3302
  907MPD2    H213341   2.871   3.038  15.860 -1.0270  0.8638  0.7675
  907MPD2    H313342   2.899   3.066  16.101  0.7001  1.8840 -0.5568
  907MPD2     N13343   3.303   2.848  16.098  0.1280  0.0340 -0.3680
  907MPD2    H513344   3.359   2.788  16.039  1.0702 -1.0413  1.6122
  907MPD2    N113345   3.034   2.893  15.695 -0.5040  0.3368  0.0287
  907MPD2    H713346   3.107   2.835  15.656 -1.2826 -2.4970  2.8080
  908MPD2     C13347   1.850   2.022  10.409  0.2836  0.3394  0.4747
  908MPD2    C113348   1.862   2.137  10.340  0.3783 -0.0036  0.5479
  908MPD2    C213349   1.853   2.257  10.407 -0.6591 -0.5742  0.2028
  908MPD2    C313350   1.818   2.260  10.541  0.2297  0.2387  0.3721
  908MPD2    C413351   1.808   2.143  10.612  0.4412 -0.3769  0.1606
  908MPD2    C513352   1.822   2.018  10.540 -0.0453 -0.0858 -0.2094
  908MPD2     H13353   1.859   2.357  10.366  1.4718 -0.3123  1.1363
  908MPD2    H113354   1.781   2.144  10.717 -0.4480  0.3913 -0.0709
  908MPD2    H213355   1.864   1.928  10.358 -2.7288  0.5880 -0.8323
  908MPD2    H313356   1.812   1.923  10.591 -0.9821  0.5259  0.7423
  908MPD2     N13357   1.783   2.388  10.596 -0.2083  0.2521  0.3129
  908MPD2    H513358   1.797   2.465  10.531 -1.1033 -0.6480 -0.9238
  908MPD2    N113359   1.899   2.125  10.205 -0.2246 -0.2429  0.3326
  908MPD2    H713360   1.920   2.034  10.163  0.3049 -0.4146  0.9604
  909MPD2     C13361   1.660   0.925  11.954  0.2111 -0.1147 -0.7311
  909MPD2    C113362   1.650   1.055  11.919  0.2166 -0.0625 -0.6180
  909MPD2    C213363   1.613   1.146  12.012  0.3269  0.0064 -0.4781
  909MPD2    C313364   1.553   1.099  12.131 -0.6330  0.0455  0.1728
  909MPD2    C413365   1.567   0.969  12.167  0.0525  0.6213 -0.1143
  909MPD2    C513366   1.619   0.888  12.079  0.4412  0.2111  0.0696
  909MPD2     H13367   1.598   1.252  11.997 -0.1242  0.0382  0.2085
  909MPD2    H113368   1.542   0.933  12.266  0.2946  2.6095  0.6548
  909MPD2    H213369   1.694   0.843  11.893  1.5774  1.2872 -1.8271
  909MPD2    H313370   1.644   0.786  12.109  1.2470  0.0841 -1.0212
  909MPD2     N13371   1.485   1.198  12.205 -0.0482  0.1674 -0.3119
  909MPD2    H513372   1.475   1.292  12.170  0.2582  0.4190  0.2816
  909MPD2    N113373   1.687   1.102  11.793  0.0664 -0.9730  0.1946
  909MPD2    H713374   1.676   1.202  11.788 -0.1782 -1.2012 -3.5569
  910MPD2     C13375   2.875   3.775  16.502 -0.7712 -0.6835  0.4989
  910MPD2    C113376   2.847   3.659  16.436  0.3091 -0.7767  1.1937
  910MPD2    C213377   2.756   3.664  16.331 -0.2034  0.5785  0.8141
  910MPD2    C313378   2.710   3.788  16.281  0.3325  0.7821  0.2065
  910MPD2    C413379   2.744   3.901  16.354  0.2605 -0.2404 -0.4074
  910MPD2    C513380   2.818   3.893  16.466  0.1560 -0.1893 -0.5458
  910MPD2     H13381   2.732   3.568  16.288  0.9928  0.4636  0.4270
  910MPD2    H113382   2.706   4.000  16.330  0.3763 -0.2466 -0.6154
  910MPD2    H213383   2.937   3.776  16.591  1.1734 -0.5807 -0.8727
  910MPD2    H313384   2.846   3.984  16.517  1.4187 -0.2837 -1.0792
  910MPD2     N13385   2.633   3.808  16.167 -0.1390 -0.3240 -0.8243
  910MPD2    H513386   2.600   3.902  16.151 -3.6550 -1.1926  1.2603
  910MPD2    N113387   2.894   3.533  16.471  0.7206 -0.2285 -0.8644
  910MPD2    H713388   2.861   3.458  16.411 -0.8672 -0.2127 -0.0157
  911MPD2     C13389   0.578   3.865  16.666 -0.6333 -0.5051 -0.3953
  911MPD2    C113390   0.642   3.985  16.678  0.2409  0.1695 -0.5095
  911MPD2    C213391   0.567   4.098  16.648  0.1753 -0.0971 -0.6153
  911MPD2    C313392   0.437   4.088  16.591  0.5121  0.0646  1.0611
  911MPD2    C413393   0.382   3.963  16.580 -0.5462 -0.3732 -0.3118
  911MPD2    C513394   0.454   3.859  16.626  0.5426 -0.4153  0.3231
  911MPD2     H13395   0.600   4.196  16.679  0.3421 -0.7159  1.1894
  911MPD2    H113396   0.280   3.946  16.547 -0.7917 -0.3161  0.4340
  911MPD2    H213397   0.631   3.771  16.678  1.8200  0.7516 -1.4060
  911MPD2    H313398   0.412   3.759  16.621  0.0707 -0.2923  1.8379
  911MPD2     N13399   0.354   4.195  16.555 -0.1842  0.1535  0.4366
  911MPD2    H513400   0.261   4.172  16.520 -1.1254 -0.3036  3.2802
  911MPD2    N113401   0.778   3.997  16.723 -0.3437 -0.3216 -0.8835
  911MPD2    H713402   0.817   3.906  16.745 -0.5913  0.1257  1.4813
  912MPD2     C13403   4.599   4.032  16.079  0.4689 -0.5460 -0.1594
  912MPD2    C113404   4.642   4.022  16.209  0.1865  0.0022  0.2670
  912MPD2    C213405   4.658   3.903  16.278 -0.6362 -0.5725  0.1400
  912MPD2    C313406   4.627   3.782  16.218  0.3429 -0.6169 -0.6880
  912MPD2    C413407   4.574   3.789  16.090  0.4468  0.5130  0.5333
  912MPD2    C513408   4.571   3.910  16.021 -0.0078  0.2452  0.3548
  912MPD2     H13409   4.695   3.904  16.379  1.1183 -2.5191 -0.4928
  912MPD2    H113410   4.552   3.697  16.037  2.2000  0.3755  0.0422
  912MPD2    H213411   4.606   4.131  16.035  1.9704 -0.7782 -0.4658
  912MPD2    H313412   4.549   3.916  15.915  0.5965  2.7007  0.3579
  912MPD2     N13413   4.644   3.664  16.299  0.9180  0.0058 -0.0643
  912MPD2    H513414   4.680   3.684  16.392 -0.8502  1.4271  0.3198
  912MPD2    N113415   4.668   4.153  16.271 -0.0919  0.8910 -0.0835
  912MPD2    H713416   4.633   4.236  16.225 -2.4825  0.2828  0.6139
  913MPD2     C13417   1.710   4.003  10.504 -0.2624  0.3114  0.0610
  913MPD2    C113418   1.647   4.118  10.537  0.0120 -0.1416 -0.0772
  913MPD2    C213419   1.608   4.215  10.444  0.4391  0.4616 -0.0775
  913MPD2    C313420   1.640   4.195  10.312 -0.3245  0.2464  0.1879
  913MPD2    C413421   1.699   4.070  10.277  0.0556  0.6686  0.7462
  913MPD2    C513422   1.742   3.982  10.375 -0.5301 -0.2407 -0.4258
  913MPD2     H13423   1.553   4.304  10.473 -0.1887  0.6991 -1.9863
  913MPD2    H113424   1.724   4.044  10.175  0.0494 -1.6322  1.3174
  913MPD2    H213425   1.713   3.920  10.573 -2.4224  0.6011  0.5182
  913MPD2    H313426   1.799   3.894  10.346  1.2942  0.6938  0.3675
  913MPD2     N13427   1.641   4.288  10.207  0.0693 -0.0069 -0.4239
  913MPD2    H513428   1.679   4.265  10.116 -1.3897 -0.5857 -0.8926
  913MPD2    N113429   1.632   4.130  10.674 -0.1633 -0.4847  0.1111
  913MPD2    H713430   1.652   4.049  10.731 -0.7856 -1.1967 -0.6797
  914MPD2     C13431   4.529   0.537  12.152  0.6281 -0.4058 -0.0630
  914MPD2    C113432   4.408   0.605  12.162  0.3541  0.2169  0.1107
  914MPD2    C213433   4.304   0.551  12.238  0.7222  0.1719  0.3852
  914MPD2    C313434   4.317   0.440  12.310  0.0010  0.0549 -0.3280
  914MPD2    C413435   4.436   0.370  12.297 -0.5978 -0.8113  0.0370
  914MPD2    C513436   4.543   0.422  12.226 -0.1812 -0.1255 -0.0794
  914MPD2     H13437   4.207   0.597  12.223 -1.7211 -5.3048 -0.2991
  914MPD2    H113438   4.455   0.287  12.364  0.1896 -0.4251  0.2972
  914MPD2    H213439   4.618   0.567  12.097  0.0813  3.7301  1.2583
  914MPD2    H313440   4.641   0.376  12.229 -0.4607 -0.7729 -0.9048
  914MPD2     N13441   4.218   0.404  12.402  0.1579 -0.0522 -0.2699
  914MPD2    H513442   4.154   0.481  12.420  0.9715  0.6517 -0.3925
  914MPD2    N113443   4.374   0.724  12.090 -0.2207 -0.5805  0.1434
  914MPD2    H713444   4.437   0.759  12.018  0.0191  1.4864  1.3571
  915MPD2     C13445   1.900   1.061  15.948  0.0975  0.3735 -0.5949
  915MPD2    C113446   1.786   1.025  15.885 -0.6188 -0.5542 -0.0300
  915MPD2    C213447   1.688   0.961  15.961 -0.0695  0.3513 -0.2026
  915MPD2    C313448   1.702   0.944  16.093  0.3263 -0.0191 -0.2100
  915MPD2    C413449   1.827   0.980  16.153  0.1883 -0.2733  0.3907
  915MPD2    C513450   1.920   1.038  16.075  0.0024 -0.0295  0.2239
  915MPD2     H13451   1.600   0.923  15.911 -0.0645 -3.5930  2.7812
  915MPD2    H113452   1.851   0.961  16.257 -0.0899  1.1906  0.7211
  915MPD2    H213453   1.984   1.101  15.894 -0.0990 -3.0813 -3.4637
  915MPD2    H313454   2.017   1.056  16.121  0.7353 -0.1896 -1.2596
  915MPD2     N13455   1.595   0.891  16.162 -0.0615 -0.1904 -0.1280
  915MPD2    H513456   1.512   0.869  16.108 -1.0205  2.1629  0.3782
  915MPD2    N113457   1.781   1.040  15.741  0.5155 -0.0370 -0.6095
  915MPD2    H713458   1.855   1.099  15.706  0.6562  0.8883  1.2536
  916MPD2     C13459   4.389   3.635  15.798  0.4355 -0.0412  0.5863
  916MPD2    C113460   4.365   3.533  15.882  0.1119 -0.7734 -0.1716
  916MPD2    C213461   4.379   3.410  15.830 -0.3201  0.0428  0.1515
  916MPD2    C313462   4.405   3.385  15.698  0.3501  0.5318 -0.0038
  916MPD2    C413463   4.427   3.489  15.610  0.3941 -0.3695  0.0234
  916MPD2    C513464   4.418   3.615  15.666  0.6730  0.4426 -0.0540
  916MPD2     H13465   4.359   3.323  15.892 -2.9875 -0.9599 -2.1459
  916MPD2    H113466   4.445   3.480  15.503  0.9854 -1.5336  0.2212
  916MPD2    H213467   4.387   3.740  15.823  1.7388  0.6072 -1.9997
  916MPD2    H313468   4.438   3.704  15.607 -0.4510  1.1823  0.6607
  916MPD2     N13469   4.379   3.250  15.659 -0.4056  0.0318  0.4784
  916MPD2    H513470   4.365   3.188  15.738 -0.5709 -0.1723  0.2877
  916MPD2    N113471   4.322   3.565  16.015  0.4332 -0.1518 -0.3306
  916MPD2    H713472   4.303   3.661  16.040  0.8692  0.1125 -1.0137
  917MPD2     C13473   0.203   0.356  11.253 -0.5327 -0.0300  0.0634
  917MPD2    C113474   0.229   0.465  11.331 -0.2511  0.3800 -0.5148
  917MPD2    C213475   0.243   0.592  11.277 -0.2343  0.5092  0.4305
  917MPD2    C313476   0.219   0.602  11.139 -0.2047 -1.0630  0.5511
  917MPD2    C413477   0.199   0.491  11.061 -0.5937  0.4398 -0.1380
  917MPD2    C513478   0.185   0.369  11.120  0.3056  0.1860  0.2019
  917MPD2     H13479   0.276   0.678  11.333  0.0710  1.6195 -1.4595
  917MPD2    H113480   0.175   0.498  10.955  0.0876  0.9363 -0.2550
  917MPD2    H213481   0.184   0.260  11.300 -0.7664 -0.5824 -1.1744
  917MPD2    H313482   0.161   0.279  11.064  1.3708 -0.0273  0.0954
  917MPD2     N13483   0.213   0.732  11.075 -0.0583  0.3308  0.1031
  917MPD2    H513484   0.222   0.741  10.974  3.1757  1.1356  0.4707
  917MPD2    N113485   0.236   0.452  11.474 -0.1989  0.0464 -0.3671
  917MPD2    H713486   0.203   0.367  11.518 -1.2748 -0.0609 -1.3920
  918MPD2     C13487   0.739   1.097  11.921 -0.0197 -0.0251  0.8384
  918MPD2    C113488   0.751   0.982  11.997 -0.4255 -0.1646  0.0757
  918MPD2    C213489   0.647   0.890  11.995 -0.0015  0.2412  0.4388
  918MPD2    C313490   0.525   0.922  11.931  0.6197  0.1286  0.8271
  918MPD2    C413491   0.506   1.046  11.868 -0.1987 -0.2831 -0.1609
  918MPD2    C513492   0.617   1.134  11.860 -0.2083 -0.9397  0.3650
  918MPD2     H13493   0.664   0.798  12.049  1.4409  1.1747  1.5865
  918MPD2    H113494   0.413   1.064  11.816 -0.3458  0.4017  0.3373
  918MPD2    H213495   0.819   1.170  11.919 -1.1610  1.2601  2.3735
  918MPD2    H313496   0.603   1.222  11.798  0.1820  1.2061  3.2787
  918MPD2     N13497   0.432   0.818  11.911 -1.1988 -0.0505 -0.1184
  918MPD2    H513498   0.360   0.831  11.841 -1.9876  0.8457  0.8603
  918MPD2    N113499   0.865   0.943  12.074 -0.1197  0.1134  0.1707
  918MPD2    H713500   0.855   0.858  12.129 -0.5302 -0.3970 -0.7034
  919MPD2     C13501   0.978   4.411  11.804  0.1692 -0.2732  0.8093
  919MPD2    C113502   1.033   4.295  11.750  0.0037 -0.1719 -0.5032
  919MPD2    C213503   1.039   4.280  11.615  0.2030 -1.0116  0.0582
  919MPD2    C313504   1.008   4.377  11.529  0.1356 -0.1628 -0.1150
  919MPD2    C413505   0.966   4.492  11.583  0.0480 -0.0194  0.0594
  919MPD2    C513506   0.949   4.514  11.716  0.2320 -0.1682 -0.1643
  919MPD2     H13507   1.066   4.182  11.576  1.1319 -1.7460  2.5182
  919MPD2    H113508   0.929   4.567  11.514 -1.1794 -2.6692 -2.1664
  919MPD2    H213509   0.961   4.429  11.909 -1.3846  0.2166  0.4739
  919MPD2    H313510   0.897   4.602  11.753 -1.2888 -0.3768 -1.8280
  919MPD2     N13511   1.011   4.368  11.390  0.0766  0.8317 -0.5244
  919MPD2    H513512   0.983   4.441  11.326  0.4819  1.3129 -0.1572
  919MPD2    N113513   1.076   4.185  11.834  0.9556 -0.9821  0.4176
  919MPD2    H713514   1.107   4.108  11.776  1.3559  0.0779 -0.7779
  920MPD2     C13515   0.369   4.449  10.673  0.3370 -0.4541 -0.4572
  920MPD2    C113516   0.427   4.325  10.658 -0.5156 -0.1881 -0.2084
  920MPD2    C213517   0.550   4.303  10.721 -0.6382  0.5832  0.2187
  920MPD2    C313518   0.613   4.401  10.793 -0.0650  0.1839 -0.8523
  920MPD2    C413519   0.556   4.524  10.796  0.4157  0.4086 -0.0582
  920MPD2    C513520   0.430   4.549  10.743  0.1592 -0.5866 -0.8927
  920MPD2     H13521   0.590   4.202  10.721  1.2373  1.3107 -1.8335
  920MPD2    H113522   0.601   4.609  10.846  1.9616 -0.4048 -0.0732
  920MPD2    H213523   0.275   4.467  10.623 -1.0353 -0.1874  2.2456
  920MPD2    H313524   0.386   4.647  10.755  1.3052 -0.1025 -0.6388
  920MPD2     N13525   0.736   4.364  10.870 -1.0331  0.1545  0.5895
  920MPD2    H513526   0.790   4.279  10.854  0.4685  1.2149 -0.0587
  920MPD2    N113527   0.361   4.220  10.584  0.1630 -0.1601  0.0578
  920MPD2    H713528   0.391   4.124  10.597 -0.7316 -0.7522 -2.1827
  921MPD2     C13529   1.686   4.322  17.232  0.1958  0.4678  0.2020
  921MPD2    C113530   1.653   4.311  17.099 -0.3743  0.2534 -0.3331
  921MPD2    C213531   1.525   4.273  17.056  0.0817 -0.2312  0.4060
  921MPD2    C313532   1.425   4.230  17.150  0.3545  0.0447 -0.6348
  921MPD2    C413533   1.463   4.233  17.282  0.0355 -0.3156 -0.9347
  921MPD2    C513534   1.589   4.279  17.323  1.0822  1.1202 -0.7180
  921MPD2     H13535   1.503   4.287  16.951 -0.7693 -0.0523  0.6156
  921MPD2    H113536   1.406   4.187  17.362  0.5238  2.5986  1.1017
  921MPD2    H213537   1.786   4.352  17.262  0.6404 -0.7628 -0.0349
  921MPD2    H313538   1.609   4.280  17.429 -0.7673  0.9054 -0.3660
  921MPD2     N13539   1.303   4.178  17.109  0.8459 -0.0588  0.2402
  921MPD2    H513540   1.258   4.117  17.177 -0.8414  0.4719 -0.3902
  921MPD2    N113541   1.754   4.333  17.001 -0.1690 -0.2256 -0.2112
  921MPD2    H713542   1.836   4.371  17.049 -1.2992  1.1082  0.6732
  922MPD2     C13543   2.588   2.002  17.195 -0.0343 -0.0580  0.3958
  922MPD2    C113544   2.560   2.047  17.322  0.1870 -0.2748 -0.1917
  922MPD2    C213545   2.473   1.969  17.401 -0.2857  0.1962  0.2328
  922MPD2    C313546   2.424   1.848  17.350  0.2463 -0.6875 -0.9607
  922MPD2    C413547   2.454   1.811  17.221 -0.1063 -0.3530  0.2117
  922MPD2    C513548   2.535   1.890  17.146  0.1111 -0.5692 -0.2461
  922MPD2     H13549   2.454   2.004  17.502 -2.4329  1.5975 -0.6449
  922MPD2    H113550   2.404   1.726  17.176 -0.0344 -0.0860 -0.3650
  922MPD2    H213551   2.653   2.063  17.133 -1.7648 -0.3450 -1.6793
  922MPD2    H313552   2.567   1.870  17.044 -0.1648  0.2092 -0.4945
  922MPD2     N13553   2.320   1.762  17.406 -0.0713 -0.3357  0.2453
  922MPD2    H513554   2.284   1.704  17.332 -1.7853  0.7261  0.2470
  922MPD2    N113555   2.613   2.173  17.365 -0.3347  0.1404  0.0934
  922MPD2    H713556   2.561   2.222  17.438 -0.0063  0.4269  0.1332
  923MPD2     C13557   3.683   3.139   9.108  0.2301 -0.5246  0.2089
  923MPD2    C113558   3.711   3.250   9.185 -0.0939 -0.2446  0.7380
  923MPD2    C213559   3.812   3.244   9.275 -0.3820  0.0477 -0.1139
  923MPD2    C313560   3.871   3.127   9.301 -0.0010  0.1892 -0.2046
  923MPD2    C413561   3.838   3.015   9.228  0.5454  0.1900  0.4988
  923MPD2    C513562   3.738   3.018   9.138  0.1762  0.3700 -0.8495
  923MPD2     H13563   3.832   3.321   9.348 -0.6665 -0.7362  0.7832
  923MPD2    H113564   3.895   2.926   9.255  1.3909  0.8543  0.9301
  923MPD2    H213565   3.609   3.142   9.029  1.0689 -3.2106 -0.6813
  923MPD2    H313566   3.710   2.929   9.083  0.0651  0.1724 -0.4719
  923MPD2     N13567   3.953   3.099   9.409 -0.1116 -0.2464  1.0267
  923MPD2    H513568   3.956   2.998   9.417 -2.1267 -0.4260 -0.5178
  923MPD2    N113569   3.634   3.365   9.160 -0.0578  0.2790 -0.3129
  923MPD2    H713570   3.554   3.363   9.097 -0.3284  0.7171  0.0133
  924MPD2     C13571   3.524   2.039  16.413  0.0008  0.0834 -0.6910
  924MPD2    C113572   3.431   2.125  16.362  0.4174  0.4150  0.2602
  924MPD2    C213573   3.476   2.246  16.305 -0.3037  0.0021 -0.4048
  924MPD2    C313574   3.611   2.279  16.308 -0.0526 -0.5630 -0.4087
  924MPD2    C413575   3.699   2.186  16.360 -0.0090  0.4755  0.0629
  924MPD2    C513576   3.656   2.072  16.410 -0.3222 -0.4312  0.3523
  924MPD2     H13577   3.402   2.321  16.282 -0.3489  0.7042  2.0571
  924MPD2    H113578   3.807   2.200  16.353 -0.1269  1.6231  0.4255
  924MPD2    H213579   3.495   1.945  16.459  0.7634  0.3339  0.2921
  924MPD2    H313580   3.735   2.005  16.444 -0.0135  0.0750  0.6402
  924MPD2     N13581   3.672   2.406  16.270 -0.9939  0.0212  0.2288
  924MPD2    H513582   3.760   2.431  16.313  0.1175  0.4145 -2.2763
  924MPD2    N113583   3.292   2.096  16.364  0.3171 -0.5286  0.6348
  924MPD2    H713584   3.231   2.172  16.337 -0.5386 -0.9432  1.4089
  925MPD2     C13585   2.495   0.176  15.194  0.1058  0.3096 -0.3286
  925MPD2    C113586   2.377   0.226  15.136 -0.0443  1.0323 -0.0389
  925MPD2    C213587   2.285   0.295  15.211 -0.1320  0.2735 -0.0260
  925MPD2    C313588   2.304   0.309  15.350  0.1161  0.0588  1.1886
  925MPD2    C413589   2.415   0.250  15.403  0.2607 -0.8423 -0.4500
  925MPD2    C513590   2.509   0.189  15.331 -0.4376  0.5345  0.0909
  925MPD2     H13591   2.197   0.334  15.161 -0.8350  1.0512  1.8055
  925MPD2    H113592   2.434   0.252  15.509  0.4428 -0.1302 -0.4990
  925MPD2    H213593   2.569   0.117  15.143  0.0697  0.5378 -0.6448
  925MPD2    H313594   2.597   0.154  15.384 -1.0138  0.6025  1.1017
  925MPD2     N13595   2.216   0.367  15.442  0.9322 -0.0805 -0.4203
  925MPD2    H513596   2.238   0.360  15.541 -0.7028 -1.6202 -0.1744
  925MPD2    N113597   2.354   0.213  15.000  0.3130 -0.8773 -0.0739
  925MPD2    H713598   2.262   0.247  14.974  0.9091 -0.3646 -1.5328
  926MPD2     C13599   1.451   2.818  13.780  0.0082 -0.0658  0.4470
  926MPD2    C113600   1.382   2.875  13.675  0.2874  0.0320 -0.4935
  926MPD2    C213601   1.455   2.947  13.573 -0.4030  0.8165  1.0331
  926MPD2    C313602   1.590   2.951  13.586  0.1749  0.2202 -0.5016
  926MPD2    C413603   1.656   2.897  13.695  0.5665 -0.0033  0.2207
  926MPD2    C513604   1.588   2.832  13.788  0.1031 -0.1128 -0.0340
  926MPD2     H13605   1.409   2.998  13.490 -0.3539  1.1808  1.2309
  926MPD2    H113606   1.763   2.904  13.714  1.0053 -1.1296 -1.8595
  926MPD2    H213607   1.403   2.772  13.865 -0.7040 -0.9563 -0.4462
  926MPD2    H313608   1.650   2.789  13.866  0.2353  0.3569  0.1190
  926MPD2     N13609   1.668   3.031  13.493  0.8351  0.0180 -0.1844
  926MPD2    H513610   1.767   3.044  13.509  0.8251  2.2766 -1.9749
  926MPD2    N113611   1.242   2.863  13.667 -0.6181  0.2288  0.6608
  926MPD2    H713612   1.196   2.907  13.588  4.6501 -1.0755 -3.1498
  927MPD2     C13613   0.327   0.757   0.073 -0.1749 -0.1627 -0.9687
  927MPD2    C113614   0.461   0.799   0.092 -0.3244  0.0267  0.0302
  927MPD2    C213615   0.544   0.833  17.742  0.3151  0.3588 -0.4236
  927MPD2    C313616   0.498   0.808  17.616 -0.5771 -0.0430 -0.2989
  927MPD2    C413617   0.377   0.750  17.599 -0.7722 -0.1837 -0.2674
  927MPD2    C513618   0.291   0.731  17.702 -0.7375  0.1545 -0.1861
  927MPD2     H13619   0.649   0.850   0.002  0.3561 -0.3956  0.0782
  927MPD2    H113620   0.339   0.704  17.509 -0.2521  1.6885 -1.4489
  927MPD2    H213621   0.266   0.727   0.157 -0.6180  3.4840 -0.0050
  927MPD2    H313622   0.195   0.690  17.673 -1.1350  0.7589  0.2705
  927MPD2     N13623   0.578   0.839  17.505  0.8941  0.7689 -0.5963
  927MPD2    H513624   0.663   0.892  17.522  0.4803  1.4254 -0.5715
  927MPD2    N113625   0.499   0.818   0.230 -0.4586  0.2434 -0.2830
  927MPD2    H713626   0.431   0.816   0.305  0.1488  1.0816  0.2866
  928MPD2     C13627   4.060   3.989   1.442  0.6011 -0.2431 -0.2268
  928MPD2    C113628   3.986   4.100   1.420 -0.2950 -0.5363  0.1297
  928MPD2    C213629   3.961   4.146   1.289  0.1471  0.4114 -0.3771
  928MPD2    C313630   4.012   4.077   1.184  0.8301  0.1665  0.2705
  928MPD2    C413631   4.096   3.969   1.210 -0.3795 -1.2217 -0.4120
  928MPD2    C513632   4.104   3.916   1.337 -0.1378 -0.0171 -0.1809
  928MPD2     H13633   3.888   4.221   1.264 -0.2761 -0.1056 -0.6924
  928MPD2    H113634   4.144   3.921   1.125  1.7553  1.0161 -0.4512
  928MPD2    H213635   4.076   3.949   1.541 -2.2044 -1.5983 -0.3183
  928MPD2    H313636   4.147   3.817   1.343 -0.5248 -0.0598  1.9111
  928MPD2     N13637   3.999   4.115   1.054 -0.5529 -0.0934  0.1526
  928MPD2    H513638   4.044   4.064   0.977 -0.2186  1.7119 -0.8382
  928MPD2    N113639   3.922   4.162   1.527 -0.1431 -0.8598  0.4838
  928MPD2    H713640   3.961   4.153   1.621  3.3185  2.1810 -0.6664
  929MPD2     C13641   3.820   3.628  10.344 -0.5805  0.8249  0.8083
  929MPD2    C113642   3.706   3.545  10.356 -0.1363 -0.6104  0.6473
  929MPD2    C213643   3.657   3.479  10.246 -0.4281  0.1636  0.5958
  929MPD2    C313644   3.706   3.502  10.123  0.4359  0.3197  0.6123
  929MPD2    C413645   3.810   3.589  10.111  0.3418  0.7327 -0.1528
  929MPD2    C513646   3.870   3.643  10.218  0.4248 -0.3007 -0.5021
  929MPD2     H13647   3.571   3.413  10.254 -1.2168  0.9154 -1.6474
  929MPD2    H113648   3.860   3.604  10.016  0.3793  1.6743  0.0204
  929MPD2    H213649   3.864   3.683  10.427  0.2283  2.3856 -0.6695
  929MPD2    H313650   3.960   3.700  10.201  1.5581 -2.9783 -3.5334
  929MPD2     N13651   3.652   3.448   9.998  0.0343  0.4126  0.1681
  929MPD2    H513652   3.691   3.497   9.919 -0.3214 -0.7687 -0.7318
  929MPD2    N113653   3.644   3.546  10.483 -0.9247  0.1425 -0.2339
  929MPD2    H713654   3.693   3.590  10.560 -0.0378 -1.6282  0.2314
  930MPD2     C13655   0.815   0.968  14.349  1.0432 -0.2697 -0.0345
  930MPD2    C113656   0.722   1.045  14.276 -0.4282 -0.2863  0.2405
  930MPD2    C213657   0.623   0.981  14.202  0.7888 -0.3223 -0.4506
  930MPD2    C313658   0.613   0.839  14.207  0.3249  0.1083 -0.4272
  930MPD2    C413659   0.690   0.769  14.298  0.8896 -1.1779 -0.4669
  930MPD2    C513660   0.797   0.833  14.356 -0.2662 -0.2822 -0.1388
  930MPD2     H13661   0.559   1.035  14.133  1.5025 -0.3978 -1.1710
  930MPD2    H113662   0.664   0.666  14.319 -0.6385 -0.7688 -0.3838
  930MPD2    H213663   0.897   1.020  14.397  0.7314  0.8885 -0.7519
  930MPD2    H313664   0.866   0.784  14.423 -0.8139  0.3308  0.8708
  930MPD2     N13665   0.540   0.766  14.113 -0.3017 -0.2551  0.0319
  930MPD2    H513666   0.544   0.665  14.104 -2.2325 -0.2963 -0.4509
  930MPD2    N113667   0.755   1.180  14.257 -0.5309  0.1762 -0.0156
  930MPD2    H713668   0.847   1.208  14.288  0.2633  0.2683 -2.4683
  931MPD2     C13669   1.042   0.436   0.647 -0.2376  1.0554 -0.1373
  931MPD2    C113670   0.923   0.480   0.693  0.0213 -0.3051  0.0500
  931MPD2    C213671   0.873   0.410   0.803  0.1710  1.0901  0.6664
  931MPD2    C313672   0.936   0.301   0.857  0.0796  0.4318 -0.4930
  931MPD2    C413673   1.060   0.264   0.811 -0.4475  0.7279 -0.3615
  931MPD2    C513674   1.107   0.332   0.708  0.0860  0.6098  0.1885
  931MPD2     H13675   0.774   0.431   0.842 -1.8666 -0.9455 -3.4424
  931MPD2    H113676   1.104   0.181   0.864 -2.3043 -1.7226 -2.6043
  931MPD2    H213677   1.083   0.473   0.554  2.0730 -0.5504  0.2382
  931MPD2    H313678   1.205   0.298   0.677 -0.7451 -0.2958 -1.4726
  931MPD2     N13679   0.880   0.223   0.964  0.1186 -0.0425 -0.3856
  931MPD2    H513680   0.938   0.152   1.008 -2.0100 -1.7975 -0.4103
  931MPD2    N113681   0.860   0.589   0.633 -0.0710  0.5563  0.1471
  931MPD2    H713682   0.903   0.637   0.555  0.3704 -3.9927 -2.4458
  932MPD2     C13683   2.527   3.946  11.753  0.1065  0.4317  0.1835
  932MPD2    C113684   2.636   4.028  11.760  0.0060 -0.2212 -0.1470
  932MPD2    C213685   2.715   4.029  11.878 -0.0779 -0.0551 -0.1218
  932MPD2    C313686   2.686   3.941  11.978  0.4207  0.0593 -0.5093
  932MPD2    C413687   2.579   3.854  11.957  0.1792  0.2539 -0.5055
  932MPD2    C513688   2.505   3.849  11.842  0.4081 -0.5807 -0.4061
  932MPD2     H13689   2.792   4.105  11.878  0.4231 -0.5646  3.3346
  932MPD2    H113690   2.540   3.813  12.049  0.6858 -0.9964 -0.8508
  932MPD2    H213691   2.452   3.951  11.674 -1.4336 -1.1027  1.5332
  932MPD2    H313692   2.416   3.791  11.824  0.1026 -0.4304  0.6048
  932MPD2     N13693   2.763   3.932  12.098  0.3362 -0.0155 -0.0084
  932MPD2    H513694   2.735   3.861  12.165  0.1090  1.3312  1.3251
  932MPD2    N113695   2.661   4.130  11.667  0.4462 -0.0861 -0.2757
  932MPD2    H713696   2.729   4.203  11.684 -0.3870  0.3620  1.0736
  933MPD2     C13697   3.593   0.213   1.742 -0.0186  1.0434  0.5198
  933MPD2    C113698   3.543   0.110   1.661  0.6216  0.2260 -0.0347
  933MPD2    C213699   3.446   0.140   1.565  0.1452  0.5317 -0.0574
  933MPD2    C313700   3.402   0.275   1.548 -1.3778 -0.8382  0.0322
  933MPD2    C413701   3.452   0.375   1.636 -0.3240  0.0216  0.6439
  933MPD2    C513702   3.545   0.342   1.729  0.9050 -0.1243 -0.8510
  933MPD2     H13703   3.385   0.062   1.521 -0.3646 -0.0292  1.6476
  933MPD2    H113704   3.426   0.480   1.630 -1.4504 -0.3405 -0.8256
  933MPD2    H213705   3.668   0.190   1.817 -0.7103 -1.2132  0.5087
  933MPD2    H313706   3.591   0.417   1.793  0.0907 -2.0372  1.9803
  933MPD2     N13707   3.319   0.302   1.439 -0.4858  0.0843  0.5271
  933MPD2    H513708   3.304   0.228   1.371 -0.1820  0.4088  0.1042
  933MPD2    N113709   3.588   4.720   1.699  0.6228  0.5543 -0.3995
  933MPD2    H713710   3.650   4.707   1.778  0.2800 -1.4547 -0.4592
  934MPD2     C13711   0.136   1.847   2.523  0.2042  0.7303  0.5646
  934MPD2    C113712   0.224   1.782   2.440 -0.2130  0.3248  0.2540
  934MPD2    C213713   0.186   1.737   2.311  0.1077  0.8312 -0.5490
  934MPD2    C313714   0.066   1.788   2.265 -0.5893 -0.2929 -0.3881
  934MPD2    C413715   4.719   1.857   2.348 -0.0959  0.2933  0.7281
  934MPD2    C513716   0.011   1.883   2.476  0.1027  0.6463 -0.1475
  934MPD2     H13717   0.259   1.688   2.249  2.8877  1.8764  1.8940
  934MPD2    H113718   4.628   1.900   2.308 -0.4474 -0.8429  0.2961
  934MPD2    H213719   0.165   1.877   2.623 -0.4003  0.2693  0.8788
  934MPD2    H313720   4.681   1.925   2.548  1.2721  1.9817  0.2202
  934MPD2     N13721   0.013   1.760   2.140 -0.1644  1.0516 -0.4411
  934MPD2    H513722   4.658   1.790   2.123 -0.7004  0.7216  2.0086
  934MPD2    N113723   0.358   1.755   2.481  0.1986 -0.2704 -0.0422
  934MPD2    H713724   0.416   1.705   2.414 -0.1781 -1.0395  0.2044
  935MPD2     C13725   0.275   1.091   1.418 -0.5328 -0.3734  0.1540
  935MPD2    C113726   0.158   1.149   1.369 -0.0062  0.6726 -0.5155
  935MPD2    C213727   0.088   1.244   1.447 -0.2506  0.1127  0.5475
  935MPD2    C313728   0.137   1.274   1.577  0.0646 -0.0761 -0.3004
  935MPD2    C413729   0.252   1.213   1.622  0.6326 -0.3822  0.0291
  935MPD2    C513730   0.319   1.122   1.545 -0.0380 -0.6581  0.2810
  935MPD2     H13731   4.729   1.274   1.416 -0.9067 -1.0311  1.5049
  935MPD2    H113732   0.292   1.236   1.720 -0.4721 -0.9907  0.6211
  935MPD2    H213733   0.334   1.008   1.382  0.1893  0.6463 -1.0366
  935MPD2    H313734   0.398   1.062   1.588 -1.0182 -1.1668  1.3935
  935MPD2     N13735   0.079   1.370   1.662 -0.0789  0.1517  0.1537
  935MPD2    H513736   0.117   1.388   1.754 -1.8782 -0.0824  0.9479
  935MPD2    N113737   0.090   1.097   1.254  0.0266  0.2937  0.1526
  935MPD2    H713738   0.006   1.143   1.221  1.2258  2.7943  0.5064
  936MPD2     C13739   3.383   2.221  13.477 -0.2641 -0.3916 -0.2564
  936MPD2    C113740   3.390   2.358  13.456  0.3104 -0.1271 -0.7290
  936MPD2    C213741   3.415   2.396  13.327 -0.7125 -0.4325  0.0253
  936MPD2    C313742   3.437   2.311  13.222  0.5894  0.1670  0.3077
  936MPD2    C413743   3.435   2.178  13.247  0.0759  0.6548  0.0905
  936MPD2    C513744   3.415   2.139  13.376 -0.4668 -0.5598 -0.2627
  936MPD2     H13745   3.418   2.502  13.305 -0.5777  0.1106  2.6573
  936MPD2    H113746   3.451   2.107  13.166  0.5158  2.0487 -1.0589
  936MPD2    H213747   3.380   2.182  13.578  2.6107 -3.3190 -1.3036
  936MPD2    H313748   3.421   2.033  13.397 -3.7580 -0.7226 -0.1327
  936MPD2     N13749   3.455   2.374  13.104  0.6708 -0.1995  0.8137
  936MPD2    H513750   3.429   2.473  13.102 -0.8348 -0.6018  0.3078
  936MPD2    N113751   3.393   2.456  13.564  0.2911 -0.4013  0.0966
  936MPD2    H713752   3.387   2.552  13.529  1.1932  0.0893  1.2842
  937MPD2     C13753   1.234   3.531  11.715 -0.5711 -0.9759  0.4519
  937MPD2    C113754   1.321   3.622  11.778 -0.0409 -0.0441  0.3498
  937MPD2    C213755   1.437   3.652  11.704  0.0217  0.0147  0.1571
  937MPD2    C313756   1.482   3.567  11.604  0.8098  0.1817  0.8888
  937MPD2    C413757   1.397   3.466  11.554  0.4615 -0.2829 -0.7245
  937MPD2    C513758   1.271   3.459  11.607 -0.1033  0.0848  0.3266
  937MPD2     H13759   1.487   3.744  11.731 -1.4699  1.4521 -1.8998
  937MPD2    H113760   1.415   3.406  11.466 -0.5394 -1.1380 -0.3441
  937MPD2    H213761   1.134   3.505  11.749 -0.8469  0.6376  0.8480
  937MPD2    H313762   1.201   3.391  11.558 -1.9962  2.9429 -0.9500
  937MPD2     N13763   1.596   3.607  11.526  0.4366 -0.2092  0.0416
  937MPD2    H513764   1.642   3.688  11.564  2.4752 -0.6447 -1.5028
  937MPD2    N113765   1.260   3.725  11.866 -0.0495 -0.1507  0.1750
  937MPD2    H713766   1.310   3.812  11.876 -3.2027  1.7762 -0.6638
  938MPD2     C13767   3.601   2.018   0.884  0.0947  0.0066 -0.3801
  938MPD2    C113768   3.735   1.978   0.903  0.0458 -0.3154  0.2847
  938MPD2    C213769   3.755   1.861   0.978  0.6930  0.1691 -0.8141
  938MPD2    C313770   3.653   1.791   1.045 -1.3690 -0.0390 -0.3715
  938MPD2    C413771   3.525   1.839   1.028  0.8545 -0.3981  0.3839
  938MPD2    C513772   3.503   1.947   0.947 -0.4732  0.1408  0.5873
  938MPD2     H13773   3.854   1.822   0.996  1.8351  2.0897 -2.9021
  938MPD2    H113774   3.447   1.770   1.058 -0.6952  1.4163  0.5643
  938MPD2    H213775   3.576   2.100   0.818 -0.0402 -1.7615 -2.5148
  938MPD2    H313776   3.401   1.982   0.940 -0.0405  0.5892 -3.7205
  938MPD2     N13777   3.675   1.675   1.127 -0.3136  0.2041  0.4433
  938MPD2    H513778   3.599   1.624   1.171  0.4953 -0.5408  0.9842
  938MPD2    N113779   3.840   2.039   0.829 -0.6330  0.5139 -0.0120
  938MPD2    H713780   3.924   1.982   0.822 -0.1355  1.0520  1.7412
  939MPD2     C13781   0.395   2.097   1.277  0.5530  0.6424 -0.1775
  939MPD2    C113782   0.282   2.178   1.264  0.2232 -0.5142 -0.5862
  939MPD2    C213783   0.190   2.153   1.159  0.2576 -0.5665  0.4772
  939MPD2    C313784   0.222   2.052   1.070  0.2556 -0.3687 -0.1519
  939MPD2    C413785   0.337   1.968   1.084 -0.6649  0.2056  0.6843
  939MPD2    C513786   0.421   1.999   1.190 -0.2991  0.1879  0.4385
  939MPD2     H13787   0.105   2.217   1.140  1.0397  0.4544  0.4410
  939MPD2    H113788   0.360   1.881   1.024  0.9227  0.5742  0.7741
  939MPD2    H213789   0.462   2.108   1.363 -0.0730  0.6414  0.3107
  939MPD2    H313790   0.507   1.935   1.207 -1.3871 -1.4773 -0.4120
  939MPD2     N13791   0.126   2.035   0.965  0.1631 -0.2410 -0.6454
  939MPD2    H513792   0.058   2.108   0.947  1.2122  0.8823 -0.1037
  939MPD2    N113793   0.268   2.272   1.368  0.1624  0.8304 -0.0728
  939MPD2    H713794   0.345   2.286   1.432  0.5859 -1.6684 -0.0513
  940MPD2     C13795   4.264   2.862  12.861  0.1651 -0.9814  0.2941
  940MPD2    C113796   4.184   2.751  12.821  0.7902  0.1100  0.3489
  940MPD2    C213797   4.238   2.656  12.731  0.1975  0.9270  0.5130
  940MPD2    C313798   4.372   2.672  12.686 -0.7670 -0.1196 -0.2086
  940MPD2    C413799   4.445   2.787  12.721 -0.8282 -0.2046  0.0019
  940MPD2    C513800   4.389   2.873  12.809 -0.0148 -0.2258  0.5381
  940MPD2     H13801   4.183   2.568  12.698  1.1209  0.1350  1.0729
  940MPD2    H113802   4.549   2.803  12.694 -0.2522  0.5034  2.5711
  940MPD2    H213803   4.233   2.944  12.925  2.1993  0.9674 -1.2068
  940MPD2    H313804   4.445   2.965  12.826 -1.2349  0.8337 -1.1888
  940MPD2     N13805   4.430   2.581  12.596 -0.1954 -0.1015 -0.1907
  940MPD2    H513806   4.514   2.607  12.546 -0.9001  0.1520 -1.2325
  940MPD2    N113807   4.053   2.730  12.865  0.0233  0.2039 -0.7454
  940MPD2    H713808   4.005   2.642  12.848 -1.1757  0.5856  0.6087
  941MPD2     C13809   2.905   1.498   9.523  0.1564  0.1192  0.1581
  941MPD2    C113810   2.965   1.445   9.635 -0.1029  0.3340 -0.7812
  941MPD2    C213811   2.893   1.348   9.707  0.3466 -0.2034  0.9374
  941MPD2    C313812   2.764   1.327   9.679 -0.5173 -0.6444 -0.2833
  941MPD2    C413813   2.702   1.398   9.582  0.0822 -0.0590 -0.4651
  941MPD2    C513814   2.770   1.485   9.504  1.1138 -0.3206  0.1212
  941MPD2     H13815   2.931   1.316   9.802  1.0898 -0.0686  0.6831
  941MPD2    H113816   2.594   1.392   9.573 -0.0148  0.4168  0.3371
  941MPD2    H213817   2.950   1.571   9.456  0.0884  1.4354  1.5381
  941MPD2    H313818   2.713   1.534   9.426 -0.2889 -0.7135  0.8868
  941MPD2     N13819   2.687   1.245   9.762  0.0376  0.6812 -0.1191
  941MPD2    H513820   2.587   1.259   9.751 -0.1487 -1.6506 -1.2465
  941MPD2    N113821   3.098   1.478   9.673  0.0993  0.1924  0.3954
  941MPD2    H713822   3.136   1.421   9.747 -1.3777  0.6297  1.4785
  942MPD2     C13823   2.620   1.948   9.342  0.8140 -0.6876  0.4422
  942MPD2    C113824   2.703   2.052   9.381 -0.1923  0.7494 -1.1317
  942MPD2    C213825   2.819   2.066   9.315 -0.3044  0.2352 -0.0375
  942MPD2    C313826   2.857   1.990   9.209 -0.3579 -0.2116  0.3857
  942MPD2    C413827   2.784   1.879   9.178 -1.1533  0.3777  0.1662
  942MPD2    C513828   2.672   1.852   9.258 -0.7605  0.3797  0.5983
  942MPD2     H13829   2.879   2.152   9.341 -0.4551 -0.2633  1.9891
  942MPD2    H113830   2.821   1.803   9.110 -0.2255  1.2246 -0.2741
  942MPD2    H213831   2.525   1.928   9.391  0.2954 -2.5105 -1.3084
  942MPD2    H313832   2.606   1.768   9.239  1.7108 -1.5360  0.4009
  942MPD2     N13833   2.976   2.019   9.132  0.1897  0.3739 -0.0783
  942MPD2    H513834   2.997   1.962   9.051  0.0565  0.4688 -0.1810
  942MPD2    N113835   2.683   2.149   9.484 -0.7164 -0.4802 -0.6541
  942MPD2    H713836   2.743   2.229   9.500  2.2268 -2.2057 -3.1046
  943MPD2     C13837   1.938   1.456  10.221  0.5799 -0.3439 -0.7347
  943MPD2    C113838   1.881   1.340  10.268 -0.4396  0.0391 -0.4326
  943MPD2    C213839   1.792   1.343  10.368  0.0755  0.1174  0.5212
  943MPD2    C313840   1.754   1.463  10.424  0.0094 -1.0920  0.0253
  943MPD2    C413841   1.806   1.581  10.371  0.3139  0.4226  0.1033
  943MPD2    C513842   1.895   1.575  10.271 -0.4202 -0.6859 -0.0592
  943MPD2     H13843   1.757   1.248  10.407 -0.7548  0.5709  0.8895
  943MPD2    H113844   1.782   1.677  10.415 -0.2948  0.6826 -0.8035
  943MPD2    H213845   2.015   1.464  10.145  1.8857 -0.3066  0.5838
  943MPD2    H313846   1.942   1.664  10.230  1.5983 -1.2220  1.1228
  943MPD2     N13847   1.659   1.475  10.527 -0.3592 -0.1189  0.5630
  943MPD2    H513848   1.623   1.568  10.549  0.4506  0.2684  0.2549
  943MPD2    N113849   1.931   1.216  10.206  0.3277 -0.2325 -0.1170
  943MPD2    H713850   2.020   1.218  10.156 -0.9902 -1.0071 -2.4840
  944MPD2     C13851   1.300   4.511  11.065  0.8104  0.6109  0.5846
  944MPD2    C113852   1.317   4.642  11.103 -0.1052 -0.0284  0.2646
  944MPD2    C213853   1.338   4.665  11.237 -0.1247  0.1096 -0.4452
  944MPD2    C313854   1.354   4.569  11.339  0.8748  0.4527  0.0170
  944MPD2    C413855   1.326   4.436  11.295 -0.3784 -1.7850  0.2708
  944MPD2    C513856   1.307   4.411  11.158 -0.7322  0.2627 -0.2945
  944MPD2     H13857   1.362   0.023  11.275  2.3622 -1.2733  1.5797
  944MPD2    H113858   1.326   4.353  11.364  1.8492 -1.4841  0.6325
  944MPD2    H213859   1.283   4.469  10.966 -0.4394  1.4646  0.4318
  944MPD2    H313860   1.286   4.309  11.126  0.6853 -0.0773 -0.1407
  944MPD2     N13861   1.404   4.605  11.469 -0.3213 -0.5278  0.5908
  944MPD2    H513862   1.425   4.704  11.473 -0.7713 -0.4212  0.2988
  944MPD2    N113863   1.295   0.006  11.008  0.1455  0.0182 -0.5940
  944MPD2    H713864   1.287   4.726  10.909  1.1821  0.0758 -0.6861
    1TMC1    C113865   4.382   2.037  14.822 -0.5623 -0.4774 -0.6088
    1TMC1    C213866   4.328   2.006  14.941  0.8072  0.0211  0.5543
    1TMC1    C313867   4.405   2.014  15.055  0.3354 -0.0422 -0.1531
    1TMC1    C413868   4.515   2.070  14.811  0.0271 -0.6162  0.1507
    1TMC1    C513869   4.593   2.068  14.924 -0.4148  0.4082  0.1464
    1TMC1    C613870   4.539   2.053  15.046 -0.5350  0.1660 -0.5825
    1TMC1     C13871   4.306   2.001  14.708  0.2949  0.3599 -0.8535
    1TMC1     O13872   4.224   1.912  14.714 -0.2447 -0.9436  0.4484
    1TMC1     H13873   4.224   1.976  14.949  0.5273  1.3574  1.8190
    1TMC1    H113874   4.575   2.068  14.720  0.6290  0.0386  0.5288
    1TMC1    H213875   4.605   2.049  15.132  0.0745  1.1687 -1.0107
    1TMC1    C713876   4.729   2.083  14.904  0.4385  0.1542  0.2431
    1TMC1    C813877   4.343   1.992  15.192  0.3473 -0.4136  0.0744
    1TMC1    O113878   0.050   2.055  14.801 -0.0921  0.2723  0.3475
    1TMC1    O213879   4.384   2.036  15.296  0.5214 -0.6419 -0.1013
    1TMC1    O313880   0.041   2.138  15.011 -0.0028  0.2684  0.1351
    1TMC1    H313881   4.709   2.175  15.067 -0.3496  1.9140 -1.4183
    1TMC1    O513882   4.278   1.880  15.171 -0.1260 -0.0139  0.8366
    1TMC1    H513883   4.304   1.836  15.087  0.5008 -0.4027  1.2432
    2MPD2     C13884   4.149   2.072  14.219 -0.1352  0.5831  0.3735
    2MPD2    C113885   4.211   2.188  14.263  0.4819 -0.2334  0.4556
    2MPD2    C213886   4.271   2.189  14.389  0.3524  0.0436  0.3764
    2MPD2    C313887   4.270   2.076  14.472 -0.9007 -0.2027  0.3481
    2MPD2    C413888   4.215   1.957  14.425  0.4307 -0.1153  0.0055
    2MPD2    C513889   4.155   1.956  14.301 -0.4141  0.3782 -0.4464
    2MPD2     H13890   4.309   2.281  14.434  2.1089  0.2658 -1.5688
    2MPD2    H113891   4.223   1.862  14.477 -0.2291 -2.3521 -4.0159
    2MPD2    H213892   4.096   2.066  14.125 -1.1900 -1.4139  1.1125
    2MPD2    H313893   4.110   1.861  14.273  1.2949 -0.9132  1.2539
    2MPD2     N13894   4.334   2.086  14.602  0.0939  0.0880  0.2874
    2MPD2    H513895   4.372   2.176  14.630  2.0513 -0.5807 -0.1891
    2MPD2    N113896   4.204   2.313  14.185 -0.9563 -1.3070  0.3477
    2MPD2    H713897   4.157   2.308  14.095 -2.1878 -1.4601  0.9889
    3TMC2    C113898   4.195   2.555  14.146 -0.7360  0.0414  0.1374
    3TMC2    C213899   4.167   2.665  14.219  0.5054 -0.3695  0.6780
    3TMC2    C313900   4.086   2.755  14.160  0.1474  0.0176 -0.0315
    3TMC2    C413901   4.165   2.539  14.014  0.0170 -0.0101 -0.0949
    3TMC2    C513902   4.090   2.639  13.956  0.4583  0.1259 -0.9350
    3TMC2    C613903   4.055   2.754  14.024  0.1326  0.3065 -0.8184
    3TMC2     C13904   4.242   2.443  14.232 -0.5722 -0.7724 -0.4975
    3TMC2     O13905   4.295   2.471  14.332 -0.0335 -0.9528  0.1519
    3TMC2     H13906   4.209   2.682  14.317  0.3688  0.3518  0.6087
    3TMC2    H113907   4.209   2.451  13.968  0.0218 -0.6795  1.2050
    3TMC2    H213908   4.005   2.844  13.990 -2.0517  0.0846  1.8085
    3TMC2    C713909   4.073   2.619  13.814  0.7808 -0.2193  0.0280
    3TMC2    C813910   4.048   2.873  14.233  0.8850  0.4536  0.1101
    3TMC2    O113911   4.127   2.520  13.766 -0.0446 -0.7960 -0.2547
    3TMC2    O213912   4.076   2.985  14.193 -0.6986 -0.0931  0.1952
    3TMC2    O513913   4.019   2.833  14.357 -0.7231  0.3382  0.0471
    3TMC2    H513914   3.987   2.740  14.362 -2.1684  0.8356  0.1778
    4TMC2    C113915   3.910   3.480  13.463 -0.5283 -0.1745 -0.5510
    4TMC2    C213916   4.001   3.567  13.414 -0.3270  0.6051  0.1200
    4TMC2    C313917   4.090   3.510  13.321 -0.5510 -0.3357  0.0158
    4TMC2    C413918   3.884   3.358  13.417  0.1961  0.3245  0.7122
    4TMC2    C513919   3.969   3.302  13.324  0.5056  0.1534 -0.1064
    4TMC2    C613920   4.068   3.383  13.281  0.0173 -1.0323  0.0195
    4TMC2     C13921   3.836   3.540  13.576  0.2449  0.2822  0.2126
    4TMC2     O13922   3.892   3.607  13.661 -0.6050  0.0808  0.1471
    4TMC2     H13923   4.006   3.670  13.447 -0.0531  0.6021  0.0884
    4TMC2    H113924   3.814   3.294  13.469  2.0549 -2.5288 -0.3241
    4TMC2    H213925   4.124   3.335  13.201 -0.4759  1.0381 -1.5656
    4TMC2    C713926   3.987   3.158  13.317 -0.6808  1.1636  0.3254
    4TMC2    C813927   4.170   3.588  13.227  0.3580 -0.7082  0.1670
    4TMC2    O113928   4.037   3.103  13.219 -0.2125  0.3063  0.0943
    4TMC2    O213929   4.201   3.539  13.117 -0.0838  0.0761  0.5456
    4TMC2    O513930   4.146   3.717  13.250 -0.2281  0.6840  0.0982
    4TMC2    H513931   4.166   3.729  13.345  2.6979 -1.7454 -0.2074
    5MPD2     C13932   3.393   3.661  13.816 -0.4158  0.0975  0.2940
    5MPD2    C113933   3.371   3.624  13.686  0.1550 -0.3000  0.1396
    5MPD2    C213934   3.479   3.578  13.612  0.5836 -0.1585 -0.0091
    5MPD2    C313935   3.608   3.569  13.656 -0.5714 -0.3003 -0.3763
    5MPD2    C413936   3.630   3.606  13.787 -0.1496 -0.8411  0.2758
    5MPD2    C513937   3.526   3.655  13.861  0.4789  0.7283  0.1211
    5MPD2     H13938   3.461   3.536  13.514  2.0643 -0.3367 -0.2025
    5MPD2    H113939   3.725   3.587  13.836 -0.9089  0.1275  2.1052
    5MPD2    H213940   3.316   3.695  13.884  1.4416 -0.3049  2.5817
    5MPD2    H313941   3.542   3.688  13.963 -2.5642  0.0963  0.7979
    5MPD2     N13942   3.701   3.516  13.564 -0.1480  0.0856 -0.0824
    5MPD2    H513943   3.664   3.477  13.478 -1.2358 -0.4202  0.6226
    5MPD2    N113944   3.237   3.638  13.635  0.1713 -0.8364 -0.5191
    5MPD2    H713945   3.178   3.689  13.700  1.1900 -1.2452  0.7407
    6MPD1     C13946   2.584   0.256  14.244  0.0735 -0.1488 -0.6902
    6MPD1    C113947   2.584   0.300  14.111  0.3632  0.3507  0.4519
    6MPD1    C213948   2.695   0.254  14.044  0.3396 -0.1530 -0.2589
    6MPD1    C313949   2.813   0.200  14.100  0.1820  0.0723 -0.5900
    6MPD1    C413950   2.819   0.189  14.237  0.2678 -0.6460  0.2791
    6MPD1    C513951   2.697   0.209  14.298 -0.1434 -0.0252 -0.0992
    6MPD1     H13952   2.697   0.270  13.936  3.8961 -0.0303 -0.1857
    6MPD1    H113953   2.899   0.132  14.284  0.0492 -0.3851  0.9619
    6MPD1    H213954   2.498   0.272  14.308  1.7350  0.1580  1.4878
    6MPD1    H313955   2.702   0.179  14.402  0.9331 -1.6674 -0.6183
    6MPD1     N13956   2.922   0.142  14.021  0.2374  0.4693  0.7160
    6MPD1    H513957   3.008   0.113  14.067  0.9900 -1.1927 -1.7089
    6MPD1    N113958   2.470   0.350  14.052 -0.2552  0.2440  0.2731
    6MPD1    H613959   2.402   0.398  14.111  0.7324  0.6568  1.0818
    6MPD1    H713960   2.497   0.417  13.981 -0.9576 -0.9443 -1.1140
    7MPD2     C13961   2.803   4.336  13.863 -0.2965 -0.0673 -0.2652
    7MPD2    C113962   2.903   4.250  13.893 -0.3596  0.4136  0.2764
    7MPD2    C213963   2.899   4.119  13.848 -0.0670  0.1957 -0.0573
    7MPD2    C313964   2.802   4.083  13.754  0.7407 -0.2005  0.1354
    7MPD2    C413965   2.699   4.167  13.725 -0.1280  0.5178 -0.5714
    7MPD2    C513966   2.698   4.291  13.778 -0.1532  0.0680 -0.2754
    7MPD2     H13967   2.978   4.048  13.871  0.4895  1.1232  0.9179
    7MPD2    H113968   2.626   4.136  13.651  1.8811 -2.1574 -1.4639
    7MPD2    H213969   2.782   4.426  13.919  1.3025  0.9928 -1.3763
    7MPD2    H313970   2.618   4.357  13.748  0.9861  0.4763 -2.3949
    7MPD2     N13971   2.790   3.953  13.695  0.5407  0.0573 -0.6155
    7MPD2    H513972   2.706   3.943  13.639 -1.5981  0.6045  2.5076
    7MPD2    N113973   3.011   4.286  13.979  0.3705 -0.2628  0.0702
    7MPD2    H713974   3.054   4.207  14.028  0.0318  0.8258  2.1366
    8TMC3    C113975   2.877   3.755  13.598 -0.6562 -0.7192  0.3298
    8TMC3    C213976   2.977   3.669  13.610 -0.0904 -0.8007  0.8424
    8TMC3    C313977   3.045   3.634  13.492 -0.3621  0.4138 -0.7506
    8TMC3    C413978   2.829   3.799  13.479  0.2440  0.5438 -0.6706
    8TMC3    C513979   2.903   3.766  13.367 -0.1457 -0.0161 -0.0330
    8TMC3    C613980   3.010   3.687  13.374 -0.4223  0.2478 -0.0055
    8TMC3     C13981   2.879   3.850  13.709  0.0669 -0.2372 -0.1132
    8TMC3     O13982   2.991   3.857  13.757  0.7369  0.2196  0.2955
    8TMC3     H13983   2.988   3.614  13.703  1.8840 -0.3176  0.8940
    8TMC3    H113984   2.741   3.862  13.471 -0.7204 -0.9279 -1.5648
    8TMC3    H213985   3.073   3.679  13.286 -2.1945  0.1293 -1.2405
    8TMC3    C713986   2.940   3.882  13.287 -0.6967  0.0606 -0.1188
    8TMC3    C813987   3.189   3.605  13.510  0.0361 -0.2754  0.0993
    8TMC3    O113988   2.983   3.879  13.170  0.0931 -0.8105 -0.1253
    8TMC3    O213989   3.262   3.572  13.418 -0.1652 -0.3738 -0.3366
    9TMC3    C113990   3.008   4.735  13.860  0.2091  0.1032 -0.2215
    9TMC3    C213991   3.049   4.710  13.734 -0.4346  0.5415  0.5673
    9TMC3    C313992   3.084   4.584  13.700  0.2897 -0.2476 -0.0443
    9TMC3    C413993   3.020   4.639  13.956  1.0465  0.3209  0.6556
    9TMC3    C513994   3.051   4.511  13.917 -0.4545 -0.0202  0.3243
    9TMC3    C613995   3.081   4.482  13.788 -0.4390  0.0313 -0.3077
    9TMC3     C13996   2.914   0.102  13.886  0.2681  0.5508  0.1211
    9TMC3     O13997   2.834   0.126  13.793 -0.2079  0.3309 -0.1906
    9TMC3     H13998   3.053   0.043  13.655 -0.4763 -2.2957 -2.0582
    9TMC3    H113999   2.990   4.654  14.059  0.5430  0.8878  0.4277
    9TMC3    H214000   3.110   4.380  13.768 -0.6731 -0.4855  1.9772
    9TMC3    C714001   3.057   4.408  14.016  0.3636 -0.2013 -0.2717
    9TMC3    C814002   3.078   4.543  13.556  0.6384 -0.0249  0.0356
    9TMC3    O114003   3.131   4.431  14.109 -0.1072 -0.6282 -0.2550
    9TMC3    O214004   3.129   4.618  13.478  0.6278  0.2586  0.5365
   10MPD2     C14005   3.007   4.166  13.211  0.0282 -0.0307 -0.0737
   10MPD2    C114006   2.970   4.121  13.338  0.5410 -0.3315  0.3930
   10MPD2    C214007   2.978   4.209  13.444 -0.2221 -0.8437  0.2282
   10MPD2    C314008   3.018   4.336  13.431 -0.1139 -0.3652 -0.7535
   10MPD2    C414009   3.039   4.386  13.307 -0.2770 -0.2896  0.2077
   10MPD2    C514010   3.037   4.293  13.200 -0.9175 -0.3831  0.5410
   10MPD2     H14011   2.949   4.173  13.542  1.7199 -0.2759  1.0001
   10MPD2    H114012   3.064   4.489  13.289  1.1909 -0.6954 -0.0556
   10MPD2    H214013   2.999   4.105  13.121  1.4806  0.6385 -0.6607
   10MPD2    H314014   3.059   4.338  13.104 -1.4462 -0.8215  0.2187
   10MPD2     N14015   3.030   4.415  13.551  0.4974  0.1543 -0.1671
   10MPD2    H514016   2.995   4.374  13.637 -1.0003  0.4205 -0.6455
   10MPD2    N114017   2.938   3.989  13.369  0.0878 -0.7610 -0.3365
   10MPD2    H714018   2.915   3.973  13.467  1.8714  0.2947  0.2646
   11MPD2     C14019   4.051   2.683  13.517  0.6315  0.5117  0.4423
   11MPD2    C114020   4.045   2.776  13.616  0.5101 -0.0805 -0.4259
   11MPD2    C214021   4.015   2.908  13.592 -0.3521  0.6426 -0.4081
   11MPD2    C314022   4.011   2.953  13.460  1.0918  0.9522  0.0239
   11MPD2    C414023   4.024   2.852  13.356  0.5030  0.0163  0.0742
   11MPD2    C514024   4.032   2.717  13.386  0.3353 -0.0208 -0.0382
   11MPD2     H14025   4.003   2.977  13.675  0.2979  0.2067  0.0482
   11MPD2    H114026   4.007   2.869  13.250  0.1259 -2.0904 -0.2083
   11MPD2    H214027   4.068   2.580  13.548 -0.6611  0.1792  0.0091
   11MPD2    H314028   4.036   2.647  13.304 -0.8648 -0.0642 -0.0505
   11MPD2     N14029   3.988   3.092  13.439  0.4284 -0.0701 -0.1121
   11MPD2    H514030   3.957   3.145  13.520  2.2698  0.1897  0.4171
   11MPD2    N114031   4.049   2.741  13.752 -0.5418 -0.0251 -0.1295
   11MPD2    H714032   4.032   2.822  13.812 -0.6507 -1.0777  1.2586
    1MPD1     C14033   3.180   0.430  17.274 -0.6304  0.0087 -0.1395
    1MPD1    C114034   3.146   0.475  17.400 -0.0988 -0.8583 -0.2238
    1MPD1    C214035   3.034   0.428  17.469  0.8544 -0.7073  0.4031
    1MPD1    C314036   2.937   0.364  17.395 -0.0398 -0.8870 -0.5176
    1MPD1    C414037   2.966   0.321  17.270  0.1825 -0.1942 -0.2510
    1MPD1    C514038   3.082   0.353  17.210 -0.6180  0.0738  0.6220
    1MPD1     H14039   3.018   0.464  17.569  1.8402 -2.9674  1.3698
    1MPD1    H114040   2.889   0.265  17.219  1.7079 -1.5221 -1.1273
    1MPD1    H214041   3.272   0.466  17.230 -0.0922 -0.9514  0.1869
    1MPD1    H314042   3.099   0.315  17.111  0.1906 -0.4779  0.9732
    1MPD1     N14043   2.804   0.336  17.438  0.1828  0.3837  0.7186
    1MPD1    H514044   2.743   0.285  17.375  0.7450 -1.0556  1.3343
    1MPD1    N114045   3.250   0.537  17.467  0.5322 -0.3149  0.9426
    1MPD1    H614046   3.314   0.585  17.404  0.4790  0.0431  1.1654
    1MPD1    H714047   3.208   0.598  17.537 -0.7611  1.0281 -1.0412
    2MPD1     C14048   2.280   4.366   0.201 -0.1499  0.2417 -0.5064
    2MPD1    C114049   2.197   4.436   0.113  0.1918  0.9373 -0.1856
    2MPD1    C214050   2.238   4.558   0.058  0.2165 -0.6500  0.5009
    2MPD1    C314051   2.341   4.621   0.122 -0.3681  0.0575  0.9028
    2MPD1    C414052   2.419   4.563   0.223 -0.4030  0.2537 -0.0606
    2MPD1    C514053   2.391   4.432   0.256 -0.3031 -0.0202 -0.0328
    2MPD1     H14054   2.179   4.609  17.740  0.2989  0.4125  1.1644
    2MPD1    H114055   2.516   4.602   0.255 -1.5179  1.9826  1.2497
    2MPD1    H214056   2.275   4.262   0.234 -1.4712  0.0877 -1.1895
    2MPD1    H314057   2.445   4.390   0.340  1.3515  1.4753 -0.3547
    2MPD1     N14058   2.370   0.004   0.057  0.1707  0.0377  0.2112
    2MPD1    H514059   2.318   0.029  17.731 -0.0097  1.2746  0.6907
    2MPD1    N114060   2.083   4.368   0.056  0.1033 -0.1782  0.3524
    2MPD1    H614061   2.001   4.429   0.062 -0.0226 -0.2263 -0.8949
    2MPD1    H714062   2.059   4.291   0.118  1.5040  0.7202  1.9920
    3TMC3    C114063   2.490   0.178  17.738  0.5271  0.2759  0.6593
    3TMC3    C214064   2.383   0.209  17.661  0.8549  0.4797  0.1365
    3TMC3    C314065   2.400   0.271  17.544  0.5053  0.1572  0.2476
    3TMC3    C414066   2.611   0.221  17.711  0.0231 -0.6771  0.4599
    3TMC3    C514067   2.628   0.273  17.587  1.5462  0.4394 -0.8125
    3TMC3    C614068   2.525   0.297  17.504 -0.1632 -0.9880 -0.7788
    3TMC3     C14069   2.473   0.092   0.091  0.5519  0.1246  0.6347
    3TMC3     O14070   2.540   0.099   0.189  0.0555  0.0004  0.1816
    3TMC3     H14071   2.284   0.200  17.702  0.2816 -0.5281 -1.4722
    3TMC3    H114072   2.694   0.194   0.018  0.2916  0.3604  0.5509
    3TMC3    H214073   2.542   0.328  17.401  0.4715  3.7582  0.7601
    3TMC3    C714074   2.758   0.344  17.568  0.0259 -0.4921  0.0767
    3TMC3    C814075   2.288   0.309  17.464 -0.1794 -1.0435  0.0892
    3TMC3    O114076   2.819   0.374  17.668 -0.3154 -0.3085 -0.0551
    3TMC3    O214077   2.188   0.245  17.493  0.1341  0.0778  0.1707
    4MPD1     C14078   2.117   0.342  16.982 -0.1942  0.2114  0.2848
    4MPD1    C114079   2.236   0.409  16.987  0.0613  0.4924  0.5477
    4MPD1    C214080   2.301   0.416  17.108  0.0086  0.6605 -0.4320
    4MPD1    C314081   2.245   0.365  17.228 -0.2412 -0.3131 -0.1548
    4MPD1    C414082   2.130   0.295  17.218 -0.6230  0.2802 -0.3073
    4MPD1    C514083   2.063   0.281  17.094  0.5074  0.2994 -0.5571
    4MPD1     H14084   2.395   0.469  17.116  0.5262 -0.1767 -1.1313
    4MPD1    H114085   2.074   0.249  17.298  0.5020 -1.2287 -0.3648
    4MPD1    H214086   2.068   0.322  16.887 -0.3778 -1.1439  0.6558
    4MPD1    H314087   1.965   0.237  17.100 -0.4931  2.6301  0.0766
    4MPD1     N14088   2.319   0.373  17.348  0.3137 -0.2178 -0.1352
    4MPD1    H514089   2.406   0.425  17.349  0.2548 -0.1260  0.3128
    4MPD1    N114090   2.302   0.439  16.860  0.5302  0.2676  0.2825
    4MPD1    H614091   2.241   0.470  16.785 -1.7067  1.5139  2.6239
    4MPD1    H714092   2.378   0.507  16.853 -1.4215  2.7943  3.7012
    1TCq1    O114093   3.142   2.967  12.259  0.4718  0.6672 -0.3504
    1TCq1    C114094   3.162   2.947  12.391 -0.3349 -0.1599 -0.1292
    1TCq1    O214095   3.269   2.906  12.436 -0.8466  0.2140  0.2753
    1TCq1    C214096   3.084   3.046  12.464  0.8602  0.2670  0.1193
    1TCq1    C314097   2.951   3.025  12.470  0.0173 -0.3132  0.8745
    1TCq1    C414098   2.873   3.107  12.554 -0.5951 -0.5319  0.5931
    1TCq1    C514099   2.931   3.215  12.625 -0.4046  0.3238  0.5925
    1TCq1    C614100   3.066   3.216  12.622  1.2217  0.0591 -0.5425
    1TCq1    C714101   3.145   3.133  12.541 -0.5940  0.3419 -0.7162
    1TCq1    C814102   3.140   3.331  12.660  0.6426 -0.2371  0.3198
    1TCq1    O414103   3.258   3.312  12.694 -0.3650  0.1252  0.3987
    1TCq1    C914104   2.736   3.140  12.519 -0.2563  0.0646  0.0561
    1TCq1    O514105   2.681   3.079  12.419  0.7410  0.5936  0.2533
    1TCq1    O614106   2.687   3.246  12.565 -0.4889  0.2700  0.2745
    1TCq1    H114107   3.073   3.034  12.238 -1.9283 -0.8173  2.7891
    1TCq1    H214108   2.900   2.987  12.382 -0.9106 -0.4893  1.4901
    1TCq1    H314109   2.876   3.287  12.685  0.8314  0.6252  1.3527
    1TCq1    H414110   3.252   3.149  12.533 -0.3623 -0.0636  1.4488
    2MPD1     C14111   3.154   3.801  12.862 -0.5633  0.7482 -0.2158
    2MPD1    C114112   3.028   3.787  12.797  0.0639  0.1598 -0.1713
    2MPD1    C214113   3.010   3.662  12.732  0.3727 -0.2275 -0.0968
    2MPD1    C314114   3.105   3.567  12.721 -0.4347 -0.1649  0.3735
    2MPD1    C414115   3.231   3.587  12.780  0.2242  0.6617  0.3621
    2MPD1    C514116   3.254   3.703  12.849 -0.1288  0.3472  0.1698
    2MPD1     H14117   2.920   3.645  12.673 -0.3956 -0.9010  1.2516
    2MPD1    H114118   3.307   3.510  12.782 -0.5924 -0.1704 -0.6550
    2MPD1    H214119   3.174   3.889  12.922 -0.5928  0.8398 -0.3403
    2MPD1    H314120   3.351   3.715  12.896 -1.0619  1.4196  1.8251
    2MPD1     N14121   3.065   3.443  12.660 -0.1401 -0.2511 -0.2945
    2MPD1    H514122   2.973   3.439  12.619 -0.2557  0.5112 -0.1142
    2MPD1    N114123   2.922   3.877  12.832  0.6075  0.0732  0.2131
    2MPD1    H614124   2.964   3.968  12.852  3.2063 -1.3229  1.1657
    2MPD1    H714125   2.850   3.883  12.760  0.0930  0.8359  0.7882
    1TMC1    C114126   2.121   3.825   0.769 -0.3074 -0.6100  0.3536
    1TMC1    C214127   2.146   3.738   0.875 -0.4069 -0.5046 -0.6214
    1TMC1    C314128   2.071   3.621   0.871 -0.1742  0.2877 -0.0368
    1TMC1    C414129   2.026   3.803   0.670  0.1280  0.6274 -0.1767
    1TMC1    C514130   1.956   3.689   0.679 -0.0092  0.3355  0.4393
    1TMC1    C614131   1.975   3.598   0.776  0.0679 -0.5076 -0.8435
    1TMC1     C14132   2.185   3.957   0.768  0.1391  0.3808 -0.9125
    1TMC1     O14133   2.130   4.037   0.694 -0.0552 -0.5873  0.1459
    1TMC1     H14134   2.212   3.750   0.960  0.4880  0.7554 -1.4958
    1TMC1    H114135   2.009   3.874   0.590  0.9512  0.7894 -0.2095
    1TMC1    H214136   1.922   3.504   0.767 -1.6952  0.4631 -0.5332
    1TMC1    C714137   1.886   3.644   0.564 -0.5792 -0.2953  0.2735
    1TMC1    C814138   2.108   3.516   0.959  0.2259  0.6511 -0.0281
    1TMC1    O114139   1.803   3.553   0.557  0.1778  0.4431  0.0909
    1TMC1    O214140   2.204   3.500   1.034  0.1872 -0.4912 -0.6861
    1TMC1    O314141   1.937   3.707   0.452  0.3087 -0.4242  0.4894
    1TMC1    H314142   1.993   3.787   0.457  1.9018 -1.5203  0.4002
    1TMC1    O514143   1.987   3.457   0.983 -0.2429 -0.8901 -0.4572
    1TMC1    H514144   1.915   3.508   0.941  0.8024  0.0201 -1.1610
    2MPD1     C14145   2.532   4.285   0.963  0.2705  0.0645 -0.5276
    2MPD1    C114146   2.566   4.154   0.994  1.1867  0.2396 -0.7471
    2MPD1    C214147   2.486   4.052   0.957 -0.0823 -0.0048  0.0272
    2MPD1    C314148   2.372   4.073   0.882  0.0287 -0.7132 -1.0890
    2MPD1    C414149   2.340   4.204   0.845 -0.5494  1.0113  0.2449
    2MPD1    C514150   2.423   4.306   0.887  0.1141 -0.4476 -0.1902
    2MPD1     H14151   2.517   3.950   0.974  0.4763  0.3409  1.0438
    2MPD1    H114152   2.256   4.222   0.779 -0.7497  0.1073  0.2497
    2MPD1    H214153   2.589   4.372   0.994  0.7164 -0.3219 -0.2800
    2MPD1    H314154   2.414   4.409   0.853 -0.6169 -0.5158 -0.1978
    2MPD1     N14155   2.297   3.963   0.853 -0.3962  0.2367 -0.3907
    2MPD1    H514156   2.325   3.880   0.905 -1.4678  0.4220  0.4957
    2MPD1    N114157   2.685   4.132   1.055  0.1089  0.1166 -0.4529
    2MPD1    H614158   2.710   4.201   1.125  1.0969 -1.1959  0.4840
    2MPD1    H714159   2.681   4.045   1.109 -2.2897  0.1084 -0.6544
    1MPD1     C14160   0.489   3.919  12.304 -0.4359  0.3324 -0.2106
    1MPD1    C114161   0.483   4.020  12.208  0.0909 -1.0603  0.1185
    1MPD1    C214162   0.561   4.010  12.095 -0.4495  0.5152 -1.1184
    1MPD1    C314163   0.622   3.891  12.074  0.2381  0.9216  0.6486
    1MPD1    C414164   0.618   3.786  12.163 -0.7505  0.4008 -0.9408
    1MPD1    C514165   0.547   3.795  12.279  0.0249  0.0710 -0.1039
    1MPD1     H14166   0.560   4.092  12.023  0.7266  0.1809 -1.5161
    1MPD1    H114167   0.681   3.698  12.153 -1.1613 -0.1394  1.3241
    1MPD1    H214168   0.437   3.935  12.398  0.3220  2.5006 -0.1627
    1MPD1    H314169   0.537   3.719  12.356 -3.4793 -0.5330 -1.1643
    1MPD1     N14170   0.694   3.879  11.952  0.1140 -0.4113 -0.1597
    1MPD1    H514171   0.687   3.957  11.889  0.2280  0.6936  1.1898
    1MPD1    N114172   0.436   4.143  12.239  0.3921  0.0642 -0.4265
    1MPD1    H614173   0.415   4.199  12.157 -0.1431  1.2293  0.4832
    1MPD1    H714174   0.349   4.147  12.293  0.9993 -4.6023  0.8311
    2MPD1     C14175   4.170   4.478  10.644 -0.7407 -0.2177  0.4370
    2MPD1    C114176   4.087   4.439  10.746 -0.3081 -0.2230  0.4131
    2MPD1    C214177   4.071   4.305  10.778 -0.2436  0.2369  0.1038
    2MPD1    C314178   4.153   4.212  10.717  0.4202 -0.5188  0.3964
    2MPD1    C414179   4.246   4.256  10.620 -0.0675  0.4753  0.2372
    2MPD1    C514180   4.245   4.387  10.578  0.7247  0.1286 -0.6949
    2MPD1     H14181   4.005   4.277  10.859  0.9375 -1.3091  0.5311
    2MPD1    H114182   4.320   4.188  10.581  1.6430  3.2808 -1.3528
    2MPD1    H214183   4.178   4.582  10.616  1.1743 -0.5596 -0.2857
    2MPD1    H314184   4.324   4.396  10.505  1.3432  0.5391  0.0232
    2MPD1     N14185   4.148   4.072  10.747  0.3312 -0.2347 -0.5460
    2MPD1    H514186   4.201   4.009  10.688 -0.4058 -0.8142 -0.5938
    2MPD1    N114187   4.031   4.528  10.832 -0.0166 -0.4066  0.2258
    2MPD1    H614188   4.019   4.615  10.781 -3.4402 -0.6022  0.6852
    2MPD1    H714189   3.934   4.505  10.856  0.4228  0.0874  2.4534
    3MPD1     C14190   3.497   3.471  11.211  0.1731 -0.8264 -0.1038
    3MPD1    C114191   3.552   3.578  11.280  0.6007  0.5361 -0.0504
    3MPD1    C214192   3.670   3.629  11.239 -1.2593 -0.4215 -0.1575
    3MPD1    C314193   3.742   3.559  11.143  0.6907 -0.3365 -0.2971
    3MPD1    C414194   3.687   3.462  11.065 -0.8842 -0.0328  0.0386
    3MPD1    C514195   3.560   3.424  11.104 -0.0553 -0.2690 -0.2530
    3MPD1     H14196   3.722   3.713  11.283  0.6398 -1.2404 -0.8197
    3MPD1    H114197   3.741   3.412  10.986  2.3949  2.0159  0.9965
    3MPD1    H214198   3.399   3.437  11.245  0.9862 -2.3367  0.7375
    3MPD1    H314199   3.503   3.347  11.053 -2.5465  0.8541  0.8300
    3MPD1     N14200   3.860   3.624  11.107  0.1437 -0.5464  0.1066
    3MPD1    H514201   3.877   3.715  11.149  2.6272 -0.8921 -0.1727
    3MPD1    N114202   3.476   3.634  11.383  0.4788  0.3267 -0.2047
    3MPD1    H614203   3.412   3.573  11.432  0.7685  1.2572  1.3314
    3MPD1    H714204   3.529   3.691  11.448  0.3566  0.1668  0.0323
    4MPD2     C14205   0.654   4.141  11.260 -0.1699 -0.0252  0.1792
    4MPD2    C114206   0.711   4.016  11.255  0.0944 -0.1522 -0.0991
    4MPD2    C214207   0.681   3.932  11.147 -0.0591 -0.0863 -0.5922
    4MPD2    C314208   0.598   3.970  11.043  0.2264  0.4356 -0.5290
    4MPD2    C414209   0.541   4.096  11.056 -0.2242  1.1281  0.4940
    4MPD2    C514210   0.560   4.173  11.168  0.2565  1.0850  0.5169
    4MPD2     H14211   0.713   3.828  11.153  0.3384  0.1692  1.9420
    4MPD2    H114212   0.476   4.143  10.983 -0.2334 -0.1200 -0.2916
    4MPD2    H214213   0.681   4.210  11.339  0.9284  1.4992 -1.5629
    4MPD2    H314214   0.522   4.274  11.170  0.2056  1.0902 -1.1781
    4MPD2     N14215   0.548   3.875  10.951  0.3617 -0.0692 -0.5565
    4MPD2    H514216   0.461   3.900  10.905  1.2629  0.0565 -2.1919
    4MPD2    N114217   0.794   3.956  11.355 -0.3118  0.7477  0.3018
    4MPD2    H714218   0.830   3.862  11.340 -0.1213  0.7006  1.0112
    5TMC3    C114219   0.854   3.899  11.578  0.1091  0.0905 -0.4350
    5TMC3    C214220   0.813   3.895  11.708  0.1630  0.4976 -0.1563
    5TMC3    C314221   0.804   3.769  11.761  0.7603 -0.3592 -0.7790
    5TMC3    C414222   0.921   3.802  11.509  0.3781 -0.2958  0.4210
    5TMC3    C514223   0.889   3.679  11.552 -0.1817 -0.0061  0.3417
    5TMC3    C614224   0.822   3.658  11.678  0.2136 -0.8814  0.2713
    5TMC3     C14225   0.804   4.001  11.485 -0.4158 -0.2000 -0.9742
    5TMC3     O14226   0.773   4.111  11.534  0.4413  0.2176 -0.6120
    5TMC3     H14227   0.788   3.986  11.761  0.7961  0.5481  0.0657
    5TMC3    H114228   0.979   3.823  11.420 -0.4987 -0.6120 -0.2294
    5TMC3    H214229   0.824   3.556  11.716 -0.6977 -0.0909  2.4888
    5TMC3    C714230   0.849   3.602  11.437  0.0361  0.2074 -0.2078
    5TMC3    C814231   0.737   3.764  11.894 -0.3417 -1.0829 -0.7524
    5TMC3    O114232   0.848   3.665  11.335  0.6746  0.5476  0.1032
    5TMC3    O214233   0.722   3.648  11.927 -0.1300 -0.1578  0.2465
    6TMC3    C114234   4.107   3.875  10.874  0.4090 -0.6049  0.1283
    6TMC3    C214235   4.018   3.803  10.940  0.0776  0.1613  0.1853
    6TMC3    C314236   4.050   3.673  10.965 -0.0806  0.0940  0.2122
    6TMC3    C414237   4.232   3.824  10.830 -0.0873 -0.1367 -0.4826
    6TMC3    C514238   4.264   3.694  10.865 -0.6570 -0.2230  0.2093
    6TMC3    C614239   4.173   3.618  10.932  0.1894  0.1404 -0.5421
    6TMC3     C14240   4.069   4.013  10.842 -0.0100  0.3939 -0.1973
    6TMC3     O14241   3.981   4.060  10.906 -0.1944 -0.0971  0.0183
    6TMC3     H14242   3.923   3.852  10.958 -0.7790 -2.1715  1.9684
    6TMC3    H114243   4.315   3.884  10.794 -0.4909  0.4605 -0.4209
    6TMC3    H214244   4.200   3.514  10.950 -0.7034 -0.1782 -1.0520
    6TMC3    C714245   4.391   3.642  10.824 -0.1711 -0.3906  0.3327
    6TMC3    C814246   3.950   3.577  11.010 -0.6588 -0.2221  0.4926
    6TMC3    O114247   4.479   3.724  10.825 -0.8943  0.1058 -0.3493
    6TMC3    O214248   3.958   3.469  10.958  1.0201 -0.2209 -0.7487
    7MPD2     C14249   0.672   3.205  11.179 -0.3220  0.0067 -0.3146
    7MPD2    C114250   0.690   3.341  11.140  0.5474 -0.1586  0.3145
    7MPD2    C214251   0.747   3.423  11.233 -0.1755 -0.9795  0.2591
    7MPD2    C314252   0.776   3.380  11.364  0.0283 -0.5431 -0.1467
    7MPD2    C414253   0.750   3.246  11.396  0.4544  0.1023 -0.0516
    7MPD2    C514254   0.691   3.163  11.304 -0.3953  0.8681 -0.2771
    7MPD2     H14255   0.775   3.522  11.201 -0.8914 -0.9921 -0.4156
    7MPD2    H114256   0.768   3.210  11.497 -1.6527  0.1937  0.3549
    7MPD2    H214257   0.637   3.139  11.100 -1.2230  0.3973 -0.2442
    7MPD2    H314258   0.691   3.063  11.346 -2.2983  0.3647 -1.4776
    7MPD2     N14259   0.827   3.472  11.462 -0.4147 -0.0057 -0.4990
    7MPD2    H514260   0.853   3.443  11.555 -0.9241  0.7485 -0.1261
    7MPD2    N114261   0.663   3.397  11.016  0.2957  0.6998  0.7823
    7MPD2    H714262   0.676   3.498  11.018  0.0576  0.7586 -0.5844
    8TMC3    C114263   0.535   3.434  10.817 -0.8202 -0.6226 -0.0582
    8TMC3    C214264   0.400   3.440  10.805  0.2964 -0.3862 -0.8155
    8TMC3    C314265   0.341   3.564  10.787 -0.3615  0.3566 -0.6740
    8TMC3    C414266   0.618   3.545  10.805  0.0391 -0.4651  0.6717
    8TMC3    C514267   0.554   3.670  10.813  0.1545  0.0234 -0.8294
    8TMC3    C614268   0.416   3.678  10.798  0.0658 -0.5980 -0.7187
    8TMC3     C14269   0.574   3.344  10.922  0.4516  0.8479  0.1737
    8TMC3     O14270   0.524   3.233  10.920  0.0219 -0.6591  0.1198
    8TMC3     H14271   0.342   3.350  10.822  1.8111 -1.2493 -0.2222
    8TMC3    H114272   0.726   3.536  10.806  0.0485 -0.8400 -1.7451
    8TMC3    H214273   0.366   3.772  10.777  0.2576 -0.3019  0.1489
    8TMC3    C714274   0.609   3.756  10.923  0.4332 -0.0912 -0.3688
    8TMC3    C814275   0.200   3.567  10.793 -0.0957 -0.2436  0.4893
    8TMC3    O114276   0.721   3.711  10.958 -0.3422  0.9996  0.3475
    8TMC3    O214277   0.139   3.663  10.840  0.3332  0.6137 -0.0411
    9MPD2     C14278   4.723   3.335  10.598 -0.2471 -1.0306  0.1555
    9MPD2    C114279   0.012   3.433  10.691 -0.0360  0.0577  0.2257
    9MPD2    C214280   4.639   3.499  10.753  0.3079  0.0271  0.3139
    9MPD2    C314281   4.512   3.449  10.733  0.7343 -0.0492 -0.0776
    9MPD2    C414282   4.497   3.341  10.659 -0.2003 -0.4905  0.2343
    9MPD2    C514283   4.598   3.285  10.590  0.1385  0.5640 -0.7684
    9MPD2     H14284   4.660   3.593  10.802  0.9042  0.7374 -1.3074
    9MPD2    H114285   4.399   3.300  10.635  0.5202 -1.7937 -0.5249
    9MPD2    H214286   0.056   3.299  10.526  0.2070 -0.8988  0.5521
    9MPD2    H314287   4.573   3.227  10.501  2.0457  1.4044 -1.8577
    9MPD2     N14288   4.390   3.512  10.772  0.8292 -0.3921 -0.3377
    9MPD2    H514289   4.299   3.474  10.752  1.3172 -1.4550 -0.5238
    9MPD2    N114290   0.150   3.463  10.719  0.9920  0.0739  0.4520
    9MPD2    H714291   0.219   3.404  10.673  2.0322  1.6706 -0.0162
    1MPD1     C14292   0.638   3.300  17.166 -0.6837  0.2540 -0.1278
    1MPD1    C114293   0.565   3.354  17.265 -0.2667 -0.4632  0.1071
    1MPD1    C214294   0.433   3.317  17.277 -0.4366 -0.0996 -0.6664
    1MPD1    C314295   0.379   3.223  17.193 -0.6607 -0.0062 -0.1849
    1MPD1    C414296   0.462   3.164  17.093  0.2360  1.4101 -0.0091
    1MPD1    C514297   0.590   3.211  17.074 -0.2152  0.0399 -0.0232
    1MPD1     H14298   0.369   3.366  17.350  0.2036 -1.2930  0.6812
    1MPD1    H114299   0.421   3.084  17.031  3.7318 -1.6548  1.6051
    1MPD1    H214300   0.744   3.318  17.153 -0.2004 -1.4728  1.3301
    1MPD1    H314301   0.650   3.183  16.988  2.0641 -1.6198  2.1359
    1MPD1     N14302   0.245   3.186  17.182 -0.5078 -0.0508 -0.1475
    1MPD1    H514303   0.217   3.116  17.113  1.1889 -0.7161 -0.1481
    1MPD1    N114304   0.629   3.434  17.359  0.0984 -0.9285  0.0694
    1MPD1    H614305   0.567   3.497  17.409  0.4899  0.1714 -0.8258
    1MPD1    H714306   0.719   3.476  17.336 -0.6683  0.4435 -0.4247
    2TMC2    C114307   4.604   3.147  17.049 -0.3474  0.1114 -0.2246
    2TMC2    C214308   4.499   3.172  17.135 -0.4447  0.0947 -0.8115
    2TMC2    C314309   4.525   3.194  17.265 -0.1766 -0.4833  0.7852
    2TMC2    C414310   4.737   3.159  17.078 -0.9729  0.0093  0.3396
    2TMC2    C514311   0.014   3.181  17.214 -0.0782 -0.3867  0.2019
    2TMC2    C614312   4.653   3.195  17.307 -0.3721 -0.3321  0.6672
    2TMC2     C14313   4.573   3.076  16.925  0.0024  0.1616  0.1821
    2TMC2     O14314   4.669   3.056  16.849 -0.0246 -0.0379 -0.7997
    2TMC2     H14315   4.399   3.173  17.093 -1.3239 -0.9388  1.2663
    2TMC2    H114316   0.077   3.146  17.007  0.6236 -0.3900  2.2127
    2TMC2    H214317   4.675   3.229  17.407 -0.1371 -1.5143  1.0175
    2TMC2    C714318   0.144   3.235  17.264  0.9964 -0.3746  0.0393
    2TMC2    C814319   4.428   3.267  17.343 -0.5859 -0.4382 -0.4605
    2TMC2    O114320   0.146   3.299  17.372  0.2786 -0.0351  0.5682
    2TMC2    O214321   4.459   3.357  17.422  0.3348 -0.1952 -0.9581
    2TMC2    O514322   4.304   3.239  17.303 -0.3107  0.2255 -0.8991
    2TMC2    H514323   4.305   3.150  17.263  2.6766 -0.8736  1.6742
    3MPD1     C14324   4.222   2.926  16.592 -0.0679  0.5984 -0.4011
    3MPD1    C114325   4.174   2.886  16.713  0.1102 -0.6522 -0.4433
    3MPD1    C214326   4.256   2.902  16.827  0.4003 -0.1420 -0.6894
    3MPD1    C314327   4.376   2.977  16.813  0.1061  0.3662 -0.2250
    3MPD1    C414328   4.416   3.017  16.685  1.0824 -0.3650 -0.1600
    3MPD1    C514329   4.342   2.987  16.573 -0.1707  0.3007  0.5601
    3MPD1     H14330   4.231   2.877  16.929  0.8846  0.0660 -0.5224
    3MPD1    H114331   4.502   3.080  16.665  0.6297 -0.1188 -1.3462
    3MPD1    H214332   4.168   2.899  16.502 -1.9173  0.6621  0.6880
    3MPD1    H314333   4.366   3.023  16.474  4.0349 -0.6689  1.2147
    3MPD1     N14334   4.450   3.018  16.929  0.3927 -0.7625  0.5596
    3MPD1    H514335   4.400   3.006  17.017  1.5325  0.1603  1.3253
    3MPD1    N114336   4.052   2.829  16.728 -0.1020  0.1807  0.4564
    3MPD1    H614337   3.983   2.868  16.663  0.6678 -0.4315 -0.7153
    3MPD1    H714338   4.013   2.849  16.820 -1.0502  1.6407 -0.2551
    1TMC1    C114339   2.998   2.182  13.226 -0.5785 -0.6555  0.0490
    1TMC1    C214340   2.903   2.237  13.147 -0.2203 -0.6558 -0.3581
    1TMC1    C314341   2.852   2.356  13.189 -0.5486 -0.9090 -0.4099
    1TMC1    C414342   3.046   2.238  13.338  0.4999 -0.1964 -0.0652
    1TMC1    C514343   2.992   2.358  13.378  0.1610  1.4485 -0.1501
    1TMC1    C614344   2.895   2.420  13.305  0.0220  0.0436 -0.1816
    1TMC1     C14345   3.092   2.105  13.150  0.4256  0.7205  0.5318
    1TMC1     O14346   3.095   2.130  13.030  0.4034 -0.3406  0.4565
    1TMC1     H14347   2.862   2.180  13.065  1.3506  0.8193 -2.1620
    1TMC1    H114348   3.118   2.191  13.404 -1.5388 -1.6147  1.1563
    1TMC1    H214349   2.852   2.514  13.339  0.8393  0.3328  0.0649
    1TMC1    C714350   3.044   2.411  13.507 -0.0166  0.5795  0.4543
    1TMC1    C814351   2.742   2.424  13.124  0.7087 -0.0645 -0.2560
    1TMC1    O114352   3.058   2.345  13.610 -0.6034  0.3476  0.4075
    1TMC1    O214353   2.723   2.544  13.098  0.1321 -0.5206  1.0336
    1TMC1    O314354   3.041   2.545  13.485 -0.2252  0.1686  0.3980
    1TMC1    H314355   3.049   2.573  13.391 -0.2690 -0.2022  0.2846
    1TMC1    O514356   2.662   2.327  13.081 -0.3511  0.1206 -0.1498
    1TMC1    H514357   2.682   2.239  13.120 -0.1954  0.0985 -0.2753
    2MPD2     C14358   3.296   1.933  13.025  0.6983  0.1455  0.1356
    2MPD2    C114359   3.251   1.919  13.160 -0.1947  0.3252 -0.7747
    2MPD2    C214360   3.307   1.818  13.231 -0.3232 -0.0872 -0.8853
    2MPD2    C314361   3.396   1.724  13.184  0.0001 -0.1842  0.2044
    2MPD2    C414362   3.441   1.738  13.050 -0.1335  0.0047  0.1492
    2MPD2    C514363   3.391   1.845  12.976  0.2615  0.4284 -0.0107
    2MPD2     H14364   3.270   1.808  13.333 -0.6520  1.5272 -0.8534
    2MPD2    H114365   3.507   1.671  12.997 -0.1091  0.7746 -0.7869
    2MPD2    H214366   3.261   2.006  12.953 -0.7678  1.2380  1.9504
    2MPD2    H314367   3.421   1.862  12.873 -0.5004  0.0316 -0.2921
    2MPD2     N14368   3.439   1.609  13.266 -0.1835  0.1582  0.5647
    2MPD2    H514369   3.385   1.597  13.351 -1.9351 -1.5489 -0.7972
    2MPD2    N114370   3.155   2.008  13.220 -0.0251 -0.1340 -0.2938
    2MPD2    H714371   3.132   1.995  13.318 -0.7953 -1.3404 -0.6386
    3TCq1    O114372   3.820   1.081  13.502  0.2346  0.1235  0.3428
    3TCq1    C114373   3.839   1.184  13.412  0.1178 -0.6116  0.4516
    3TCq1    O214374   3.885   1.168  13.299 -0.1883 -0.3618 -0.1557
    3TCq1    C214375   3.731   1.286  13.437 -1.0508  0.3843  0.5254
    3TCq1    C314376   3.693   1.310  13.570 -0.7178 -0.2304 -0.6138
    3TCq1    C414377   3.582   1.389  13.579  0.2801 -0.6448 -0.0091
    3TCq1    C514378   3.516   1.436  13.466  0.2418 -0.6595 -0.9335
    3TCq1    C614379   3.581   1.428  13.343 -0.1019  0.4010  0.6781
    3TCq1    C714380   3.684   1.342  13.322 -0.3364  1.0579 -0.4623
    3TCq1    C814381   3.545   1.523  13.239 -0.1373 -0.2588  1.1646
    3TCq1    O414382   3.617   1.527  13.144 -0.0713  0.3475  0.0009
    3TCq1    C914383   3.522   1.410  13.705  0.4225  0.9370  0.4209
    3TCq1    O514384   3.573   1.341  13.800 -1.0038 -0.2300 -0.0642
    3TCq1    O614385   3.441   1.503  13.714 -0.5443  0.8680  0.0408
    3TCq1    H114386   3.731   1.082  13.543 -0.2001  0.2319 -0.6294
    3TCq1    H214387   3.745   1.274  13.658  1.0803 -1.5536 -2.2097
    3TCq1    H314388   3.432   1.503  13.477  0.5435 -0.7566  2.0117
    3TCq1    H414389   3.752   1.335  13.238  1.9794 -1.3282  1.6236
    1MPD2     C14390   2.233   3.664  15.152 -0.0741  0.4976 -0.3699
    1MPD2    C114391   2.116   3.602  15.118 -0.5145  0.2845  0.1188
    1MPD2    C214392   2.108   3.465  15.118 -0.1004 -0.7522 -0.6439
    1MPD2    C314393   2.221   3.394  15.149  0.6445  0.0177 -0.0575
    1MPD2    C414394   2.335   3.458  15.196  0.0723 -0.2401 -0.5118
    1MPD2    C514395   2.337   3.594  15.200 -0.3305  0.2468  0.4382
    1MPD2     H14396   2.015   3.419  15.084 -0.3206  0.9255 -2.3032
    1MPD2    H114397   2.427   3.414  15.233 -0.5028 -0.4449  0.6932
    1MPD2    H214398   2.241   3.771  15.166  2.8499  0.1129  1.0690
    1MPD2    H314399   2.433   3.639  15.222  0.3548 -1.3460  0.7364
    1MPD2     N14400   2.231   3.254  15.138  0.2146  0.6799  0.1717
    1MPD2    H514401   2.310   3.211  15.186 -1.7196 -1.4853  1.4239
    1MPD2    N114402   2.003   3.677  15.079 -0.4260  0.0113 -0.2400
    1MPD2    H714403   2.016   3.777  15.071 -2.1243  0.0960 -1.8515
    2TMC3    C114404   1.800   3.702  14.943  0.6877  0.0894  0.5136
    2TMC3    C214405   1.688   3.637  14.900 -0.4135 -0.8855 -0.1863
    2TMC3    C314406   1.654   3.643  14.766 -0.2437 -0.0798  0.3140
    2TMC3    C414407   1.884   3.766  14.857  0.2834 -0.1424 -0.2267
    2TMC3    C514408   1.835   3.792  14.730 -0.6144 -0.2417 -0.2827
    2TMC3    C614409   1.725   3.727  14.686  0.4132 -0.5073  0.6709
    2TMC3     C14410   1.882   3.622  15.037 -0.5376 -0.3892 -0.2651
    2TMC3     O14411   1.829   3.514  15.064 -0.0147  0.0605 -0.6477
    2TMC3     H14412   1.626   3.589  14.974 -0.6593 -0.3652 -0.0552
    2TMC3    H114413   1.989   3.786  14.874  0.5399 -0.6566 -1.1906
    2TMC3    H214414   1.683   3.755  14.590 -0.1406 -0.9233  0.7929
    2TMC3    C714415   1.877   3.913  14.669 -0.0563 -0.3094  0.6287
    2TMC3    C814416   1.628   3.516  14.703  0.0882  0.0946  0.3902
    2TMC3    O114417   1.851   3.924  14.551  0.2736  0.7881 -0.0330
    2TMC3    O214418   1.596   3.517  14.585 -0.9523 -0.1303 -0.3267
    3TCq1    O114419   2.661   4.630  15.346 -0.1694  0.0777 -0.0448
    3TCq1    C114420   2.666   4.602  15.215 -0.6207  0.7124  0.2648
    3TCq1    O214421   2.764   4.641  15.151  0.2309 -0.1125  0.0238
    3TCq1    C214422   2.586   4.484  15.184  0.2988 -0.4022  0.5467
    3TCq1    C314423   2.549   4.399  15.285  0.1579 -0.0491  0.2994
    3TCq1    C414424   2.439   4.324  15.262 -0.6740  0.4097  0.4333
    3TCq1    C514425   2.374   4.345  15.145 -0.0821 -0.6102  0.1954
    3TCq1    C614426   2.413   4.423  15.048  1.0190  0.6021  0.1897
    3TCq1    C714427   2.527   4.497  15.059 -0.3908 -0.3390 -0.2350
    3TCq1    C814428   2.353   4.409  14.913 -0.3938  0.6106  0.0908
    3TCq1    O414429   2.388   4.495  14.835 -0.0883 -0.1111  0.1513
    3TCq1    C914430   2.404   4.217  15.349  0.1922 -0.1477 -0.0256
    3TCq1    O514431   2.461   4.214  15.457  0.0773 -0.3715  0.1650
    3TCq1    O614432   2.310   4.138  15.310 -0.1340 -0.7424  0.0287
    3TCq1    H114433   2.578   4.599  15.387 -0.4415  0.8561 -0.0081
    3TCq1    H214434   2.606   4.387  15.376  0.0279  0.2148  0.4150
    3TCq1    H314435   2.283   4.289  15.130 -1.0242  1.2686 -1.2325
    3TCq1    H414436   2.586   4.563  14.997 -0.8821  0.0431 -0.2900
    4MPD2     C14437   2.201   4.324  14.663 -0.0218  0.4933 -0.3731
    4MPD2    C114438   2.208   4.253  14.780 -0.9578  0.4772 -0.0526
    4MPD2    C214439   2.136   4.145  14.795 -0.1753 -0.1779  0.0228
    4MPD2    C314440   2.047   4.095  14.702 -0.3519  0.2199  0.1460
    4MPD2    C414441   2.031   4.169  14.584 -0.1263  0.7675  0.0498
    4MPD2    C514442   2.116   4.272  14.568 -0.1060 -0.3473 -0.8782
    4MPD2     H14443   2.142   4.090  14.888 -3.6484 -1.2307 -0.4023
    4MPD2    H114444   1.955   4.150  14.509  1.1296 -0.8040 -0.8300
    4MPD2    H214445   2.269   4.405  14.641  3.2799 -1.9165  0.8779
    4MPD2    H314446   2.122   4.302  14.464  1.6312  0.4823 -0.5422
    4MPD2     N14447   1.971   3.983  14.742 -0.2047  0.4226 -0.2549
    4MPD2    H514448   1.996   3.944  14.833  1.4536 -1.0518 -1.3436
    4MPD2    N114449   2.283   4.288  14.893  0.5578 -0.1423  0.0494
    4MPD2    H714450   2.286   4.220  14.968 -2.4451 -1.8110 -1.3614
    5TMC2    C114451   1.978   2.902  15.042 -0.2613 -0.0574  0.2646
    5TMC2    C214452   1.982   2.874  15.175 -0.0282  0.3726  0.3827
    5TMC2    C314453   2.086   2.926  15.245 -0.3018  0.0408  0.4871
    5TMC2    C414454   2.081   2.972  14.988  0.2008 -0.2906 -0.1965
    5TMC2    C514455   2.166   3.034  15.065  0.0669 -0.2907 -0.2541
    5TMC2    C614456   2.188   2.997  15.193  0.1638  0.8431  1.2553
    5TMC2     C14457   1.864   2.986  15.020  0.0036 -0.2575  0.4022
    5TMC2     O14458   1.826   3.069  15.105  0.5264 -0.7784  0.2323
    5TMC2     H14459   1.893   2.856  15.235 -0.5532  0.4266 -0.3758
    5TMC2    H114460   2.089   2.994  14.882  1.8989 -1.3824 -0.2989
    5TMC2    H214461   2.242   3.053  15.268  1.7000  0.7868  0.1976
    5TMC2    C714462   2.157   3.179  15.045 -0.0921  0.3235 -0.1604
    5TMC2    C814463   2.083   2.891  15.385 -0.0283  0.3407  0.0996
    5TMC2    O114464   2.078   3.219  14.964 -0.0870 -0.1090  0.2232
    5TMC2    O214465   1.985   2.852  15.444  0.2131 -0.3620  0.3170
    5TMC2    O514466   2.208   2.857  15.413 -0.6815  0.1057  0.4554
    5TMC2    H514467   2.257   2.861  15.328 -1.8439 -1.3686 -0.2804
    6MPD2     C14468   1.626   3.226  14.644  0.2821  0.1740 -0.0628
    6MPD2    C114469   1.675   3.277  14.760 -0.5043  0.0113 -0.2535
    6MPD2    C214470   1.740   3.193  14.846 -0.8331  0.2439 -0.0650
    6MPD2    C314471   1.752   3.058  14.819  0.1878 -0.2674  0.1873
    6MPD2    C414472   1.697   3.009  14.702  0.5359  0.7586 -0.2529
    6MPD2    C514473   1.622   3.089  14.625 -0.6709  0.0111  0.1290
    6MPD2     H14474   1.783   3.233  14.937 -1.0179  1.3664 -0.4657
    6MPD2    H114475   1.694   2.907  14.666  1.2777  0.3733  0.7470
    6MPD2    H214476   1.575   3.283  14.567 -3.0656 -0.8011  1.4499
    6MPD2    H314477   1.575   3.049  14.536 -1.2662  0.9193  0.0409
    6MPD2     N14478   1.816   2.964  14.900 -0.5754 -0.0370  0.0094
    6MPD2    H514479   1.841   2.869  14.876 -1.4945  0.2299 -2.0108
    6MPD2    N114480   1.664   3.416  14.793  0.0206 -0.9731 -0.1466
    6MPD2    H714481   1.700   3.441  14.884  1.5798  0.4980 -1.1697
  945NH4     N114482   3.246   3.803  17.415 -0.2025 -0.3022  0.1015
  945NH4     H214483   3.256   3.904  17.439 -2.4478 -0.2469  0.8320
  945NH4     H314484   3.165   3.761  17.464  0.6619  0.1313  1.9110
  945NH4     H414485   3.333   3.754  17.445  1.1975  1.7531 -0.5941
  945NH4     H514486   3.241   3.792  17.312 -0.5481 -0.8391  0.1751
  946SOD     NA14487   4.520   2.936  13.150  0.3448 -0.0658 -0.5076
  947SOD     NA14488   3.949   0.957  13.232  0.0726 -0.0669 -0.0548
  948SOD     NA14489   2.857   3.768  13.026 -0.4580 -0.2048 -0.2209
  949SOD     NA14490   1.903   2.581  15.843  0.5857  0.0446  0.7984
  950SOD     NA14491   1.280   2.943  12.936 -0.5325 -0.4530  0.1008
  951SOD     NA14492   2.871   4.277   9.868  0.3235  0.1966  0.0479
  952SOD     NA14493   0.103   0.776  10.436  0.1459 -0.2045  0.0626
  953SOL     OW14494   3.311   3.070   3.492  0.4080 -0.7851 -0.0897
  953SOL    HW114495   3.230   3.118   3.474  0.2273  0.1955  3.2827
  953SOL    HW214496   3.372   3.126   3.444  0.0502  0.1530  0.5463
  954SOL     OW14497   2.731   4.060   7.721 -0.2196 -0.7555  0.0602
  954SOL    HW114498   2.637   4.058   7.702  0.0439  0.4545 -1.4256
  954SOL    HW214499   2.762   4.025   7.638  0.8240 -1.4378  0.7458
  955SOL     OW14500   1.834   2.492   3.346 -0.3814 -0.3236  0.1520
  955SOL    HW114501   1.854   2.452   3.262  0.6226  1.6979 -0.5775
  955SOL    HW214502   1.774   2.557   3.310  0.2591 -0.5416 -1.3015
  956SOL     OW14503   3.824   2.379   0.987  0.1844 -0.8472 -0.2478
  956SOL    HW114504   3.770   2.335   0.921 -0.0400 -0.9225 -0.0139
  956SOL    HW214505   3.858   2.306   1.038  0.3112  0.9848  2.2536
  957SOL     OW14506   3.812   1.556  10.683  0.2215 -0.7245  0.5364
  957SOL    HW114507   3.865   1.476  10.681 -0.0622 -0.9075  0.3795
  957SOL    HW214508   3.733   1.524  10.640  1.2576  0.2537 -2.1144
  958SOL     OW14509   3.377   1.063   5.804 -0.0995 -0.3231 -0.5639
  958SOL    HW114510   3.366   1.003   5.731  1.7602 -0.7009 -0.5456
  958SOL    HW214511   3.409   1.143   5.761  1.7233 -0.6903  0.0824
  959SOL     OW14512   3.707   2.973  12.442  0.0252 -0.4339 -0.3734
  959SOL    HW114513   3.651   3.040  12.402 -0.0434  0.9021  1.9698
  959SOL    HW214514   3.652   2.898  12.421 -1.0471  0.3750 -0.4216
  960SOL     OW14515   1.351   4.430  15.500  0.5140 -0.1631 -0.7409
  960SOL    HW114516   1.354   4.340  15.469  0.4139  0.1198 -1.5642
  960SOL    HW214517   1.424   4.441  15.561 -0.7315 -2.6168  1.1939
  961SOL     OW14518   4.498   1.926   3.055 -0.5827  0.0601  0.3451
  961SOL    HW114519   4.557   1.873   3.001 -3.1137 -2.6552  0.2288
  961SOL    HW214520   4.413   1.882   3.047 -0.9972  0.9953 -0.3815
  962SOL     OW14521   2.504   4.184   5.485  0.4767 -0.3758 -0.3690
  962SOL    HW114522   2.471   4.154   5.570 -2.2381 -0.1824 -1.3520
  962SOL    HW214523   2.556   4.108   5.458 -2.9872 -2.7979 -0.1841
  963SOL     OW14524   3.135   1.480   9.227 -0.1114 -0.2528  0.1060
  963SOL    HW114525   3.213   1.524   9.260 -0.9704  0.6909  0.8898
  963SOL    HW214526   3.153   1.398   9.273 -1.2441 -0.0746  0.8662
  964SOL     OW14527   1.764   4.321  15.772 -0.0061 -0.2035  0.7839
  964SOL    HW114528   1.840   4.267  15.751 -0.1375 -0.5906  1.3029
  964SOL    HW214529   1.797   4.386  15.834 -1.9499  1.9700 -0.4639
  965SOL     OW14530   3.465   2.268  15.866  0.2570  0.1826  0.1876
  965SOL    HW114531   3.449   2.332  15.935  1.4065  2.0309 -1.2696
  965SOL    HW214532   3.375   2.248  15.842 -0.3100 -0.0484  2.5065
  966SOL     OW14533   1.500   2.454   7.102 -0.2835  0.2128 -0.0041
  966SOL    HW114534   1.446   2.510   7.046  1.4649  0.8594 -1.0361
  966SOL    HW214535   1.476   2.371   7.062 -0.5431 -0.1768  0.9557
  967SOL     OW14536   3.441   1.306   3.819 -0.3473 -0.1953  0.2444
  967SOL    HW114537   3.369   1.245   3.832 -0.1323  0.0038  2.3543
  967SOL    HW214538   3.420   1.359   3.896  0.1835  0.1181  0.1734
  968SOL     OW14539   2.614   3.681   2.736 -0.4924  0.1424  0.2650
  968SOL    HW114540   2.705   3.691   2.706 -0.8239 -0.9236 -1.0641
  968SOL    HW214541   2.620   3.703   2.829  0.2631  0.9443  0.0289
  969SOL     OW14542   1.265   0.128   5.164  0.4027 -0.7113 -0.3977
  969SOL    HW114543   1.295   0.205   5.115  0.3270 -0.3101  0.1789
  969SOL    HW214544   1.314   0.138   5.246  0.1035 -0.6425 -0.2275
  970SOL     OW14545   4.070   4.125   2.022  0.8541 -0.0447  0.0381
  970SOL    HW114546   4.000   4.167   2.073  0.5052 -1.2296  0.5367
  970SOL    HW214547   4.106   4.065   2.087  1.6352 -0.5540 -0.8624
  971SOL     OW14548   3.854   3.958  17.045 -0.3371 -0.5143 -0.2387
  971SOL    HW114549   3.795   3.883  17.045 -0.6976 -0.2326 -0.4652
  971SOL    HW214550   3.875   3.965  16.952  1.4608 -1.3342  0.1123
  972SOL     OW14551   4.429   3.272   5.367  0.2847  0.0382  0.6307
  972SOL    HW114552   4.402   3.263   5.458  1.2296  2.0209  1.1133
  972SOL    HW214553   4.395   3.199   5.315  0.3856  0.1278  0.4371
  973SOL     OW14554   4.414   0.749   4.334 -0.4303  0.3480 -0.1140
  973SOL    HW114555   4.375   0.742   4.421  2.2610 -1.5590  0.9205
  973SOL    HW214556   4.338   0.765   4.278 -0.9774  1.8891  1.0745
  974SOL     OW14557   3.735   3.663  17.041  0.5180 -0.3287 -0.4747
  974SOL    HW114558   3.731   3.622  17.128  1.7039 -0.7595 -0.6140
  974SOL    HW214559   3.827   3.652  17.016  1.0740  1.6494  0.6924
  975SOL     OW14560   1.017   1.004   5.328 -0.0725 -0.2078 -0.2842
  975SOL    HW114561   1.005   1.093   5.293 -1.2891 -0.8263 -1.4386
  975SOL    HW214562   0.960   0.957   5.267  0.0340  0.3890 -0.8526
  976SOL     OW14563   2.010   3.167  10.175 -0.3149 -0.0233  0.3664
  976SOL    HW114564   2.101   3.189  10.154 -0.2736 -0.6482 -0.0962
  976SOL    HW214565   2.019   3.147  10.268  2.4516 -1.1014 -0.1443
  977SOL     OW14566   2.356   4.167   5.939 -0.7029 -0.5145 -0.0489
  977SOL    HW114567   2.442   4.175   5.982 -0.8702 -0.0457  0.1969
  977SOL    HW214568   2.315   4.109   6.004 -0.3589 -0.5888  0.1065
  978SOL     OW14569   1.779   4.736   0.659 -0.3827 -0.4517 -0.0847
  978SOL    HW114570   1.762   0.089   0.673 -0.2532 -0.8888  2.9761
  978SOL    HW214571   1.862   0.007   0.614 -1.3140  0.7255 -1.5125
  979SOL     OW14572   2.007   4.203   7.453  0.1289 -0.0656  0.0730
  979SOL    HW114573   2.064   4.126   7.448  0.3630  0.1600 -0.6803
  979SOL    HW214574   2.069   4.265   7.492  0.8922 -1.0035  0.3407
  980SOL     OW14575   1.026   3.926  10.563 -0.3379 -0.1390  0.8140
  980SOL    HW114576   1.001   3.835  10.547 -1.6531  0.4742 -0.5042
  980SOL    HW214577   1.106   3.911  10.614 -1.4145  1.1028  2.8477
  981SOL     OW14578   0.690   1.383   3.969 -0.0706  0.0174 -0.1212
  981SOL    HW114579   0.738   1.394   4.051  2.1700  3.2460 -1.8875
  981SOL    HW214580   0.719   1.299   3.934  1.0531 -0.6007  2.3160
  982SOL     OW14581   3.048   2.497   4.040  0.1523 -0.3192  0.2681
  982SOL    HW114582   3.141   2.493   4.019  0.2793  0.1597  0.7250
  982SOL    HW214583   3.040   2.450   4.124  0.2753 -2.5606 -0.9595
  983SOL     OW14584   0.506   4.011   5.943  0.0712 -0.7743 -0.3563
  983SOL    HW114585   0.565   4.079   5.911 -1.7517  0.8329 -0.3472
  983SOL    HW214586   0.432   4.031   5.886 -0.4691  0.3437  0.7389
  984SOL     OW14587   2.719   0.360  14.976 -0.0137  0.0814  0.3184
  984SOL    HW114588   2.684   0.273  14.961 -0.2249  0.5599 -1.9669
  984SOL    HW214589   2.792   0.337  15.034  1.6692  0.7302 -1.5393
  985SOL     OW14590   3.474   1.434   4.065 -0.3442 -0.3345 -0.6739
  985SOL    HW114591   3.416   1.461   4.136 -1.9865  0.6364 -2.3763
  985SOL    HW214592   3.550   1.492   4.070 -1.9737  1.6546  1.1507
  986SOL     OW14593   1.438   2.251   7.662  0.4492  0.0714 -0.2060
  986SOL    HW114594   1.514   2.309   7.654  0.7047 -0.4912 -1.9299
  986SOL    HW214595   1.376   2.292   7.601 -1.6826  0.7156  2.3963
  987SOL     OW14596   1.637   2.922   3.203  0.1838  0.0602 -0.0392
  987SOL    HW114597   1.617   2.897   3.293 -0.1002 -0.8486 -0.3538
  987SOL    HW214598   1.686   3.000   3.231  0.5230  0.8224 -2.8121
  988SOL     OW14599   4.425   4.059   4.996  0.5539  0.3948  0.0606
  988SOL    HW114600   4.343   4.071   4.949  1.0240 -1.5431 -1.2774
  988SOL    HW214601   4.396   4.094   5.081 -0.5801 -0.1060 -0.1229
  989SOL     OW14602   2.684   1.046  11.423  0.0224  0.3050 -0.1991
  989SOL    HW114603   2.725   0.965  11.392 -0.5311 -0.2805  0.6243
  989SOL    HW214604   2.686   1.106  11.348  2.0546  1.1229  0.5031
  990SOL     OW14605   1.153   4.544   4.742 -0.4900  0.4007 -0.4962
  990SOL    HW114606   1.219   4.609   4.714  0.0416  0.5074  1.0250
  990SOL    HW214607   1.211   4.472   4.767 -1.5800 -1.2095 -2.5988
  991SOL     OW14608   3.441   2.186   4.827  0.0010  0.4165 -0.2246
  991SOL    HW114609   3.419   2.206   4.736 -1.2577 -0.0950 -0.0341
  991SOL    HW214610   3.429   2.271   4.870 -1.4389  0.7623 -1.2908
  992SOL     OW14611   4.694   3.451   4.654 -0.0128 -0.0889  0.2616
  992SOL    HW114612   0.021   3.394   4.692  0.8740  0.2454 -0.7771
  992SOL    HW214613   4.693   3.414   4.565  1.8397 -2.1716  1.1015
  993SOL     OW14614   0.116   3.377   8.504 -0.1840 -0.0683  0.1249
  993SOL    HW114615   0.028   3.378   8.542  0.6157  0.4684  1.9727
  993SOL    HW214616   0.109   3.445   8.437  0.7021  0.1843  0.2897
  994SOL     OW14617   3.319   2.642   0.773  0.3908  0.6249  0.1230
  994SOL    HW114618   3.274   2.591   0.705  0.4887 -0.0966  0.5984
  994SOL    HW214619   3.397   2.590   0.790  0.0318  0.8232  2.3319
  995SOL     OW14620   0.182   2.454   4.507  0.1958 -0.1420  0.4698
  995SOL    HW114621   0.254   2.405   4.548  0.7878 -0.6303 -1.1625
  995SOL    HW214622   0.238   2.502   4.446 -3.1516  1.7118 -1.0973
  996SOL     OW14623   3.460   1.042   3.540  0.0517  0.6164 -0.0093
  996SOL    HW114624   3.512   0.980   3.489 -0.9995  1.2841 -1.9027
  996SOL    HW214625   3.495   1.033   3.629  0.0552 -3.2431 -0.4043
  997SOL     OW14626   1.028   2.691   9.322  0.2013  0.2309  0.5592
  997SOL    HW114627   1.030   2.784   9.297 -2.3345  0.9980  3.2542
  997SOL    HW214628   1.100   2.702   9.384 -0.4875  1.8007  1.0943
  998SOL     OW14629   4.606   1.830   6.396  0.5507 -0.0711 -0.4418
  998SOL    HW114630   4.662   1.758   6.425  0.4266  0.3558  0.8816
  998SOL    HW214631   4.662   1.905   6.414 -0.8161  0.6123  1.0546
  999SOL     OW14632   0.672   1.328   8.384 -0.2553  0.3216  0.4314
  999SOL    HW114633   0.647   1.413   8.347 -2.8670  0.6414  2.8764
  999SOL    HW214634   0.764   1.326   8.358 -0.6248  0.1293 -0.8969
 1000SOL     OW14635   3.802   1.811   8.367  0.3827  0.1367  0.4983
 1000SOL    HW114636   3.842   1.728   8.341  1.2497  0.3165  1.2560
 1000SOL    HW214637   3.885   1.856   8.382  0.4226 -0.3554  1.8005
 1001SOL     OW14638   1.120   1.153  15.024 -0.5138  0.2641 -0.3700
 1001SOL    HW114639   1.144   1.151  15.116 -0.4443  1.1538 -0.3668
 1001SOL    HW214640   1.044   1.210  15.012  0.7144  1.2568 -3.4046
 1002SOL     OW14641   1.972   3.996   5.939  0.6859  0.1189  0.4646
 1002SOL    HW114642   1.933   4.055   5.875 -1.9469 -1.2873  0.7654
 1002SOL    HW214643   2.057   3.989   5.897 -0.3036  0.2894 -1.5511
 1003SOL     OW14644   0.396   3.208  17.630 -0.1296 -0.3789 -0.3643
 1003SOL    HW114645   0.409   3.144  17.700 -2.2744 -1.2701 -0.7850
 1003SOL    HW214646   0.467   3.183  17.570  1.0799 -1.0664  1.3585
 1004SOL     OW14647   2.428   2.201   5.295  0.1759 -0.2437  0.0209
 1004SOL    HW114648   2.381   2.164   5.370  0.7299  0.2400  0.6131
 1004SOL    HW214649   2.351   2.194   5.239 -0.9214 -1.4412  1.6499
 1005SOL     OW14650   1.268   0.895   8.233  0.1054 -0.0735  0.0239
 1005SOL    HW114651   1.276   0.948   8.312  1.8397  1.2675 -1.0496
 1005SOL    HW214652   1.234   0.816   8.274  0.5047 -1.4046 -2.2241
 1006SOL     OW14653   2.438   3.462   3.565 -0.4690 -1.1144  0.1152
 1006SOL    HW114654   2.427   3.415   3.647 -3.0012  2.0934  1.5839
 1006SOL    HW214655   2.347   3.483   3.545 -0.8822 -0.7671  2.4437
 1007SOL     OW14656   0.185   2.891   1.096 -0.0578  0.0497 -0.2325
 1007SOL    HW114657   0.234   2.966   1.128  1.2085 -1.6069  1.6597
 1007SOL    HW214658   0.114   2.883   1.160 -0.8333  1.2798 -0.9325
 1008SOL     OW14659   3.202   3.200   3.829 -0.5874 -0.3249  0.6959
 1008SOL    HW114660   3.259   3.132   3.795 -2.6919 -0.0509 -3.3965
 1008SOL    HW214661   3.236   3.278   3.785 -0.3248 -0.8494 -0.0263
 1009SOL     OW14662   0.520   0.051   6.740 -0.0028  0.4549 -0.4007
 1009SOL    HW114663   0.577   4.718   6.715 -0.4973 -0.5214  1.3277
 1009SOL    HW214664   0.490   0.031   6.828 -1.2176  2.0636 -0.4495
 1010SOL     OW14665   2.927   3.648   1.216 -0.0465 -0.5770  0.8961
 1010SOL    HW114666   2.944   3.601   1.297  3.7127  1.8923  1.5387
 1010SOL    HW214667   3.003   3.628   1.163 -0.3495  1.2892 -0.2450
 1011SOL     OW14668   1.477   3.397   8.241 -0.5054 -0.7437 -0.0404
 1011SOL    HW114669   1.559   3.444   8.256 -1.0965  1.0771 -2.5292
 1011SOL    HW214670   1.499   3.310   8.274 -1.4762 -1.5014 -1.3824
 1012SOL     OW14671   1.882   2.043   0.690 -0.4815 -0.1086 -0.2208
 1012SOL    HW114672   1.890   1.948   0.697  0.9722  0.1387  1.4675
 1012SOL    HW214673   1.970   2.062   0.722  0.2450 -3.2113 -0.3393
 1013SOL     OW14674   1.108   3.616  16.463 -0.1293 -0.4099  0.5926
 1013SOL    HW114675   1.019   3.622  16.428 -0.1615 -1.5481  0.4918
 1013SOL    HW214676   1.124   3.706  16.492  2.3571 -0.2508 -1.2680
 1014SOL     OW14677   2.130   4.410   3.336  0.0711  0.5602  0.2565
 1014SOL    HW114678   2.186   4.456   3.274 -0.9900  0.2882 -0.9073
 1014SOL    HW214679   2.131   4.473   3.408 -0.1835  0.2348  0.5450
 1015SOL     OW14680   1.259   1.276   1.362 -0.0271 -0.0945 -0.0891
 1015SOL    HW114681   1.260   1.204   1.425  0.7904  0.6100  0.7021
 1015SOL    HW214682   1.227   1.236   1.281 -2.6033  1.5499  0.1128
 1016SOL     OW14683   0.501   2.330   2.718 -0.3977  0.4607 -0.3624
 1016SOL    HW114684   0.434   2.277   2.674 -0.1389 -0.4790  0.3840
 1016SOL    HW214685   0.464   2.418   2.721  0.2131  0.7818 -2.4161
 1017SOL     OW14686   2.301   1.601  15.168  0.5476 -0.3106  0.0994
 1017SOL    HW114687   2.244   1.593  15.245 -0.4099  1.3234 -0.4452
 1017SOL    HW214688   2.241   1.561  15.104 -0.0863  0.0270  0.4777
 1018SOL     OW14689   2.130   2.007   6.003 -0.2233  0.0836 -0.3369
 1018SOL    HW114690   2.140   2.011   5.908 -1.0298  0.0403 -0.4260
 1018SOL    HW214691   2.174   2.090   6.023  0.2269  0.1513 -1.6135
 1019SOL     OW14692   4.139   0.690   2.992 -0.5238  0.2697 -0.0926
 1019SOL    HW114693   4.173   0.683   2.902  0.1024  1.7394  0.0350
 1019SOL    HW214694   4.164   0.612   3.041  1.0199  0.2666 -0.8719
 1020SOL     OW14695   4.665   4.105   2.115 -0.0911  0.4365 -0.1115
 1020SOL    HW114696   4.693   4.018   2.142 -0.0215  0.5455  0.1708
 1020SOL    HW214697   4.578   4.124   2.150  0.5195 -1.2040  2.2803
 1021SOL     OW14698   1.372   1.241   8.028 -0.0748 -0.2305  0.2186
 1021SOL    HW114699   1.435   1.283   7.971 -0.2784  1.3843  1.1941
 1021SOL    HW214700   1.381   1.146   8.021  2.2407 -0.1668  2.3756
 1022SOL     OW14701   3.374   1.202  14.734  0.0728 -0.4782  0.8076
 1022SOL    HW114702   3.350   1.195  14.642  1.7328 -0.9138  0.4074
 1022SOL    HW214703   3.469   1.192  14.731  0.2089  0.9233  0.4486
 1023SOL     OW14704   0.111   3.508  12.156 -0.2230 -0.8763  0.0770
 1023SOL    HW114705   0.044   3.468  12.211 -0.9834 -1.8953 -1.6014
 1023SOL    HW214706   0.154   3.569  12.216  2.1698 -0.0401 -2.4531
 1024SOL     OW14707   2.429   2.379   2.178  0.4308  0.2645 -0.1487
 1024SOL    HW114708   2.400   2.441   2.245  0.6620 -0.1814  0.3646
 1024SOL    HW214709   2.457   2.433   2.105 -0.0363 -0.4063 -0.8136
 1025SOL     OW14710   0.188   1.288   1.941  0.5895  0.4872  0.0208
 1025SOL    HW114711   0.113   1.299   2.000 -2.2872 -1.1426 -3.2960
 1025SOL    HW214712   0.213   1.200   1.968  2.9818  0.4747 -2.2674
 1026SOL     OW14713   1.719   1.798   4.992 -0.1538  0.3003  0.4475
 1026SOL    HW114714   1.718   1.859   4.919 -0.2440 -0.6488 -0.3371
 1026SOL    HW214715   1.625   1.791   5.009 -0.3795 -0.0316 -0.9374
 1027SOL     OW14716   2.637   4.412   6.241 -0.0436 -0.2813 -0.6629
 1027SOL    HW114717   2.605   4.362   6.316  0.4078  0.1736 -0.1665
 1027SOL    HW214718   2.663   4.496   6.278 -0.8403  0.8094 -2.6267
 1028SOL     OW14719   4.139   4.693   3.636 -0.0914  0.0100 -0.2786
 1028SOL    HW114720   4.075   4.624   3.649 -0.8825  0.6679 -0.6983
 1028SOL    HW214721   4.110   0.026   3.691  0.7895 -0.3677  0.6957
 1029SOL     OW14722   2.433   1.629   5.950 -0.0213  0.3761 -0.1698
 1029SOL    HW114723   2.363   1.603   6.010  0.2383  1.2260  0.5030
 1029SOL    HW214724   2.427   1.724   5.956 -1.5270  0.3161 -0.7309
 1030SOL     OW14725   2.189   3.952   7.102 -0.4750  0.0119  0.0245
 1030SOL    HW114726   2.259   4.015   7.087  0.1854 -0.9075 -0.7737
 1030SOL    HW214727   2.121   3.987   7.043  0.6234  1.9167 -0.1038
 1031SOL     OW14728   4.079   2.423   4.651  0.3295 -0.2160 -0.3475
 1031SOL    HW114729   4.019   2.391   4.583 -1.2418  1.8930  0.0139
 1031SOL    HW214730   4.051   2.372   4.727  0.4331  1.6575  0.9544
 1032SOL     OW14731   2.068   2.458   9.003  0.3231  0.2049  0.2297
 1032SOL    HW114732   2.145   2.410   8.973  1.3674  1.0216  1.6347
 1032SOL    HW214733   2.111   2.528   9.050  1.7402 -0.5011 -0.0073
 1033SOL     OW14734   3.766   0.985  15.875 -0.4157  0.2054 -0.0058
 1033SOL    HW114735   3.799   1.042  15.945 -1.0406  0.8869 -0.2639
 1033SOL    HW214736   3.720   1.046  15.817  2.1837 -1.1291 -3.4731
 1034SOL     OW14737   2.606   2.198   3.096  0.2500 -0.6960  0.2873
 1034SOL    HW114738   2.691   2.189   3.053  0.0799 -1.5632  0.1386
 1034SOL    HW214739   2.557   2.120   3.071 -0.7407  0.0351 -0.0680
 1035SOL     OW14740   2.174   0.648   2.793  0.7877  0.2598 -0.0709
 1035SOL    HW114741   2.197   0.577   2.854  2.2392  0.4973 -0.3387
 1035SOL    HW214742   2.135   0.717   2.846 -2.4309  0.3417 -2.5857
 1036SOL     OW14743   0.229   3.316  14.021 -0.4551  0.5231 -0.0601
 1036SOL    HW114744   0.300   3.349  13.966 -1.6624  0.1780 -1.8416
 1036SOL    HW214745   0.168   3.296  13.950 -0.4975  0.2493  0.0516
 1037SOL     OW14746   0.504   3.093   8.370  0.3844  0.6014  0.2604
 1037SOL    HW114747   0.438   3.107   8.439 -2.2417 -0.7324 -1.9837
 1037SOL    HW214748   0.583   3.140   8.395  0.2147  0.3572  1.2740
 1038SOL     OW14749   4.500   2.384   5.796 -0.3395 -0.5552  0.1975
 1038SOL    HW114750   4.509   2.478   5.780 -0.7605 -0.5105  0.2073
 1038SOL    HW214751   4.413   2.361   5.762 -1.1310  1.6993  0.6319
 1039SOL     OW14752   1.121   2.825   9.780  0.0647 -0.1904 -0.7689
 1039SOL    HW114753   1.107   2.890   9.710  1.2891  1.2603  0.3335
 1039SOL    HW214754   1.047   2.835   9.839 -1.4237 -2.2603 -2.3006
 1040SOL     OW14755   3.300   1.493  12.959  0.3222  0.1938 -0.0239
 1040SOL    HW114756   3.361   1.514  13.030  0.6452  0.8567 -0.4940
 1040SOL    HW214757   3.242   1.428  12.998  0.6503 -0.2959 -0.3432
 1041SOL     OW14758   2.079   1.282   2.129  0.4170 -0.3062 -0.0366
 1041SOL    HW114759   2.017   1.333   2.180  1.7007 -0.2321  1.4644
 1041SOL    HW214760   2.015   1.242   2.071 -0.2073 -1.7578  1.6587
 1042SOL     OW14761   2.153   2.688   4.522 -0.2461  0.6217 -0.1504
 1042SOL    HW114762   2.247   2.677   4.509 -0.3762  1.9109 -2.2480
 1042SOL    HW214763   2.161   2.784   4.529 -0.7501  0.6540 -0.0173
 1043SOL     OW14764   1.372   3.466  10.185 -0.2694  0.3743 -0.3274
 1043SOL    HW114765   1.330   3.451  10.269  0.1374 -0.8009 -0.3357
 1043SOL    HW214766   1.347   3.390  10.133 -4.0158  0.6159  1.1346
 1044SOL     OW14767   1.516   0.838  10.523 -0.5530 -0.0860  0.5670
 1044SOL    HW114768   1.468   0.788  10.589 -2.7658  0.4195 -0.6421
 1044SOL    HW214769   1.450   0.860  10.458  0.9331  0.1185 -0.8623
 1045SOL     OW14770   3.572   1.842   5.597 -0.8081 -0.4317 -0.3044
 1045SOL    HW114771   3.555   1.770   5.658 -1.6193  0.0958  0.0963
 1045SOL    HW214772   3.658   1.822   5.559 -1.3409  1.6949 -2.5513
 1046SOL     OW14773   1.174   1.109   3.386  0.3041  0.4541 -0.0241
 1046SOL    HW114774   1.149   1.121   3.294 -0.4375  1.6630  0.3296
 1046SOL    HW214775   1.265   1.086   3.369  0.3443  1.9970 -1.8612
 1047SOL     OW14776   0.517   4.287   4.392 -0.0675 -0.2546 -0.0338
 1047SOL    HW114777   0.529   4.305   4.485  2.9645 -0.2357 -0.4234
 1047SOL    HW214778   0.605   4.301   4.358 -1.3565 -0.8417 -3.6951
 1048SOL     OW14779   1.143   3.792   2.874 -1.1402 -0.3731  0.0831
 1048SOL    HW114780   1.074   3.763   2.934  0.6460  0.8101  2.7222
 1048SOL    HW214781   1.218   3.743   2.910  1.0930  0.5262 -3.3516
 1049SOL     OW14782   0.005   3.300   3.053 -0.2402  0.1596 -0.5379
 1049SOL    HW114783   0.015   3.220   3.103 -0.2070  0.3029 -0.3146
 1049SOL    HW214784   4.687   3.272   2.982 -1.9208  1.4796  0.3056
 1050SOL     OW14785   2.446   4.649   3.460  0.5766 -0.7531  0.4510
 1050SOL    HW114786   2.407   4.644   3.548  0.2356 -0.5813  0.3091
 1050SOL    HW214787   2.379   4.703   3.417  0.5808  0.4917  1.9725
 1051SOL     OW14788   0.713   4.057   5.737  0.0114  0.0930 -0.2073
 1051SOL    HW114789   0.669   4.141   5.750 -2.4634 -1.0761 -0.9155
 1051SOL    HW214790   0.642   4.003   5.703  0.3132  0.2059 -1.0176
 1052SOL     OW14791   1.821   3.517   5.330 -0.2145  0.3335  0.2258
 1052SOL    HW114792   1.902   3.523   5.380 -0.5340  1.3789  0.6131
 1052SOL    HW214793   1.778   3.445   5.377 -2.5594  1.9130  0.4825
 1053SOL     OW14794   4.566   1.929   9.870  0.0294  0.4132 -0.1851
 1053SOL    HW114795   4.600   1.858   9.815  0.4641  0.0969  0.4921
 1053SOL    HW214796   4.478   1.906   9.901  0.3283 -0.7334 -0.1688
 1054SOL     OW14797   2.786   2.457   4.337  0.3335 -0.1218 -0.0815
 1054SOL    HW114798   2.697   2.423   4.324 -0.7196  3.6469 -2.7645
 1054SOL    HW214799   2.760   2.538   4.380 -1.4566 -1.0881  0.6496
 1055SOL     OW14800   2.719   0.115   3.728  0.2017  0.2538 -0.3516
 1055SOL    HW114801   2.761   0.200   3.739 -1.1710  1.1909 -2.3889
 1055SOL    HW214802   2.699   0.096   3.820  2.8375 -1.6327 -0.1798
 1056SOL     OW14803   4.498   3.962   5.301  0.0358 -0.3117 -0.3160
 1056SOL    HW114804   4.533   4.035   5.352 -1.5511  0.1468  0.1025
 1056SOL    HW214805   4.571   3.948   5.240 -0.9133 -0.4997 -1.4087
 1057SOL     OW14806   1.340   4.430   5.410 -0.0202 -0.7129  0.3057
 1057SOL    HW114807   1.283   4.495   5.452 -0.2348 -1.1254  0.6496
 1057SOL    HW214808   1.417   4.477   5.377 -0.2367  0.3784  1.3543
 1058SOL     OW14809   0.397   0.235   7.329 -0.1803 -0.0875 -0.1002
 1058SOL    HW114810   0.439   0.150   7.342 -1.8959 -0.9517 -0.3170
 1058SOL    HW214811   0.463   0.287   7.376 -1.1115  1.7485 -0.8438
 1059SOL     OW14812   0.636   3.194   7.055 -0.4451  0.1451 -0.4477
 1059SOL    HW114813   0.547   3.170   7.081  0.3286 -1.8205  0.4052
 1059SOL    HW214814   0.619   3.258   6.987 -1.9103  1.2315  0.9271
 1060SOL     OW14815   2.428   1.695   6.956 -0.4648 -0.4466  0.2730
 1060SOL    HW114816   2.409   1.606   6.984 -0.7389 -1.1149 -2.0670
 1060SOL    HW214817   2.346   1.716   6.912  0.0433  0.6902 -0.1419
 1061SOL     OW14818   2.094   2.878   6.276  0.4268  0.0714  0.6650
 1061SOL    HW114819   2.136   2.793   6.265 -0.4323 -0.1948 -0.5864
 1061SOL    HW214820   2.007   2.840   6.265  1.1000 -0.7485 -1.8244
 1062SOL     OW14821   1.042   4.556  13.031 -0.3320 -0.8818 -0.2276
 1062SOL    HW114822   1.065   4.565  12.938  2.1397 -0.8268  0.3994
 1062SOL    HW214823   0.979   4.484  13.026 -1.6396  0.1626  1.0861
 1063SOL     OW14824   1.515   2.395   3.386  0.1993 -0.1417  0.2940
 1063SOL    HW114825   1.591   2.433   3.431 -0.2459 -0.0184  0.9368
 1063SOL    HW214826   1.525   2.302   3.408  0.7421  0.0281  0.7674
 1064SOL     OW14827   3.078   2.863   3.142  0.0376  0.1514 -0.3019
 1064SOL    HW114828   3.168   2.847   3.170 -0.0185  1.4797  0.6263
 1064SOL    HW214829   3.048   2.776   3.169 -0.1059  0.1848 -0.3542
 1065SOL     OW14830   4.649   3.684  12.690 -0.4980 -0.2523  0.1608
 1065SOL    HW114831   4.714   3.620  12.661 -0.0349  0.1875  0.2284
 1065SOL    HW214832   4.690   3.717  12.770  0.2361 -0.9845  0.0929
 1066SOL     OW14833   1.648   3.964  14.074 -0.5956 -0.2690 -0.2551
 1066SOL    HW114834   1.654   4.060  14.083  0.0567 -0.5434  2.0633
 1066SOL    HW214835   1.664   3.927  14.160 -1.7643  0.8400  0.4498
 1067SOL     OW14836   0.965   0.341   4.183  0.2981 -0.1100  0.2544
 1067SOL    HW114837   1.053   0.316   4.155 -0.4124 -1.3211 -0.9134
 1067SOL    HW214838   0.932   0.260   4.223  1.3575 -0.1391  1.0914
 1068SOL     OW14839   0.517   1.657   5.053 -0.5628  0.0441  0.6703
 1068SOL    HW114840   0.561   1.739   5.075  2.1735 -0.8778 -1.3641
 1068SOL    HW214841   0.497   1.615   5.136 -0.9891 -0.7812  0.1490
 1069SOL     OW14842   0.090   2.615   3.136 -0.2746 -0.8496 -0.0629
 1069SOL    HW114843   0.138   2.648   3.212 -1.4926 -2.2915  1.3625
 1069SOL    HW214844   0.084   2.691   3.079 -0.1471 -2.4447 -2.2116
 1070SOL     OW14845   4.159   3.942   2.716 -0.5094 -0.3552  0.4507
 1070SOL    HW114846   4.144   4.034   2.696  0.8368 -0.8529 -2.7103
 1070SOL    HW214847   4.074   3.906   2.689 -1.2770  1.9763 -0.1748
 1071SOL     OW14848   1.497   2.102   0.615 -0.3627  0.1977  0.3306
 1071SOL    HW114849   1.575   2.158   0.606 -1.0243  1.1624  0.5534
 1071SOL    HW214850   1.439   2.134   0.545 -2.6708 -0.9076  1.7468
 1072SOL     OW14851   4.384   3.600   8.106  0.2277 -0.1195 -0.1173
 1072SOL    HW114852   4.373   3.658   8.181 -1.6851 -0.0757 -0.4098
 1072SOL    HW214853   4.479   3.600   8.097  0.5158  1.8075  3.0179
 1073SOL     OW14854   2.154   1.135   5.846 -0.5860  0.4374 -0.2249
 1073SOL    HW114855   2.218   1.128   5.916  0.1252 -0.7575 -0.9847
 1073SOL    HW214856   2.216   1.152   5.774 -0.4956  0.7108 -0.0818
 1074SOL     OW14857   0.317   0.964  11.486 -0.3532  0.2011 -0.6814
 1074SOL    HW114858   0.403   0.927  11.467 -0.5705  0.7058 -2.6340
 1074SOL    HW214859   0.270   0.958  11.403 -3.4844  3.1331  0.8660
 1075SOL     OW14860   4.266   0.231   8.029  0.0183 -0.1580  0.6239
 1075SOL    HW114861   4.351   0.261   8.062  0.0697  1.2325 -0.7900
 1075SOL    HW214862   4.198   0.293   8.054  0.6035  0.0033  1.8028
 1076SOL     OW14863   1.414   3.203  12.598 -0.3342  0.0478 -0.3764
 1076SOL    HW114864   1.353   3.168  12.533 -0.3469  1.1264 -0.9614
 1076SOL    HW214865   1.416   3.151  12.678 -0.1653 -1.1856 -1.1917
 1077SOL     OW14866   2.634   2.843   8.437 -0.0877  0.0926 -0.0912
 1077SOL    HW114867   2.603   2.911   8.496  0.8281  1.1203 -0.7984
 1077SOL    HW214868   2.545   2.821   8.410 -0.0588  0.4649 -0.4752
 1078SOL     OW14869   2.480   1.715   1.570  0.3016  0.2689 -0.3783
 1078SOL    HW114870   2.524   1.630   1.571  1.3773  0.8156 -1.3964
 1078SOL    HW214871   2.411   1.688   1.510 -1.1811 -0.0587  1.4874
 1079SOL     OW14872   4.325   1.629   0.249 -0.2401  0.2534 -0.3668
 1079SOL    HW114873   4.302   1.580   0.328 -0.5613  1.4270  0.2723
 1079SOL    HW214874   4.420   1.637   0.261 -0.2867  0.6664 -0.2513
 1080SOL     OW14875   4.026   0.365   6.762 -0.2370 -0.3176 -0.8298
 1080SOL    HW114876   4.019   0.359   6.857 -2.9573 -0.6761 -1.0421
 1080SOL    HW214877   4.116   0.395   6.758 -0.0893 -0.4032  2.3198
 1081SOL     OW14878   2.443   1.199   2.649  0.0356  0.2684  0.0200
 1081SOL    HW114879   2.367   1.164   2.696 -0.4578  0.4166 -0.6712
 1081SOL    HW214880   2.408   1.234   2.568  1.3205 -0.0706 -0.6816
 1082SOL     OW14881   0.413   2.151  16.130 -0.0730 -0.3249  0.2728
 1082SOL    HW114882   0.318   2.143  16.139 -0.0294 -0.2161  0.8290
 1082SOL    HW214883   0.444   2.075  16.179  2.7092  1.3854  1.1868
 1083SOL     OW14884   3.352   4.689  10.750 -0.5567 -0.0455  0.3838
 1083SOL    HW114885   3.391   4.645  10.825 -0.8729  1.1577  1.2652
 1083SOL    HW214886   3.355   4.623  10.681  1.3369  0.3836  0.0793
 1084SOL     OW14887   3.502   2.532  12.437  0.2226  0.6694  0.3534
 1084SOL    HW114888   3.522   2.506  12.347  0.1804 -1.5369  0.9646
 1084SOL    HW214889   3.535   2.621  12.431 -1.1276  1.1230 -0.2588
 1085SOL     OW14890   3.336   2.811   1.050  0.1533  0.0189 -0.0341
 1085SOL    HW114891   3.337   2.753   1.126 -0.9238  0.8612  0.6234
 1085SOL    HW214892   3.356   2.753   0.978 -1.7210  0.5378 -0.9804
 1086SOL     OW14893   0.465   4.407   6.056  0.0458 -0.0406  0.2366
 1086SOL    HW114894   0.496   4.334   6.111  1.4938  0.1726 -0.2913
 1086SOL    HW214895   0.511   4.475   6.106 -0.3604 -1.3548  2.4052
 1087SOL     OW14896   2.859   0.294  15.460  0.4544 -0.1812  0.4350
 1087SOL    HW114897   2.824   0.383  15.468  0.8298  0.1270 -1.2982
 1087SOL    HW214898   2.839   0.270  15.370 -0.5365  1.8966  0.1027
 1088SOL     OW14899   1.371   2.652   1.767 -0.1188  0.4392  0.3234
 1088SOL    HW114900   1.420   2.703   1.831  0.7058 -0.0631  0.0945
 1088SOL    HW214901   1.340   2.720   1.707  1.9563  1.0527 -0.0500
 1089SOL     OW14902   2.790   0.932   3.386  0.2712  0.4171  0.4521
 1089SOL    HW114903   2.835   0.925   3.301 -1.1669 -1.4073 -0.1666
 1089SOL    HW214904   2.774   0.839   3.401 -0.1144  0.8394  2.6494
 1090SOL     OW14905   3.597   4.570   9.978 -0.0426  0.4248  0.1049
 1090SOL    HW114906   3.586   4.605  10.067 -0.0883 -0.1776  0.3324
 1090SOL    HW214907   3.682   4.526   9.978 -1.6872 -2.7535  2.6169
 1091SOL     OW14908   0.411   1.399   4.017 -0.1004  0.3642  0.3439
 1091SOL    HW114909   0.411   1.398   4.113 -1.6191 -0.0141  0.3473
 1091SOL    HW214910   0.503   1.396   3.992  0.3286  1.8722  1.7552
 1092SOL     OW14911   3.280   0.899   8.236  0.1213  0.0438 -0.2389
 1092SOL    HW114912   3.211   0.964   8.247  1.2571  1.3274 -0.6227
 1092SOL    HW214913   3.248   0.830   8.177  2.0082  0.0876 -1.3359
 1093SOL     OW14914   3.130   0.146  15.930  0.1555 -0.6943 -0.3194
 1093SOL    HW114915   3.207   0.094  15.910  1.1558  0.9626 -0.7732
 1093SOL    HW214916   3.090   0.142  15.843 -3.1822  0.3528  1.1376
 1094SOL     OW14917   1.675   2.414   7.671 -0.2649 -0.1002 -0.7667
 1094SOL    HW114918   1.758   2.460   7.679 -0.2459 -0.0005 -1.5247
 1094SOL    HW214919   1.702   2.326   7.645  1.5855  0.2247  0.1020
 1095SOL     OW14920   2.073   4.444   8.921  0.2981  0.3262 -0.0702
 1095SOL    HW114921   2.035   4.519   8.966 -1.1786 -0.9088  0.7790
 1095SOL    HW214922   2.168   4.452   8.928  0.5647 -2.8544 -0.0815
 1096SOL     OW14923   3.468   4.025  11.283 -0.4530  0.1187  0.4011
 1096SOL    HW114924   3.421   3.949  11.249  0.1825 -0.5679  1.0652
 1096SOL    HW214925   3.491   4.000  11.372 -1.3659 -0.7804  0.3873
 1097SOL     OW14926   2.660   4.597  13.039  0.2781  0.4640 -0.2234
 1097SOL    HW114927   2.610   4.657  13.095  0.7839 -1.3812  2.2162
 1097SOL    HW214928   2.616   4.604  12.955 -1.0207 -1.6494  0.2771
 1098SOL     OW14929   3.739   2.328   6.928 -0.5352 -0.6740 -0.5242
 1098SOL    HW114930   3.706   2.391   6.993  1.5681  0.0751 -0.1710
 1098SOL    HW214931   3.709   2.367   6.846 -1.0463  2.7421  1.2576
 1099SOL     OW14932   1.573   2.933  17.425  0.1250  0.2364  0.1096
 1099SOL    HW114933   1.650   2.927  17.367 -0.2835 -2.2942 -0.1542
 1099SOL    HW214934   1.566   2.844  17.459  1.9642  0.0581  0.0587
 1100SOL     OW14935   1.998   1.545   1.970  0.4056 -0.4547 -0.3730
 1100SOL    HW114936   2.004   1.630   1.927 -0.2373 -0.9511 -1.4382
 1100SOL    HW214937   1.907   1.551   1.998  0.1639  0.2034 -1.2956
 1101SOL     OW14938   4.599   1.232   2.605  0.3935 -0.5542 -0.2443
 1101SOL    HW114939   4.664   1.163   2.595 -0.2696 -1.5645  2.4313
 1101SOL    HW214940   4.521   1.179   2.624  0.7310 -0.5591  1.1180
 1102SOL     OW14941   3.203   3.346  15.551  0.0153  0.2358 -0.8641
 1102SOL    HW114942   3.298   3.341  15.544 -0.1266 -2.4228 -0.8148
 1102SOL    HW214943   3.202   3.406  15.625  0.9867 -0.0080 -0.6562
 1103SOL     OW14944   2.580   1.330   3.199  0.5987  0.5568 -0.5664
 1103SOL    HW114945   2.549   1.262   3.140  0.7232  0.1137 -0.1208
 1103SOL    HW214946   2.498   1.354   3.242  0.1976 -0.1591 -0.9276
 1104SOL     OW14947   3.426   2.604   6.992 -0.4657 -0.2653  0.2972
 1104SOL    HW114948   3.410   2.695   7.018  0.5603  0.3726 -1.3462
 1104SOL    HW214949   3.503   2.582   7.044 -1.3773 -0.9268  1.3715
 1105SOL     OW14950   3.039   1.619   4.988 -0.0275  0.2902  0.8036
 1105SOL    HW114951   3.125   1.653   4.966 -0.3080  0.3061 -0.2328
 1105SOL    HW214952   3.041   1.603   5.083 -1.7516  1.0232  0.9718
 1106SOL     OW14953   4.521   1.275   6.319 -0.8236 -0.7983 -0.3953
 1106SOL    HW114954   4.508   1.370   6.323  1.2266 -0.4891 -0.8564
 1106SOL    HW214955   4.439   1.256   6.274 -2.1965 -0.9754  2.1777
 1107SOL     OW14956   2.249   0.131   4.526 -0.2523  0.1369 -0.8267
 1107SOL    HW114957   2.263   0.052   4.578 -0.0267 -0.2414 -1.4715
 1107SOL    HW214958   2.262   0.195   4.596  1.0693  1.3136 -2.1470
 1108SOL     OW14959   0.021   2.898   6.407  0.1569 -0.5094 -0.4440
 1108SOL    HW114960   0.111   2.926   6.426 -0.3461  0.4321  0.5669
 1108SOL    HW214961   0.024   2.802   6.401  1.7943 -0.2941 -3.1543
 1109SOL     OW14962   2.501   3.125   6.165  0.0357 -0.4238 -0.6070
 1109SOL    HW114963   2.417   3.084   6.148  0.2583 -0.5863 -1.3453
 1109SOL    HW214964   2.474   3.211   6.195  2.6178  0.6588 -1.3218
 1110SOL     OW14965   2.305   1.332   8.332 -0.2939  0.0386 -0.3853
 1110SOL    HW114966   2.258   1.415   8.342  0.4522  0.3845  0.3544
 1110SOL    HW214967   2.372   1.364   8.272  2.8525 -1.1389  2.4747
 1111SOL     OW14968   2.146   0.415  11.965  0.2357  0.9006 -0.1566
 1111SOL    HW114969   2.216   0.350  11.963 -0.0775  0.6167 -1.7251
 1111SOL    HW214970   2.197   0.490  11.998 -1.0959  1.6797  0.1162
 1112SOL     OW14971   2.573   1.915   5.613  0.1165 -0.4791 -0.3806
 1112SOL    HW114972   2.517   1.847   5.649  0.3326 -0.3810  0.1465
 1112SOL    HW214973   2.650   1.906   5.669  0.9566 -2.0982 -1.8211
 1113SOL     OW14974   0.534   0.624   1.397  0.5352 -0.2355  0.0305
 1113SOL    HW114975   0.441   0.599   1.399  0.1359  1.2946  1.0793
 1113SOL    HW214976   0.542   0.661   1.309  2.7751  0.2722  0.4522
 1114SOL     OW14977   4.000   3.224  12.523  0.0402 -0.5487 -0.2455
 1114SOL    HW114978   4.016   3.253  12.613  1.9831 -2.1898 -0.0679
 1114SOL    HW214979   4.049   3.142  12.528  0.4147 -0.4479 -2.5191
 1115SOL     OW14980   1.196   1.688   2.368  0.5883  0.0623  0.2265
 1115SOL    HW114981   1.113   1.660   2.405  1.0060 -0.2702  0.8987
 1115SOL    HW214982   1.219   1.767   2.416 -0.0966  0.1657  0.3813
 1116SOL     OW14983   3.562   3.342   3.868  0.3129 -0.6250  0.3214
 1116SOL    HW114984   3.522   3.255   3.859  1.7264 -1.2139 -0.2092
 1116SOL    HW214985   3.636   3.313   3.922 -0.9919 -3.0420  0.8321
 1117SOL     OW14986   3.402   4.237  15.638 -0.0570 -0.1513  0.4388
 1117SOL    HW114987   3.436   4.184  15.566 -0.1822 -0.0904  0.3323
 1117SOL    HW214988   3.473   4.301  15.646 -0.0171  0.1865 -2.5040
 1118SOL     OW14989   1.498   4.257   5.557  0.3275 -0.1434 -0.3698
 1118SOL    HW114990   1.432   4.310   5.513  1.2874  0.5752 -0.9565
 1118SOL    HW214991   1.517   4.318   5.627 -2.0997 -1.6082  1.5310
 1119SOL     OW14992   1.337   1.887   6.132  0.0554 -0.0638  0.7035
 1119SOL    HW114993   1.301   1.975   6.120 -1.4375 -0.7336  0.2028
 1119SOL    HW214994   1.289   1.840   6.064  0.1536  0.9414 -0.0465
 1120SOL     OW14995   1.167   3.235   7.951  0.0873  0.2818 -0.0855
 1120SOL    HW114996   1.261   3.251   7.940 -0.0444  0.1898 -1.3861
 1120SOL    HW214997   1.155   3.144   7.921  0.3238  0.9439 -2.1823
 1121SOL     OW14998   3.065   4.191   0.031  0.0014  0.4184 -0.2409
 1121SOL    HW114999   3.122   4.119   0.058 -0.9362 -0.4243 -0.5180
 1121SOL    HW215000   3.125   4.265   0.023 -0.0841  0.6396  1.0957
 1122SOL     OW15001   2.487   0.872   2.404 -0.0693  0.3580  0.1972
 1122SOL    HW115002   2.405   0.873   2.452 -0.3618 -1.7126 -0.2495
 1122SOL    HW215003   2.549   0.888   2.474  0.6759  1.6065 -0.7519
 1123SOL     OW15004   2.864   2.857  13.438  0.3280 -0.2635 -0.3538
 1123SOL    HW115005   2.845   2.773  13.394 -2.6154  0.4923 -0.5311
 1123SOL    HW215006   2.865   2.828  13.529 -0.8624 -1.8815 -0.8324
 1124SOL     OW15007   4.229   0.369   6.484 -0.4774  0.3747  0.4712
 1124SOL    HW115008   4.253   0.362   6.577  2.6747 -2.9824 -0.6267
 1124SOL    HW215009   4.221   0.465   6.483  0.8096  0.5028  2.8966
 1125SOL     OW15010   1.010   0.702   2.175 -0.1609 -0.6942  0.1015
 1125SOL    HW115011   0.918   0.678   2.185 -0.7958  2.8012  2.4613
 1125SOL    HW215012   1.029   0.691   2.082  0.4262 -2.2045  0.3975
 1126SOL     OW15013   2.147   2.734   9.710  0.0717  0.7168  0.0119
 1126SOL    HW115014   2.199   2.711   9.787  0.2144 -2.2663 -0.9957
 1126SOL    HW215015   2.126   2.651   9.668  0.5493  1.0675 -0.9157
 1127SOL     OW15016   0.910   1.838   8.023  0.1983  0.2641  0.0401
 1127SOL    HW115017   0.821   1.868   8.043  0.9762  1.9136  0.9814
 1127SOL    HW215018   0.905   1.833   7.927 -0.0200  0.7525  0.0198
 1128SOL     OW15019   1.908   0.814   9.201 -0.3023  0.0743 -0.1894
 1128SOL    HW115020   1.856   0.895   9.192 -0.5977  0.1634  2.3582
 1128SOL    HW215021   1.983   0.846   9.250 -1.2213  2.2886 -0.1936
 1129SOL     OW15022   2.573   4.424   3.378  0.1285 -0.1428  0.3910
 1129SOL    HW115023   2.616   4.444   3.294 -0.5934 -0.4558 -0.0567
 1129SOL    HW215024   2.542   4.509   3.407  1.5332  0.4406  0.2061
 1130SOL     OW15025   4.322   1.047   1.219  0.7529 -0.0459  0.6155
 1130SOL    HW115026   4.264   1.087   1.154  0.0535 -1.5556  0.3292
 1130SOL    HW215027   4.308   1.113   1.287 -0.2898 -0.5557  0.8839
 1131SOL     OW15028   0.427   3.523  15.837 -0.0066  0.4730  0.7662
 1131SOL    HW115029   0.484   3.597  15.859 -0.4362  1.7078 -2.3314
 1131SOL    HW215030   0.472   3.440  15.849  0.6283  0.9370  1.6049
 1132SOL     OW15031   1.376   4.579  17.191  0.2196  0.7910 -0.0464
 1132SOL    HW115032   1.464   4.597  17.158  1.6929 -1.5329  2.6901
 1132SOL    HW215033   1.335   4.511  17.137 -1.4034  1.8567 -0.1775
 1133SOL     OW15034   3.108   1.372   1.820 -0.1414 -0.0820  0.4550
 1133SOL    HW115035   3.115   1.401   1.911  0.9655 -0.5246  0.5113
 1133SOL    HW215036   3.022   1.406   1.798 -0.6580 -0.7381  1.4222
 1134SOL     OW15037   1.190   1.889   6.701  0.0029  0.0755 -0.1448
 1134SOL    HW115038   1.275   1.928   6.681  0.8198 -0.2309  2.5719
 1134SOL    HW215039   1.132   1.964   6.695 -0.1116  0.0840  0.9822
 1135SOL     OW15040   4.662   2.776   2.665  0.0678  0.0864 -0.5572
 1135SOL    HW115041   4.637   2.780   2.758 -1.5149 -0.1396 -0.9740
 1135SOL    HW215042   4.722   2.701   2.660  2.2741  1.8765 -1.1915
 1136SOL     OW15043   1.691   2.588   7.937 -0.8272 -0.1413 -0.5902
 1136SOL    HW115044   1.720   2.668   7.980  1.2062 -0.0077 -2.2205
 1136SOL    HW215045   1.599   2.604   7.912 -1.3910  0.3108  1.7915
 1137SOL     OW15046   0.764   3.110   4.327 -0.5964 -0.2971  0.2611
 1137SOL    HW115047   0.817   3.057   4.387 -0.1212 -1.5798 -1.2980
 1137SOL    HW215048   0.691   3.143   4.378  0.3931  0.6711  1.0522
 1138SOL     OW15049   2.196   2.978   9.557 -0.3470 -0.2558  0.0010
 1138SOL    HW115050   2.282   2.954   9.521  0.2424 -2.4865  2.9455
 1138SOL    HW215051   2.179   2.901   9.610  1.0967  1.0723  2.3900
 1139SOL     OW15052   3.034   0.037   6.472 -0.5316 -0.1230  0.6920
 1139SOL    HW115053   3.034   0.090   6.393 -1.8920  1.4093  1.7397
 1139SOL    HW215054   3.030   4.689   6.434 -0.3284  0.8183 -1.5163
 1140SOL     OW15055   0.769   3.614  10.190  0.2083 -0.1354 -0.2333
 1140SOL    HW115056   0.850   3.571  10.215  0.1629  0.9640  1.7604
 1140SOL    HW215057   0.728   3.552  10.129 -0.9168 -0.2939  0.6828
 1141SOL     OW15058   2.773   0.675   1.320  0.6335 -0.2734  0.3041
 1141SOL    HW115059   2.821   0.693   1.239  3.3343 -0.3466  1.8785
 1141SOL    HW215060   2.802   0.749   1.373 -0.4435  0.3706 -0.0101
 1142SOL     OW15061   3.256   3.296   4.405 -0.3571 -0.1162 -0.0716
 1142SOL    HW115062   3.238   3.247   4.325 -0.5590 -1.8074  1.0243
 1142SOL    HW215063   3.176   3.283   4.456 -0.0922 -1.0680  0.0964
 1143SOL     OW15064   3.254   4.460   6.575 -0.6681 -0.6391 -0.3089
 1143SOL    HW115065   3.340   4.468   6.534  0.4154  0.5109  2.2104
 1143SOL    HW215066   3.206   4.434   6.497  1.0218 -4.0774 -0.1749
 1144SOL     OW15067   2.657   1.334  13.962 -0.0595  0.5386 -0.0111
 1144SOL    HW115068   2.585   1.339  13.898 -1.0082  0.7080  1.0703
 1144SOL    HW215069   2.608   1.296  14.034  0.5337  0.4149  0.3254
 1145SOL     OW15070   0.843   2.031   4.188  0.3565 -0.0182  0.1486
 1145SOL    HW115071   0.771   1.977   4.221  0.2099 -0.6186 -1.1719
 1145SOL    HW215072   0.792   2.056   4.112 -0.6133  3.1460  1.8551
 1146SOL     OW15073   1.006   4.456   2.857 -0.2616 -0.6459 -0.0118
 1146SOL    HW115074   0.924   4.475   2.901 -0.7465 -0.2432 -1.0916
 1146SOL    HW215075   1.059   4.434   2.934 -1.5760 -0.7797  0.8410
 1147SOL     OW15076   0.627   4.591   6.174 -0.4829 -0.5830  0.1029
 1147SOL    HW115077   0.618   4.618   6.083  1.7776 -0.6465 -0.1312
 1147SOL    HW215078   0.633   4.669   6.229 -0.4143  0.5105 -1.4829
 1148SOL     OW15079   1.096   2.160   7.505  1.1997 -0.2396 -0.0450
 1148SOL    HW115080   1.154   2.120   7.440  1.0082  0.7037 -0.7973
 1148SOL    HW215081   1.122   2.252   7.502  0.6601 -0.1231 -1.0147
 1149SOL     OW15082   3.299   0.637   8.424  0.2338 -0.7103 -0.3078
 1149SOL    HW115083   3.300   0.707   8.490 -0.9454  1.3343 -2.4557
 1149SOL    HW215084   3.217   0.673   8.388  0.2419  1.6170  2.0396
 1150SOL     OW15085   2.682   0.448   7.451 -0.4154 -0.5420  0.0350
 1150SOL    HW115086   2.630   0.505   7.394  1.7505  1.1300 -0.2460
 1150SOL    HW215087   2.685   0.365   7.402  0.6136 -0.6391  0.2771
 1151SOL     OW15088   3.792   3.149   0.227 -0.0731  0.3121 -0.1629
 1151SOL    HW115089   3.708   3.112   0.255 -0.0693  0.1664 -0.3455
 1151SOL    HW215090   3.791   3.235   0.270 -0.8662 -0.4705  1.3617
 1152SOL     OW15091   2.186   3.716   9.265  0.0440  0.0864  0.3603
 1152SOL    HW115092   2.279   3.737   9.272  0.0438  0.0077  0.6146
 1152SOL    HW215093   2.177   3.628   9.303 -0.3817 -1.4535 -3.3298
 1153SOL     OW15094   3.709   3.707   9.813  0.4014 -0.0895  0.1581
 1153SOL    HW115095   3.642   3.771   9.790 -0.5742 -1.5425 -1.0815
 1153SOL    HW215096   3.779   3.755   9.857  0.0608  0.4023  0.1643
 1154SOL     OW15097   2.409   2.605   3.612  0.2270  0.2484 -0.7912
 1154SOL    HW115098   2.502   2.613   3.589  0.4652 -1.6623 -0.5599
 1154SOL    HW215099   2.410   2.660   3.690  2.1962 -2.1758  0.9198
 1155SOL     OW15100   1.820   4.163   5.776  0.2571 -0.1086 -0.6817
 1155SOL    HW115101   1.727   4.151   5.797  0.4555 -0.5126 -0.0523
 1155SOL    HW215102   1.823   4.145   5.682  1.5480 -3.4582  0.0146
 1156SOL     OW15103   0.019   3.815   9.251 -0.1614 -0.9765 -0.2509
 1156SOL    HW115104   0.089   3.878   9.235 -0.4141 -0.8047 -0.6819
 1156SOL    HW215105   4.688   3.858   9.202  2.1743  1.1169 -1.7796
 1157SOL     OW15106   0.857   0.530   8.663  0.0591  0.2695 -0.7759
 1157SOL    HW115107   0.915   0.454   8.658 -0.8638 -0.5095  0.1660
 1157SOL    HW215108   0.858   0.546   8.758 -2.4942  0.1512 -0.7181
 1158SOL     OW15109   4.109   2.665   8.088  0.1915  0.4069 -0.3946
 1158SOL    HW115110   4.072   2.751   8.107  1.0989  0.2016  2.3450
 1158SOL    HW215111   4.177   2.685   8.023 -0.6904 -0.6227 -1.6205
 1159SOL     OW15112   0.179   0.394   4.298 -0.4214  0.3163 -0.4361
 1159SOL    HW115113   0.088   0.368   4.314 -0.8548  1.7731 -0.5966
 1159SOL    HW215114   0.163   0.488   4.301 -0.7078  0.2937 -1.3721
 1160SOL     OW15115   1.293   1.984   5.546  0.9332  0.0424  0.2193
 1160SOL    HW115116   1.332   2.013   5.628  1.0625 -0.3540  0.3022
 1160SOL    HW215117   1.218   1.932   5.576 -0.2513 -0.0212 -2.8511
 1161SOL     OW15118   0.040   1.162   0.244  0.4756 -0.1489  0.3085
 1161SOL    HW115119   0.042   1.073   0.278  1.0181  0.1496  1.0510
 1161SOL    HW215120   0.101   1.207   0.303  0.4977 -1.0280  0.9639
 1162SOL     OW15121   2.079   1.522   2.362  0.4193 -0.4176 -0.2174
 1162SOL    HW115122   2.007   1.537   2.300 -0.3293 -1.0038  0.5056
 1162SOL    HW215123   2.147   1.554   2.303  1.3271 -0.4083  0.8404
 1163SOL     OW15124   1.315   3.992   5.233 -0.0867  0.4643 -0.0778
 1163SOL    HW115125   1.402   3.976   5.270 -0.2114  0.9478  0.4303
 1163SOL    HW215126   1.298   4.086   5.245 -1.1614  0.1654  0.6933
 1164SOL     OW15127   4.271   1.996   0.112  0.1423 -0.3691  0.7146
 1164SOL    HW115128   4.311   1.921   0.067  0.4707  1.6164 -2.3510
 1164SOL    HW215129   4.351   2.029   0.153  0.4554 -0.4946  0.2125
 1165SOL     OW15130   3.684   0.756   9.551  0.7630  0.6522  0.7178
 1165SOL    HW115131   3.664   0.675   9.598  1.3625 -1.0938 -2.0022
 1165SOL    HW215132   3.640   0.729   9.470 -1.3001 -1.4731  2.5917
 1166SOL     OW15133   2.157   3.749  11.458 -0.1875  0.5422  0.5380
 1166SOL    HW115134   2.149   3.696  11.379 -0.9355  4.0633 -1.7822
 1166SOL    HW215135   2.250   3.768  11.464 -0.9375  3.5268  2.8722
 1167SOL     OW15136   0.987   2.234   3.148  0.0484  0.0964 -0.0014
 1167SOL    HW115137   0.959   2.234   3.057 -0.0986 -3.7517  0.0503
 1167SOL    HW215138   0.925   2.295   3.186 -1.4227 -1.4369  0.0723
 1168SOL     OW15139   4.319   3.656   3.939  0.5945 -0.4848 -0.3454
 1168SOL    HW115140   4.302   3.574   3.893  3.8222 -2.2564  1.6380
 1168SOL    HW215141   4.359   3.623   4.019  2.7517  3.0046  0.0245
 1169SOL     OW15142   1.733   0.837   4.035  0.4904 -0.2967  0.3710
 1169SOL    HW115143   1.706   0.819   3.945  0.8002  0.7586  0.0693
 1169SOL    HW215144   1.799   0.905   4.030  0.4282 -0.3262 -0.9376
 1170SOL     OW15145   4.032   1.103   3.631  0.4170  0.9402 -0.3621
 1170SOL    HW115146   3.984   1.077   3.709 -0.2923  0.6785 -0.8856
 1170SOL    HW215147   3.987   1.183   3.604 -1.2933  1.1005  2.9723
 1171SOL     OW15148   4.201   2.746  11.181  0.2532 -0.4807 -0.5211
 1171SOL    HW115149   4.225   2.791  11.262 -0.0853 -0.9267 -0.1736
 1171SOL    HW215150   4.282   2.748  11.130  1.1751  1.4383  1.0014
 1172SOL     OW15151   2.198   2.542   6.817 -0.1099 -0.0414  0.1812
 1172SOL    HW115152   2.149   2.606   6.765  0.5168  1.2653  1.2041
 1172SOL    HW215153   2.176   2.467   6.761  1.4070 -0.3075 -0.0578
 1173SOL     OW15154   3.744   2.550   4.776 -0.0881 -0.0110  0.2383
 1173SOL    HW115155   3.702   2.580   4.696 -2.1026 -1.3393  0.7906
 1173SOL    HW215156   3.686   2.591   4.841  0.8637  2.0493 -0.2336
 1174SOL     OW15157   3.155   3.164   7.678 -0.1106 -0.0387 -0.0174
 1174SOL    HW115158   3.136   3.166   7.584 -0.7713 -0.1269  0.1098
 1174SOL    HW215159   3.212   3.240   7.691  2.1930 -1.5713 -1.1622
 1175SOL     OW15160   3.019   0.178   5.501 -0.0424 -0.4154  0.1321
 1175SOL    HW115161   2.968   0.097   5.509 -0.8474  0.0143 -0.6762
 1175SOL    HW215162   2.953   0.228   5.454  1.5599  0.1837 -1.4624
 1176SOL     OW15163   1.891   1.778   1.608 -0.2864 -0.5918 -0.1757
 1176SOL    HW115164   1.850   1.842   1.549 -0.1624  0.6974  1.1257
 1176SOL    HW215165   1.928   1.719   1.543  0.6663 -0.2563  0.0694
 1177SOL     OW15166   3.587   4.328  10.776 -0.1007 -0.4633 -0.1576
 1177SOL    HW115167   3.524   4.329  10.848  1.4601  2.3036  1.1594
 1177SOL    HW215168   3.638   4.251  10.803 -1.3175 -1.7652 -1.5674
 1178SOL     OW15169   0.257   0.826   4.126  0.4276 -0.3630 -0.1480
 1178SOL    HW115170   0.210   0.905   4.102  0.6164 -0.2632 -0.1907
 1178SOL    HW215171   0.254   0.781   4.041  3.0622 -0.5596 -0.1375
 1179SOL     OW15172   1.787   0.213   7.907 -0.5100 -0.0620 -0.2535
 1179SOL    HW115173   1.801   0.172   7.992  0.6031  2.0640  0.5967
 1179SOL    HW215174   1.757   0.140   7.854  2.3775 -0.6162 -1.1499
 1180SOL     OW15175   1.215   1.833   2.104  0.4232 -0.1844 -0.1920
 1180SOL    HW115176   1.141   1.815   2.046 -1.5950  1.2018  1.9152
 1180SOL    HW215177   1.212   1.748   2.148 -1.4998  0.0926  0.2442
 1181SOL     OW15178   1.462   4.313   3.267  0.0318 -0.0018  0.7259
 1181SOL    HW115179   1.502   4.240   3.220 -0.1164  0.5310 -0.2315
 1181SOL    HW215180   1.488   4.380   3.203 -1.6785 -0.4866 -0.4879
 1182SOL     OW15181   3.449   4.179   6.948 -0.1503  0.3261  0.6881
 1182SOL    HW115182   3.365   4.224   6.952 -1.1020 -1.4855  1.2799
 1182SOL    HW215183   3.482   4.240   6.882  1.4442 -0.9708  0.2936
 1183SOL     OW15184   0.026   2.178   3.340 -0.2447 -0.1067  0.4213
 1183SOL    HW115185   4.728   2.265   3.336  0.9167  0.3403 -1.1523
 1183SOL    HW215186   0.099   2.192   3.401 -0.7452 -0.5855  1.1332
 1184SOL     OW15187   1.416   2.420  15.842 -0.0237 -0.0817  0.1203
 1184SOL    HW115188   1.328   2.443  15.874 -0.7506 -0.9565 -1.2674
 1184SOL    HW215189   1.395   2.392  15.753  2.4048  1.1235 -0.8149
 1185SOL     OW15190   0.868   0.089   2.809  0.3741  0.3471 -0.0006
 1185SOL    HW115191   0.942   0.140   2.842 -0.1733  0.1206  1.6089
 1185SOL    HW215192   0.902   0.055   2.726  1.5827 -0.0610  0.6616
 1186SOL     OW15193   1.962   2.981   8.355 -0.0628 -0.9730  0.2715
 1186SOL    HW115194   2.016   2.933   8.418  0.7717  0.4687  0.6457
 1186SOL    HW215195   2.027   3.035   8.311 -0.6571  0.3045  0.9826
 1187SOL     OW15196   4.313   0.570   3.970  0.5759  0.3428 -0.3718
 1187SOL    HW115197   4.241   0.587   3.908  0.4539  0.4061 -0.2129
 1187SOL    HW215198   4.390   0.608   3.929  0.9966 -1.6961 -1.5105
 1188SOL     OW15199   1.206   1.969   2.442  0.2882  0.3126  0.0507
 1188SOL    HW115200   1.126   1.958   2.493 -0.1274  1.2481 -0.3919
 1188SOL    HW215201   1.167   1.981   2.355  1.8206 -1.9206 -0.9426
 1189SOL     OW15202   4.129   0.313   8.706  0.1273 -0.0417  0.0349
 1189SOL    HW115203   4.150   0.265   8.626 -1.8654  0.0804 -0.5742
 1189SOL    HW215204   4.064   0.372   8.668  1.3887 -2.0090 -5.1063
 1190SOL     OW15205   0.326   1.203  12.554  0.2480  0.3021  0.8713
 1190SOL    HW115206   0.260   1.175  12.490  0.5259 -0.4751  0.9191
 1190SOL    HW215207   0.332   1.123  12.607  0.2739 -0.0245  0.3791
 1191SOL     OW15208   0.938   1.185  15.971 -0.0631 -0.0528  0.1600
 1191SOL    HW115209   0.912   1.247  15.902 -1.1338 -0.3128  0.3271
 1191SOL    HW215210   0.977   1.240  16.038  1.2582 -1.1418  0.3026
 1192SOL     OW15211   2.200   2.768   6.666  1.0162  0.0761  0.1621
 1192SOL    HW115212   2.255   2.840   6.635  0.5838  0.1098 -0.5439
 1192SOL    HW215213   2.118   2.809   6.641  0.6609 -0.7815 -0.0888
 1193SOL     OW15214   3.119   2.116  13.738  0.1370  0.0203  0.1278
 1193SOL    HW115215   3.113   2.148  13.828  0.6342  1.6275 -0.4155
 1193SOL    HW215216   3.115   2.192  13.681  1.2183  0.6947  0.9444
 1194SOL     OW15217   3.151   4.257   4.079 -0.9283  0.4847  0.2339
 1194SOL    HW115218   3.244   4.276   4.072 -0.7751 -0.2617  0.2629
 1194SOL    HW215219   3.104   4.339   4.065 -0.1522  1.1389  1.5066
 1195SOL     OW15220   0.816   1.699   9.364  0.2181 -0.5904  0.2087
 1195SOL    HW115221   0.781   1.721   9.278  2.3669  2.3766  0.1029
 1195SOL    HW215222   0.907   1.728   9.355 -1.0078  3.5376  1.2250
 1196SOL     OW15223   4.725   1.014  14.988  0.0188 -0.2781 -0.9344
 1196SOL    HW115224   0.018   1.026  14.899  0.6896 -1.6429 -0.8653
 1196SOL    HW215225   0.054   0.958  15.024 -0.1118  0.9089  1.1247
 1197SOL     OW15226   0.766   3.050   9.568 -0.2160 -0.0514 -0.1658
 1197SOL    HW115227   0.678   3.049   9.529 -0.7610  0.7486  1.0279
 1197SOL    HW215228   0.808   2.978   9.522  1.6160  1.0470 -0.2095
 1198SOL     OW15229   2.552   4.525  11.890 -1.1774 -0.2509  0.2314
 1198SOL    HW115230   2.524   4.554  11.804 -1.4461  0.4539  0.5544
 1198SOL    HW215231   2.519   4.435  11.897  0.0298 -0.5411  2.2200
 1199SOL     OW15232   2.841   1.738   6.493 -0.4213  0.2867  0.0233
 1199SOL    HW115233   2.755   1.780   6.490  0.1583  1.3807 -0.9868
 1199SOL    HW215234   2.901   1.808   6.470 -1.8357  0.6313 -2.6382
 1200SOL     OW15235   3.647   4.242  13.509 -0.5585 -0.2301 -0.1349
 1200SOL    HW115236   3.714   4.307  13.531  0.7972 -1.3621 -0.8999
 1200SOL    HW215237   3.677   4.170  13.564 -0.3937 -0.1401 -0.1066
 1201SOL     OW15238   3.299   4.259   8.445  0.1972  0.5629 -0.4213
 1201SOL    HW115239   3.258   4.191   8.391  0.9019 -1.0408  1.0590
 1201SOL    HW215240   3.256   4.336   8.409  0.8642  1.0626 -0.1452
 1202SOL     OW15241   1.857   4.652   7.846  0.0528 -0.1722 -0.6367
 1202SOL    HW115242   1.937   4.701   7.824  0.4005 -1.1546 -1.5286
 1202SOL    HW215243   1.889   4.566   7.873  1.9282  1.0733  1.1543
 1203SOL     OW15244   1.792   2.313   6.381 -0.4266  0.0727  0.1665
 1203SOL    HW115245   1.829   2.395   6.414 -0.1129 -1.3502  3.2518
 1203SOL    HW215246   1.747   2.343   6.301 -0.2321  0.0757  0.0580
 1204SOL     OW15247   4.407   0.776   9.736  0.4881  0.0336 -0.4861
 1204SOL    HW115248   4.322   0.817   9.728  0.0879 -0.1614  2.7336
 1204SOL    HW215249   4.427   0.795   9.828 -2.4827 -1.8445  0.5435
 1205SOL     OW15250   1.427   3.409  16.133 -0.0715  0.6352  0.4343
 1205SOL    HW115251   1.385   3.486  16.172  0.0127  1.1263 -0.4521
 1205SOL    HW215252   1.356   3.390  16.072  2.1580 -0.3453 -1.8096
 1206SOL     OW15253   3.550   4.730   8.250  0.3012  0.2315 -0.0445
 1206SOL    HW115254   3.603   0.062   8.285  0.3739  0.7387 -1.1987
 1206SOL    HW215255   3.566   4.733   8.156 -3.5805 -0.3366 -0.7199
 1207SOL     OW15256   4.506   2.063  12.659  0.3468  0.2502  0.6391
 1207SOL    HW115257   4.431   2.115  12.687 -0.1066 -0.7362  1.2589
 1207SOL    HW215258   4.500   1.990  12.721 -2.2289 -0.6759 -0.7082
 1208SOL     OW15259   2.354   0.559   9.058 -0.4222 -0.2278 -0.0865
 1208SOL    HW115260   2.285   0.520   9.004  0.4670 -0.7630 -0.8399
 1208SOL    HW215261   2.398   0.614   8.993 -0.9548 -1.9101 -1.8583
 1209SOL     OW15262   4.435   2.658  16.247 -0.5878  0.7413  0.0084
 1209SOL    HW115263   4.449   2.564  16.245  3.3017  1.3431 -1.2423
 1209SOL    HW215264   4.416   2.671  16.340  0.5197 -1.5258  0.5573
 1210SOL     OW15265   4.516   3.940  12.585  0.6447 -0.8068 -0.1810
 1210SOL    HW115266   4.544   4.010  12.644  0.9666 -0.9269 -0.1883
 1210SOL    HW215267   4.587   3.880  12.609  0.8429  0.7139  3.0434
 1211SOL     OW15268   4.648   4.411   8.178 -0.0458  0.2158 -0.1705
 1211SOL    HW115269   4.702   4.426   8.256 -0.0648  1.8390 -0.4604
 1211SOL    HW215270   4.598   4.491   8.163 -2.5539 -1.6846 -1.9035
 1212SOL     OW15271   0.209   0.791   5.734  0.0399 -0.7372 -0.8821
 1212SOL    HW115272   0.203   0.754   5.823 -0.7124 -2.3254 -1.5803
 1212SOL    HW215273   0.303   0.797   5.717 -0.0593 -0.8235 -1.4342
 1213SOL     OW15274   0.858   1.121   3.121 -0.3891  0.5508  0.1308
 1213SOL    HW115275   0.949   1.150   3.122  0.6515 -2.6703 -2.0070
 1213SOL    HW215276   0.813   1.205   3.135 -0.6320  0.4396  0.0168
 1214SOL     OW15277   1.440   0.907   8.014  0.2359 -0.2203 -0.1014
 1214SOL    HW115278   1.387   0.913   8.093  1.8620 -0.1061  0.9613
 1214SOL    HW215279   1.482   0.823   8.031  0.4611  0.0804  0.8263
 1215SOL     OW15280   0.153   4.684   8.589  0.8120 -1.1139  0.3293
 1215SOL    HW115281   0.069   4.657   8.553  1.1596 -0.4486 -0.9829
 1215SOL    HW215282   0.177   0.025   8.543  0.0391 -0.9195  0.2729
 1216SOL     OW15283   4.370   1.085   8.018 -0.2042 -0.3058 -0.4557
 1216SOL    HW115284   4.369   0.990   8.021  2.6841 -0.3582 -1.2468
 1216SOL    HW215285   4.285   1.098   7.976 -0.8615 -0.8791  0.6828
 1217SOL     OW15286   3.880   0.721   6.431  0.4434 -0.5112 -0.3356
 1217SOL    HW115287   3.865   0.700   6.523  0.4328  0.0116 -0.2187
 1217SOL    HW215288   3.800   0.770   6.415  0.1179 -1.3345 -1.2434
 1218SOL     OW15289   1.479   0.188   8.248 -0.1483  0.1479 -0.3977
 1218SOL    HW115290   1.450   0.121   8.186 -1.7708  0.0862  0.4251
 1218SOL    HW215291   1.513   0.133   8.319  2.0611  0.5828 -1.1426
 1219SOL     OW15292   3.125   1.936  11.431  0.0181 -0.2915 -0.7263
 1219SOL    HW115293   3.113   1.843  11.412  0.4042 -0.4316 -0.2831
 1219SOL    HW215294   3.194   1.921  11.495  0.5518 -0.0168 -1.2350
 1220SOL     OW15295   0.847   2.737   2.241  0.0745  0.4581  0.0057
 1220SOL    HW115296   0.840   2.826   2.275  2.8152  0.4460  0.5893
 1220SOL    HW215297   0.923   2.704   2.288 -0.6296  0.4559  1.1308
 1221SOL     OW15298   0.131   2.096   8.827  0.0253  0.4687 -0.5823
 1221SOL    HW115299   0.139   2.188   8.799  1.0595  0.4278 -0.4090
 1221SOL    HW215300   0.200   2.094   8.893  0.1142  1.6874 -0.6331
 1222SOL     OW15301   3.996   3.657  17.016  0.5800  0.0165  0.2551
 1222SOL    HW115302   4.056   3.705  16.959  0.3315 -0.6404 -0.5637
 1222SOL    HW215303   4.063   3.609  17.065 -0.4318  0.5055  2.0991
 1223SOL     OW15304   1.329   1.898   8.998 -0.4377  0.5928 -0.4461
 1223SOL    HW115305   1.276   1.873   8.922 -1.2048  2.1300 -0.4177
 1223SOL    HW215306   1.407   1.916   8.946  0.7205 -2.2182  0.3154
 1224SOL     OW15307   2.479   4.303   9.378  0.3698 -0.7389  0.3193
 1224SOL    HW115308   2.462   4.221   9.424 -1.3968 -1.2272 -1.1744
 1224SOL    HW215309   2.560   4.336   9.418  0.2518  0.1011 -0.1198
 1225SOL     OW15310   0.273   0.214   7.851  0.4709 -0.1167 -0.3126
 1225SOL    HW115311   0.318   0.150   7.905 -0.0220 -0.1667  0.0409
 1225SOL    HW215312   0.201   0.238   7.910 -0.1796  0.6065 -1.3866
 1226SOL     OW15313   3.511   1.581  17.673 -0.1011 -0.0912  0.0010
 1226SOL    HW115314   3.561   1.584  17.591  1.1551 -1.2811  0.7236
 1226SOL    HW215315   3.439   1.520  17.656 -1.8599  1.7647  0.9107
 1227SOL     OW15316   2.698   2.533   3.494  0.0960 -0.4844 -0.1362
 1227SOL    HW115317   2.665   2.500   3.410 -0.9528 -0.7740  0.3821
 1227SOL    HW215318   2.757   2.606   3.477  0.4642 -0.5445  0.8781
 1228SOL     OW15319   0.567   2.416   3.448  0.2445  0.2649  0.4749
 1228SOL    HW115320   0.622   2.341   3.471  0.6099  0.1834 -0.6724
 1228SOL    HW215321   0.636   2.482   3.449  2.1347 -1.6965 -1.1369
 1229SOL     OW15322   2.899   0.889  12.602 -0.0234  0.6308  1.1541
 1229SOL    HW115323   2.966   0.853  12.661  0.9545  1.3332  0.4624
 1229SOL    HW215324   2.892   0.819  12.537  0.0324  1.2978  0.4317
 1230SOL     OW15325   2.871   1.986  11.696 -0.0037 -0.4997 -0.3558
 1230SOL    HW115326   2.951   1.938  11.717  0.5126  0.3250 -0.4414
 1230SOL    HW215327   2.869   2.038  11.777 -0.0114  1.2732 -1.4969
 1231SOL     OW15328   0.832   1.486  16.873  0.2507 -0.5873  0.5190
 1231SOL    HW115329   0.842   1.397  16.906 -0.2796 -1.2846 -1.1993
 1231SOL    HW215330   0.925   1.505  16.860  0.1675  0.6115  1.7414
 1232SOL     OW15331   3.446   2.646  14.427 -0.5057 -0.4448  0.2526
 1232SOL    HW115332   3.447   2.593  14.507  1.0570 -0.9736 -0.1201
 1232SOL    HW215333   3.469   2.730  14.467 -0.9176  0.0616 -0.5785
 1233SOL     OW15334   1.459   2.685   8.555 -0.1157 -0.4571  0.5879
 1233SOL    HW115335   1.433   2.720   8.640 -1.3460 -0.9689  0.4219
 1233SOL    HW215336   1.549   2.716   8.545 -0.7717  0.4242 -2.8042
 1234SOL     OW15337   1.239   2.772   5.293  0.0688 -0.3889 -0.1867
 1234SOL    HW115338   1.182   2.739   5.362 -0.1277  0.8588  0.2371
 1234SOL    HW215339   1.176   2.818   5.238  0.6136  1.8310  1.0868
 1235SOL     OW15340   2.318   0.454  16.074 -0.1363 -0.2939  0.0181
 1235SOL    HW115341   2.233   0.483  16.039  0.5144  2.2303  0.5371
 1235SOL    HW215342   2.384   0.523  16.084  0.3562 -0.6334 -0.8919
 1236SOL     OW15343   2.857   2.545   1.547 -0.2637  0.1862  0.1451
 1236SOL    HW115344   2.810   2.490   1.610  1.7950 -1.8037 -0.0570
 1236SOL    HW215345   2.875   2.625   1.596  0.0285  0.9481 -1.2035
 1237SOL     OW15346   0.365   3.893   2.327 -0.6453 -0.1301  0.2474
 1237SOL    HW115347   0.280   3.934   2.314 -0.0673  0.8267 -0.4705
 1237SOL    HW215348   0.429   3.964   2.335  1.0435 -1.6190 -0.0407
 1238SOL     OW15349   3.897   2.628  16.584 -0.0126  0.5081 -0.5515
 1238SOL    HW115350   3.923   2.698  16.524  0.9119 -0.0980 -0.8472
 1238SOL    HW215351   3.932   2.665  16.665 -0.0124  1.7823 -1.1220
 1239SOL     OW15352   4.087   3.182   8.582 -0.4155  0.1527  0.5597
 1239SOL    HW115353   4.084   3.278   8.576  1.3276  0.1507 -0.3235
 1239SOL    HW215354   4.181   3.169   8.592 -0.3321  1.3374  1.4026
 1240SOL     OW15355   3.124   1.882  14.576 -0.1017  0.5157  0.5992
 1240SOL    HW115356   3.135   1.977  14.576  1.2070  0.3775 -1.5506
 1240SOL    HW215357   3.043   1.863  14.529 -0.3409  1.4946  0.6191
 1241SOL     OW15358   4.310   2.142  10.184  0.0486 -0.7790  0.1496
 1241SOL    HW115359   4.344   2.103  10.264  0.9998  1.8788  1.0463
 1241SOL    HW215360   4.223   2.104  10.172 -0.1817 -0.3354  0.3896
 1242SOL     OW15361   0.828   2.007   2.218 -0.2745 -0.0796 -0.4123
 1242SOL    HW115362   0.739   2.015   2.184 -0.0613  1.6081 -0.6126
 1242SOL    HW215363   0.817   2.032   2.310  1.1482 -1.8060  0.2179
 1243SOL     OW15364   1.150   0.996   1.902 -0.5768  0.0465 -0.3356
 1243SOL    HW115365   1.107   1.042   1.831  0.2217 -1.6390 -1.9280
 1243SOL    HW215366   1.213   0.938   1.858 -0.2456 -0.0999  0.3238
 1244SOL     OW15367   3.368   1.750  10.116  0.5099  0.2170  0.0717
 1244SOL    HW115368   3.401   1.720  10.200  0.5139 -3.2106 -1.1814
 1244SOL    HW215369   3.333   1.835  10.143  0.1560 -0.4308  1.6393
 1245SOL     OW15370   2.281   2.265   8.080 -0.0681 -0.3317 -0.0260
 1245SOL    HW115371   2.229   2.338   8.048  0.8705  0.1298 -0.4904
 1245SOL    HW215372   2.208   2.212   8.111 -0.0170  0.4747  1.4887
 1246SOL     OW15373   1.256   1.379   4.204  0.5718  0.2869 -0.1774
 1246SOL    HW115374   1.300   1.363   4.120  2.0917 -0.9644  0.8732
 1246SOL    HW215375   1.320   1.437   4.245  0.2403  0.1272  0.5619
 1247SOL     OW15376   2.097   4.169   1.377  0.8766 -0.3384  0.2199
 1247SOL    HW115377   2.165   4.204   1.320  1.0333 -0.3173  0.4201
 1247SOL    HW215378   2.028   4.149   1.314  0.3091  0.5766  0.5430
 1248SOL     OW15379   3.355   3.584   8.687 -0.5878 -0.6012 -0.3838
 1248SOL    HW115380   3.438   3.611   8.646  0.0583  0.1031  1.3842
 1248SOL    HW215381   3.315   3.517   8.633 -0.6687 -1.3851  0.6577
 1249SOL     OW15382   4.220   2.115  12.705  0.5848  0.0860 -0.0794
 1249SOL    HW115383   4.245   2.207  12.695  0.2456  0.2793  0.8628
 1249SOL    HW215384   4.242   2.098  12.797  1.9257 -1.1054 -0.6333
 1250SOL     OW15385   0.561   4.272   5.816  0.3693 -0.1024 -0.2462
 1250SOL    HW115386   0.494   4.308   5.757  1.2555 -0.0201 -1.1954
 1250SOL    HW215387   0.537   4.326   5.892  1.7057  1.4040 -0.9072
 1251SOL     OW15388   3.337   2.551   4.472 -1.1521 -0.1432  0.2501
 1251SOL    HW115389   3.331   2.597   4.389 -1.6959 -0.7630 -0.0515
 1251SOL    HW215390   3.254   2.558   4.520 -1.4487  0.8784 -0.4336
 1252SOL     OW15391   3.451   2.042   5.777  0.3866 -0.1449  0.5118
 1252SOL    HW115392   3.445   1.994   5.859  0.1125  0.0728  0.6185
 1252SOL    HW215393   3.485   1.978   5.714 -2.5078 -0.3459 -0.8660
 1253SOL     OW15394   2.147   2.812  17.721  0.5082  0.1911 -0.4494
 1253SOL    HW115395   2.208   2.742  17.746 -0.1417  0.1226  0.9691
 1253SOL    HW215396   2.174   2.893   0.007  2.3934 -0.7523  0.1300
 1254SOL     OW15397   3.422   1.630   6.616 -0.0585 -0.2180  0.1617
 1254SOL    HW115398   3.462   1.543   6.614  0.8778  0.1828  1.2877
 1254SOL    HW215399   3.361   1.614   6.688 -0.3762  1.4987  0.2801
 1255SOL     OW15400   3.201   3.452   3.638  0.0244 -0.6271 -0.9501
 1255SOL    HW115401   3.170   3.504   3.712  1.3218  1.0289 -1.5585
 1255SOL    HW215402   3.165   3.508   3.569 -3.0530 -2.3505 -0.7201
 1256SOL     OW15403   2.754   4.690  17.094 -0.3524 -0.0081 -0.2807
 1256SOL    HW115404   2.800   4.611  17.066 -1.3293 -0.4858 -0.5214
 1256SOL    HW215405   2.675   4.652  17.133  0.8919 -1.8667  0.4171
 1257SOL     OW15406   0.431   3.249   3.020 -0.4621  0.6099 -0.6963
 1257SOL    HW115407   0.499   3.192   2.985 -0.9828 -1.0780  1.0442
 1257SOL    HW215408   0.454   3.333   2.980  1.7264 -0.6653 -2.0576
 1258SOL     OW15409   0.088   1.810  10.485  0.0972 -0.4095  0.4046
 1258SOL    HW115410   0.171   1.771  10.456 -0.3871 -0.5146 -0.8462
 1258SOL    HW215411   0.102   1.895  10.443  0.8988 -0.8808 -0.2760
 1259SOL     OW15412   3.081   4.335   5.180 -0.3255  0.1849  0.1713
 1259SOL    HW115413   3.089   4.334   5.085 -2.4724  1.4242 -0.0327
 1259SOL    HW215414   3.154   4.277   5.203 -0.4099  0.3132  0.7597
 1260SOL     OW15415   2.804   3.492   0.182  0.0961  0.0977 -0.7379
 1260SOL    HW115416   2.798   3.397   0.182  0.1297  0.0931  0.2469
 1260SOL    HW215417   2.876   3.497   0.120 -1.1637  0.9366 -2.1440
 1261SOL     OW15418   4.220   3.671   2.977  0.5319 -0.2355 -0.6974
 1261SOL    HW115419   4.236   3.740   3.042  0.1007 -0.7710 -0.0268
 1261SOL    HW215420   4.274   3.703   2.905 -1.9439 -1.2083 -2.9810
 1262SOL     OW15421   0.860   2.305  12.464  0.1673  0.2519  0.2855
 1262SOL    HW115422   0.794   2.375  12.465  0.6908  0.7526 -0.0444
 1262SOL    HW215423   0.802   2.236  12.433  2.4725 -0.5719 -2.1669
 1263SOL     OW15424   3.614   1.682   7.063  0.9171 -0.0105 -0.9723
 1263SOL    HW115425   3.587   1.692   6.971 -0.0364 -1.3347 -0.8338
 1263SOL    HW215426   3.535   1.704   7.113 -0.3888 -1.2143 -2.5021
 1264SOL     OW15427   1.762   1.279  14.069  0.0384 -0.3961  0.3621
 1264SOL    HW115428   1.789   1.307  14.156  2.4407  0.9805 -0.8480
 1264SOL    HW215429   1.693   1.218  14.096  2.4258 -3.9388 -1.4671
 1265SOL     OW15430   1.337   3.379   7.054 -0.1585  0.0865 -0.0566
 1265SOL    HW115431   1.362   3.375   7.146 -0.0096 -2.2509 -0.1894
 1265SOL    HW215432   1.416   3.350   7.008  0.0310  0.3009  0.1342
 1266SOL     OW15433   2.294   3.518   8.853  0.1166  0.4555  0.1731
 1266SOL    HW115434   2.388   3.536   8.843 -0.4018  1.5010 -3.0361
 1266SOL    HW215435   2.294   3.428   8.821 -0.0880  0.4863  0.0879
 1267SOL     OW15436   1.717   0.996   7.894  0.3475  0.2494 -0.5181
 1267SOL    HW115437   1.729   0.904   7.869  2.3807  0.6087 -0.8774
 1267SOL    HW215438   1.644   0.990   7.956  0.4818 -0.8000 -0.4672
 1268SOL     OW15439   2.760   3.349   4.691  0.0970 -0.3182  0.3316
 1268SOL    HW115440   2.751   3.396   4.608 -1.0276  0.5687  0.9469
 1268SOL    HW215441   2.666   3.347   4.711 -0.2258 -1.3782 -1.2357
 1269SOL     OW15442   3.164   1.118  12.725  0.5403 -0.2361  0.0127
 1269SOL    HW115443   3.238   1.175  12.704  0.6247 -0.0229  0.8684
 1269SOL    HW215444   3.106   1.150  12.656  0.7947 -0.5802 -0.3515
 1270SOL     OW15445   4.691   3.815  11.125  0.3621 -0.8583  0.0622
 1270SOL    HW115446   0.035   3.829  11.082  0.3322  0.4021  0.4146
 1270SOL    HW215447   4.705   3.857  11.210  0.6838 -1.8980  0.5281
 1271SOL     OW15448   2.177   1.368   0.734 -0.4436 -0.0817 -0.1376
 1271SOL    HW115449   2.087   1.347   0.709  0.4264  0.5568 -3.8255
 1271SOL    HW215450   2.171   1.458   0.764 -2.8075 -1.2555  2.9137
 1272SOL     OW15451   2.006   3.722   9.541  0.2248 -0.4791 -0.1612
 1272SOL    HW115452   2.029   3.800   9.490 -2.0021  1.0572  1.2130
 1272SOL    HW215453   2.025   3.659   9.471  1.1405  0.0375 -0.3790
 1273SOL     OW15454   1.602   4.178   3.094 -0.2405  0.9205  0.1425
 1273SOL    HW115455   1.566   4.105   3.044  0.1984  0.6283  0.2490
 1273SOL    HW215456   1.689   4.141   3.113 -0.2723  1.8226  2.0521
 1274SOL     OW15457   3.694   3.997   7.976 -0.4924  0.5371  0.5271
 1274SOL    HW115458   3.787   4.013   7.962 -0.6926  0.6726 -0.7322
 1274SOL    HW215459   3.687   3.902   7.988  0.6246 -0.0068 -3.1194
 1275SOL     OW15460   0.102   2.245   6.824  0.0468 -0.1930  0.0876
 1275SOL    HW115461   0.114   2.322   6.880  0.4743 -0.1060 -0.1176
 1275SOL    HW215462   0.151   2.187   6.881 -0.3171 -1.2652 -0.6950
 1276SOL     OW15463   3.956   1.308   7.377  0.8506  0.3773 -0.2627
 1276SOL    HW115464   3.948   1.214   7.389 -0.4013  0.4834 -0.2994
 1276SOL    HW215465   3.991   1.303   7.288 -1.2339 -1.5210 -0.9766
 1277SOL     OW15466   0.424   1.781   4.632 -0.0255  0.6604  0.0576
 1277SOL    HW115467   0.514   1.792   4.662  0.2494 -1.0515 -0.1734
 1277SOL    HW215468   0.391   1.724   4.702 -1.5992  1.0514 -0.3678
 1278SOL     OW15469   4.436   1.206   7.297  0.0417  0.4353 -0.4199
 1278SOL    HW115470   4.412   1.126   7.343  1.8912  0.5245  0.7186
 1278SOL    HW215471   4.530   1.196   7.312  0.0531  2.1316  0.5945
 1279SOL     OW15472   2.447   3.262   5.151 -0.5282  0.2360  0.3003
 1279SOL    HW115473   2.519   3.319   5.124  0.2977 -0.5983  0.7229
 1279SOL    HW215474   2.482   3.173   5.151 -1.5642 -0.1549  2.1670
 1280SOL     OW15475   0.788   1.543   6.992 -0.1558 -0.3834 -0.1155
 1280SOL    HW115476   0.799   1.577   7.081 -0.0674  1.6269 -0.9002
 1280SOL    HW215477   0.853   1.472   7.001 -1.1364 -1.4663 -1.4714
 1281SOL     OW15478   3.586   3.211  17.626  0.7199  0.4626  0.3441
 1281SOL    HW115479   3.519   3.182  17.689  2.6479 -0.0412  2.1705
 1281SOL    HW215480   3.568   3.146  17.559  1.6537 -1.2983  1.7831
 1282SOL     OW15481   2.219   2.563   6.026 -0.1442 -0.6176 -0.2443
 1282SOL    HW115482   2.249   2.637   5.974  0.9950  0.2104  1.5846
 1282SOL    HW215483   2.267   2.489   5.989  0.5859 -1.3469  2.1525
 1283SOL     OW15484   3.953   4.143   2.270  0.1553  0.1583  0.0651
 1283SOL    HW115485   3.861   4.114   2.265 -0.2761  1.3325  1.2704
 1283SOL    HW215486   3.954   4.190   2.353  1.7942 -1.1140  0.7549
 1284SOL     OW15487   2.428   1.950   6.206  0.1536 -0.3985 -0.7969
 1284SOL    HW115488   2.499   1.903   6.249  0.7795  0.3933 -0.9469
 1284SOL    HW215489   2.459   2.038   6.183 -0.1684 -0.1859 -0.4207
 1285SOL     OW15490   2.020   0.620   5.655  0.1844  0.0509 -0.3930
 1285SOL    HW115491   2.104   0.646   5.692 -0.8318  1.9700  0.5819
 1285SOL    HW215492   2.032   0.648   5.565  1.3566 -0.0806 -0.2752
 1286SOL     OW15493   4.153   3.655   1.672  0.2300  0.1406  0.1718
 1286SOL    HW115494   4.182   3.583   1.728 -1.7912 -0.6628  0.1876
 1286SOL    HW215495   4.072   3.613   1.643 -0.2220  0.2844  1.2355
 1287SOL     OW15496   1.842   3.508   8.931 -0.2162 -1.0072 -0.3719
 1287SOL    HW115497   1.813   3.538   8.845  0.6986  1.0427  0.0527
 1287SOL    HW215498   1.926   3.551   8.942  0.2355 -1.6168 -1.3960
 1288SOL     OW15499   1.211   1.773  14.126 -0.0351 -0.3426 -0.1973
 1288SOL    HW115500   1.269   1.771  14.050  0.4862 -2.4641  0.2526
 1288SOL    HW215501   1.125   1.790  14.089 -0.3935  0.0448  0.8337
 1289SOL     OW15502   3.861   3.035   8.560  0.3726 -0.4393 -0.4011
 1289SOL    HW115503   3.831   3.095   8.492  0.5557 -0.6413 -0.6561
 1289SOL    HW215504   3.947   3.070   8.583 -1.2205  3.2309 -0.1039
 1290SOL     OW15505   4.421   3.026   3.947 -0.1574  0.5791  0.5182
 1290SOL    HW115506   4.484   3.058   3.884  1.7303 -0.5442  1.8306
 1290SOL    HW215507   4.380   2.958   3.893  1.3573  0.0470  0.0453
 1291SOL     OW15508   0.427   1.925   6.561 -0.4895  0.5040  0.1863
 1291SOL    HW115509   0.518   1.894   6.554 -0.4694  0.4749  0.5950
 1291SOL    HW215510   0.384   1.869   6.497  0.7570 -2.3876  1.8948
 1292SOL     OW15511   4.557   2.500   4.376 -0.0079 -0.0325  0.4800
 1292SOL    HW115512   4.469   2.477   4.406 -0.2777 -0.5066 -0.7094
 1292SOL    HW215513   4.579   2.562   4.446 -1.4939  0.7296  0.2655
 1293SOL     OW15514   2.207   2.357   0.615 -0.0576  0.4127 -0.0407
 1293SOL    HW115515   2.287   2.409   0.608  0.9263 -1.0531  0.2249
 1293SOL    HW215516   2.145   2.398   0.555 -0.1980  0.8108  0.3805
 1294SOL     OW15517   3.531   4.293   5.189  0.5990  0.0172  0.2652
 1294SOL    HW115518   3.587   4.216   5.186 -1.5239 -1.5636  1.0400
 1294SOL    HW215519   3.552   4.330   5.275  1.5284 -0.2029  0.1252
 1295SOL     OW15520   4.606   4.515  11.464  0.1404 -0.7397 -0.3081
 1295SOL    HW115521   4.531   4.569  11.486  2.4328  2.2873  0.0835
 1295SOL    HW215522   4.588   4.498  11.372  1.1399 -1.9146 -0.2902
 1296SOL     OW15523   3.490   2.434   8.616 -0.1710  0.0062 -0.0037
 1296SOL    HW115524   3.458   2.525   8.617  1.3993  0.5458  0.1499
 1296SOL    HW215525   3.485   2.412   8.709  1.5494  0.1092  0.0992
 1297SOL     OW15526   2.250   0.555   7.439  0.0087 -0.3808  0.0656
 1297SOL    HW115527   2.179   0.518   7.490  0.7302  2.4970  3.1455
 1297SOL    HW215528   2.232   0.648   7.453 -0.2936 -0.4000 -0.1909
 1298SOL     OW15529   0.408   3.935   9.383  0.2325 -0.2999  0.0123
 1298SOL    HW115530   0.363   3.856   9.352 -0.9404  0.5137 -0.3415
 1298SOL    HW215531   0.500   3.910   9.381 -0.5429 -3.3775  1.0548
 1299SOL     OW15532   4.101   4.157   1.741 -0.2851 -0.0556 -0.0801
 1299SOL    HW115533   4.095   4.154   1.836 -0.0602 -2.7912 -0.1395
 1299SOL    HW215534   4.155   4.082   1.714 -0.4748  0.1389 -1.0079
 1300SOL     OW15535   0.448   0.275   6.906 -0.5967  0.1978  0.0945
 1300SOL    HW115536   0.499   0.220   6.965 -0.8734  0.6694  0.7683
 1300SOL    HW215537   0.429   0.208   6.841 -0.9261  0.1582  0.2321
 1301SOL     OW15538   0.409   1.040   4.252  0.1466  0.2673  0.5795
 1301SOL    HW115539   0.397   0.973   4.185 -1.4617 -0.1515  1.2889
 1301SOL    HW215540   0.319   1.072   4.246 -0.2589 -0.9442  0.1806
 1302SOL     OW15541   3.306   4.370   3.328  0.2648 -0.1952 -0.4437
 1302SOL    HW115542   3.234   4.374   3.391 -1.2561 -1.3358 -2.1009
 1302SOL    HW215543   3.269   4.378   3.240 -1.9702 -0.5831  0.4463
 1303SOL     OW15544   4.325   3.276  12.557  0.7322 -0.3827  0.0147
 1303SOL    HW115545   4.262   3.275  12.484  0.2895  1.1345  0.3654
 1303SOL    HW215546   4.258   3.286  12.625 -1.5509 -0.3029 -2.2132
 1304SOL     OW15547   2.138   3.459  13.176 -0.2870 -0.2652  0.3188
 1304SOL    HW115548   2.153   3.554  13.180  2.7428 -0.6881 -1.0540
 1304SOL    HW215549   2.042   3.462  13.176 -0.1980  2.8874 -0.1018
 1305SOL     OW15550   1.734   0.978   9.076 -0.1115 -0.1819  0.4864
 1305SOL    HW115551   1.758   0.940   8.991  0.4720  1.8977 -0.2771
 1305SOL    HW215552   1.639   0.985   9.066 -0.0007  0.3703 -0.1484
 1306SOL     OW15553   1.523   3.800   9.638 -0.0462  0.5375 -0.5093
 1306SOL    HW115554   1.522   3.833   9.549 -1.4845 -0.5886 -0.9166
 1306SOL    HW215555   1.600   3.835   9.682  0.6050 -0.8385 -0.5280
 1307SOL     OW15556   0.378   3.667  12.913 -0.0711 -0.4319  0.5905
 1307SOL    HW115557   0.426   3.675  12.995 -0.6228 -0.8584  0.9553
 1307SOL    HW215558   0.296   3.712  12.937 -0.4479 -0.1067 -1.3201
 1308SOL     OW15559   3.008   2.527  14.412  0.5415  0.5525  0.1079
 1308SOL    HW115560   3.069   2.598  14.432 -1.5339  2.0234  1.2300
 1308SOL    HW215561   2.940   2.585  14.377  0.3786  0.2590 -0.0591
 1309SOL     OW15562   2.926   1.733   4.118 -0.3242 -0.3550 -0.2821
 1309SOL    HW115563   2.952   1.654   4.166  2.2961  0.3837 -0.4586
 1309SOL    HW215564   2.905   1.787   4.194 -0.1699  0.7798 -1.0587
 1310SOL     OW15565   0.569   4.295   4.713  0.3711 -0.1364 -0.2332
 1310SOL    HW115566   0.644   4.248   4.749 -1.6547 -2.2057  1.2937
 1310SOL    HW215567   0.601   4.381   4.740 -2.7305 -0.1417  3.5445
 1311SOL     OW15568   3.500   2.157   7.328  0.4845  0.1443 -0.1683
 1311SOL    HW115569   3.496   2.100   7.406 -0.2212 -1.2202 -1.1995
 1311SOL    HW215570   3.456   2.093   7.272 -0.1373  1.3212 -1.0118
 1312SOL     OW15571   0.523   3.033   2.648 -0.5327 -0.9609 -0.5329
 1312SOL    HW115572   0.572   3.013   2.728 -0.2057  0.4415 -0.3887
 1312SOL    HW215573   0.511   3.128   2.646  0.4536 -0.7519  2.6316
 1313SOL     OW15574   2.936   3.925   5.602  0.7957  0.2000 -0.4188
 1313SOL    HW115575   2.944   3.960   5.513 -0.2442  1.7186  0.0736
 1313SOL    HW215576   2.887   3.844   5.590  0.6506  0.0442  1.2514
 1314SOL     OW15577   2.830   1.242  15.595  0.3448  0.5169 -0.3671
 1314SOL    HW115578   2.901   1.220  15.656  1.2112  1.1649 -1.1537
 1314SOL    HW215579   2.772   1.166  15.598 -0.9036  1.5515  1.5091
 1315SOL     OW15580   2.323   3.613  11.016  0.2653  0.1490 -0.4482
 1315SOL    HW115581   2.244   3.585  11.062 -1.0689  0.8464 -2.3242
 1315SOL    HW215582   2.355   3.684  11.072  1.3454  1.2640 -2.4954
 1316SOL     OW15583   2.207   1.806   4.538  0.3752  0.0681  0.7688
 1316SOL    HW115584   2.277   1.856   4.497  1.2812 -0.9947  0.9959
 1316SOL    HW215585   2.170   1.874   4.594 -2.0939  1.7684 -2.9699
 1317SOL     OW15586   1.107   0.429   9.532 -0.1455 -0.1497 -0.1239
 1317SOL    HW115587   1.113   0.523   9.551  0.3705 -0.5887  1.8800
 1317SOL    HW215588   1.156   0.416   9.451 -1.7039  0.8555 -1.2421
 1318SOL     OW15589   4.244   3.353   8.181 -0.0364 -0.0299 -0.4188
 1318SOL    HW115590   4.296   3.431   8.163  0.3871  0.1442  1.5076
 1318SOL    HW215591   4.156   3.387   8.167 -1.7341 -3.8923  0.6328
 1319SOL     OW15592   2.606   4.029  15.560  0.2478 -0.3271 -0.2024
 1319SOL    HW115593   2.539   3.966  15.532 -0.0549  0.1516 -0.5596
 1319SOL    HW215594   2.568   4.109  15.524 -0.2260 -1.6807 -2.7613
 1320SOL     OW15595   1.240   0.207   4.079  0.0587 -0.1786 -0.3761
 1320SOL    HW115596   1.251   0.255   3.997  0.7511  1.9417  0.9596
 1320SOL    HW215597   1.252   0.119   4.044 -3.9209 -0.9036  0.0796
 1321SOL     OW15598   3.136   1.242   8.992  1.1310  0.3168 -0.3399
 1321SOL    HW115599   3.146   1.317   9.052  0.0171  1.9519 -2.2086
 1321SOL    HW215600   3.146   1.291   8.910  0.9901  2.1748  0.7447
 1322SOL     OW15601   1.090   0.180   3.626 -0.3651  0.1577  0.8276
 1322SOL    HW115602   1.153   0.133   3.680  0.2990  0.3596  0.2228
 1322SOL    HW215603   1.140   0.193   3.546 -0.3193  2.0962  1.1638
 1323SOL     OW15604   4.693   3.086  14.252 -0.2718  0.4318  0.4717
 1323SOL    HW115605   4.651   3.153  14.198  1.2105  1.3667  0.4661
 1323SOL    HW215606   4.615   3.049  14.293 -1.2634 -0.2338 -2.0509
 1324SOL     OW15607   2.327   4.466   8.781  0.0457 -0.2387  0.6773
 1324SOL    HW115608   2.312   4.485   8.688 -1.2120  0.8347  1.0982
 1324SOL    HW215609   2.405   4.517   8.800  0.3921 -0.0538 -1.2254
 1325SOL     OW15610   2.755   1.540   2.150 -0.5447 -0.1611 -0.0286
 1325SOL    HW115611   2.795   1.626   2.137  3.1282 -2.0725 -1.4447
 1325SOL    HW215612   2.792   1.531   2.238  1.5523 -1.4888 -1.0402
 1326SOL     OW15613   4.411   3.393   6.501 -0.7223 -0.2080 -0.1526
 1326SOL    HW115614   4.442   3.422   6.587 -1.1451  1.1506 -0.4605
 1326SOL    HW215615   4.440   3.465   6.446 -1.6780  0.6910  0.5146
 1327SOL     OW15616   1.062   4.208   3.610 -0.0875  0.8024 -0.1951
 1327SOL    HW115617   1.101   4.252   3.685 -1.2920  2.0541 -0.3007
 1327SOL    HW215618   1.123   4.225   3.538  1.8698  3.6926  2.1575
 1328SOL     OW15619   3.931   4.303   7.017 -0.4628  0.6031 -0.4543
 1328SOL    HW115620   4.019   4.335   6.997  0.9191 -3.6658 -1.2659
 1328SOL    HW215621   3.947   4.223   7.066  1.3152  0.7973 -0.7429
 1329SOL     OW15622   2.221   0.914  15.581 -0.0406  0.0123 -0.4198
 1329SOL    HW115623   2.155   0.864  15.532  0.1749  0.2509 -0.9580
 1329SOL    HW215624   2.177   0.906  15.665  1.2576 -0.5531  0.2150
 1330SOL     OW15625   2.291   1.252   2.993 -0.4712  0.9267 -0.2280
 1330SOL    HW115626   2.249   1.208   3.066  1.3253  1.5188  1.1732
 1330SOL    HW215627   2.381   1.221   3.007  0.0841  2.4321 -0.3800
 1331SOL     OW15628   4.366   4.524   3.496 -0.4578  0.4497  0.2832
 1331SOL    HW115629   4.438   4.585   3.510  0.3871 -0.1242 -1.6205
 1331SOL    HW215630   4.298   4.568   3.547  0.2495  1.0726  0.6868
 1332SOL     OW15631   4.159   3.494   4.808 -0.2430  0.2177 -0.5908
 1332SOL    HW115632   4.246   3.454   4.818 -0.8725 -0.4223  2.3844
 1332SOL    HW215633   4.101   3.425   4.841 -1.4118  0.2300 -2.6548
 1333SOL     OW15634   4.679   4.030  11.337 -0.0661 -0.4093  0.6343
 1333SOL    HW115635   4.689   4.124  11.325 -0.4717 -0.4067  0.2905
 1333SOL    HW215636   4.726   4.014  11.419  0.3087  0.7270  0.6314
 1334SOL     OW15637   0.561   1.407  12.584  0.1845 -0.2895 -0.5739
 1334SOL    HW115638   0.617   1.350  12.636  0.5288 -0.1632 -0.8005
 1334SOL    HW215639   0.479   1.359  12.578 -1.1412  1.8829  0.2012
 1335SOL     OW15640   3.949   4.692   8.113  0.4253 -0.3370  0.0709
 1335SOL    HW115641   3.936   4.636   8.189 -1.9013  0.6578  0.4339
 1335SOL    HW215642   3.901   4.643   8.046 -0.9878 -0.3593  1.1001
 1336SOL     OW15643   2.194   0.613   0.804  0.6675  0.2454  0.0895
 1336SOL    HW115644   2.180   0.699   0.843 -1.3913 -0.9141  1.8974
 1336SOL    HW215645   2.102   0.587   0.803  0.5501  0.8215 -3.1882
 1337SOL     OW15646   0.368   2.842   3.155  0.0388  0.4555  0.0267
 1337SOL    HW115647   0.323   2.808   3.232  1.9042  0.4708  1.1107
 1337SOL    HW215648   0.457   2.838   3.189 -0.3288 -2.4922  0.6551
 1338SOL     OW15649   1.354   4.610  12.900 -0.5518 -0.2422 -0.1202
 1338SOL    HW115650   1.311   4.610  12.815  0.4638  0.0987 -0.6312
 1338SOL    HW215651   1.354   4.518  12.928  0.6680  0.0306  0.7762
 1339SOL     OW15652   2.424   1.703  10.487 -0.1821 -0.1676 -0.5511
 1339SOL    HW115653   2.375   1.767  10.539 -1.0543 -0.7411 -0.6763
 1339SOL    HW215654   2.354   1.640  10.473 -0.7298 -0.3670  3.3298
 1340SOL     OW15655   2.243   0.134  10.645 -0.4109  0.2144 -0.6851
 1340SOL    HW115656   2.301   0.210  10.649 -1.1980  0.8026 -0.5834
 1340SOL    HW215657   2.164   0.170  10.687  1.3760  1.9576  1.2034
 1341SOL     OW15658   4.458   1.902   4.880 -0.0697  0.3743 -0.0307
 1341SOL    HW115659   4.553   1.891   4.887  0.2880  4.0817  0.7593
 1341SOL    HW215660   4.448   1.957   4.802 -0.8573 -1.6146 -1.3262
 1342SOL     OW15661   4.334   4.058   2.896 -0.2899 -0.0141 -0.0281
 1342SOL    HW115662   4.276   4.013   2.958  2.2922 -2.3608  0.6413
 1342SOL    HW215663   4.303   4.032   2.809 -0.3622  3.1616 -0.9582
 1343SOL     OW15664   1.411   4.427   1.896  0.1057  0.0998  0.2397
 1343SOL    HW115665   1.406   4.505   1.839  2.2334  0.3612  0.3993
 1343SOL    HW215666   1.319   4.401   1.898 -0.0142  0.2439 -2.6494
 1344SOL     OW15667   0.298   1.403  14.121 -0.1157  0.5402  0.1628
 1344SOL    HW115668   0.350   1.478  14.149  1.4141  0.5227 -2.6287
 1344SOL    HW215669   0.275   1.417  14.029  0.9963 -1.5970 -0.4380
 1345SOL     OW15670   2.313   1.795   2.851 -0.1721  0.1196  0.4409
 1345SOL    HW115671   2.389   1.760   2.804  0.6650  1.8647  0.4957
 1345SOL    HW215672   2.274   1.713   2.882  0.2779 -1.2059 -2.4732
 1346SOL     OW15673   3.884   3.619   4.456  0.1723  0.3538  0.5981
 1346SOL    HW115674   3.873   3.704   4.500  0.6887  0.7369 -0.0067
 1346SOL    HW215675   3.865   3.567   4.533  1.0264 -1.0619 -0.1445
 1347SOL     OW15676   4.426   0.698   6.092  0.0233  0.2870 -0.1330
 1347SOL    HW115677   4.467   0.784   6.099  3.4456 -1.3378 -0.2006
 1347SOL    HW215678   4.503   0.642   6.093  0.3152  0.6931  0.3868
 1348SOL     OW15679   0.082   4.102  10.750  0.4180 -0.5142  0.3092
 1348SOL    HW115680   0.033   4.023  10.773 -1.8651  0.9799  0.6511
 1348SOL    HW215681   0.020   4.142  10.688  1.3519  0.3398 -0.0650
 1349SOL     OW15682   3.636   4.347   3.466 -0.1058 -0.1935 -0.4277
 1349SOL    HW115683   3.602   4.360   3.554 -2.4346  1.9660 -1.6377
 1349SOL    HW215684   3.720   4.391   3.471 -0.1078 -0.3972  1.5385
 1350SOL     OW15685   4.656   4.316   6.388  0.0879  0.0488 -0.4701
 1350SOL    HW115686   4.563   4.296   6.387  0.1079 -0.0588  0.0350
 1350SOL    HW215687   4.646   4.411   6.397  0.3520 -0.1092  1.4894
 1351SOL     OW15688   2.712   2.866  14.530  0.1518  0.0691  0.5173
 1351SOL    HW115689   2.733   2.882  14.623 -4.2723 -0.7558  1.6621
 1351SOL    HW215690   2.787   2.899  14.481 -1.3962  1.2443 -1.0289
 1352SOL     OW15691   4.583   1.478   9.139  1.3121 -0.2654  0.0935
 1352SOL    HW115692   4.667   1.433   9.143  0.4843 -1.9220 -1.3411
 1352SOL    HW215693   4.554   1.474   9.231  0.2069 -1.7983 -0.3279
 1353SOL     OW15694   3.130   2.856   3.573  0.1823 -0.4833  0.1094
 1353SOL    HW115695   3.150   2.779   3.519 -0.3764  0.3226 -1.2538
 1353SOL    HW215696   3.182   2.921   3.527 -2.3590  1.9770  0.6970
 1354SOL     OW15697   1.919   4.069   6.669 -0.3950 -0.2678 -0.1411
 1354SOL    HW115698   1.845   4.069   6.730 -0.3261  0.9937 -0.0442
 1354SOL    HW215699   1.873   4.086   6.587 -1.6284 -0.1260  0.5705
 1355SOL     OW15700   3.143   4.384   0.916 -0.2494 -0.0685 -0.1410
 1355SOL    HW115701   3.119   4.362   1.006  0.5195  0.1769  0.1253
 1355SOL    HW215702   3.227   4.339   0.908 -0.2242  0.3051 -2.0583
 1356SOL     OW15703   1.696   4.078   1.393  0.4186  0.2055 -0.1580
 1356SOL    HW115704   1.735   4.165   1.399 -0.4842  0.4613  1.9722
 1356SOL    HW215705   1.707   4.060   1.300  2.6368 -0.2077  0.1827
 1357SOL     OW15706   4.605   0.733   3.247  0.4399 -0.0058  1.1769
 1357SOL    HW115707   4.628   0.676   3.174 -0.9851  1.6261 -0.5280
 1357SOL    HW215708   4.509   0.729   3.241  0.6156 -0.1672 -1.5701
 1358SOL     OW15709   0.353   1.143  14.241 -0.6671 -0.3263 -0.2320
 1358SOL    HW115710   0.370   1.230  14.205  1.3302 -1.2331 -1.4678
 1358SOL    HW215711   0.377   1.082  14.171  1.2449  0.6135 -0.3934
 1359SOL     OW15712   1.622   0.786   0.082  0.5933 -0.0106 -0.1409
 1359SOL    HW115713   1.536   0.823   0.061  0.5240  0.2649  0.6618
 1359SOL    HW215714   1.675   0.821   0.011 -1.4692  2.5005 -0.4449
 1360SOL     OW15715   3.450   4.041   5.960 -0.0690 -0.5584  0.1806
 1360SOL    HW115716   3.525   4.098   5.949 -1.5433  1.3035 -0.1142
 1360SOL    HW215717   3.378   4.100   5.942  0.6847 -0.1456 -1.4333
 1361SOL     OW15718   3.866   2.007   6.912 -0.1787  0.2631  0.2663
 1361SOL    HW115719   3.849   2.025   6.819  0.2961 -1.8850 -0.2346
 1361SOL    HW215720   3.778   2.009   6.949  0.4541  1.0572  1.7231
 1362SOL     OW15721   0.814   1.702   3.331 -0.0186 -0.2384  0.7116
 1362SOL    HW115722   0.885   1.764   3.318  0.2653 -0.4412  1.2804
 1362SOL    HW215723   0.866   1.623   3.346  0.4247 -0.2897 -1.1117
 1363SOL     OW15724   0.951   1.790  12.084  0.1822 -0.0497 -0.7131
 1363SOL    HW115725   0.865   1.749  12.085  0.9307 -1.6744 -1.6953
 1363SOL    HW215726   0.939   1.846  12.160  4.4061 -0.0268 -0.0436
 1364SOL     OW15727   3.244   2.742   5.220  0.3495  0.2220  0.0653
 1364SOL    HW115728   3.192   2.808   5.175 -0.2627 -0.2184  0.1226
 1364SOL    HW215729   3.325   2.793   5.215  0.3436  0.2597  0.3491
 1365SOL     OW15730   0.349   1.630   3.764 -0.2036  0.4608 -0.6611
 1365SOL    HW115731   0.303   1.578   3.830 -1.8604 -2.4804 -4.1083
 1365SOL    HW215732   0.275   1.675   3.725 -0.9460 -0.7243 -0.6287
 1366SOL     OW15733   2.896   1.944  13.789  0.2369 -0.4622 -0.4856
 1366SOL    HW115734   2.949   1.995  13.851  0.6947 -1.6782  0.1288
 1366SOL    HW215735   2.954   1.879  13.750  2.1495  0.1918  1.2164
 1367SOL     OW15736   4.409   2.062   2.322 -0.4642  0.2095 -0.1742
 1367SOL    HW115737   4.383   2.027   2.407  0.5983 -0.3596 -0.0860
 1367SOL    HW215738   4.445   2.145   2.354  1.7329 -1.4291  1.5377
 1368SOL     OW15739   1.529   0.931   4.519  0.0424 -0.4145  0.1571
 1368SOL    HW115740   1.502   0.856   4.466 -1.4062  0.4663 -0.3408
 1368SOL    HW215741   1.609   0.902   4.563  0.6869  2.3637  0.7668
 1369SOL     OW15742   4.338   3.557   4.204 -0.5673  0.1083 -0.9831
 1369SOL    HW115743   4.246   3.552   4.231 -0.6799  0.2378 -1.3457
 1369SOL    HW215744   4.380   3.562   4.290  1.4926 -0.7049 -1.9358
 1370SOL     OW15745   0.441   4.429  13.607 -0.1302  0.4156 -0.7303
 1370SOL    HW115746   0.449   4.520  13.634  2.0270 -0.2911  1.0436
 1370SOL    HW215747   0.365   4.447  13.551 -0.9332 -3.1597 -0.7882
 1371SOL     OW15748   4.609   4.605   4.491 -0.2384 -1.1076  0.1556
 1371SOL    HW115749   4.693   4.652   4.493 -1.3117  0.7969  0.5037
 1371SOL    HW215750   4.552   4.661   4.438  1.9894  0.7681 -0.2353
 1372SOL     OW15751   2.346   2.065   7.166 -0.0906 -0.6280 -0.1094
 1372SOL    HW115752   2.295   2.027   7.238 -0.9238 -1.1982 -0.9887
 1372SOL    HW215753   2.424   2.013   7.182  1.2054  0.6672 -2.2574
 1373SOL     OW15754   1.532   1.706   4.109 -0.4798 -0.3502  0.1707
 1373SOL    HW115755   1.452   1.749   4.079 -0.2049  0.3783  0.5005
 1373SOL    HW215756   1.495   1.659   4.184 -2.0610  0.1601 -0.2784
 1374SOL     OW15757   2.482   3.175   3.333 -0.3878  0.3719 -0.2607
 1374SOL    HW115758   2.526   3.237   3.276 -1.5488 -0.6863 -2.3138
 1374SOL    HW215759   2.433   3.238   3.386 -0.9915 -0.7287  0.4976
 1375SOL     OW15760   0.031   1.188   6.256 -0.0325  0.2511  0.1870
 1375SOL    HW115761   0.089   1.249   6.301  0.0137  1.0060 -0.9060
 1375SOL    HW215762   4.684   1.225   6.272 -0.3349 -0.2209 -0.3700
 1376SOL     OW15763   0.988   3.322   7.602 -0.0100 -0.3078 -0.5672
 1376SOL    HW115764   0.923   3.370   7.553  1.0705  0.9405 -0.7766
 1376SOL    HW215765   0.957   3.335   7.692 -1.2802  0.4997 -1.1204
 1377SOL     OW15766   1.535   0.144  11.439  0.7304  0.6646 -0.5040
 1377SOL    HW115767   1.484   0.195  11.376  0.6165  1.0703 -0.0834
 1377SOL    HW215768   1.623   0.172  11.415  1.3588 -2.2095 -1.4572
 1378SOL     OW15769   1.884   4.021  15.967  0.0395  0.3702 -0.1611
 1378SOL    HW115770   1.825   4.013  16.043  1.0622 -0.1074  0.5842
 1378SOL    HW215771   1.943   3.950  15.991  0.8174  0.0865 -2.9705
 1379SOL     OW15772   0.825   3.466  12.067 -0.2439  0.2145  0.4168
 1379SOL    HW115773   0.912   3.498  12.045  0.8955 -2.8738  0.4145
 1379SOL    HW215774   0.765   3.524  12.019  0.5123 -0.1917 -0.9836
 1380SOL     OW15775   4.092   2.675  16.352 -0.2634  0.1819 -0.1764
 1380SOL    HW115776   4.186   2.654  16.353 -0.1393  0.6853 -1.9656
 1380SOL    HW215777   4.093   2.769  16.367  0.3956  0.4154 -1.6863
 1381SOL     OW15778   2.124   3.256   9.537 -0.0292  0.4231  0.0405
 1381SOL    HW115779   2.055   3.271   9.602 -0.1307 -1.8685  0.4525
 1381SOL    HW215780   2.135   3.161   9.528 -2.0494  0.2917 -1.1145
 1382SOL     OW15781   1.701   4.403  15.409  0.4097 -0.0282 -0.4153
 1382SOL    HW115782   1.686   4.313  15.379 -0.4727  0.6511 -1.9715
 1382SOL    HW215783   1.791   4.407  15.443  0.2839  1.1836 -0.2491
 1383SOL     OW15784   3.955   1.467   7.026 -0.0501  0.8945  0.0753
 1383SOL    HW115785   3.881   1.508   7.072 -0.6423 -0.6090  0.4711
 1383SOL    HW215786   3.958   1.379   7.063  2.6621  0.2568 -1.6554
 1384SOL     OW15787   1.545   2.982   3.702  0.5545 -0.3457  0.1713
 1384SOL    HW115788   1.514   2.921   3.634  1.7493 -1.9190  1.0551
 1384SOL    HW215789   1.639   2.993   3.685  0.8625 -0.6934  1.6653
 1385SOL     OW15790   1.572   1.369  12.736 -0.3818 -0.3050 -0.0320
 1385SOL    HW115791   1.641   1.434  12.750 -0.0684 -0.2840 -1.6645
 1385SOL    HW215792   1.620   1.288  12.725  2.5954  1.5319 -0.5358
 1386SOL     OW15793   1.419   3.084   3.175  0.0982  0.5256 -0.3670
 1386SOL    HW115794   1.435   3.127   3.259  0.6636  1.6833 -1.0587
 1386SOL    HW215795   1.494   3.025   3.171  0.9102  1.4849  0.4348
 1387SOL     OW15796   3.022   4.467   8.606  0.1533  0.7932  0.4136
 1387SOL    HW115797   3.055   4.388   8.648 -1.0826 -0.4255 -0.8904
 1387SOL    HW215798   3.064   4.475   8.520 -1.4735  0.4915 -0.4107
 1388SOL     OW15799   0.128   1.021  17.091 -0.3802 -0.1375  0.2654
 1388SOL    HW115800   0.049   1.046  17.138 -0.2921  1.5711 -0.4895
 1388SOL    HW215801   0.150   0.938  17.134 -1.3013  0.6110  2.1876
 1389SOL     OW15802   2.391   3.797  17.138  0.0178 -0.0178  0.2609
 1389SOL    HW115803   2.309   3.816  17.093  0.4883 -0.3547 -0.7227
 1389SOL    HW215804   2.381   3.706  17.164 -3.8921  0.2470 -0.3229
 1390SOL     OW15805   3.541   1.054  17.464  0.2169 -0.5387 -0.5520
 1390SOL    HW115806   3.622   1.103  17.471 -0.6712  0.6406  1.4952
 1390SOL    HW215807   3.573   0.978  17.414 -0.7444 -1.2551 -0.0783
 1391SOL     OW15808   2.923   1.820   5.988  0.0023 -0.2727  0.4554
 1391SOL    HW115809   2.907   1.807   5.894  0.9767  0.3810  0.1989
 1391SOL    HW215810   2.927   1.915   5.995  2.1815 -0.1697 -2.2304
 1392SOL     OW15811   0.880   1.893   7.163 -0.0577  0.1842 -0.2751
 1392SOL    HW115812   0.902   1.839   7.088 -3.2850 -1.7826  0.1957
 1392SOL    HW215813   0.795   1.858   7.191 -0.0212  0.2477 -0.0833
 1393SOL     OW15814   2.303   4.724   6.858 -0.3531  0.2695  0.0030
 1393SOL    HW115815   2.373   0.024   6.806 -0.2466 -0.7956 -0.6720
 1393SOL    HW215816   2.358   4.682   6.924 -0.6458 -0.2805 -0.0965
 1394SOL     OW15817   1.326   3.865  12.890 -0.1972  0.0358 -0.0836
 1394SOL    HW115818   1.361   3.776  12.884  2.4100  0.9222  1.4603
 1394SOL    HW215819   1.252   3.860  12.951  0.7585 -1.1214  1.0029
 1395SOL     OW15820   3.088   0.078   4.428 -0.2228  0.7844 -0.0757
 1395SOL    HW115821   3.121   0.006   4.375 -1.6777  2.5301 -3.3592
 1395SOL    HW215822   3.098   0.141   4.357 -0.0430  0.3500 -0.4348
 1396SOL     OW15823   3.450   4.388   9.840 -0.0323  0.1482  0.2653
 1396SOL    HW115824   3.506   4.445   9.894  0.6944 -1.0871  0.8190
 1396SOL    HW215825   3.414   4.317   9.894 -0.1972 -0.2904 -0.4206
 1397SOL     OW15826   0.501   1.019   3.896  0.1436  0.5792  0.1610
 1397SOL    HW115827   0.596   1.029   3.886  0.0579  0.4158 -0.7459
 1397SOL    HW215828   0.503   0.958   3.970  1.7235  0.1952 -0.1907
 1398SOL     OW15829   0.617   0.425   9.084 -0.1200  0.1281 -0.5971
 1398SOL    HW115830   0.648   0.366   9.153 -0.6298 -0.2917 -0.7340
 1398SOL    HW215831   0.546   0.461   9.136 -0.8370 -0.3903 -1.2270
 1399SOL     OW15832   1.465   0.027   5.967 -0.1943  0.3337  0.4879
 1399SOL    HW115833   1.504   0.103   6.010  1.4501  0.7681 -1.7644
 1399SOL    HW215834   1.535   4.723   5.919 -0.1952  0.7577  0.0943
 1400SOL     OW15835   0.167   2.044   8.210 -0.1062 -0.1003 -0.1368
 1400SOL    HW115836   0.098   2.109   8.222  0.4353  0.4466  0.0122
 1400SOL    HW215837   0.185   2.028   8.303 -1.2149 -2.5024 -0.3227
 1401SOL     OW15838   3.973   1.314   2.776 -0.5084  0.2842  0.1179
 1401SOL    HW115839   3.989   1.381   2.843  1.0645  0.8984 -0.8691
 1401SOL    HW215840   4.030   1.246   2.811 -0.8572  0.6606  1.4054
 1402SOL     OW15841   3.835   3.073   3.597  0.1141  0.1277  0.6205
 1402SOL    HW115842   3.752   3.114   3.570 -0.1566 -0.5330  0.4550
 1402SOL    HW215843   3.850   3.037   3.509  0.4155  0.5571  0.4929
 1403SOL     OW15844   2.076   1.618   3.662 -0.6957  0.2449 -0.1537
 1403SOL    HW115845   2.016   1.670   3.609 -0.6607  1.5712  1.1065
 1403SOL    HW215846   2.043   1.650   3.746 -0.3227  1.2907 -0.4082
 1404SOL     OW15847   3.940   4.704   4.478 -0.2793  0.3096 -0.4634
 1404SOL    HW115848   4.008   4.726   4.542 -0.3470 -0.0532 -0.2637
 1404SOL    HW215849   3.989   4.666   4.404 -0.9468 -1.0620 -0.2047
 1405SOL     OW15850   3.132   3.276   8.748  0.0625  0.0736 -0.4159
 1405SOL    HW115851   3.123   3.224   8.829  0.9850 -1.3419 -1.2247
 1405SOL    HW215852   3.084   3.217   8.690 -0.1351  1.3940 -1.5728
 1406SOL     OW15853   2.377   2.461   4.269 -0.6672 -0.5304  0.0379
 1406SOL    HW115854   2.435   2.536   4.257 -2.6626  1.0977  0.5786
 1406SOL    HW215855   2.390   2.420   4.183  0.3385  1.2164 -0.6449
 1407SOL     OW15856   0.600   2.236   7.671 -0.5149  0.1149  0.1172
 1407SOL    HW115857   0.577   2.160   7.725 -1.2514 -0.8545 -1.5479
 1407SOL    HW215858   0.573   2.308   7.729 -2.0053 -0.2500 -0.1233
 1408SOL     OW15859   1.611   4.335   6.353 -0.2975  0.2032 -0.1044
 1408SOL    HW115860   1.618   4.428   6.333  1.2990  0.1490  0.1637
 1408SOL    HW215861   1.568   4.341   6.438 -0.1449 -1.2731  0.0734
 1409SOL     OW15862   1.750   0.779   7.228  0.5239  0.4194 -0.4321
 1409SOL    HW115863   1.819   0.735   7.178 -0.1395 -0.1145 -0.8708
 1409SOL    HW215864   1.702   0.822   7.158  0.3754  1.0488  0.0597
 1410SOL     OW15865   2.360   1.658   5.494 -0.3514 -0.8805  0.0870
 1410SOL    HW115866   2.426   1.618   5.551  0.9162  1.7887  0.5064
 1410SOL    HW215867   2.293   1.680   5.558 -0.8351  1.1671 -1.1246
 1411SOL     OW15868   0.328   3.808   9.785 -0.5746  0.1046 -0.1825
 1411SOL    HW115869   0.294   3.794   9.873 -2.1412 -1.3210 -1.0080
 1411SOL    HW215870   0.392   3.740   9.764 -1.0159 -0.1182 -0.8311
 1412SOL     OW15871   0.079   1.848   8.032  0.0420  0.5251  0.2131
 1412SOL    HW115872   0.127   1.776   8.073 -2.9736 -1.1872  0.7166
 1412SOL    HW215873   0.120   1.919   8.082  2.2517 -1.7675  1.6667
 1413SOL     OW15874   2.553   0.854  14.743  0.2892  0.1027 -0.6153
 1413SOL    HW115875   2.642   0.821  14.745 -0.3677 -1.5231  1.2251
 1413SOL    HW215876   2.568   0.942  14.778 -0.6730 -0.0520  0.2143
 1414SOL     OW15877   0.114   1.056   3.164 -0.3542 -0.0188 -0.2116
 1414SOL    HW115878   0.113   1.073   3.070  1.8316  2.5254  0.2047
 1414SOL    HW215879   0.184   0.990   3.166 -0.9510 -0.7350 -2.6713
 1415SOL     OW15880   3.906   3.691   2.871  0.5569 -0.6480 -0.1835
 1415SOL    HW115881   3.999   3.708   2.887  0.1905  1.4399 -0.3124
 1415SOL    HW215882   3.872   3.698   2.960  0.6335  2.5981 -0.4188
 1416SOL     OW15883   0.154   4.062   8.708  0.0067  0.3137  0.1275
 1416SOL    HW115884   0.156   4.020   8.622  1.5968  0.8138 -0.0831
 1416SOL    HW215885   0.132   3.984   8.759 -0.4384 -2.1883 -3.8552
 1417SOL     OW15886   0.552   4.165   6.187  0.1146  0.2992 -0.1859
 1417SOL    HW115887   0.642   4.132   6.178  0.5042  0.9130  1.5578
 1417SOL    HW215888   0.512   4.089   6.144 -1.7410  0.4577  1.2905
 1418SOL     OW15889   1.862   1.280   3.845 -0.5044  0.4132  0.0618
 1418SOL    HW115890   1.850   1.375   3.838 -1.3772  0.1046 -2.7403
 1418SOL    HW215891   1.773   1.252   3.827 -0.7847  1.8565 -0.7813
 1419SOL     OW15892   0.253   4.396   6.454 -0.2439 -0.1411  0.3365
 1419SOL    HW115893   0.196   4.382   6.529  1.2336  1.0062  1.6693
 1419SOL    HW215894   0.205   4.453   6.394 -0.8870  0.2185  1.1976
 1420SOL     OW15895   2.541   1.226   7.090  0.0226  0.0393 -1.0361
 1420SOL    HW115896   2.503   1.141   7.111  0.5956 -0.0980 -0.5350
 1420SOL    HW215897   2.630   1.194   7.074 -0.2714 -0.1591 -2.2588
 1421SOL     OW15898   0.069   1.192   3.567  0.3622  0.1760  0.1080
 1421SOL    HW115899   0.163   1.174   3.576  0.0323 -1.9855 -0.8326
 1421SOL    HW215900   0.056   1.234   3.652 -0.0709 -0.5417  0.3893
 1422SOL     OW15901   2.593   0.951   3.601  0.0057  0.0293  0.3180
 1422SOL    HW115902   2.598   1.039   3.637  0.8719  0.0576  0.1390
 1422SOL    HW215903   2.647   0.954   3.522 -1.9210 -0.1249 -0.9871
 1423SOL     OW15904   3.841   0.037   0.441 -0.6763  0.1345 -0.2597
 1423SOL    HW115905   3.860   4.727   0.521 -2.3942  1.5667  1.0417
 1423SOL    HW215906   3.772   4.723   0.403 -0.0861 -1.4622  0.9424
 1424SOL     OW15907   0.100   0.037  10.204 -0.4663  0.0326  0.0616
 1424SOL    HW115908   0.021   0.008  10.250 -0.6194 -0.5230 -0.5464
 1424SOL    HW215909   0.166   4.720  10.243  0.2851 -0.2599 -1.6048
 1425SOL     OW15910   2.741   1.979   2.894  0.2812  0.3362 -0.8040
 1425SOL    HW115911   2.747   1.902   2.951 -2.0100 -0.5652 -1.7555
 1425SOL    HW215912   2.820   2.018   2.930  0.6834 -0.7225 -0.5235
 1426SOL     OW15913   0.032   1.346   3.786 -0.6240  0.2997 -0.3001
 1426SOL    HW115914   0.074   1.373   3.868  1.0784  0.9787 -1.3737
 1426SOL    HW215915   4.677   1.351   3.789 -0.4721  2.9324  0.2422
 1427SOL     OW15916   1.780   3.900  10.812  0.1613 -0.5249 -0.0382
 1427SOL    HW115917   1.865   3.931  10.843  0.6166 -1.6799 -0.1520
 1427SOL    HW215918   1.806   3.830  10.752  0.5767  2.3714 -3.2771
 1428SOL     OW15919   3.277   0.157   7.542 -0.1317  0.9047 -0.1739
 1428SOL    HW115920   3.216   0.167   7.469  0.8335  0.5054 -1.0516
 1428SOL    HW215921   3.284   0.248   7.573 -0.7688  1.3144 -1.2106
 1429SOL     OW15922   4.509   2.384  16.237  0.0880  0.2889 -0.0242
 1429SOL    HW115923   4.476   2.318  16.176 -0.3715  0.6798 -0.2021
 1429SOL    HW215924   4.449   2.378  16.311  1.4086 -2.0982  0.8400
 1430SOL     OW15925   2.253   3.774  14.608 -0.0373  0.2109  0.4686
 1430SOL    HW115926   2.297   3.821  14.679 -0.9823  2.2611 -0.3050
 1430SOL    HW215927   2.213   3.702  14.657 -3.4038  0.9605 -1.2106
 1431SOL     OW15928   4.487   2.238   5.091  0.0749  0.0396  0.0405
 1431SOL    HW115929   4.529   2.234   5.004  0.1078  1.1288 -0.0005
 1431SOL    HW215930   4.422   2.303   5.063 -0.1815 -1.3649 -2.6365
 1432SOL     OW15931   0.852   0.022   3.603 -0.0921  0.0533 -0.3709
 1432SOL    HW115932   0.935   0.068   3.593  0.2282 -0.2607  0.8420
 1432SOL    HW215933   0.876   4.671   3.623  0.9605  0.2601 -0.7199
 1433SOL     OW15934   0.020   0.281  13.924  0.4678 -0.3521 -0.4305
 1433SOL    HW115935   0.068   0.211  13.878  0.8029 -0.3945 -0.0130
 1433SOL    HW215936   4.689   0.223  13.951  1.1378 -1.3871 -0.9004
 1434SOL     OW15937   1.248   1.614   7.212 -0.3456  0.5445  0.3729
 1434SOL    HW115938   1.249   1.705   7.242  1.5422  0.6682 -0.0173
 1434SOL    HW215939   1.248   1.637   7.119  0.3318  0.4990  0.3593
 1435SOL     OW15940   2.634   2.832   5.450 -0.4316  0.2066  0.3989
 1435SOL    HW115941   2.652   2.844   5.543  1.0692  0.9183  0.0243
 1435SOL    HW215942   2.624   2.741   5.425 -0.6339  1.1518 -2.9839
 1436SOL     OW15943   1.421   0.609   2.175  0.1129 -0.0631 -0.5636
 1436SOL    HW115944   1.490   0.546   2.153  0.6585 -0.2845  1.7717
 1436SOL    HW215945   1.453   0.693   2.141 -0.8679 -0.2439 -1.9361
 1437SOL     OW15946   2.651   0.852  16.189  0.5392 -0.4680 -0.0828
 1437SOL    HW115947   2.643   0.902  16.271  1.9213  1.5341 -1.1797
 1437SOL    HW215948   2.746   0.862  16.185  0.5472 -2.1477 -3.7624
 1438SOL     OW15949   3.550   3.438   5.270 -0.3841 -0.3662 -0.7451
 1438SOL    HW115950   3.576   3.469   5.183  0.3781  0.2274 -0.3079
 1438SOL    HW215951   3.597   3.503   5.322  0.0191 -2.0517  0.9769
 1439SOL     OW15952   1.162   1.168   9.005  0.5716 -0.0552 -0.1067
 1439SOL    HW115953   1.089   1.134   9.056  0.1099  1.6367  0.3431
 1439SOL    HW215954   1.157   1.109   8.930 -2.5678 -0.2342  0.2441
 1440SOL     OW15955   3.140   3.720   2.948 -0.0890  0.5058  0.0040
 1440SOL    HW115956   3.086   3.642   2.960 -1.5748  1.2503 -1.9300
 1440SOL    HW215957   3.180   3.702   2.863  0.9188 -0.5059  0.6833
 1441SOL     OW15958   0.801   3.296  11.802 -0.4398 -0.0280 -0.1683
 1441SOL    HW115959   0.780   3.313  11.893  2.5102  1.6147  0.1851
 1441SOL    HW215960   0.772   3.205  11.792 -0.3080 -0.1769  0.8527
 1442SOL     OW15961   4.662   0.802   2.624 -0.3369 -0.3471 -0.3889
 1442SOL    HW115962   4.581   0.805   2.573 -1.4207 -1.5133  1.2638
 1442SOL    HW215963   4.624   0.824   2.709 -0.4895 -1.6967 -0.1211
 1443SOL     OW15964   3.860   0.690   5.829 -0.3324  0.4681 -0.0001
 1443SOL    HW115965   3.810   0.737   5.896 -0.1899  0.4085  0.1481
 1443SOL    HW215966   3.909   0.756   5.779 -0.3379 -0.7491 -1.6341
 1444SOL     OW15967   3.292   3.512  10.216  0.6373  0.6794 -0.7952
 1444SOL    HW115968   3.238   3.441  10.180  1.7243 -0.6084  0.0948
 1444SOL    HW215969   3.340   3.477  10.291 -1.1537 -0.6064 -0.2549
 1445SOL     OW15970   2.134   1.557   3.345  0.0342  0.4248 -0.3028
 1445SOL    HW115971   2.112   1.512   3.263 -2.0316 -0.6367  0.8299
 1445SOL    HW215972   2.107   1.647   3.325  2.5949  1.4817  1.0797
 1446SOL     OW15973   1.751   2.914   6.732 -0.2426 -0.8407  0.0416
 1446SOL    HW115974   1.743   2.990   6.789 -1.0530 -1.0893  0.2486
 1446SOL    HW215975   1.692   2.849   6.770 -0.6791  0.7404  2.0265
 1447SOL     OW15976   3.362   3.614   0.844  0.7421  1.0409 -0.5232
 1447SOL    HW115977   3.383   3.571   0.927 -1.8511  0.1658 -0.3074
 1447SOL    HW215978   3.343   3.543   0.782 -1.2299 -0.9622  2.3699
 1448SOL     OW15979   1.528   2.470  14.479  0.5607  0.2962  1.0216
 1448SOL    HW115980   1.576   2.395  14.443 -0.1930  0.8018 -1.0445
 1448SOL    HW215981   1.485   2.507  14.402  3.1040  1.5101  0.1986
 1449SOL     OW15982   4.142   4.434   8.179 -0.5930  0.6960  0.0881
 1449SOL    HW115983   4.163   4.478   8.261 -0.9576  0.2740  0.4053
 1449SOL    HW215984   4.159   4.343   8.203 -0.9956  0.4390 -0.5847
 1450SOL     OW15985   3.823   0.369   6.452  0.3804  0.2064  0.4972
 1450SOL    HW115986   3.869   0.410   6.525 -0.7482 -0.5598  1.6231
 1450SOL    HW215987   3.747   0.332   6.497  1.9322 -1.3125  1.8439
 1451SOL     OW15988   3.654   4.413  15.606 -0.0536 -0.4876  0.2887
 1451SOL    HW115989   3.727   4.351  15.602  0.1635 -0.3480  1.8791
 1451SOL    HW215990   3.658   4.463  15.525 -0.9392 -0.7207  0.1009
 1452SOL     OW15991   3.036   1.882   6.306 -0.1166 -0.1019  0.0591
 1452SOL    HW115992   3.015   1.959   6.359  0.7922  0.6398 -0.6401
 1452SOL    HW215993   3.045   1.927   6.222 -2.3733 -1.5808 -0.9445
 1453SOL     OW15994   1.791   4.481   6.563  0.5586 -0.1580 -0.0297
 1453SOL    HW115995   1.710   4.531   6.575  0.8108 -0.1967  1.7449
 1453SOL    HW215996   1.844   4.505   6.639  0.6843  0.7175 -0.3956
 1454SOL     OW15997   1.674   1.883   1.416  0.4072  0.2449  0.2596
 1454SOL    HW115998   1.589   1.914   1.446  0.2605 -0.1900  0.2928
 1454SOL    HW215999   1.649   1.821   1.348 -2.7285 -1.5289  3.0513
 1455SOL     OW16000   2.030   3.516   7.480  0.2692 -0.3040 -0.0604
 1455SOL    HW116001   2.009   3.429   7.448 -0.2620 -0.4015  0.5655
 1455SOL    HW216002   2.120   3.529   7.450 -0.3444  1.6511 -1.0941
 1456SOL     OW16003   1.364   2.906  13.144 -0.4205 -0.1090 -0.3744
 1456SOL    HW116004   1.432   2.849  13.181  1.6599  0.8950 -2.7398
 1456SOL    HW216005   1.390   2.980  13.199  0.7312  0.5116 -1.7826
 1457SOL     OW16006   2.093   3.204   6.712 -0.0030  0.1524  0.0805
 1457SOL    HW116007   2.170   3.257   6.689  0.5135  0.2494  2.0339
 1457SOL    HW216008   2.027   3.266   6.743 -1.5314 -1.9768  1.0912
 1458SOL     OW16009   0.373   3.205   0.214  0.2358 -0.0242  0.8618
 1458SOL    HW116010   0.412   3.128   0.174  0.5199  1.1025 -1.0365
 1458SOL    HW216011   0.289   3.202   0.168 -0.3949 -0.5546  2.0468
 1459SOL     OW16012   4.315   1.962  16.228  0.1499  0.2025  0.3078
 1459SOL    HW116013   4.262   1.883  16.217  0.8621 -0.2582  0.1767
 1459SOL    HW216014   4.399   1.922  16.206 -0.4484 -0.1609 -1.3522
 1460SOL     OW16015   0.929   2.762   7.399 -0.0575  0.0812 -0.0246
 1460SOL    HW116016   0.986   2.791   7.328 -1.0507 -2.0002 -1.6954
 1460SOL    HW216017   0.976   2.682   7.424 -2.2727 -0.7708  1.4146
 1461SOL     OW16018   2.699   1.958   6.336 -0.5455  0.0442 -0.0640
 1461SOL    HW116019   2.656   2.007   6.406 -0.5080  0.6138 -0.4419
 1461SOL    HW216020   2.785   1.999   6.344  0.2208 -1.2345 -1.7513
 1462SOL     OW16021   1.471   3.834  15.559 -0.3654 -0.1517 -0.0073
 1462SOL    HW116022   1.506   3.903  15.615 -2.5444 -1.0084  2.4123
 1462SOL    HW216023   1.424   3.886  15.493 -0.7157 -0.9308 -0.3766
 1463SOL     OW16024   2.849   0.443   5.214 -0.3842 -0.2302  0.6369
 1463SOL    HW116025   2.938   0.470   5.238  0.7645 -2.2745 -1.2694
 1463SOL    HW216026   2.875   0.353   5.196 -0.1130 -0.2657  1.2089
 1464SOL     OW16027   3.175   1.478   3.608  0.5931  0.4831  0.5877
 1464SOL    HW116028   3.100   1.526   3.574 -0.5360 -1.2726  0.5639
 1464SOL    HW216029   3.226   1.542   3.657  2.0818  1.8305 -2.7356
 1465SOL     OW16030   1.147   0.996   7.478  0.1015  0.0663 -0.1459
 1465SOL    HW116031   1.205   0.973   7.550 -3.2645 -1.0910  2.1714
 1465SOL    HW216032   1.162   0.920   7.421  2.5502  0.1529  0.3672
 1466SOL     OW16033   3.508   3.464  12.945 -0.8527 -0.2921 -0.5183
 1466SOL    HW116034   3.472   3.487  13.030  1.0538  2.2679 -0.4092
 1466SOL    HW216035   3.471   3.376  12.940  0.7544 -1.0889  1.6867
 1467SOL     OW16036   1.412   4.706  10.415 -0.1954 -0.0519  0.1981
 1467SOL    HW116037   1.474   4.713  10.488 -0.7502  0.5975  0.6096
 1467SOL    HW216038   1.437   4.625  10.371 -0.8518 -0.1735  0.0559
 1468SOL     OW16039   0.917   1.087  11.038  0.3466  0.0993  0.2184
 1468SOL    HW116040   0.900   0.993  11.034 -1.7469  0.4837  0.0170
 1468SOL    HW216041   1.010   1.099  11.017  0.0654 -1.7107 -2.0305
 1469SOL     OW16042   1.196   2.874   6.073  0.3235  0.3720 -0.3487
 1469SOL    HW116043   1.226   2.920   6.151  0.2328  0.7420 -0.5336
 1469SOL    HW216044   1.226   2.784   6.089  0.2632  0.4663  0.2928
 1470SOL     OW16045   2.758   3.751   1.719  0.0933 -0.5104  0.2485
 1470SOL    HW116046   2.802   3.667   1.733 -0.5776 -1.1873 -1.6027
 1470SOL    HW216047   2.688   3.720   1.660  0.0040  1.1800 -0.5523
 1471SOL     OW16048   2.360   3.983   0.254 -0.1696  0.5793  0.2843
 1471SOL    HW116049   2.403   3.919   0.311  1.3959  0.0463 -1.4864
 1471SOL    HW216050   2.412   3.967   0.175  0.6664 -0.1897  0.9923
 1472SOL     OW16051   3.733   3.582  17.323 -0.2678 -0.2291 -0.4866
 1472SOL    HW116052   3.668   3.541  17.380  0.9316  0.1737  1.1612
 1472SOL    HW216053   3.719   3.673  17.348  0.3188 -1.1588  3.2040
 1473SOL     OW16054   3.794   2.058   2.497  1.0845 -0.1767  0.1562
 1473SOL    HW116055   3.780   2.022   2.409 -0.1727 -0.5989  0.5278
 1473SOL    HW216056   3.722   2.011   2.538  1.3447  0.0759  0.8899
 1474SOL     OW16057   2.647   0.535   8.963  0.0919  0.1057 -1.2208
 1474SOL    HW116058   2.660   0.528   8.869 -0.9608  0.6471 -1.4026
 1474SOL    HW216059   2.597   0.616   8.971 -0.7353 -0.7910  3.1103
 1475SOL     OW16060   1.905   2.650   3.636  0.3128  0.3107  0.2029
 1475SOL    HW116061   1.949   2.616   3.558 -0.5214 -2.8472  1.1276
 1475SOL    HW216062   1.948   2.598   3.703  1.2135  2.7097  1.4879
 1476SOL     OW16063   0.877   1.345  10.142 -0.0679  0.2069  0.4217
 1476SOL    HW116064   0.901   1.267  10.191 -0.9605 -1.1058 -1.2482
 1476SOL    HW216065   0.886   1.311  10.053 -1.0457 -0.0601  0.4208
 1477SOL     OW16066   4.027   3.683  12.211  0.2534 -0.6299  0.4125
 1477SOL    HW116067   4.024   3.633  12.293 -2.2722  0.2459  0.8455
 1477SOL    HW216068   4.062   3.770  12.232 -1.5924  0.8048 -2.4672
 1478SOL     OW16069   4.408   0.301  13.277 -0.1923 -0.0867  0.2256
 1478SOL    HW116070   4.383   0.304  13.185 -0.0291 -2.5151  0.1062
 1478SOL    HW216071   4.501   0.279  13.275  0.2283  1.3318  3.3904
 1479SOL     OW16072   3.733   3.899   4.067 -0.9744  0.0960 -0.2360
 1479SOL    HW116073   3.756   3.811   4.099 -3.6558 -0.9153 -1.0923
 1479SOL    HW216074   3.802   3.905   4.002 -1.6605  1.9188 -0.7980
 1480SOL     OW16075   1.703   0.185  16.116  0.2633 -0.5260  0.0794
 1480SOL    HW116076   1.618   0.149  16.090  0.1995 -1.9515  2.2667
 1480SOL    HW216077   1.754   0.214  16.040 -0.0375  1.1196  0.4925
 1481SOL     OW16078   0.630   3.062   2.955 -0.3143  0.8194 -0.1406
 1481SOL    HW116079   0.724   3.071   2.969 -0.5034  0.8020  1.1114
 1481SOL    HW216080   0.627   2.966   2.962 -0.4059  0.8707  0.4834
 1482SOL     OW16081   3.193   2.606   3.432  0.1926 -0.4961 -0.0228
 1482SOL    HW116082   3.275   2.576   3.392  0.2181 -2.6633  1.6654
 1482SOL    HW216083   3.139   2.602   3.353  1.2512  2.6488 -0.9282
 1483SOL     OW16084   4.156   2.694   0.158 -0.0850  0.2723 -0.1617
 1483SOL    HW116085   4.168   2.606   0.193 -0.1646  0.0025 -0.7970
 1483SOL    HW216086   4.246   2.720   0.141 -0.2254  0.0445 -1.2579
 1484SOL     OW16087   4.696   1.052  12.948  0.1926  0.8920  0.5400
 1484SOL    HW116088   4.718   1.128  13.002  1.6073 -0.8021  2.3376
 1484SOL    HW216089   4.668   0.990  13.015  0.0209  1.9493  1.4497
 1485SOL     OW16090   1.145   3.284   6.897 -0.0174  0.3985 -0.2465
 1485SOL    HW116091   1.172   3.195   6.919  0.2727 -0.1408 -2.7878
 1485SOL    HW216092   1.219   3.325   6.941 -0.7594 -0.0192  1.4035
 1486SOL     OW16093   1.138   3.350  16.524  0.1654 -0.3127  0.0266
 1486SOL    HW116094   1.113   3.441  16.504 -2.7691 -1.0606  0.3049
 1486SOL    HW216095   1.229   3.362  16.499 -0.5822 -0.1505 -2.6805
 1487SOL     OW16096   4.036   0.656  14.417 -0.4915 -0.2760 -0.1393
 1487SOL    HW116097   4.071   0.599  14.485  0.5390  2.0716  1.2797
 1487SOL    HW216098   4.076   0.610  14.343  1.7968  1.3883  0.0818
 1488SOL     OW16099   2.224   1.603   1.483 -0.6715  0.3460  0.3799
 1488SOL    HW116100   2.131   1.598   1.460 -0.4500  0.2326 -0.4892
 1488SOL    HW216101   2.229   1.535   1.550 -1.0077  0.5794  0.6465
 1489SOL     OW16102   1.956   3.369   8.604 -0.0723  0.1992 -0.1184
 1489SOL    HW116103   1.881   3.335   8.653 -1.0062  1.3784 -0.7221
 1489SOL    HW216104   2.026   3.321   8.647  0.3019  0.3028 -0.6046
 1490SOL     OW16105   3.263   2.193  11.009  0.1786  0.0607  0.0178
 1490SOL    HW116106   3.293   2.245  10.935  1.5302 -1.2918 -0.3895
 1490SOL    HW216107   3.195   2.247  11.050 -1.0247  0.5196 -2.6377
 1491SOL     OW16108   0.995   3.493   9.541  0.6179  0.0366 -0.0659
 1491SOL    HW116109   1.085   3.523   9.525  1.2568 -0.9527  1.5728
 1491SOL    HW216110   1.007   3.458   9.630 -0.3830  0.6559  0.3054
 1492SOL     OW16111   1.294   4.201  15.091  0.1534 -0.4555 -0.0366
 1492SOL    HW116112   1.214   4.248  15.115  0.7001  0.1686  0.5426
 1492SOL    HW216113   1.254   4.156  15.016  0.2858 -1.3427  0.4253
 1493SOL     OW16114   4.152   2.702   4.510  0.8984  0.3012 -0.0389
 1493SOL    HW116115   4.132   2.780   4.458  0.0649 -1.0033 -1.6537
 1493SOL    HW216116   4.074   2.648   4.498  0.4605  1.1727 -1.1145
 1494SOL     OW16117   1.991   0.781   6.803  0.7135  0.3250 -0.1146
 1494SOL    HW116118   2.049   0.819   6.737 -0.5086  1.1250 -0.7143
 1494SOL    HW216119   2.050   0.706   6.811  0.1901  0.0374  1.0828
 1495SOL     OW16120   3.238   2.724   2.691  0.6655 -0.5698 -0.4732
 1495SOL    HW116121   3.240   2.682   2.777 -1.3776 -1.7811 -1.0180
 1495SOL    HW216122   3.145   2.712   2.670  0.1731  0.1404  1.3280
 1496SOL     OW16123   1.369   1.522   3.810  0.0518  0.0909  0.3147
 1496SOL    HW116124   1.358   1.589   3.877 -0.0578 -0.4005  0.7966
 1496SOL    HW216125   1.389   1.448   3.868 -0.5289 -0.9321 -0.7980
 1497SOL     OW16126   1.947   0.333   0.913  0.1486  0.6066  0.4433
 1497SOL    HW116127   2.006   0.271   0.869  0.5289  3.0423 -2.4801
 1497SOL    HW216128   1.920   0.398   0.849  1.2273 -0.0116 -0.6454
 1498SOL     OW16129   3.890   3.990  16.766  0.6009 -1.0662 -0.2784
 1498SOL    HW116130   3.853   4.077  16.756  0.7751 -0.7483  1.7651
 1498SOL    HW216131   3.836   3.946  16.700 -0.4178 -0.2023 -0.0144
 1499SOL     OW16132   3.322   3.795  11.158  0.2392  0.3763 -0.2435
 1499SOL    HW116133   3.234   3.820  11.187 -0.5633 -0.2660 -2.1711
 1499SOL    HW216134   3.351   3.733  11.225  1.4255  0.3619 -0.7674
 1500SOL     OW16135   1.225   3.165   5.364  0.1557 -0.1719 -0.3741
 1500SOL    HW116136   1.143   3.150   5.411  1.1016  1.5048  1.8212
 1500SOL    HW216137   1.209   3.175   5.270 -1.0106  2.4426  0.1070
 1501SOL     OW16138   2.275   3.880  14.885 -0.0031 -0.0169  0.2398
 1501SOL    HW116139   2.285   3.924  14.970 -2.4438 -2.0684  1.5837
 1501SOL    HW216140   2.324   3.938  14.826 -0.5292  0.0077 -0.1725
 1502SOL     OW16141   0.814   0.208   6.840 -0.2750  0.3089 -0.7998
 1502SOL    HW116142   0.780   0.297   6.832 -1.3671  0.1701  2.2791
 1502SOL    HW216143   0.798   0.194   6.933 -2.7409 -0.0477 -1.2919
 1503SOL     OW16144   0.791   3.973   1.908 -0.1542 -0.0421  0.8039
 1503SOL    HW116145   0.774   3.965   1.814 -1.2855  2.5476  0.7665
 1503SOL    HW216146   0.884   3.955   1.895  0.4391  2.6109  1.3634
 1504SOL     OW16147   3.683   1.304  10.424 -0.1474  0.0523  0.4541
 1504SOL    HW116148   3.621   1.260  10.366 -0.2361  0.0773  0.5289
 1504SOL    HW216149   3.628   1.371  10.466  0.8850  0.1570  1.6289
 1505SOL     OW16150   0.106   4.337   2.580 -0.6454 -0.9828 -0.0801
 1505SOL    HW116151   0.061   4.344   2.664 -0.1691  1.7584 -0.0495
 1505SOL    HW216152   0.027   4.315   2.531  0.3289  0.9972 -2.5461
 1506SOL     OW16153   3.846   2.603  10.287 -0.2883  0.0078 -0.3348
 1506SOL    HW116154   3.877   2.555  10.210 -0.1600 -2.4868  1.3013
 1506SOL    HW216155   3.753   2.579  10.280  0.2540 -1.1254 -3.8071
 1507SOL     OW16156   0.054   0.427  16.252 -0.3263 -0.5739  0.2317
 1507SOL    HW116157   0.065   0.512  16.294 -0.8883  0.4364 -1.6631
 1507SOL    HW216158   0.129   0.380  16.289 -0.4374 -0.5744  0.4555
 1508SOL     OW16159   0.809   1.932   4.542  0.2232 -0.3810  0.0321
 1508SOL    HW116160   0.775   1.917   4.454  1.5832 -1.1675 -0.3538
 1508SOL    HW216161   0.879   1.994   4.526  0.8365 -1.5806 -1.9604
 1509SOL     OW16162   1.120   0.437   4.995 -0.2133  0.4292 -0.1766
 1509SOL    HW116163   1.083   0.486   4.922  0.0595  0.5566 -0.2295
 1509SOL    HW216164   1.204   0.401   4.965  1.1308  0.9878  2.8631
 1510SOL     OW16165   0.061   0.034   3.257  0.2273  0.7241  0.0561
 1510SOL    HW116166   0.094   4.700   3.208 -0.8817  1.1928 -1.3887
 1510SOL    HW216167   0.118   0.022   3.333 -1.0948  1.8411  1.2227
 1511SOL     OW16168   2.438   2.639   7.150 -0.4165  0.3051  0.1440
 1511SOL    HW116169   2.398   2.552   7.151 -1.6874  0.9000  1.4098
 1511SOL    HW216170   2.394   2.679   7.074  0.6430 -0.3671 -0.8271
 1512SOL     OW16171   1.649   1.184  13.270 -0.1495  0.5688  0.7024
 1512SOL    HW116172   1.610   1.119  13.211 -0.4410  1.0862  0.3271
 1512SOL    HW216173   1.580   1.177  13.337 -1.7148  1.4005 -0.8143
 1513SOL     OW16174   1.545   0.354   7.913 -0.1783 -0.1179 -0.9166
 1513SOL    HW116175   1.639   0.338   7.902  0.2082  1.0150  0.7092
 1513SOL    HW216176   1.505   0.300   7.844  0.4011 -1.0078 -0.5630
 1514SOL     OW16177   2.458   1.111   9.486  0.4076 -0.2047  0.1682
 1514SOL    HW116178   2.372   1.149   9.468  0.1999 -0.4612  0.5998
 1514SOL    HW216179   2.439   1.066   9.569 -1.2264  1.3081  0.6350
 1515SOL     OW16180   3.185   3.938   5.166  0.5635 -0.1611  0.5435
 1515SOL    HW116181   3.257   3.888   5.127  1.8672  2.5306 -0.5092
 1515SOL    HW216182   3.152   3.885   5.238 -3.4108  2.0970  0.4076
 1516SOL     OW16183   2.160   2.806   5.228  0.3876 -0.8013  0.4891
 1516SOL    HW116184   2.130   2.728   5.275 -1.1314  0.2668  1.3031
 1516SOL    HW216185   2.084   2.861   5.248  0.2730 -0.6488 -0.3645
 1517SOL     OW16186   0.920   0.497  14.342 -0.0188 -0.1741  0.6609
 1517SOL    HW116187   0.870   0.529  14.417  1.7380 -1.0416  2.2182
 1517SOL    HW216188   0.933   0.405  14.365 -0.1275 -0.8109 -1.7941
 1518SOL     OW16189   0.881   1.054   4.611 -0.7750  0.1219 -0.3790
 1518SOL    HW116190   0.857   1.147   4.609 -0.6369  0.1479 -0.7515
 1518SOL    HW216191   0.848   1.030   4.524  0.8005 -0.5921 -0.7760
 1519SOL     OW16192   0.202   2.670   6.649 -0.1372  0.1152 -0.2104
 1519SOL    HW116193   0.221   2.579   6.628 -0.3003 -0.5917  2.6666
 1519SOL    HW216194   0.208   2.725   6.571 -0.4868  0.2741 -0.1231
 1520SOL     OW16195   2.665   1.742   4.082  0.0101  0.2426  0.2242
 1520SOL    HW116196   2.759   1.747   4.094  0.2974 -0.7416 -1.5493
 1520SOL    HW216197   2.649   1.781   3.995 -1.9543  2.2390  1.4617
 1521SOL     OW16198   2.607   3.112   7.580  0.4479 -0.3689 -0.1354
 1521SOL    HW116199   2.627   3.073   7.665  2.7290  1.0671 -0.0091
 1521SOL    HW216200   2.591   3.040   7.519 -0.0110 -2.2672  2.2882
 1522SOL     OW16201   1.629   3.878   6.613  0.1864  0.4988  0.5116
 1522SOL    HW116202   1.592   3.792   6.596 -0.5822  0.8771  0.2833
 1522SOL    HW216203   1.602   3.933   6.539 -1.2040 -0.4644  0.3084
 1523SOL     OW16204   1.018   4.652  11.251  0.1395 -0.3147  0.1710
 1523SOL    HW116205   1.102   4.655  11.205 -0.0278  2.1488  0.0475
 1523SOL    HW216206   1.047   4.692  11.333 -1.7970 -0.2027  0.8112
 1524SOL     OW16207   1.290   0.716   6.979 -0.3404  0.0235  0.5022
 1524SOL    HW116208   1.277   0.694   6.887 -0.7682 -0.2605  0.6268
 1524SOL    HW216209   1.315   0.627   7.005 -1.6039 -0.1004  1.3125
 1525SOL     OW16210   2.656   2.005   1.218 -0.2257  0.3070 -0.4698
 1525SOL    HW116211   2.626   2.017   1.308  1.6671 -0.9337  0.3411
 1525SOL    HW216212   2.649   1.909   1.211 -1.3267  0.4285 -1.0474
 1526SOL     OW16213   0.244   0.811   3.039 -0.8255 -0.3214 -0.4351
 1526SOL    HW116214   0.218   0.720   3.052 -1.1541 -0.1651  0.0182
 1526SOL    HW216215   0.205   0.828   2.953 -1.3549  1.3127  0.1310
 1527SOL     OW16216   3.462   3.976   2.299  0.2026 -0.3230  0.0292
 1527SOL    HW116217   3.541   3.925   2.315  1.7503  1.5532 -1.6843
 1527SOL    HW216218   3.418   3.913   2.242 -0.0517  0.2416 -0.3990
 1528SOL     OW16219   4.331   0.110   7.459  0.5867  0.0041  0.2827
 1528SOL    HW116220   4.391   0.171   7.416  0.3595  0.6943  0.9549
 1528SOL    HW216221   4.386   0.076   7.529  1.0418 -0.4129 -0.2741
 1529SOL     OW16222   1.812   2.367   9.053  0.3141 -0.2516 -0.0166
 1529SOL    HW116223   1.834   2.274   9.040  4.4113  0.7948 -0.4603
 1529SOL    HW216224   1.896   2.413   9.052 -0.2648  0.7655 -1.2776
 1530SOL     OW16225   1.033   4.680   8.258 -0.5301 -0.0177 -0.1922
 1530SOL    HW116226   1.070   4.681   8.347 -1.8827  2.0044  0.3361
 1530SOL    HW216227   0.957   4.736   8.273 -0.9663 -1.0125  1.2827
 1531SOL     OW16228   4.274   1.684  12.947  0.5284  0.2859  0.0688
 1531SOL    HW116229   4.178   1.676  12.944  0.5747 -0.4933  0.9885
 1531SOL    HW216230   4.294   1.624  13.019 -0.9885  0.1573  0.3797
 1532SOL     OW16231   0.819   4.413   5.527  0.1278 -0.1563 -0.1876
 1532SOL    HW116232   0.740   4.367   5.499 -0.5870  0.1041  1.4350
 1532SOL    HW216233   0.786   4.502   5.535 -1.5489 -0.6789 -1.4341
 1533SOL     OW16234   1.545   2.320   5.857 -0.0932  0.6960 -0.5662
 1533SOL    HW116235   1.637   2.340   5.875  0.0643 -0.0055 -0.5987
 1533SOL    HW216236   1.558   2.294   5.766  1.1193  0.5948 -0.3612
 1534SOL     OW16237   4.322   1.360   5.639 -0.8981 -0.2913 -0.8453
 1534SOL    HW116238   4.362   1.371   5.553  0.3975  0.8740 -0.0973
 1534SOL    HW216239   4.304   1.454   5.646 -0.8499 -0.2722 -0.9907
 1535SOL     OW16240   0.099   3.180   4.105 -0.5181  0.7045 -0.1824
 1535SOL    HW116241   0.092   3.184   4.010 -1.5033 -0.8067 -0.1845
 1535SOL    HW216242   0.014   3.219   4.124 -0.9199 -1.8491  3.3370
 1536SOL     OW16243   3.623   2.959   6.991 -0.2213  0.3879 -0.1337
 1536SOL    HW116244   3.603   3.042   6.948 -2.6949 -0.1997 -0.1645
 1536SOL    HW216245   3.718   2.968   6.994 -0.3142  1.3108 -0.0330
 1537SOL     OW16246   3.940   0.419   7.666 -0.3030 -0.2663 -0.0909
 1537SOL    HW116247   3.994   0.442   7.741 -0.7622 -0.4305  0.2920
 1537SOL    HW216248   3.933   0.326   7.686  0.1395 -0.0201  1.2424
 1538SOL     OW16249   2.966   1.663   1.495 -0.1950 -0.7135 -0.6351
 1538SOL    HW116250   3.024   1.702   1.560 -1.7877  0.9362 -0.2491
 1538SOL    HW216251   2.900   1.730   1.486  0.2193 -0.1808  0.3374
 1539SOL     OW16252   1.668   4.472  16.084  0.4655  0.4337  0.0743
 1539SOL    HW116253   1.621   4.411  16.141 -1.9520  2.4395  0.2035
 1539SOL    HW216254   1.731   4.510  16.145 -1.3882  4.4521 -0.5524
 1540SOL     OW16255   2.091   2.916   2.803 -0.1293  0.5409 -0.9002
 1540SOL    HW116256   2.172   2.893   2.848  0.4164  1.8324 -1.2392
 1540SOL    HW216257   2.111   2.981   2.736 -0.8800  0.4347 -1.2313
 1541SOL     OW16258   0.139   4.018   9.100  0.3401 -0.4383 -0.2628
 1541SOL    HW116259   0.197   4.088   9.070  2.4162 -1.9596  0.2059
 1541SOL    HW216260   0.122   3.968   9.020  1.2103 -1.2424  0.0453
 1542SOL     OW16261   3.370   1.602   4.308  0.3965  0.6739 -0.2111
 1542SOL    HW116262   3.377   1.665   4.236 -0.9474 -1.9245 -2.5981
 1542SOL    HW216263   3.282   1.618   4.342  0.7698  1.0497  0.5874
 1543SOL     OW16264   1.258   2.370   2.972 -0.1297 -0.2965 -0.4691
 1543SOL    HW116265   1.208   2.446   2.942 -3.2286 -2.6810 -1.4055
 1543SOL    HW216266   1.321   2.417   3.027 -2.0597  0.2414  1.2782
 1544SOL     OW16267   4.489   3.525   9.305  0.3726  0.2717  0.3775
 1544SOL    HW116268   4.409   3.561   9.343 -0.5102 -0.0967 -1.1472
 1544SOL    HW216269   4.550   3.537   9.378  1.5170 -0.2604 -0.4933
 1545SOL     OW16270   3.526   2.809  15.586 -0.1316 -0.2329  0.9067
 1545SOL    HW116271   3.432   2.803  15.570 -0.2311 -0.8793  1.7271
 1545SOL    HW216272   3.533   2.854  15.670 -2.0172  2.2511 -0.2397
 1546SOL     OW16273   0.199   4.272   3.207 -0.0080  0.3337  0.4717
 1546SOL    HW116274   0.256   4.298   3.279  0.1224  1.3799 -0.0157
 1546SOL    HW216275   0.192   4.179   3.231 -0.8692  0.1505 -0.4851
 1547SOL     OW16276   0.664   3.970   7.017  0.7008  0.0035 -0.6225
 1547SOL    HW116277   0.626   4.036   6.958  1.6985 -0.0020 -1.2786
 1547SOL    HW216278   0.629   3.890   6.978  0.5823  0.6445 -1.8629
 1548SOL     OW16279   3.427   0.347   5.092 -0.2526 -0.0341 -0.7262
 1548SOL    HW116280   3.519   0.373   5.098  0.4388 -2.7472  0.5635
 1548SOL    HW216281   3.423   0.301   5.008 -0.5757  1.1609 -1.3644
 1549SOL     OW16282   1.526   3.948   6.359 -0.3997 -0.0687 -0.1557
 1549SOL    HW116283   1.431   3.958   6.349 -0.7025 -1.1754  1.6684
 1549SOL    HW216284   1.535   3.866   6.311 -1.5301  0.4552 -1.2614
 1550SOL     OW16285   0.816   4.512   6.407  0.1714  0.5423 -0.1672
 1550SOL    HW116286   0.789   4.475   6.323  3.1968 -1.4186 -0.2679
 1550SOL    HW216287   0.758   4.587   6.420 -0.6236 -0.2218  0.7583
 1551SOL     OW16288   3.820   0.729   8.434  1.0779 -0.4942 -0.0682
 1551SOL    HW116289   3.743   0.700   8.484 -1.2025  0.1336 -3.2189
 1551SOL    HW216290   3.883   0.684   8.490  1.4693  2.4536  1.8508
 1552SOL     OW16291   1.225   3.319   4.240  0.2495  0.0782  0.2051
 1552SOL    HW116292   1.173   3.347   4.164 -0.2211  0.4339  0.6611
 1552SOL    HW216293   1.314   3.332   4.208 -0.8323  1.4451 -2.2455
 1553SOL     OW16294   1.951   1.637   1.373  0.4531  0.1313 -0.1374
 1553SOL    HW116295   1.948   1.570   1.304  2.5693  1.1712 -1.2128
 1553SOL    HW216296   1.940   1.717   1.322 -1.3476 -0.5586 -0.8424
 1554SOL     OW16297   0.706   2.449  13.552  0.5362 -0.0680 -0.2683
 1554SOL    HW116298   0.721   2.491  13.637 -2.8497  0.0116  0.2681
 1554SOL    HW216299   0.692   2.358  13.581  1.1573 -0.0827 -0.0161
 1555SOL     OW16300   1.977   3.773   3.061  0.1029 -0.0536  0.1594
 1555SOL    HW116301   2.028   3.806   2.987 -2.6501  3.0938 -0.3180
 1555SOL    HW216302   2.017   3.687   3.073 -1.4884 -0.7114  0.7502
 1556SOL     OW16303   4.086   2.818   9.059 -0.1958  0.0007  0.2664
 1556SOL    HW116304   4.055   2.904   9.030  0.6499  0.5459  0.9983
 1556SOL    HW216305   4.179   2.832   9.042  0.8343 -3.2843  3.2594
 1557SOL     OW16306   3.983   1.724   9.326 -0.3822 -0.7068 -0.1464
 1557SOL    HW116307   3.897   1.724   9.284  0.5510 -0.0619 -2.0439
 1557SOL    HW216308   4.031   1.680   9.256 -1.0197 -0.1432 -0.9347
 1558SOL     OW16309   2.125   0.011   1.582  0.1295 -0.0457 -0.0501
 1558SOL    HW116310   2.101   0.012   1.490 -0.4807 -1.2601  0.0931
 1558SOL    HW216311   2.100   4.662   1.609  0.9652  0.8461  3.6060
 1559SOL     OW16312   1.655   0.111   1.487  0.8516  0.4281  0.0396
 1559SOL    HW116313   1.571   0.125   1.443 -0.3422  1.6531  2.7011
 1559SOL    HW216314   1.706   0.187   1.457  2.3586 -0.3185  0.6976
 1560SOL     OW16315   4.536   1.071   5.122 -0.0239  0.0429 -0.3021
 1560SOL    HW116316   4.447   1.048   5.151 -0.7758 -1.6514 -3.9121
 1560SOL    HW216317   4.509   1.163   5.125 -0.5009 -0.0242 -2.3977
 1561SOL     OW16318   3.180   1.912   7.542 -0.7034 -0.2254  0.1773
 1561SOL    HW116319   3.210   1.873   7.625 -0.3947 -0.3067  0.0283
 1561SOL    HW216320   3.087   1.924   7.561 -0.5149  0.7522  0.4705
 1562SOL     OW16321   3.346   4.721   9.177  0.3203 -0.0131 -0.2306
 1562SOL    HW116322   3.300   0.046   9.229  1.1821 -1.1500  1.9172
 1562SOL    HW216323   3.276   4.680   9.126 -0.5661 -0.0174  0.9898
 1563SOL     OW16324   1.603   3.348   3.823  0.8152  0.4501  0.7613
 1563SOL    HW116325   1.631   3.420   3.880  0.1374  0.4563  1.0901
 1563SOL    HW216326   1.631   3.270   3.871  1.2750  0.3758  0.3705
 1564SOL     OW16327   2.655   1.655   6.806 -0.4488  0.1441  0.0306
 1564SOL    HW116328   2.581   1.653   6.866 -2.5660 -2.4274 -2.6575
 1564SOL    HW216329   2.616   1.717   6.744  0.7500  0.4724 -0.3992
 1565SOL     OW16330   3.035   4.494   7.456  0.8160 -0.1841  0.6525
 1565SOL    HW116331   3.102   4.526   7.395 -2.2759  3.1898 -0.9467
 1565SOL    HW216332   2.968   4.560   7.439  3.1759  2.1993  0.4977
 1566SOL     OW16333   1.246   3.865   6.681  0.5707 -0.8299  0.1955
 1566SOL    HW116334   1.296   3.917   6.619 -1.0834  0.6683  0.1153
 1566SOL    HW216335   1.208   3.931   6.738  0.7653  1.2857 -2.1397
 1567SOL     OW16336   2.893   4.442  17.044 -0.3240 -0.0785 -0.2842
 1567SOL    HW116337   2.882   4.374  17.110  0.1868  0.9045  0.8019
 1567SOL    HW216338   2.875   4.395  16.963  0.9225 -0.1762 -0.5019
 1568SOL     OW16339   4.266   2.872  16.154  0.0595  0.3749 -0.4893
 1568SOL    HW116340   4.281   2.966  16.165 -0.3215  0.5317 -1.2670
 1568SOL    HW216341   4.345   2.829  16.185 -0.5428 -0.0373  0.4707
 1569SOL     OW16342   3.157   4.476   8.342  0.1483  0.1620  0.2461
 1569SOL    HW116343   3.212   4.555   8.340  0.5119 -0.0419  1.8544
 1569SOL    HW216344   3.118   4.492   8.256  3.3662  0.5998 -1.1407
 1570SOL     OW16345   2.096   4.223   2.958 -0.0989 -0.0880  0.0376
 1570SOL    HW116346   2.018   4.231   3.013  0.0308 -0.5430  0.2849
 1570SOL    HW216347   2.161   4.169   3.002 -1.2976  0.8810  3.0514
 1571SOL     OW16348   3.223   4.657   0.864 -0.2130  0.5241  0.0800
 1571SOL    HW116349   3.168   4.683   0.938 -0.0939  1.9634 -0.3361
 1571SOL    HW216350   3.213   4.562   0.871 -2.3158  0.7582  0.2430
 1572SOL     OW16351   1.130   2.123   8.360 -0.1076 -0.0675  0.1803
 1572SOL    HW116352   1.167   2.203   8.321 -0.4536  0.2011  0.4077
 1572SOL    HW216353   1.090   2.081   8.284 -0.2933 -0.7525  0.6680
 1573SOL     OW16354   3.766   2.266   8.255  0.2179  0.2318  0.0207
 1573SOL    HW116355   3.726   2.242   8.338  0.4889 -0.8191 -0.1515
 1573SOL    HW216356   3.787   2.356   8.279  0.2422  0.2840 -0.1921
 1574SOL     OW16357   2.068   1.194   8.382  0.3554 -0.2742 -0.2312
 1574SOL    HW116358   2.065   1.134   8.307 -0.4210  0.4596 -0.7812
 1574SOL    HW216359   2.134   1.259   8.359 -1.2777  2.0600  1.6925
 1575SOL     OW16360   0.642   3.715   6.887 -0.0741 -0.1949  0.0084
 1575SOL    HW116361   0.649   3.657   6.811 -1.0699  0.2619 -0.4327
 1575SOL    HW216362   0.652   3.652   6.958  1.0046  1.7023  1.5499
 1576SOL     OW16363   4.491   2.815   1.085  0.0467  0.1376  0.0916
 1576SOL    HW116364   4.462   2.850   1.001 -0.1577 -1.0218 -0.3201
 1576SOL    HW216365   4.536   2.733   1.065 -2.1695 -1.2331  0.6448
 1577SOL     OW16366   4.174   2.069  11.797  0.1196 -0.0163  0.3735
 1577SOL    HW116367   4.178   2.007  11.724 -0.6462  0.1020  0.2293
 1577SOL    HW216368   4.260   2.050  11.835  0.6776 -0.0380 -0.9036
 1578SOL     OW16369   0.358   3.746   4.675  0.0141  0.2883 -0.2373
 1578SOL    HW116370   0.395   3.752   4.586 -0.2312  1.7123 -0.2487
 1578SOL    HW216371   0.265   3.752   4.655 -0.4452 -1.5409  1.3573
 1579SOL     OW16372   1.642   1.006  17.685 -0.3845 -0.5096  0.0583
 1579SOL    HW116373   1.569   1.057  17.720 -0.8418 -0.5596 -0.7999
 1579SOL    HW216374   1.638   1.040  17.595 -1.2551  1.9396  1.0039
 1580SOL     OW16375   4.185   2.276   1.083 -0.1850  0.0614  0.4984
 1580SOL    HW116376   4.237   2.242   1.155  0.1967 -0.9512 -0.2516
 1580SOL    HW216377   4.215   2.367   1.075 -0.7994 -0.0053 -2.7901
 1581SOL     OW16378   0.780   2.755  16.618  0.2022 -0.5440  0.1046
 1581SOL    HW116379   0.851   2.780  16.677 -0.6453 -1.1693  1.3854
 1581SOL    HW216380   0.748   2.837  16.579  1.3414  0.7566  1.8931
 1582SOL     OW16381   2.564   0.097   6.302 -0.0197  0.0958 -0.1337
 1582SOL    HW116382   2.650   0.058   6.315 -0.8799 -2.0704 -0.9495
 1582SOL    HW216383   2.584   0.184   6.267 -1.4209  0.2370 -0.5821
 1583SOL     OW16384   4.419   4.717  11.453 -0.1640 -0.5081 -0.5043
 1583SOL    HW116385   4.477   0.045  11.486 -1.0921 -0.6744  1.4634
 1583SOL    HW216386   4.338   0.022  11.431  0.0838  1.0944  1.9148
 1584SOL     OW16387   3.544   3.322  13.914  0.3435  0.7099 -0.7301
 1584SOL    HW116388   3.483   3.387  13.950 -0.2779  1.0572 -2.3863
 1584SOL    HW216389   3.625   3.372  13.904  0.9183  0.1828  1.4024
 1585SOL     OW16390   0.889   0.349   5.867  0.0550  0.2552  0.0959
 1585SOL    HW116391   0.893   0.329   5.773 -1.0231 -2.6971  0.6495
 1585SOL    HW216392   0.967   0.302   5.896 -0.4764 -0.2124  0.7654
 1586SOL     OW16393   0.821   0.516  10.128  0.3132 -0.2627  0.7038
 1586SOL    HW116394   0.833   0.505  10.033 -1.1005 -1.3538  0.6562
 1586SOL    HW216395   0.810   0.423  10.145 -0.0742 -0.4942 -0.8248
 1587SOL     OW16396   0.523   3.224  12.450  0.1601  0.0087 -0.7638
 1587SOL    HW116397   0.475   3.145  12.473 -0.4349  0.0963 -1.6766
 1587SOL    HW216398   0.563   3.247  12.534  0.1939 -2.9482  0.0121
 1588SOL     OW16399   2.963   2.837   4.725  0.4068 -0.3898 -0.1592
 1588SOL    HW116400   2.907   2.914   4.728 -0.5582 -1.1597  2.2002
 1588SOL    HW216401   2.994   2.838   4.816 -0.9360 -2.2203  0.3250
 1589SOL     OW16402   0.413   3.871   0.306  0.2393  0.5317 -0.0929
 1589SOL    HW116403   0.418   3.791   0.253 -1.3885  0.4972 -0.1815
 1589SOL    HW216404   0.382   3.938   0.246  1.7011 -0.1279 -1.6194
 1590SOL     OW16405   0.512   2.065   5.959 -0.4257  0.5231 -0.1353
 1590SOL    HW116406   0.539   1.980   5.925 -3.3886 -0.4876 -0.0112
 1590SOL    HW216407   0.418   2.064   5.941 -0.0613  0.7860 -2.0154
 1591SOL     OW16408   2.867   4.373   4.635  0.0817 -0.3873 -0.1814
 1591SOL    HW116409   2.786   4.416   4.608 -0.0679  1.4780  3.1526
 1591SOL    HW216410   2.937   4.438   4.629  0.0826 -0.3082  0.7233
 1592SOL     OW16411   1.935   2.817   0.110 -0.2909 -0.3747  0.0373
 1592SOL    HW116412   1.908   2.749   0.172 -0.0434 -0.4329  0.0799
 1592SOL    HW216413   2.008   2.776   0.065  2.1331  2.0455  1.7927
 1593SOL     OW16414   1.406   3.555   8.708  0.2744 -0.0872 -0.1554
 1593SOL    HW116415   1.376   3.572   8.797  0.1138  0.2963 -0.2809
 1593SOL    HW216416   1.422   3.646   8.684 -1.2788  0.6403  1.6175
 1594SOL     OW16417   3.775   2.787  14.549  0.1835 -0.2700 -0.3755
 1594SOL    HW116418   3.738   2.706  14.585  0.9099 -0.4208  0.0337
 1594SOL    HW216419   3.855   2.802  14.599 -1.3348  1.1700  1.6398
 1595SOL     OW16420   2.437   3.445   7.434 -0.0385 -0.2240 -0.0448
 1595SOL    HW116421   2.405   3.360   7.404 -1.4875 -0.0568  1.0397
 1595SOL    HW216422   2.405   3.508   7.369 -0.8346 -1.5867 -0.9816
 1596SOL     OW16423   2.605   4.278   8.049 -0.0923  0.1115 -0.6054
 1596SOL    HW116424   2.647   4.309   7.969 -1.7914 -0.4520 -1.7097
 1596SOL    HW216425   2.630   4.346   8.112 -1.7063 -2.4447  2.8086
 1597SOL     OW16426   3.987   2.911   7.793  0.0897  0.7712 -0.2103
 1597SOL    HW116427   3.996   2.873   7.706 -2.1554 -1.4681  0.5379
 1597SOL    HW216428   4.009   3.002   7.771 -0.6742  0.9482 -0.2572
 1598SOL     OW16429   3.309   2.328   1.657  0.7920  1.0126 -0.3529
 1598SOL    HW116430   3.285   2.394   1.723 -3.2480 -0.2262 -0.6014
 1598SOL    HW216431   3.244   2.367   1.599 -0.5075 -0.3458  0.2078
 1599SOL     OW16432   1.109   2.888   6.506 -0.1978  0.7714  0.0238
 1599SOL    HW116433   1.063   2.812   6.471 -0.1407  0.1247  1.3315
 1599SOL    HW216434   1.091   2.958   6.444 -3.9378  1.0047  1.3496
 1600SOL     OW16435   4.553   3.592   1.982  0.0781 -0.8494  0.2320
 1600SOL    HW116436   4.517   3.681   1.970 -2.6078 -1.8007  1.2160
 1600SOL    HW216437   4.546   3.589   2.077 -0.4348  0.9377  0.2694
 1601SOL     OW16438   4.507   4.654  15.000  0.4347  0.3186  0.7840
 1601SOL    HW116439   4.425   4.655  15.049  0.6230 -0.2446  1.1175
 1601SOL    HW216440   4.498   4.568  14.957  1.5104  0.2936  0.6059
 1602SOL     OW16441   4.605   2.774   7.487 -0.7614  0.0361 -0.2241
 1602SOL    HW116442   4.539   2.758   7.419 -0.7317 -0.2501 -0.1861
 1602SOL    HW216443   4.675   2.715   7.459 -0.6938  0.4110 -0.8517
 1603SOL     OW16444   0.868   0.446  11.336 -0.2527  0.4938 -0.4932
 1603SOL    HW116445   0.962   0.448  11.356 -0.6060 -0.3160  1.2591
 1603SOL    HW216446   0.876   0.367  11.283  0.2651  0.6319 -0.6236
 1604SOL     OW16447   0.904   2.302  16.231  0.2742 -0.1687  0.3560
 1604SOL    HW116448   0.892   2.247  16.154  1.7526 -0.7081  0.5012
 1604SOL    HW216449   0.824   2.353  16.218 -0.0975 -0.6978  0.5621
 1605SOL     OW16450   2.386   0.533   6.252 -0.1335  0.0021  0.1367
 1605SOL    HW116451   2.294   0.534   6.225 -0.7915 -3.1489  2.3068
 1605SOL    HW216452   2.413   0.620   6.221  0.6134 -0.5070 -0.6198
 1606SOL     OW16453   0.826   1.275  15.750 -0.0267  0.5499  0.0733
 1606SOL    HW116454   0.851   1.186  15.725 -2.1291 -0.3035  0.9798
 1606SOL    HW216455   0.770   1.295  15.675 -0.3139 -1.9844 -0.3763
 1607SOL     OW16456   1.294   1.364   6.675 -0.1762 -0.0809 -0.4364
 1607SOL    HW116457   1.221   1.411   6.715  2.5093 -0.1375  4.5198
 1607SOL    HW216458   1.272   1.272   6.689 -0.8268 -0.1964 -2.2480
 1608SOL     OW16459   3.061   3.521   6.420 -0.0353 -0.4359  0.0890
 1608SOL    HW116460   3.063   3.582   6.494  1.7981 -0.1404 -0.1872
 1608SOL    HW216461   3.129   3.556   6.363 -1.3752  1.7824 -0.1289
 1609SOL     OW16462   1.716   3.773  15.344 -0.5891  0.0377 -0.3393
 1609SOL    HW116463   1.745   3.685  15.322 -1.6567  0.0556 -1.8427
 1609SOL    HW216464   1.691   3.759  15.435 -3.3889  0.4336 -1.0346
 1610SOL     OW16465   3.185   3.678   7.635 -0.3437  0.9486  0.2661
 1610SOL    HW116466   3.197   3.683   7.730 -0.4829  2.9087  0.1739
 1610SOL    HW216467   3.267   3.631   7.615 -0.3012  1.5264 -0.9324
 1611SOL     OW16468   1.245   3.807   5.775 -0.0209  0.1622 -0.0128
 1611SOL    HW116469   1.220   3.733   5.720 -0.2342 -0.4268  0.8846
 1611SOL    HW216470   1.274   3.859   5.700  0.0956 -2.0387 -1.4890
 1612SOL     OW16471   1.093   2.547   8.689 -0.0526  0.8807  0.4815
 1612SOL    HW116472   1.099   2.566   8.783  1.0621 -0.2392  0.6404
 1612SOL    HW216473   1.086   2.451   8.693 -0.5321  1.0091  2.9860
 1613SOL     OW16474   1.987   1.700   4.995  0.0099 -0.3288 -0.0747
 1613SOL    HW116475   1.993   1.607   4.975 -1.6655 -0.4339 -0.0686
 1613SOL    HW216476   1.892   1.703   5.007 -0.2343 -1.2385 -1.7487
 1614SOL     OW16477   1.605   3.119   6.416 -0.1772  0.0879  0.1327
 1614SOL    HW116478   1.566   3.198   6.452  0.4814  1.1603 -1.4942
 1614SOL    HW216479   1.693   3.143   6.388 -1.0142  2.4847 -0.4543
 1615SOL     OW16480   2.088   2.926   8.607  0.0473  0.4244  0.0567
 1615SOL    HW116481   2.136   3.006   8.584  0.8855  0.2255  1.1805
 1615SOL    HW216482   2.095   2.935   8.702 -0.4013  1.5589 -0.0135
 1616SOL     OW16483   0.613   2.751   3.224  0.1623 -0.1633  0.1654
 1616SOL    HW116484   0.639   2.843   3.233  3.8633 -1.4332  2.1490
 1616SOL    HW216485   0.629   2.718   3.312  0.5236 -1.4386 -0.3819
 1617SOL     OW16486   4.334   2.219  11.192 -0.2692  0.2394  0.3588
 1617SOL    HW116487   4.296   2.306  11.188  1.2938  0.9459  1.1942
 1617SOL    HW216488   4.339   2.197  11.099 -0.8420  0.4697  0.2714
 1618SOL     OW16489   4.368   3.768   2.730 -0.0850  0.3133 -0.4080
 1618SOL    HW116490   4.438   3.782   2.667  1.1465 -0.0804  0.8815
 1618SOL    HW216491   4.305   3.838   2.714 -0.7066 -0.2275 -0.3560
 1619SOL     OW16492   2.814   0.104  12.780  0.5350 -0.3802 -0.1406
 1619SOL    HW116493   2.860   0.178  12.740  0.5050 -0.6054 -0.5928
 1619SOL    HW216494   2.792   0.057  12.699  0.5296 -0.0798 -0.3126
 1620SOL     OW16495   3.055   4.589   9.431 -0.3187 -0.1387  0.2314
 1620SOL    HW116496   2.977   4.584   9.376 -1.1083  2.2780  1.1364
 1620SOL    HW216497   3.108   4.628   9.361 -0.5907 -0.5693 -0.2122
 1621SOL     OW16498   0.449   0.955   7.889  0.1658 -0.3459 -0.4346
 1621SOL    HW116499   0.501   1.031   7.914  0.5968 -1.5234  2.2634
 1621SOL    HW216500   0.490   0.912   7.814 -3.5688 -1.9101 -1.6056
 1622SOL     OW16501   4.131   3.786   0.057 -0.7185  0.9709 -0.5373
 1622SOL    HW116502   4.125   3.694   0.034 -0.4941  0.2354  2.3109
 1622SOL    HW216503   4.059   3.826   0.010 -1.2991 -0.0336 -0.4958
 1623SOL     OW16504   3.816   2.105   6.656  0.3141 -0.2218 -0.6800
 1623SOL    HW116505   3.724   2.079   6.652 -0.4688  2.2023  0.9491
 1623SOL    HW216506   3.817   2.168   6.583  0.4589  2.5593  1.7219
 1624SOL     OW16507   1.479   1.708   2.170 -0.7535 -0.0206 -1.4164
 1624SOL    HW116508   1.420   1.770   2.214  0.1196 -1.0443  1.1813
 1624SOL    HW216509   1.561   1.739   2.208 -2.8867  0.1404  3.0981
 1625SOL     OW16510   3.956   2.135  11.912 -0.4813 -0.7934 -0.1571
 1625SOL    HW116511   3.977   2.206  11.973 -1.0605 -0.1703 -0.6832
 1625SOL    HW216512   4.040   2.110  11.874 -1.1038 -0.4927 -1.7352
 1626SOL     OW16513   3.132   1.855   5.491 -0.7437  0.4084  0.0980
 1626SOL    HW116514   3.130   1.945   5.460 -0.9403  0.2194 -0.4374
 1626SOL    HW216515   3.216   1.824   5.459  0.0646  2.3698  0.3633
 1627SOL     OW16516   4.582   3.660   8.600 -0.2272 -0.0436  0.1367
 1627SOL    HW116517   4.527   3.707   8.537  1.4241 -2.1231 -2.8990
 1627SOL    HW216518   4.526   3.673   8.676  1.3296  0.7183  1.1392
 1628SOL     OW16519   3.581   4.681  11.966  0.2526 -0.5786 -0.2556
 1628SOL    HW116520   3.590   4.731  12.047 -0.7001 -1.3009  0.3009
 1628SOL    HW216521   3.491   4.649  11.975  0.9007 -1.6842  2.1494
 1629SOL     OW16522   2.687   4.060   9.137  0.1871 -0.5676  0.2860
 1629SOL    HW116523   2.748   3.989   9.154 -1.7413 -2.4852 -0.6903
 1629SOL    HW216524   2.635   4.029   9.062  0.1372  0.2066 -0.0023
 1630SOL     OW16525   3.421   4.577   8.614  0.0090 -0.0690  0.2822
 1630SOL    HW116526   3.454   4.534   8.535  1.3526  0.6006  0.4659
 1630SOL    HW216527   3.377   4.657   8.585 -0.4654 -0.1008  0.9344
 1631SOL     OW16528   2.370   1.047   1.560  0.3746  0.6252 -0.5731
 1631SOL    HW116529   2.386   0.961   1.522  2.0646  1.0945 -0.9181
 1631SOL    HW216530   2.375   1.027   1.654 -0.7790 -0.8675 -0.8314
 1632SOL     OW16531   3.708   0.005   4.855  0.4882  0.4855 -0.5208
 1632SOL    HW116532   3.748   4.660   4.835 -0.3962  0.0064 -0.2835
 1632SOL    HW216533   3.730   0.014   4.948 -0.9938 -1.5504  0.0375
 1633SOL     OW16534   1.463   4.453   7.540  0.0752 -0.2623  0.2087
 1633SOL    HW116535   1.464   4.460   7.445 -0.2241  1.9449  0.3707
 1633SOL    HW216536   1.369   4.461   7.561  0.5964  3.6242  1.1361
 1634SOL     OW16537   2.571   0.942   7.965  0.2432  0.0177 -0.3830
 1634SOL    HW116538   2.602   0.900   7.885 -0.2843  2.2755 -1.7542
 1634SOL    HW216539   2.494   0.994   7.942 -0.4274 -1.6347 -1.8900
 1635SOL     OW16540   3.893   2.574   2.385  0.7261 -0.4753 -0.4719
 1635SOL    HW116541   3.899   2.510   2.313 -1.1561 -0.9716 -0.1835
 1635SOL    HW216542   3.855   2.511   2.446  0.8703 -1.2522 -1.1855
 1636SOL     OW16543   4.368   2.777   4.691 -0.1378 -0.0624  0.1909
 1636SOL    HW116544   4.313   2.754   4.615 -0.7612  0.3845  0.5067
 1636SOL    HW216545   4.433   2.834   4.650  1.0820 -2.4061 -1.1119
 1637SOL     OW16546   0.567   2.556   6.089 -0.1981 -0.5263  0.4458
 1637SOL    HW116547   0.566   2.607   6.008  2.7206  1.5083  1.7081
 1637SOL    HW216548   0.657   2.567   6.119 -1.2930  1.2733  3.0257
 1638SOL     OW16549   0.084   3.480   5.011  0.4654 -0.2268 -0.0223
 1638SOL    HW116550   0.062   3.547   5.075  0.4525 -0.5354  0.2935
 1638SOL    HW216551   0.158   3.523   4.967  0.2202  0.1219 -0.0936
 1639SOL     OW16552   1.141   2.469  15.889  0.1115  0.2473 -0.3906
 1639SOL    HW116553   1.085   2.397  15.861 -0.3768  0.1637  0.8020
 1639SOL    HW216554   1.072   2.523  15.928  1.9130  1.6774  0.8329
 1640SOL     OW16555   4.289   0.285   4.595 -0.5526 -0.2105  0.3713
 1640SOL    HW116556   4.280   0.220   4.525  1.2531 -0.1717  0.1033
 1640SOL    HW216557   4.233   0.354   4.560 -1.6594 -1.3286 -0.0891
 1641SOL     OW16558   0.033   3.437   6.707 -0.4214  0.1462 -0.4760
 1641SOL    HW116559   4.740   3.453   6.619 -2.1440 -2.0379 -0.2120
 1641SOL    HW216560   0.122   3.407   6.686 -0.2155  0.9994 -0.8157
 1642SOL     OW16561   3.582   0.600   6.487  0.1299 -0.4574 -0.1306
 1642SOL    HW116562   3.676   0.610   6.500 -0.0138 -0.0236  0.5413
 1642SOL    HW216563   3.572   0.510   6.517  0.5716 -0.5702 -0.3225
 1643SOL     OW16564   1.444   2.233   6.955  0.1774 -0.4705 -0.1082
 1643SOL    HW116565   1.377   2.243   6.887  0.0760  1.0802  0.2308
 1643SOL    HW216566   1.519   2.271   6.909  0.4952 -2.8208 -1.5537
 1644SOL     OW16567   0.206   2.675  11.992  0.2190  0.3758  0.1433
 1644SOL    HW116568   0.282   2.731  12.003 -0.5333  1.7876 -1.7780
 1644SOL    HW216569   0.202   2.654  11.899 -0.0857  1.0218  0.0083
 1645SOL     OW16570   1.385   2.112   8.785 -0.7450 -0.0823 -0.4793
 1645SOL    HW116571   1.361   2.145   8.871  2.3335  1.2447 -0.0993
 1645SOL    HW216572   1.383   2.191   8.730  0.7993 -0.3525 -0.9489
 1646SOL     OW16573   2.575   0.773   6.524  0.2928 -0.3934  0.5737
 1646SOL    HW116574   2.618   0.858   6.523  1.0344 -0.7784 -0.1041
 1646SOL    HW216575   2.622   0.730   6.596  1.5601 -0.4703 -0.3031
 1647SOL     OW16576   1.871   2.793  15.902 -0.0749 -0.0763 -0.5347
 1647SOL    HW116577   1.806   2.840  15.953  1.3994  0.8938  0.4482
 1647SOL    HW216578   1.925   2.864  15.867  2.2757 -1.1210  0.9448
 1648SOL     OW16579   0.841   3.990   7.274  0.5601 -0.0687  0.2453
 1648SOL    HW116580   0.801   4.018   7.192 -1.7462 -1.6592  0.8102
 1648SOL    HW216581   0.767   4.006   7.333 -0.6031 -0.7303 -1.0253
 1649SOL     OW16582   0.016   1.932   9.024 -0.5375 -0.1366 -0.7343
 1649SOL    HW116583   0.028   1.985   8.945 -2.2220  1.4831  0.1051
 1649SOL    HW216584   4.672   1.889   9.010 -1.4352  2.0282 -2.0112
 1650SOL     OW16585   2.985   2.704   8.778 -0.4300  0.5551  0.3759
 1650SOL    HW116586   3.035   2.630   8.814  0.0483  0.1273 -1.1716
 1650SOL    HW216587   2.922   2.656   8.726  1.4843  0.2633 -1.6699
 1651SOL     OW16588   2.150   0.895   5.469 -0.0862  0.0825 -0.0914
 1651SOL    HW116589   2.161   0.952   5.393 -0.0675  0.2965  0.0721
 1651SOL    HW216590   2.164   0.810   5.427  0.0850  1.1184 -2.1072
 1652SOL     OW16591   3.093   0.306   8.420  0.6859 -0.2690  0.1923
 1652SOL    HW116592   3.098   0.222   8.466  0.2672  0.6529  1.9198
 1652SOL    HW216593   3.083   0.361   8.497 -1.7746  0.4989 -0.6809
 1653SOL     OW16594   2.204   2.047   4.186  0.5322  0.0640  0.4128
 1653SOL    HW116595   2.117   2.062   4.222  0.5510  1.9045 -0.3377
 1653SOL    HW216596   2.234   2.136   4.202 -3.3864  1.4356  0.1266
 1654SOL     OW16597   3.993   2.633   4.890  0.6874  0.2903 -0.2674
 1654SOL    HW116598   4.024   2.650   4.801  0.4751 -0.7066 -0.5419
 1654SOL    HW216599   3.907   2.596   4.868  0.8162 -0.4598  0.4867
 1655SOL     OW16600   3.884   3.024   4.817  0.0613 -0.8958 -0.2135
 1655SOL    HW116601   3.970   3.005   4.779  0.7790 -0.1080  1.0003
 1655SOL    HW216602   3.838   3.021   4.733 -1.6185  2.3333  0.5584
 1656SOL     OW16603   1.839   4.133   4.423 -0.0949 -0.4430 -0.2529
 1656SOL    HW116604   1.799   4.196   4.363  1.3464  0.9736  0.2566
 1656SOL    HW216605   1.839   4.049   4.377  0.9708  0.5239 -2.0298
 1657SOL     OW16606   0.094   1.037   6.839 -0.3457  0.3737 -0.0813
 1657SOL    HW116607   0.065   0.953   6.803  0.2196  0.2060 -0.1483
 1657SOL    HW216608   0.165   1.064   6.781 -1.5104  0.8565 -1.2839
 1658SOL     OW16609   2.406   1.954   4.733  0.0506  0.0837  0.1491
 1658SOL    HW116610   2.420   2.046   4.755 -0.1012  0.0994  0.1785
 1658SOL    HW216611   2.386   1.912   4.817 -1.3618  0.2531 -0.0985
 1659SOL     OW16612   0.119   0.384   5.008  0.2056 -0.2913 -0.1487
 1659SOL    HW116613   0.212   0.362   5.018  0.6822  1.7250 -0.2378
 1659SOL    HW216614   0.129   0.472   4.972 -0.5601 -0.4835 -0.8226
 1660SOL     OW16615   0.256   3.666  12.325  0.3247 -0.6174 -0.4711
 1660SOL    HW116616   0.232   3.734  12.388  1.1336  0.6716 -1.5458
 1660SOL    HW216617   0.273   3.593  12.385  0.8168 -1.6413 -1.8758
 1661SOL     OW16618   3.481   3.645   7.750  0.1289 -0.1327 -0.6483
 1661SOL    HW116619   3.520   3.703   7.684  1.7801 -0.7391 -0.2214
 1661SOL    HW216620   3.525   3.664   7.834  0.1748  0.5929 -0.8376
 1662SOL     OW16621   1.355   4.061   9.676 -0.5364 -0.0057 -0.1357
 1662SOL    HW116622   1.368   3.969   9.697 -1.1532 -0.1840 -0.5226
 1662SOL    HW216623   1.352   4.066   9.580  0.7455 -2.0264 -0.2853
 1663SOL     OW16624   4.514   2.195   7.873  0.2158  0.0749  0.1663
 1663SOL    HW116625   4.522   2.288   7.893 -1.6922  0.1031  0.7762
 1663SOL    HW216626   4.511   2.165   7.964  0.8289 -1.6413 -0.3763
 1664SOL     OW16627   4.139   1.049  15.254 -0.0480 -0.2064 -0.3727
 1664SOL    HW116628   4.062   0.993  15.269  1.1675 -1.9230 -0.5605
 1664SOL    HW216629   4.098   1.086  15.176 -0.5492 -1.3208 -0.6483
 1665SOL     OW16630   2.096   3.831   2.821  0.0857  0.4051 -0.4523
 1665SOL    HW116631   2.182   3.861   2.849  0.3722  0.1147 -1.0286
 1665SOL    HW216632   2.062   3.912   2.783  0.0537  0.8643  0.5593
 1666SOL     OW16633   4.374   1.084  10.380  0.9455 -0.0680 -0.4244
 1666SOL    HW116634   4.278   1.080  10.379  0.9278  0.0903  0.7125
 1666SOL    HW216635   4.391   0.990  10.370 -0.6145 -0.3451 -0.4242
 1667SOL     OW16636   1.849   4.408   9.258 -0.6768  0.8540 -0.0860
 1667SOL    HW116637   1.768   4.376   9.296 -0.0143 -1.2584 -0.4518
 1667SOL    HW216638   1.820   4.494   9.226 -3.5427 -0.6902 -1.6259
 1668SOL     OW16639   1.891   1.775  11.554  0.4105  0.3505 -0.0199
 1668SOL    HW116640   1.818   1.789  11.493  0.1846  0.3236  0.2451
 1668SOL    HW216641   1.846   1.739  11.631 -0.7938  2.2909  0.1884
 1669SOL     OW16642   0.913   4.332   8.177 -0.2587  0.5367  0.8064
 1669SOL    HW116643   0.874   4.260   8.128 -0.6985  0.6856  0.9464
 1669SOL    HW216644   0.969   4.366   8.107  0.4245 -0.4133  0.8808
 1670SOL     OW16645   2.530   4.530  12.786  0.0254  0.9175 -0.1428
 1670SOL    HW116646   2.465   4.472  12.825  2.4250 -2.3372 -1.0034
 1670SOL    HW216647   2.590   4.479  12.732  2.2292  0.1080  3.1320
 1671SOL     OW16648   3.578   2.327   3.871 -0.0470 -0.4771  0.3755
 1671SOL    HW116649   3.575   2.389   3.798  1.5712 -0.7748  0.0566
 1671SOL    HW216650   3.635   2.257   3.839 -0.1125 -0.0435 -0.7014
 1672SOL     OW16651   3.290   4.481  10.584 -0.0363 -0.1178  0.4836
 1672SOL    HW116652   3.215   4.439  10.542 -0.5428 -0.9409  2.2241
 1672SOL    HW216653   3.281   4.444  10.672 -2.0591 -0.8147 -0.0078
 1673SOL     OW16654   1.960   1.322   7.503 -0.1101 -0.5807  0.3886
 1673SOL    HW116655   1.992   1.412   7.506 -2.5181  0.3389 -1.1920
 1673SOL    HW216656   1.930   1.317   7.412 -0.1524 -0.2747  0.3847
 1674SOL     OW16657   4.707   4.381   2.797 -0.0087  0.3784  0.7710
 1674SOL    HW116658   4.699   4.306   2.857 -0.2450 -0.4340 -0.2626
 1674SOL    HW216659   4.644   4.441   2.836  0.0247  0.3987  0.7934
 1675SOL     OW16660   3.274   4.500  17.492  0.5257 -0.3841 -0.4121
 1675SOL    HW116661   3.226   4.577  17.462 -0.5903 -0.9972 -0.1730
 1675SOL    HW216662   3.209   4.435  17.465 -1.3457  2.0285 -1.6830
 1676SOL     OW16663   2.069   4.719   3.105 -0.1397  0.0950  0.0398
 1676SOL    HW116664   2.068   0.050   3.041  0.0895 -0.5753 -0.7053
 1676SOL    HW216665   2.024   4.661   3.044 -0.1435 -1.5135  1.5753
 1677SOL     OW16666   1.171   0.084  10.482  0.7290  0.1289 -0.3997
 1677SOL    HW116667   1.245   0.041  10.438  0.0178 -0.2105 -1.2482
 1677SOL    HW216668   1.161   0.168  10.437  0.2901  0.9261  1.1908
 1678SOL     OW16669   0.487   1.422   8.099 -0.2511 -0.0546  0.2180
 1678SOL    HW116670   0.563   1.371   8.127 -0.3869 -0.5624 -0.3264
 1678SOL    HW216671   0.416   1.362   8.076 -0.4758 -0.3262  1.6593
 1679SOL     OW16672   1.944   2.360   4.124  0.0466 -0.6453  0.6813
 1679SOL    HW116673   1.971   2.429   4.185 -0.1426 -0.5058  0.6075
 1679SOL    HW216674   1.890   2.306   4.183 -0.2069 -2.2634 -1.0381
 1680SOL     OW16675   3.726   1.080  11.696  0.2134 -0.3984  0.2725
 1680SOL    HW116676   3.778   1.028  11.634 -0.0973  0.8082 -0.9921
 1680SOL    HW216677   3.670   1.137  11.643  1.2390  0.7944  0.4776
 1681SOL     OW16678   3.798   3.275  12.791 -0.0628 -0.1445  0.3229
 1681SOL    HW116679   3.872   3.262  12.850 -0.1967  2.3483  1.0313
 1681SOL    HW216680   3.814   3.195  12.740 -1.3224  0.1405 -0.5321
 1682SOL     OW16681   4.472   0.898   1.999 -0.5459  0.4283 -0.0939
 1682SOL    HW116682   4.540   0.947   2.044 -0.8077 -1.4314  2.2861
 1682SOL    HW216683   4.396   0.955   2.013 -0.3118  0.7184  0.0029
 1683SOL     OW16684   4.112   4.422   3.371 -0.1419  0.1623  0.5424
 1683SOL    HW116685   4.186   4.466   3.412  0.7532 -0.5563 -0.3270
 1683SOL    HW216686   4.151   4.335   3.372  0.0875  0.2561 -1.5787
 1684SOL     OW16687   3.102   0.779  11.187 -0.1354  0.0774 -0.0848
 1684SOL    HW116688   3.022   0.831  11.183 -0.4194 -0.6650 -4.3051
 1684SOL    HW216689   3.107   0.762  11.281  0.8325  0.2633 -0.0997
 1685SOL     OW16690   0.604   3.613   9.536 -0.0696  0.3129  0.1970
 1685SOL    HW116691   0.636   3.693   9.495 -0.5943  1.5320  2.1391
 1685SOL    HW216692   0.607   3.641   9.628 -0.0986  0.2238  0.2254
 1686SOL     OW16693   2.120   2.698   0.478  0.6097 -0.2913  0.3496
 1686SOL    HW116694   2.064   2.623   0.499 -0.1178  0.1715  0.0464
 1686SOL    HW216695   2.056   2.768   0.467  1.6304  0.4180 -0.9947
 1687SOL     OW16696   2.944   0.624   4.456 -0.2618  0.3770 -0.0695
 1687SOL    HW116697   2.929   0.711   4.421 -1.6755  0.3752  0.5188
 1687SOL    HW216698   3.035   0.608   4.434  0.0295 -0.9421  2.0649
 1688SOL     OW16699   4.109   1.056   9.196  1.1812 -0.0007 -0.0978
 1688SOL    HW116700   4.036   0.994   9.185 -0.7900  1.9738  1.8682
 1688SOL    HW216701   4.072   1.119   9.257 -3.5285 -0.7512 -2.1209
 1689SOL     OW16702   3.933   2.597  10.871 -0.4571 -0.4850 -0.2847
 1689SOL    HW116703   3.851   2.561  10.836 -0.8909 -0.8509  1.0815
 1689SOL    HW216704   3.952   2.525  10.931 -1.6350 -0.9551 -0.4683
 1690SOL     OW16705   1.574   1.058   3.049 -0.4240 -0.0182  0.4196
 1690SOL    HW116706   1.555   0.964   3.049  0.8099 -0.2610  2.8695
 1690SOL    HW216707   1.579   1.083   2.957 -2.0057 -0.2473  0.2713
 1691SOL     OW16708   1.807   0.183   8.603  0.2758 -0.0966 -0.2560
 1691SOL    HW116709   1.849   0.267   8.585  0.9004 -0.1434  1.0171
 1691SOL    HW216710   1.717   0.207   8.580 -0.1776 -0.4553  1.1919
 1692SOL     OW16711   4.522   2.713   5.928 -0.0757 -0.2816  0.1362
 1692SOL    HW116712   4.596   2.748   5.878  1.3629 -2.7344  0.5250
 1692SOL    HW216713   4.450   2.706   5.865  0.5174 -1.6519 -0.3898
 1693SOL     OW16714   0.606   2.229   8.038 -0.0999 -0.0839  0.2691
 1693SOL    HW116715   0.530   2.237   8.096 -0.2433 -0.5600  0.1404
 1693SOL    HW216716   0.560   2.225   7.955 -0.2583 -1.6221  0.4283
 1694SOL     OW16717   2.403   2.294  17.567 -0.1225 -0.1471 -0.1834
 1694SOL    HW116718   2.348   2.219  17.586 -1.1229  0.2198 -1.6084
 1694SOL    HW216719   2.411   2.325  17.657  1.6481  0.2337 -0.4786
 1695SOL     OW16720   0.189   2.862   8.028 -0.1803 -0.1869  0.2974
 1695SOL    HW116721   0.220   2.778   8.062 -3.3237 -1.6518 -0.4726
 1695SOL    HW216722   0.124   2.886   8.093 -0.4187 -2.6130  0.9428
 1696SOL     OW16723   1.458   1.012  12.618 -0.9231 -0.0942  0.7207
 1696SOL    HW116724   1.471   0.922  12.587 -0.1816  0.2738 -0.0173
 1696SOL    HW216725   1.410   1.051  12.545 -1.2821 -0.6184  0.6794
 1697SOL     OW16726   2.989   3.149   8.536  0.2652 -0.0443 -0.2186
 1697SOL    HW116727   2.994   3.055   8.550  1.3918  0.1379  0.6525
 1697SOL    HW216728   3.053   3.167   8.467  0.9181  0.5394  0.5312
 1698SOL     OW16729   2.779   4.467   8.757  0.5403  0.2252  0.3073
 1698SOL    HW116730   2.692   4.476   8.716 -0.4282  1.0770  2.5480
 1698SOL    HW216731   2.838   4.476   8.682 -1.9993  1.6537 -1.5249
 1699SOL     OW16732   1.532   3.893  15.158 -0.0384 -0.4638 -0.6406
 1699SOL    HW116733   1.586   3.842  15.218 -0.4796 -0.3715 -0.1700
 1699SOL    HW216734   1.550   3.981  15.192 -2.9638  0.2509 -0.8746
 1700SOL     OW16735   0.900   1.124  11.326  0.4545  0.1314 -0.2127
 1700SOL    HW116736   0.844   1.090  11.256 -0.6126 -0.5584  0.9745
 1700SOL    HW216737   0.976   1.157  11.278  0.4007  1.4200  0.6054
 1701SOL     OW16738   2.627   2.250  15.487 -0.6346 -0.6267 -0.3928
 1701SOL    HW116739   2.572   2.194  15.542  1.3015 -1.8687  0.2907
 1701SOL    HW216740   2.590   2.338  15.487  1.1443  0.1322 -0.6897
 1702SOL     OW16741   4.328   4.079  10.138  0.0559 -0.4470  0.7572
 1702SOL    HW116742   4.287   4.107  10.219  0.5992  1.9511  0.2054
 1702SOL    HW216743   4.396   4.146  10.131  0.7728 -1.2553 -0.1194
 1703SOL     OW16744   0.202   1.424   7.264  0.1788  0.0255  0.6249
 1703SOL    HW116745   0.202   1.397   7.356  0.9799  0.6043  0.7897
 1703SOL    HW216746   0.118   1.468   7.260 -0.7954 -2.1193 -2.9371
 1704SOL     OW16747   2.485   1.227   6.606 -0.5039  0.6242 -0.0907
 1704SOL    HW116748   2.526   1.141   6.597  0.0884  0.9170 -0.1471
 1704SOL    HW216749   2.511   1.278   6.530 -0.6019  0.3363 -0.3168
 1705SOL     OW16750   3.656   1.021   4.785  0.1085  0.6143 -1.1566
 1705SOL    HW116751   3.738   0.974   4.770 -0.6178 -1.0058 -0.0556
 1705SOL    HW216752   3.653   1.078   4.708  0.4121  0.4126 -1.3177
 1706SOL     OW16753   4.386   4.012   8.090  0.3384 -0.4264  0.1494
 1706SOL    HW116754   4.440   3.940   8.057  1.7986 -0.5788  2.9036
 1706SOL    HW216755   4.450   4.062   8.140 -0.3878 -0.2747  0.9221
 1707SOL     OW16756   2.407   1.108  14.350 -0.2381 -0.8592 -0.3163
 1707SOL    HW116757   2.358   1.173  14.400 -0.0665  0.2060 -1.5335
 1707SOL    HW216758   2.393   1.027  14.400  0.7393 -0.3009  0.8696
 1708SOL     OW16759   1.190   0.175   2.238 -0.0973  0.1330  0.4006
 1708SOL    HW116760   1.240   0.209   2.163  2.1955 -0.7761  1.5274
 1708SOL    HW216761   1.199   0.081   2.220  2.8722  0.6972 -1.1789
 1709SOL     OW16762   1.258   2.191   2.599 -0.1598 -0.3461  0.5545
 1709SOL    HW116763   1.308   2.236   2.531  1.6010 -0.6331  1.6478
 1709SOL    HW216764   1.235   2.108   2.558 -2.4682  0.4593  0.2161
 1710SOL     OW16765   0.868   0.107  10.307  0.2080  0.2259 -0.1402
 1710SOL    HW116766   0.962   0.096  10.294  0.2437  1.0864 -0.5514
 1710SOL    HW216767   0.859   0.174  10.240 -1.9727 -0.8687 -0.9245
 1711SOL     OW16768   3.131   1.711   4.381  0.1058 -0.2961  0.0068
 1711SOL    HW116769   3.056   1.754   4.341 -3.2622 -2.0514  4.4810
 1711SOL    HW216770   3.108   1.726   4.473  0.7446 -1.9094  0.4379
 1712SOL     OW16771   3.910   1.749   7.625 -0.3610  0.1194 -0.4881
 1712SOL    HW116772   3.878   1.830   7.585  0.3985 -0.8175 -2.9976
 1712SOL    HW216773   3.990   1.784   7.663  0.7757 -1.2163 -1.6504
 1713SOL     OW16774   1.195   0.320   9.763  0.0673  0.1297 -0.1279
 1713SOL    HW116775   1.290   0.320   9.761  0.0642  0.3516 -0.2998
 1713SOL    HW216776   1.170   0.369   9.685  0.3675  1.8332  0.8456
 1714SOL     OW16777   0.407   0.726   9.011  0.2803 -0.0271 -0.1820
 1714SOL    HW116778   0.451   0.673   9.077 -1.7647  1.5229  2.4287
 1714SOL    HW216779   0.341   0.764   9.068  0.3184  1.7160 -1.2910
 1715SOL     OW16780   3.778   0.436   5.761 -0.3650  0.3621 -0.2070
 1715SOL    HW116781   3.832   0.514   5.771 -0.0689  0.0212  0.8472
 1715SOL    HW216782   3.743   0.431   5.850 -0.6148 -0.6958 -0.3662
 1716SOL     OW16783   3.120   0.832  12.109  0.4319 -0.3327 -0.1691
 1716SOL    HW116784   3.203   0.867  12.077  0.5740  0.5057  1.1457
 1716SOL    HW216785   3.058   0.904  12.100 -0.7607 -1.3802 -0.2595
 1717SOL     OW16786   1.652   1.566   7.069 -0.0698 -0.0852  0.2232
 1717SOL    HW116787   1.615   1.480   7.049 -1.5979  0.7996 -0.7130
 1717SOL    HW216788   1.745   1.559   7.049  0.2777 -0.7965  2.0706
 1718SOL     OW16789   0.364   0.768   8.540 -0.0294  0.1324  0.3739
 1718SOL    HW116790   0.382   0.712   8.616 -0.9578  0.4422  0.8314
 1718SOL    HW216791   0.444   0.746   8.493  0.1987 -1.6384  1.5686
 1719SOL     OW16792   1.523   3.237   6.933  0.1512 -0.1370 -0.8124
 1719SOL    HW116793   1.557   3.250   6.844  0.1640  1.5936 -0.5642
 1719SOL    HW216794   1.607   3.217   6.975  0.0337  1.6196  0.2500
 1720SOL     OW16795   3.994   2.331   8.967  0.1729 -0.4901 -0.5233
 1720SOL    HW116796   3.995   2.416   9.012 -1.7000  0.6996 -2.7596
 1720SOL    HW216797   4.088   2.313   8.971  0.2005  0.0358  1.1382
 1721SOL     OW16798   3.573   1.912   7.884  0.2477 -0.0500  0.4130
 1721SOL    HW116799   3.547   1.902   7.976 -1.0430 -2.4739 -0.1995
 1721SOL    HW216800   3.556   2.004   7.865 -0.0680 -0.0115  0.8936
 1722SOL     OW16801   2.739   0.260   4.962  0.5810  0.3329  0.6305
 1722SOL    HW116802   2.832   0.250   4.982  0.5891 -0.7778  0.0473
 1722SOL    HW216803   2.702   0.172   4.968  0.3552  0.5117  1.8004
 1723SOL     OW16804   2.868   1.691   7.500  0.3388 -0.2464  0.2117
 1723SOL    HW116805   2.961   1.693   7.478 -0.3882  2.3896 -2.6410
 1723SOL    HW216806   2.846   1.610   7.453  1.9567 -0.9062  0.6091
 1724SOL     OW16807   0.323   3.468  16.368  0.0600  0.2333  0.1382
 1724SOL    HW116808   0.416   3.488  16.374  0.3712 -0.8129 -1.1424
 1724SOL    HW216809   0.307   3.456  16.274 -2.7891  0.4196  0.6133
 1725SOL     OW16810   4.562   1.132   4.359  0.4502  0.2556  0.0038
 1725SOL    HW116811   4.561   1.103   4.450 -0.0805  0.1142 -0.0433
 1725SOL    HW216812   4.532   1.222   4.368  0.7332  0.2479  0.9869
 1726SOL     OW16813   2.160   1.332   1.161  0.6135  0.0591  0.2034
 1726SOL    HW116814   2.180   1.256   1.215  0.6195  0.7876  1.2239
 1726SOL    HW216815   2.165   1.286   1.077  2.1553  0.2824  0.1671
 1727SOL     OW16816   1.866   2.942   7.479 -0.0200  0.3790  0.3341
 1727SOL    HW116817   1.956   2.909   7.477 -1.2091 -2.6797 -2.9987
 1727SOL    HW216818   1.890   3.034   7.472  1.9733 -0.1913 -0.5333
 1728SOL     OW16819   0.101   3.413   0.101 -0.4925 -0.1320 -0.2149
 1728SOL    HW116820   0.139   3.399   0.015 -0.3573 -0.3049 -0.1281
 1728SOL    HW216821   0.035   3.477   0.077  1.5813  2.6353  1.4425
 1729SOL     OW16822   2.801   4.677   6.257 -0.5016 -0.2156 -0.1389
 1729SOL    HW116823   2.841   4.715   6.179  0.8565 -2.6309 -0.6270
 1729SOL    HW216824   2.872   4.623   6.291  0.8635  1.0385 -0.9817
 1730SOL     OW16825   0.383   1.994  13.139  0.4476 -0.0856  0.3974
 1730SOL    HW116826   0.442   2.065  13.165 -1.3783  1.5435  0.0564
 1730SOL    HW216827   0.322   2.052  13.094  1.0095 -0.6066 -1.0450
 1731SOL     OW16828   1.894   0.707   8.275  0.1619 -0.4904 -0.1415
 1731SOL    HW116829   1.964   0.649   8.246 -0.3173 -0.4536 -1.3712
 1731SOL    HW216830   1.934   0.793   8.262 -1.8251  0.4727 -0.0138
 1732SOL     OW16831   2.969   3.204   2.130  0.1154 -0.5708  0.7312
 1732SOL    HW116832   3.015   3.139   2.078  0.4432 -0.4404  0.8594
 1732SOL    HW216833   3.023   3.215   2.208 -0.5686  0.8539  1.0012
 1733SOL     OW16834   0.771   1.547  12.183  0.1471  0.1700 -0.1175
 1733SOL    HW116835   0.713   1.565  12.257  2.3854  0.8326  1.4514
 1733SOL    HW216836   0.708   1.496  12.131  0.6420  0.1389 -0.6872
 1734SOL     OW16837   0.005   0.165   2.581 -0.1843  0.1436 -0.0567
 1734SOL    HW116838   4.683   0.135   2.514  1.6183  0.9892 -2.0807
 1734SOL    HW216839   0.088   0.166   2.533 -1.1054  0.8340 -1.6394
 1735SOL     OW16840   0.144   3.676   0.357 -0.3502  0.5631 -0.0236
 1735SOL    HW116841   0.056   3.654   0.326  0.4181  0.7150 -2.3344
 1735SOL    HW216842   0.180   3.708   0.274  1.7480  1.2667  1.1577
 1736SOL     OW16843   4.452   3.045  12.520 -0.0676 -0.0620  0.5299
 1736SOL    HW116844   4.402   3.117  12.559  1.1754  1.4644 -0.7247
 1736SOL    HW216845   4.424   3.051  12.428 -0.8531 -0.2858  0.7469
 1737SOL     OW16846   0.702   4.662   5.499 -0.9276  0.0280 -0.3635
 1737SOL    HW116847   0.680   4.634   5.410  1.3753 -1.6672 -0.3851
 1737SOL    HW216848   0.657   0.006   5.505  1.6589  1.2727  1.2938
 1738SOL     OW16849   0.925   1.849   2.027  0.4362  0.1351 -0.1810
 1738SOL    HW116850   0.902   1.902   2.103 -0.6620  0.0466 -0.4569
 1738SOL    HW216851   0.888   1.763   2.048  1.4892 -0.6000 -1.3056
 1739SOL     OW16852   3.871   3.564  11.844  0.3023 -0.2418 -0.3315
 1739SOL    HW116853   3.945   3.539  11.789 -0.3066 -0.4342 -1.0588
 1739SOL    HW216854   3.858   3.506  11.919  1.1736  0.5413  0.4317
 1740SOL     OW16855   3.867   1.541   6.045 -0.8128  0.1388 -0.3226
 1740SOL    HW116856   3.844   1.569   5.956 -1.1639 -0.0078 -0.2775
 1740SOL    HW216857   3.889   1.626   6.083 -1.0039  0.0814 -0.0813
 1741SOL     OW16858   3.057   4.465  16.677 -0.3963  0.0409 -0.2265
 1741SOL    HW116859   3.141   4.487  16.716 -0.8182 -0.0034  0.7215
 1741SOL    HW216860   3.056   4.516  16.596  0.1446  2.6573  1.4326
 1742SOL     OW16861   1.890   1.199   9.015 -0.1481 -0.3052 -0.4621
 1742SOL    HW116862   1.962   1.198   9.078  1.2182  0.3312 -2.0415
 1742SOL    HW216863   1.855   1.116   9.048  0.8854 -0.5770 -0.0494
 1743SOL     OW16864   1.956   2.501   7.581 -0.2250 -0.7858  0.3326
 1743SOL    HW116865   2.007   2.492   7.501 -0.8538  0.0763 -0.1556
 1743SOL    HW216866   1.877   2.544   7.551  1.0770 -0.5095 -2.6987
 1744SOL     OW16867   1.641   3.322   9.963 -0.3046  0.3583 -0.5475
 1744SOL    HW116868   1.634   3.412   9.933  0.6248  0.4242 -0.5527
 1744SOL    HW216869   1.645   3.267   9.885 -0.1132  1.8317 -1.5711
 1745SOL     OW16870   3.235   1.719   2.557 -0.4001  0.6479  0.0882
 1745SOL    HW116871   3.267   1.809   2.558 -0.1855  0.5664  1.0226
 1745SOL    HW216872   3.160   1.732   2.500  1.7871 -0.7007 -3.1141
 1746SOL     OW16873   0.649   3.676  14.333 -0.0868 -0.4083 -0.8040
 1746SOL    HW116874   0.711   3.603  14.337 -0.7955 -0.9692 -0.1923
 1746SOL    HW216875   0.567   3.630  14.350 -0.9039  0.6163 -1.9508
 1747SOL     OW16876   2.869   1.396   0.661 -0.4402 -0.4956 -0.1626
 1747SOL    HW116877   2.862   1.341   0.582 -1.7784  1.2290 -1.2399
 1747SOL    HW216878   2.921   1.472   0.634 -0.4405 -0.8181 -1.0834
 1748SOL     OW16879   3.526   3.727   8.233  0.6013 -0.2493  0.0317
 1748SOL    HW116880   3.576   3.704   8.155 -0.6974 -2.2118 -0.2283
 1748SOL    HW216881   3.437   3.739   8.200  1.4374 -1.2490 -2.6371
 1749SOL     OW16882   4.536   3.389   8.924 -0.0325 -0.4935 -0.6862
 1749SOL    HW116883   4.590   3.344   8.988  0.7521  1.8145  0.2966
 1749SOL    HW216884   4.568   3.479   8.935 -1.4502 -0.2064  0.9946
 1750SOL     OW16885   3.324   2.056   1.935  0.4648  0.1308  0.6676
 1750SOL    HW116886   3.324   2.050   1.840  2.1640  2.2142  0.5471
 1750SOL    HW216887   3.308   2.147   1.959 -0.3362  0.3411 -0.6755
 1751SOL     OW16888   4.527   3.325  14.175  0.2954  0.6946  0.2303
 1751SOL    HW116889   4.588   3.341  14.248  1.8305  3.3024 -1.6398
 1751SOL    HW216890   4.577   3.380  14.115  0.8172 -1.1742 -1.0204
 1752SOL     OW16891   4.190   3.541   9.369 -0.5992  0.7233 -0.0249
 1752SOL    HW116892   4.174   3.558   9.462 -1.0233  1.0782 -0.1605
 1752SOL    HW216893   4.114   3.487   9.347  1.5260 -1.4359 -2.0234
 1753SOL     OW16894   1.203   4.682   1.207  0.3767  0.0083  0.0276
 1753SOL    HW116895   1.135   4.616   1.200 -0.5605  1.1535 -1.6572
 1753SOL    HW216896   1.152   0.022   1.219 -0.2036 -0.3926  0.1929
 1754SOL     OW16897   2.925   3.108   5.984  0.4790 -0.2271  0.1482
 1754SOL    HW116898   3.013   3.126   6.017  0.7757 -0.2406 -0.6429
 1754SOL    HW216899   2.884   3.107   6.071 -1.8350  1.7220 -0.9136
 1755SOL     OW16900   1.387   0.627   6.314  0.1876  0.3479  0.9630
 1755SOL    HW116901   1.444   0.670   6.250 -0.4274 -0.1370  0.0965
 1755SOL    HW216902   1.305   0.668   6.286 -0.1763 -0.0625  1.4333
 1756SOL     OW16903   0.641   3.025   0.823  0.2411 -0.6793 -0.6604
 1756SOL    HW116904   0.570   3.030   0.887  0.9010  0.9149 -0.0760
 1756SOL    HW216905   0.594   3.008   0.741  0.2658  1.0043 -1.0188
 1757SOL     OW16906   2.906   4.048   8.857 -0.0003 -0.7561 -0.1725
 1757SOL    HW116907   2.955   4.123   8.824 -1.3682 -0.2838 -1.1010
 1757SOL    HW216908   2.955   4.033   8.939  0.3297  0.1228 -0.2120
 1758SOL     OW16909   2.649   2.309  11.450 -0.2315  0.0658 -0.2685
 1758SOL    HW116910   2.737   2.272  11.459 -0.4542 -0.2260  0.7532
 1758SOL    HW216911   2.602   2.262  11.382  0.2333  0.6310 -0.9857
 1759SOL     OW16912   0.638   2.901  16.926  0.0645  0.0292  0.6090
 1759SOL    HW116913   0.615   2.818  16.967 -1.3497 -0.4414 -1.1254
 1759SOL    HW216914   0.590   2.898  16.843 -0.2188 -0.8971  0.8098
 1760SOL     OW16915   1.234   1.739   1.737  0.1892 -0.1697 -0.3439
 1760SOL    HW116916   1.278   1.683   1.673 -2.1986 -0.4238 -1.7773
 1760SOL    HW216917   1.257   1.691   1.817 -0.3219  0.3806  0.1330
 1761SOL     OW16918   2.596   1.190   5.270  0.1103  0.3017  0.4885
 1761SOL    HW116919   2.568   1.269   5.224  1.9137 -0.1704 -1.4410
 1761SOL    HW216920   2.682   1.165   5.234  0.9209  1.5172  1.5761
 1762SOL     OW16921   0.174   2.517   2.566 -0.1756  0.1523  0.4721
 1762SOL    HW116922   0.222   2.445   2.525  0.7784  0.0435  1.7956
 1762SOL    HW216923   0.107   2.534   2.500  0.4086  0.0302 -0.1544
 1763SOL     OW16924   2.558   1.607  11.312  0.4392 -0.4120  0.1889
 1763SOL    HW116925   2.561   1.697  11.345  0.0539  0.3823 -1.9379
 1763SOL    HW216926   2.623   1.562  11.367 -0.4831 -0.9561  0.8327
 1764SOL     OW16927   3.525   0.063   2.112  0.2048 -0.3534  0.0283
 1764SOL    HW116928   3.579   0.118   2.055  0.1590 -2.6457 -2.2203
 1764SOL    HW216929   3.451   0.041   2.056 -0.9655  0.7653  1.1442
 1765SOL     OW16930   0.010   3.916   7.260 -0.4341 -0.2295  0.0967
 1765SOL    HW116931   0.052   4.002   7.254  1.2912 -1.1246 -0.6095
 1765SOL    HW216932   0.015   3.919   7.356  0.3970 -1.5349  0.0929
 1766SOL     OW16933   0.047   0.750   6.354  0.8349  0.1559 -0.0122
 1766SOL    HW116934   0.129   0.742   6.304 -0.3494 -0.3318 -1.8839
 1766SOL    HW216935   0.040   0.841   6.383 -0.5581 -0.4972  1.7092
 1767SOL     OW16936   3.688   2.220  14.329  0.2554 -0.4989 -0.5849
 1767SOL    HW116937   3.633   2.237  14.406 -0.8165 -1.6404 -1.1005
 1767SOL    HW216938   3.649   2.144  14.287  0.9397 -0.9549 -0.4086
 1768SOL     OW16939   0.395   3.368   4.591  0.0854 -0.2956  0.2236
 1768SOL    HW116940   0.399   3.432   4.520 -1.2479  1.9026  2.1283
 1768SOL    HW216941   0.439   3.291   4.556 -1.7615 -0.6164 -1.3554
 1769SOL     OW16942   4.706   3.832   2.236 -0.1468  0.0324 -0.1426
 1769SOL    HW116943   0.049   3.783   2.238 -0.8529 -1.1238  0.4811
 1769SOL    HW216944   4.643   3.761   2.244  1.4168 -1.2313  1.0204
 1770SOL     OW16945   3.004   3.275   0.757 -0.0316 -0.9685  1.0957
 1770SOL    HW116946   3.029   3.362   0.788  2.2393 -1.4932  0.7638
 1770SOL    HW216947   3.096   3.250   0.752  0.1982 -0.0261  0.5327
 1771SOL     OW16948   0.520   3.544   5.549  0.0665 -0.0663  0.3870
 1771SOL    HW116949   0.472   3.622   5.576 -0.7298 -0.9573  1.5002
 1771SOL    HW216950   0.522   3.566   5.455  1.3707  0.4398  0.5440
 1772SOL     OW16951   1.568   4.613   6.366 -0.2569  0.4215  0.1043
 1772SOL    HW116952   1.637   4.665   6.324 -0.0591  1.7173  2.0433
 1772SOL    HW216953   1.585   4.633   6.458  1.6458 -0.0607 -0.1405
 1773SOL     OW16954   4.286   0.451  12.939 -0.1109  0.3441  0.1173
 1773SOL    HW116955   4.259   0.507  12.867 -1.5043 -1.3528 -0.6641
 1773SOL    HW216956   4.350   0.504  12.987 -0.0027 -0.2115  0.5909
 1774SOL     OW16957   4.020   2.336  10.196 -0.2365 -0.3007  0.5035
 1774SOL    HW116958   3.944   2.348  10.140  0.1696 -0.4166 -0.0766
 1774SOL    HW216959   4.051   2.246  10.182 -1.2158 -0.7971  1.5846
 1775SOL     OW16960   2.003   3.143  10.442 -0.0994 -0.5920 -0.1474
 1775SOL    HW116961   2.019   3.216  10.501  0.9851  0.8981 -2.2735
 1775SOL    HW216962   2.026   3.069  10.498 -0.3365 -2.5227 -2.5963
 1776SOL     OW16963   3.675   1.204   7.663  0.3452  0.5611 -0.2492
 1776SOL    HW116964   3.606   1.185   7.726  1.1490 -1.5952  0.0007
 1776SOL    HW216965   3.755   1.210   7.716  0.5370 -0.3696 -0.4258
 1777SOL     OW16966   1.887   4.444   6.310 -0.4796  0.1293  0.1729
 1777SOL    HW116967   1.866   4.455   6.402 -2.0252 -2.5330  0.1187
 1777SOL    HW216968   1.825   4.379   6.278  0.5345  0.0492 -1.6629
 1778SOL     OW16969   0.563   0.714   6.653  0.0499 -0.3700 -0.0128
 1778SOL    HW116970   0.536   0.664   6.730  1.2299  0.9194  1.2359
 1778SOL    HW216971   0.603   0.641   6.606 -1.5408  0.4831 -2.6822
 1779SOL     OW16972   3.915   1.326   3.548  0.2568 -0.1597 -0.3132
 1779SOL    HW116973   3.936   1.380   3.471 -0.5750  0.6461  0.0220
 1779SOL    HW216974   3.905   1.387   3.621  1.6297 -0.0896 -0.1887
 1780SOL     OW16975   1.881   2.152   7.203 -0.2422  0.0002  0.5155
 1780SOL    HW116976   1.792   2.120   7.216  0.0956 -2.2024 -2.3217
 1780SOL    HW216977   1.923   2.130   7.285  1.8511  1.3556 -0.2059
 1781SOL     OW16978   2.687   1.607   0.565 -0.3901 -0.4104  0.0821
 1781SOL    HW116979   2.725   1.545   0.627 -1.7636 -1.1076  0.2256
 1781SOL    HW216980   2.642   1.555   0.499 -1.2381  2.8276 -1.8786
 1782SOL     OW16981   2.274   2.506  11.159  0.5744  0.0958 -0.5073
 1782SOL    HW116982   2.360   2.493  11.199  1.5533  1.1866 -2.2767
 1782SOL    HW216983   2.254   2.413  11.169  0.4420  0.0910 -0.8400
 1783SOL     OW16984   3.931   0.870  15.230  0.6628  0.5984  0.2951
 1783SOL    HW116985   3.867   0.916  15.175 -0.8912 -0.7627  1.0026
 1783SOL    HW216986   3.930   0.775  15.219 -2.3473  0.6268  0.2636
 1784SOL     OW16987   3.431   0.909   9.935  0.2409  0.0861 -0.1299
 1784SOL    HW116988   3.359   0.872   9.986  2.1358 -0.9109  1.8441
 1784SOL    HW216989   3.493   0.837   9.942 -0.0100 -0.0036  1.1009
 1785SOL     OW16990   0.585   2.279   3.091 -0.4672  0.4527  0.2998
 1785SOL    HW116991   0.548   2.364   3.116  0.3378 -0.1200  3.5354
 1785SOL    HW216992   0.642   2.298   3.016 -1.1543  0.3727 -0.2391
 1786SOL     OW16993   3.420   0.883   5.579  0.1241 -0.6151  0.3888
 1786SOL    HW116994   3.491   0.842   5.628  1.4372  0.8180 -0.3425
 1786SOL    HW216995   3.349   0.818   5.587 -2.6727  2.1760 -1.6441
 1787SOL     OW16996   1.340   1.920   4.061 -0.3407 -0.0834  0.4956
 1787SOL    HW116997   1.356   1.993   4.121  1.3128 -1.2120  1.4213
 1787SOL    HW216998   1.245   1.923   4.052 -0.4244  0.4913  1.4819
 1788SOL     OW16999   1.837   2.795   6.237 -0.1908 -0.1531 -0.0650
 1788SOL    HW117000   1.753   2.758   6.265  1.0827 -2.6952  0.4368
 1788SOL    HW217001   1.830   2.890   6.237  0.6808 -0.0926  0.5532
 1789SOL     OW17002   1.871   4.663   3.698  0.3925  0.0018 -0.1397
 1789SOL    HW117003   1.821   4.662   3.616  1.3842  0.7694 -0.7485
 1789SOL    HW217004   1.800   4.660   3.762  0.3857  1.7548 -0.0716
 1790SOL     OW17005   4.485   4.066   0.026  0.5653  0.6414  0.2283
 1790SOL    HW117006   4.404   4.082   0.074  1.2311 -0.3693  1.7005
 1790SOL    HW217007   4.445   4.043  17.700  1.7335 -2.8676  0.6397
 1791SOL     OW17008   0.641   4.568   9.962  0.4480  0.3506 -0.1359
 1791SOL    HW117009   0.724   4.572   9.913  1.4665 -3.9586  1.2431
 1791SOL    HW217010   0.615   4.477   9.949 -1.3731  1.2345 -2.7073
 1792SOL     OW17011   1.181   3.358  16.021 -0.2444  0.5614  0.8942
 1792SOL    HW117012   1.133   3.306  16.086 -1.6445  0.3766 -0.2897
 1792SOL    HW217013   1.152   3.313  15.942  0.2775  2.1015 -0.1650
 1793SOL     OW17014   2.667   1.107  14.841  0.0129 -0.4937  0.1982
 1793SOL    HW117015   2.752   1.146  14.823 -0.2887 -0.4687 -1.1612
 1793SOL    HW217016   2.680   1.075  14.930 -1.4993 -2.4751 -0.2748
 1794SOL     OW17017   0.351   3.856   0.608 -0.4191  0.0791 -0.2148
 1794SOL    HW117018   0.401   3.938   0.616  1.7307 -1.0964 -1.6280
 1794SOL    HW217019   0.337   3.847   0.514  0.7370 -0.6487 -0.3112
 1795SOL     OW17020   1.866   3.505   8.019 -0.1521 -0.3781 -0.2546
 1795SOL    HW117021   1.843   3.517   8.112 -1.8908 -1.2363 -0.5585
 1795SOL    HW217022   1.869   3.597   7.993  1.3450 -0.2168  0.5035
 1796SOL     OW17023   4.452   0.313   5.693  0.0093 -0.2522 -0.6752
 1796SOL    HW117024   4.369   0.288   5.652  0.2492  0.3969 -1.5499
 1796SOL    HW217025   4.425   0.325   5.785 -1.9447  2.4094 -1.5893
 1797SOL     OW17026   3.088   2.619   1.866 -0.6546 -0.1460 -0.6831
 1797SOL    HW117027   3.044   2.534   1.855 -1.3303  0.0786  0.2156
 1797SOL    HW217028   3.033   2.683   1.821 -0.7059 -0.6604 -1.3485
 1798SOL     OW17029   2.860   1.629   8.567  0.3133  0.1430  0.1617
 1798SOL    HW117030   2.793   1.644   8.633 -0.2095 -0.3101 -0.2619
 1798SOL    HW217031   2.846   1.534   8.559 -2.4346  0.5998 -0.6359
 1799SOL     OW17032   4.111   3.485  11.780  0.0403  0.1194 -0.1555
 1799SOL    HW117033   4.199   3.500  11.745 -1.0907  1.7034 -2.3226
 1799SOL    HW217034   4.118   3.399  11.823  0.5219  1.3247  2.1848
 1800SOL     OW17035   4.311   2.882   7.634  0.0118  0.3606 -0.0455
 1800SOL    HW117036   4.361   2.868   7.553 -0.9347  5.4113 -1.5244
 1800SOL    HW217037   4.225   2.864   7.598 -0.0385  2.3362 -0.8903
 1801SOL     OW17038   3.503   1.523  16.016 -0.1641  0.2387  0.2868
 1801SOL    HW117039   3.418   1.498  16.052 -0.2142  0.8352  0.5929
 1801SOL    HW217040   3.513   1.458  15.947 -0.8448  1.1030 -0.6374
 1802SOL     OW17041   3.523   0.947   3.105 -0.5305 -0.3871  0.2614
 1802SOL    HW117042   3.481   1.011   3.162 -1.7538 -2.4112  1.6525
 1802SOL    HW217043   3.611   0.940   3.141 -0.3679  0.8632  0.1024
 1803SOL     OW17044   3.977   2.654  16.084  0.7617  0.3347 -0.3117
 1803SOL    HW117045   4.056   2.619  16.042  0.9017 -0.6337  0.7701
 1803SOL    HW217046   4.013   2.649  16.173  0.7659 -3.2731 -0.5106
 1804SOL     OW17047   4.574   3.748   2.560  0.0363  0.6115 -0.0154
 1804SOL    HW117048   4.542   3.659   2.545  3.5574 -0.6279 -0.1993
 1804SOL    HW217049   4.667   3.729   2.559  0.0194  0.4869  0.4343
 1805SOL     OW17050   1.535   3.356  14.283 -0.5908 -0.1843 -0.2561
 1805SOL    HW117051   1.544   3.265  14.258 -0.1142 -0.5117  1.0826
 1805SOL    HW217052   1.441   3.354  14.301 -0.5372  0.6186  0.1604
 1806SOL     OW17053   4.671   1.390   8.825  0.4633 -0.5707 -0.2198
 1806SOL    HW117054   4.728   1.363   8.754  0.6906  0.0190 -0.2610
 1806SOL    HW217055   4.719   1.362   8.903  0.3867  1.4604  0.5752
 1807SOL     OW17056   1.294   3.081   6.929 -0.0838  0.1399 -0.6788
 1807SOL    HW117057   1.371   3.137   6.938 -0.8588  0.8819  1.3472
 1807SOL    HW217058   1.306   3.034   7.011 -0.9826  1.6277  0.3016
 1808SOL     OW17059   1.316   1.609   4.593 -0.9914  0.2854 -0.2636
 1808SOL    HW117060   1.324   1.521   4.629  2.5954  0.3384 -0.8624
 1808SOL    HW217061   1.224   1.621   4.615 -0.9496 -1.0063  0.6282
 1809SOL     OW17062   2.679   0.049   9.218  0.2571 -0.1126 -0.2039
 1809SOL    HW117063   2.655   0.137   9.189  2.7468  0.6242 -0.0455
 1809SOL    HW217064   2.621   0.032   9.292  1.2848  0.3217  0.7111
 1810SOL     OW17065   2.416   2.288   4.046  0.1343  0.6414 -0.0353
 1810SOL    HW117066   2.372   2.350   3.988  0.5205  1.7053  0.8243
 1810SOL    HW217067   2.489   2.263   3.989 -0.8578 -0.2836 -0.9079
 1811SOL     OW17068   4.024   3.993  12.037  0.0798 -0.1090 -0.0418
 1811SOL    HW117069   4.024   3.916  11.981 -0.6980  0.8527 -1.3724
 1811SOL    HW217070   4.006   3.972  12.128 -0.1683  3.8372  0.8150
 1812SOL     OW17071   2.966   1.498   4.238  0.0203 -0.3738  0.1026
 1812SOL    HW117072   2.974   1.515   4.332  2.6255 -0.0261 -0.1664
 1812SOL    HW217073   3.027   1.427   4.217  0.1033  0.0811 -1.2081
 1813SOL     OW17074   3.980   2.083   4.547  0.1393 -0.2362  0.0516
 1813SOL    HW117075   4.039   2.104   4.620  1.9457  1.5711 -1.9218
 1813SOL    HW217076   4.049   2.054   4.488  0.4635 -3.0541  1.8510
 1814SOL     OW17077   0.931   2.965   6.248 -0.1217 -0.3135 -0.6255
 1814SOL    HW117078   0.989   2.925   6.183 -1.4223 -3.7818  0.3377
 1814SOL    HW217079   0.914   3.040   6.192  0.4000  0.6232  0.4692
 1815SOL     OW17080   1.197   3.900   3.616 -0.5748  0.3066 -0.2184
 1815SOL    HW117081   1.219   3.885   3.524 -0.1123 -3.5938  0.5090
 1815SOL    HW217082   1.195   3.995   3.606  0.0072  0.2134 -1.1971
 1816SOL     OW17083   1.440   3.384   6.010  0.1872 -0.1240  0.1627
 1816SOL    HW117084   1.353   3.403   6.045 -0.4409 -0.3227 -1.2731
 1816SOL    HW217085   1.458   3.467   5.964  2.2536 -0.2345  0.7867
 1817SOL     OW17086   1.440   0.531   2.747  0.4684  0.3852  0.1692
 1817SOL    HW117087   1.511   0.594   2.739 -0.9733  1.8799 -0.7999
 1817SOL    HW217088   1.434   0.507   2.654  2.9014  0.4086 -0.0140
 1818SOL     OW17089   0.215   1.646  15.507 -0.4629  0.6347  0.1094
 1818SOL    HW117090   0.174   1.593  15.439  0.0149  3.7863 -2.6408
 1818SOL    HW217091   0.254   1.575  15.558  2.7919  3.3010  1.3405
 1819SOL     OW17092   3.677   0.883   6.400  0.2755  0.7183  0.1234
 1819SOL    HW117093   3.599   0.860   6.350 -0.4240  3.3992 -0.0540
 1819SOL    HW217094   3.696   0.971   6.366  0.4820  0.4934 -0.3464
 1820SOL     OW17095   0.365   3.741   7.686  0.1217  0.4109 -0.2025
 1820SOL    HW117096   0.314   3.798   7.629  0.0382  0.3531 -0.1861
 1820SOL    HW217097   0.329   3.759   7.773  0.1363 -0.2339 -0.0624
 1821SOL     OW17098   0.224   0.264   5.685 -0.6090  0.1411  0.0651
 1821SOL    HW117099   0.201   0.173   5.666  1.0734  0.1365 -1.8868
 1821SOL    HW217100   0.138   0.300   5.664  0.6834  2.9032 -0.3841
 1822SOL     OW17101   1.738   3.767  16.904 -0.0570 -0.4549 -0.0910
 1822SOL    HW117102   1.810   3.829  16.908  1.0564 -1.6489 -1.6812
 1822SOL    HW217103   1.676   3.813  16.960 -2.0562  0.6268 -3.1789
 1823SOL     OW17104   1.430   1.055   3.284 -0.3116 -0.4723 -0.6363
 1823SOL    HW117105   1.501   1.094   3.334 -1.9390  1.2482  0.3407
 1823SOL    HW217106   1.465   1.068   3.196 -1.1528  1.0391 -0.7613
 1824SOL     OW17107   3.144   2.097   7.207  0.0592 -0.0074 -0.0027
 1824SOL    HW117108   3.139   2.193   7.213  0.6202  0.2627 -3.9124
 1824SOL    HW217109   3.052   2.079   7.222  0.7324 -2.4227  1.1467
 1825SOL     OW17110   1.298   3.037   6.332  0.2922 -0.0229  0.4125
 1825SOL    HW117111   1.337   3.002   6.412  0.6802  0.8384  0.5976
 1825SOL    HW217112   1.321   3.130   6.334  0.3447 -0.0955  2.4780
 1826SOL     OW17113   2.920   3.243   6.393 -0.2781 -0.2919 -0.1626
 1826SOL    HW117114   2.906   3.211   6.483 -1.1187  0.9262  0.1401
 1826SOL    HW217115   3.013   3.254   6.378  0.3152 -1.9430  2.2104
 1827SOL     OW17116   3.745   1.081   1.581  0.9158 -0.2826 -0.2302
 1827SOL    HW117117   3.805   1.029   1.635  0.1307  0.8586  1.7569
 1827SOL    HW217118   3.684   1.099   1.653 -0.1845  0.0611 -1.2532
 1828SOL     OW17119   2.580   4.367   3.645 -0.1118 -0.5835  0.7387
 1828SOL    HW117120   2.512   4.429   3.669 -0.8044 -1.1574  0.2379
 1828SOL    HW217121   2.573   4.375   3.550 -0.9599  1.4011  0.9774
 1829SOL     OW17122   4.490   1.413   3.762 -0.0950 -0.4572 -0.1947
 1829SOL    HW117123   4.431   1.354   3.715  0.8406 -1.4661 -0.1079
 1829SOL    HW217124   4.432   1.481   3.796  1.4425  1.0124 -0.5036
 1830SOL     OW17125   2.823   0.014   6.663  0.2416 -0.3857 -0.5343
 1830SOL    HW117126   2.902   0.025   6.611 -0.1713 -0.0775 -1.0957
 1830SOL    HW217127   2.766   0.081   6.625  0.5605  1.7698  2.7887
 1831SOL     OW17128   0.489   1.292   7.315 -0.1739  0.0372  0.5600
 1831SOL    HW117129   0.581   1.304   7.341  0.4369 -0.6076 -1.3190
 1831SOL    HW217130   0.487   1.209   7.268 -0.6350 -0.3646  1.2980
 1832SOL     OW17131   0.346   3.071   6.683  0.6819  0.0343  0.5358
 1832SOL    HW117132   0.394   3.018   6.747  0.2670 -0.7862  0.1808
 1832SOL    HW217133   0.266   3.071   6.736  1.0199 -0.6407  1.0517
 1833SOL     OW17134   0.621   3.957  10.570  0.5839 -0.1109 -0.4530
 1833SOL    HW117135   0.574   3.903  10.507 -0.2971 -1.1567  1.1052
 1833SOL    HW217136   0.679   3.886  10.597 -1.3966 -2.0241 -1.2541
 1834SOL     OW17137   0.901   0.815  11.114 -0.3996  0.4456 -0.1165
 1834SOL    HW117138   0.986   0.837  11.153  0.6694 -2.6189 -0.6605
 1834SOL    HW217139   0.838   0.815  11.185 -1.7145  1.8027 -1.2920
 1835SOL     OW17140   3.946   2.790  16.993 -0.5508 -0.2768 -0.4476
 1835SOL    HW117141   3.980   2.707  17.025 -1.2870 -0.1525  0.6557
 1835SOL    HW217142   3.954   2.842  17.073 -0.6635 -0.4658 -0.3147
 1836SOL     OW17143   0.940   3.888  10.074 -0.4590  0.1535  0.3322
 1836SOL    HW117144   0.864   3.945  10.086 -0.3193  0.9036 -2.3955
 1836SOL    HW217145   0.914   3.799  10.098 -0.3692 -0.7035 -2.6883
 1837SOL     OW17146   2.287   2.611  15.278  0.1640 -0.1063 -0.3808
 1837SOL    HW117147   2.226   2.559  15.330 -0.2716 -0.2019 -0.9866
 1837SOL    HW217148   2.366   2.613  15.333 -1.4437  0.5121  1.9309
 1838SOL     OW17149   0.861   4.125   7.983  0.1363  0.2974  0.3262
 1838SOL    HW117150   0.774   4.086   7.973 -0.2326  1.6635 -1.9361
 1838SOL    HW217151   0.896   4.107   7.896  2.5790  1.7627  1.0267
 1839SOL     OW17152   1.349   0.516   5.413  1.0044  0.4310 -0.0346
 1839SOL    HW117153   1.401   0.436   5.402 -0.0051 -0.2237 -0.0466
 1839SOL    HW217154   1.337   0.557   5.328 -2.5072  2.3785  1.4026
 1840SOL     OW17155   1.932   4.487   9.843 -0.4226 -0.2466 -0.7385
 1840SOL    HW117156   1.909   4.454   9.756 -1.0266 -1.2661 -0.1867
 1840SOL    HW217157   1.942   4.402   9.886  3.3841  0.7524  0.3444
 1841SOL     OW17158   2.923   0.315  12.663  0.0626 -0.5840  0.7731
 1841SOL    HW117159   3.018   0.323  12.652 -0.2276  0.3036 -1.0502
 1841SOL    HW217160   2.904   0.399  12.705 -2.8058 -1.2988  0.8929
 1842SOL     OW17161   2.332   0.582   8.571  0.1432 -0.3608  0.6819
 1842SOL    HW117162   2.416   0.624   8.588  0.8721 -0.6600 -2.0531
 1842SOL    HW217163   2.333   0.511   8.635 -3.3010  0.1184  1.2383
 1843SOL     OW17164   2.156   0.200   8.206  0.1059  0.0080 -0.8616
 1843SOL    HW117165   2.061   0.214   8.212  0.0380 -0.8634  0.2573
 1843SOL    HW217166   2.176   0.213   8.299 -0.5452 -0.0446 -0.7135
 1844SOL     OW17167   3.542   4.311   4.303  1.0674  0.1889 -0.1927
 1844SOL    HW117168   3.626   4.335   4.342  0.5568  4.1825 -1.5166
 1844SOL    HW217169   3.473   4.303   4.369  0.7193 -0.1950 -0.6013
 1845SOL     OW17170   1.012   0.670   8.152  0.0020  0.1857  0.1163
 1845SOL    HW117171   0.957   0.627   8.087  1.9074  1.7818 -2.5370
 1845SOL    HW217172   1.004   0.761   8.124 -0.6787  0.0472 -0.1432
 1846SOL     OW17173   0.257   3.401   2.688 -0.0760  0.3996  0.0535
 1846SOL    HW117174   0.229   3.432   2.774  0.5717  1.1090  0.0064
 1846SOL    HW217175   0.194   3.332   2.665 -2.0236  2.3199 -0.3087
 1847SOL     OW17176   3.129   1.060   2.236  0.0444 -0.8136 -0.2859
 1847SOL    HW117177   3.080   1.039   2.156  2.8984 -0.6063 -2.0666
 1847SOL    HW217178   3.191   1.130   2.218 -2.6915  2.0539  1.3412
 1848SOL     OW17179   1.698   0.562  12.006 -0.0941 -0.1885  0.0079
 1848SOL    HW117180   1.768   0.590  11.947 -0.6228 -0.5727 -0.8050
 1848SOL    HW217181   1.654   0.500  11.948  0.4385  0.5226 -1.1470
 1849SOL     OW17182   3.140   2.566   4.662 -0.7971 -0.3058  0.1177
 1849SOL    HW117183   3.063   2.515   4.686 -0.3375 -0.1814  1.8242
 1849SOL    HW217184   3.113   2.651   4.697 -1.8809 -1.5709  2.3376
 1850SOL     OW17185   3.015   3.978   2.637  0.2390 -0.5113  0.3173
 1850SOL    HW117186   3.068   3.995   2.715 -0.1677 -0.4956  0.5909
 1850SOL    HW217187   3.010   3.883   2.638 -0.7082 -0.5027 -2.2665
 1851SOL     OW17188   2.955   2.401   4.773  0.0160 -0.0987  0.2302
 1851SOL    HW117189   2.865   2.379   4.797 -0.2579  0.6531 -0.1249
 1851SOL    HW217190   2.986   2.442   4.854  0.3136  0.0314  0.0502
 1852SOL     OW17191   1.375   3.226  10.025 -0.5914  0.1928 -0.4783
 1852SOL    HW117192   1.375   3.133  10.049 -0.1984  0.9777  2.6584
 1852SOL    HW217193   1.467   3.239  10.002  0.4225 -3.9399  1.1537
 1853SOL     OW17194   3.855   3.279   3.045 -0.6218  0.2397 -0.4777
 1853SOL    HW117195   3.886   3.332   2.972 -1.0735 -1.0679 -1.6137
 1853SOL    HW217196   3.842   3.346   3.112  2.8520  2.2817 -1.8601
 1854SOL     OW17197   4.498   3.744   7.180  0.5225  0.5708  0.1182
 1854SOL    HW117198   4.581   3.757   7.226  0.4888 -1.1211  0.6666
 1854SOL    HW217199   4.447   3.814   7.221  1.9935  2.0518 -0.5608
 1855SOL     OW17200   3.048   2.944   9.349  0.3818  0.3173  0.2074
 1855SOL    HW117201   2.976   2.911   9.403 -1.3429 -0.1863 -2.3597
 1855SOL    HW217202   3.016   3.033   9.338 -0.0214 -0.3691 -4.4280
 1856SOL     OW17203   0.086   4.171   4.270  0.2451 -0.3141  0.5636
 1856SOL    HW117204   0.054   4.196   4.183  0.7178 -1.3905  0.0893
 1856SOL    HW217205   0.018   4.105   4.284 -2.5901  2.5372  0.3108
 1857SOL     OW17206   3.134   0.630   2.403 -0.0768 -0.3296 -0.7343
 1857SOL    HW117207   3.092   0.611   2.487  0.9860  2.4372  0.4094
 1857SOL    HW217208   3.142   0.725   2.404 -0.7393 -0.2807  0.7228
 1858SOL     OW17209   4.603   3.623   9.057 -0.1565  0.0947 -0.9546
 1858SOL    HW117210   4.596   3.718   9.057  1.8839  0.2359  0.3487
 1858SOL    HW217211   4.589   3.592   9.147 -3.0871  0.7597 -1.1856
 1859SOL     OW17212   3.214   3.293  14.615 -0.2427  0.1276  0.1933
 1859SOL    HW117213   3.180   3.279  14.527  0.8893 -1.8188  0.0680
 1859SOL    HW217214   3.309   3.285  14.606 -0.1520  1.1227  0.2634
 1860SOL     OW17215   0.442   3.212  16.769 -0.4294  0.4391  0.3015
 1860SOL    HW117216   0.351   3.238  16.765 -0.4688  0.3075  0.3415
 1860SOL    HW217217   0.467   3.261  16.847  1.3931  0.8214 -0.5121
 1861SOL     OW17218   3.605   0.500   4.011 -0.0030  0.0496  0.2003
 1861SOL    HW117219   3.662   0.481   4.086  0.7677 -1.8059 -0.8549
 1861SOL    HW217220   3.555   0.418   4.006  1.5666 -1.0151  1.6545
 1862SOL     OW17221   0.691   0.405   5.440 -0.5094 -0.3378 -0.1618
 1862SOL    HW117222   0.733   0.342   5.382  0.9220 -0.2991  0.8326
 1862SOL    HW217223   0.664   0.470   5.374  0.7959  1.4753  1.0879
 1863SOL     OW17224   1.972   0.194   4.408  0.2391  0.3059 -0.0825
 1863SOL    HW117225   2.061   0.224   4.389  0.0115  2.0593  1.5730
 1863SOL    HW217226   1.954   0.226   4.496  0.6961 -1.5735  0.6931
 1864SOL     OW17227   1.700   3.310   7.906 -0.3502 -0.2486  0.0796
 1864SOL    HW117228   1.717   3.387   7.960  0.4347 -0.4962  0.1776
 1864SOL    HW217229   1.787   3.271   7.898  1.0190  2.6184  1.0535
 1865SOL     OW17230   0.606   2.355   9.552  0.7397  0.5269 -0.2515
 1865SOL    HW117231   0.689   2.351   9.504  0.6838  0.0023 -0.3043
 1865SOL    HW217232   0.628   2.374   9.644 -0.6961  1.0283 -0.0125
 1866SOL     OW17233   4.636   0.428   8.987  0.0627 -0.2741  0.0680
 1866SOL    HW117234   4.560   0.458   8.938  0.6731  3.5433  1.5194
 1866SOL    HW217235   4.682   0.396   8.909 -0.0914 -0.8963  0.2269
 1867SOL     OW17236   0.527   1.750   1.365 -0.6400 -0.0837  0.2117
 1867SOL    HW117237   0.590   1.693   1.320 -0.4543 -1.3696  2.0992
 1867SOL    HW217238   0.587   1.822   1.384 -0.0690 -0.5273  0.0888
 1868SOL     OW17239   4.559   0.578   2.238 -0.1255 -0.2783  0.0880
 1868SOL    HW117240   4.511   0.572   2.320  1.2789 -2.9811  0.7037
 1868SOL    HW217241   4.637   0.524   2.253 -0.8312 -1.3803 -0.2361
 1869SOL     OW17242   1.131   4.054   8.611 -0.3101  0.5752 -0.7520
 1869SOL    HW117243   1.093   4.115   8.547 -1.8418  0.7046  0.2746
 1869SOL    HW217244   1.088   4.089   8.689  1.5806  0.6547  0.2453
 1870SOL     OW17245   0.818   1.403   5.855  0.0266 -0.0931  0.0701
 1870SOL    HW117246   0.722   1.396   5.849 -0.1678 -0.8580  4.2200
 1870SOL    HW217247   0.834   1.321   5.900 -0.2672  0.0276  0.4008
 1871SOL     OW17248   4.310   2.784   6.991 -0.5187  0.4389  0.2895
 1871SOL    HW117249   4.275   2.699   7.018 -1.2667  0.0753 -1.8299
 1871SOL    HW217250   4.402   2.774   7.015 -0.6514 -0.2760  0.5139
 1872SOL     OW17251   2.291   3.305   2.709  0.2552  0.0769  0.4817
 1872SOL    HW117252   2.290   3.390   2.666  1.3400 -0.0036  0.3100
 1872SOL    HW217253   2.380   3.272   2.700 -0.1376 -0.9811  0.4680
 1873SOL     OW17254   0.452   1.212  11.307  0.0645  0.0934  0.2213
 1873SOL    HW117255   0.525   1.249  11.356  0.9942 -0.6245 -0.6169
 1873SOL    HW217256   0.502   1.145  11.260 -1.2570 -0.2828 -0.6465
 1874SOL     OW17257   0.504   4.488   4.039 -0.2046  0.0586  0.3436
 1874SOL    HW117258   0.437   4.549   4.071  0.0652  1.3453 -1.5534
 1874SOL    HW217259   0.564   4.556   4.009  0.7968 -0.2546  1.6279
 1875SOL     OW17260   0.627   0.944   9.605 -0.5173  0.1317 -0.2252
 1875SOL    HW117261   0.614   0.974   9.695 -0.2690  2.6910 -1.0411
 1875SOL    HW217262   0.617   1.022   9.550 -0.2970 -0.0426 -0.5080
 1876SOL     OW17263   2.118   2.286   5.428  0.3482 -0.6513 -0.1933
 1876SOL    HW117264   2.023   2.274   5.418  0.2420  0.2056 -0.2177
 1876SOL    HW217265   2.138   2.194   5.406  0.1329 -0.4438 -1.2622
 1877SOL     OW17266   2.756   1.021   4.230  0.0261 -0.2749  0.0431
 1877SOL    HW117267   2.786   1.080   4.160  2.6168 -0.4283  1.0196
 1877SOL    HW217268   2.679   1.057   4.274 -0.9209 -0.1479 -1.6976
 1878SOL     OW17269   3.116   0.749   2.984 -0.4453  0.6043  0.1718
 1878SOL    HW117270   3.205   0.745   3.019 -0.4143  0.1475  0.0362
 1878SOL    HW217271   3.106   0.657   2.961  1.0149 -0.2411  2.8339
 1879SOL     OW17272   3.766   3.629  11.568  0.1803  0.3090 -0.2226
 1879SOL    HW117273   3.738   3.720  11.564  1.4397  0.7179  0.1680
 1879SOL    HW217274   3.720   3.602  11.647  0.7136  1.2772  0.4101
 1880SOL     OW17275   1.721   0.379   6.226 -0.5599  0.0762 -0.0256
 1880SOL    HW117276   1.636   0.362   6.267 -0.4863  0.8825  0.4838
 1880SOL    HW217277   1.731   0.472   6.247  2.0942 -0.4196  0.8969
 1881SOL     OW17278   1.515   4.626   4.789  0.2728  0.0196 -0.3131
 1881SOL    HW117279   1.508   4.713   4.751 -0.8706  0.9063  1.9274
 1881SOL    HW217280   1.506   4.566   4.715  0.1597  0.7630 -0.9011
 1882SOL     OW17281   0.180   3.326  16.793  0.2072  0.2500  0.0299
 1882SOL    HW117282   0.130   3.363  16.865  0.3650  1.4750 -0.4947
 1882SOL    HW217283   0.188   3.400  16.733  0.4761 -0.1475 -0.4392
 1883SOL     OW17284   3.822   3.564  12.731 -0.6440  0.5926 -0.0284
 1883SOL    HW117285   3.807   3.490  12.790  0.8803  0.8023  0.6025
 1883SOL    HW217286   3.732   3.590  12.711 -1.4176 -3.8448 -2.4053
 1884SOL     OW17287   1.409   0.464  16.768  0.2811  0.2342 -0.6499
 1884SOL    HW117288   1.317   0.472  16.743 -0.3930 -1.0249  1.3199
 1884SOL    HW217289   1.430   0.371  16.759 -0.5859 -0.0573  0.2428
 1885SOL     OW17290   3.375   4.650   9.497  0.3315  0.1242 -0.7725
 1885SOL    HW117291   3.341   4.735   9.468  1.3199  0.6874 -0.3163
 1885SOL    HW217292   3.468   4.671   9.502  0.5824 -1.2176  0.3535
 1886SOL     OW17293   2.267   4.317   6.758  0.3088  0.4386 -0.5403
 1886SOL    HW117294   2.340   4.376   6.780  0.5180 -0.6638  1.7008
 1886SOL    HW217295   2.317   4.265   6.694 -1.3072 -0.8057 -0.7735
 1887SOL     OW17296   3.455   1.865  15.273  0.1576  0.1709 -0.3835
 1887SOL    HW117297   3.406   1.797  15.320 -1.7155  1.0191 -1.1276
 1887SOL    HW217298   3.545   1.846  15.301  1.0364  1.5737 -2.2321
 1888SOL     OW17299   4.229   2.213  10.485  0.0864  0.3393 -0.1622
 1888SOL    HW117300   4.238   2.217  10.390  0.3887  0.6453 -0.1176
 1888SOL    HW217301   4.134   2.210  10.496  0.0998  0.1260 -0.0969
 1889SOL     OW17302   4.231   1.972   4.464 -0.7783  0.1306 -0.4108
 1889SOL    HW117303   4.326   1.967   4.470 -0.6832  3.3726  0.9959
 1889SOL    HW217304   4.201   1.885   4.437 -0.4825  0.2057 -0.9766
 1890SOL     OW17305   2.442   1.958   3.019  0.1519  0.5955 -0.1270
 1890SOL    HW117306   2.451   1.867   3.045  1.7009  0.7095 -0.2293
 1890SOL    HW217307   2.371   1.964   2.956  1.2054  0.0760 -1.3661
 1891SOL     OW17308   4.172   1.311   8.265 -0.2646  0.1383 -0.1185
 1891SOL    HW117309   4.231   1.239   8.288  1.2213  1.8638  1.4430
 1891SOL    HW217310   4.141   1.333   8.353  1.7170 -1.4590  0.9889
 1892SOL     OW17311   1.290   2.039  11.772  0.2952 -0.3686 -0.0876
 1892SOL    HW117312   1.300   1.989  11.691  0.7018 -0.5735  0.0956
 1892SOL    HW217313   1.261   1.971  11.833 -0.0748  0.7243  0.9765
 1893SOL     OW17314   1.213   1.637   8.008 -0.6525 -0.2710  0.2226
 1893SOL    HW117315   1.234   1.695   8.081  0.3090 -1.5250  0.9301
 1893SOL    HW217316   1.201   1.550   8.046 -1.2209 -0.5103 -0.4949
 1894SOL     OW17317   0.853   3.109   9.818  0.0341 -0.1629 -0.4559
 1894SOL    HW117318   0.918   3.169   9.782 -1.6843  0.7997 -1.9450
 1894SOL    HW217319   0.815   3.092   9.732 -0.9785 -1.3374  0.2319
 1895SOL     OW17320   1.396   3.304   6.278 -0.0880 -0.3336 -0.3209
 1895SOL    HW117321   1.389   3.398   6.261  1.9538 -0.1169  0.1358
 1895SOL    HW217322   1.418   3.271   6.191  3.3824 -1.3675  0.9738
 1896SOL     OW17323   3.189   1.433  11.280 -0.1414  0.0056  0.1613
 1896SOL    HW117324   3.263   1.422  11.221 -0.3999  0.7334 -0.2939
 1896SOL    HW217325   3.135   1.359  11.253 -1.3965  1.8110 -2.2342
 1897SOL     OW17326   2.126   0.520   6.527 -0.9310  0.0793  0.1791
 1897SOL    HW117327   2.166   0.536   6.441 -0.1430  1.1918  0.7483
 1897SOL    HW217328   2.034   0.511   6.503 -0.5363 -1.1484 -0.8397
 1898SOL     OW17329   1.129   2.597   4.436  0.0228  0.1911 -0.1756
 1898SOL    HW117330   1.189   2.666   4.466 -0.8586 -0.1666  2.4653
 1898SOL    HW217331   1.057   2.623   4.493 -2.3547 -3.4910 -1.4609
 1899SOL     OW17332   4.590   3.318  10.270  0.0763 -0.1283 -0.4673
 1899SOL    HW117333   4.661   3.254  10.264  1.2575  0.7948  3.5219
 1899SOL    HW217334   4.518   3.266  10.306 -1.1225  0.5052 -1.9387
 1900SOL     OW17335   1.588   1.867   8.867  0.2046 -0.8187 -0.2439
 1900SOL    HW117336   1.669   1.918   8.860 -0.4237  0.3038  0.8640
 1900SOL    HW217337   1.635   1.790   8.900  0.1285 -0.0635  1.6169
 1901SOL     OW17338   2.829   2.913   7.314 -0.4330 -0.1136  0.6771
 1901SOL    HW117339   2.758   2.919   7.377 -2.7163 -0.8717 -1.7858
 1901SOL    HW217340   2.787   2.863   7.243  0.5283 -1.0841  0.7887
 1902SOL     OW17341   3.017   4.405   9.757 -0.4807  0.1307  0.1998
 1902SOL    HW117342   3.073   4.464   9.808  1.6064 -0.6665 -1.1377
 1902SOL    HW217343   3.059   4.413   9.671 -0.1333  0.1984  0.3742
 1903SOL     OW17344   4.736   0.271  16.028  0.2455 -0.0613 -0.3740
 1903SOL    HW117345   0.071   0.252  15.971 -1.0255 -1.0389 -1.7241
 1903SOL    HW217346   0.035   0.338  16.084  0.0101  0.5236 -0.9214
 1904SOL     OW17347   4.026   0.278   8.323  0.1405  0.4380 -0.3472
 1904SOL    HW117348   4.087   0.350   8.340  0.6999 -0.2985  0.7922
 1904SOL    HW217349   3.955   0.301   8.383 -0.0340 -1.6881  0.2412
 1905SOL     OW17350   4.360   0.145   1.733  0.1064  0.3665  0.2858
 1905SOL    HW117351   4.373   0.187   1.818  0.8155  3.2797 -1.2425
 1905SOL    HW217352   4.387   0.213   1.671  0.6778 -0.3778 -0.2851
 1906SOL     OW17353   0.382   2.653   2.060 -0.4948  0.1685 -0.3188
 1906SOL    HW117354   0.306   2.606   2.093 -0.6543  1.1539  0.7026
 1906SOL    HW217355   0.379   2.735   2.109 -1.8613  0.0939 -0.2982
 1907SOL     OW17356   3.205   2.409  15.588 -0.1730 -0.1724 -0.2690
 1907SOL    HW117357   3.141   2.469  15.549 -1.9138 -1.2016  0.9969
 1907SOL    HW217358   3.171   2.323  15.562 -0.8120 -0.1232  0.3939
 1908SOL     OW17359   4.117   4.278   2.991 -0.0689  0.3102 -0.3943
 1908SOL    HW117360   4.095   4.342   2.923  0.8560  2.0537  0.9465
 1908SOL    HW217361   4.028   4.253   3.016 -1.8271  3.3484 -3.5490
 1909SOL     OW17362   3.595   0.953  11.114 -0.1412 -0.0059  0.4177
 1909SOL    HW117363   3.667   1.002  11.075  0.1965 -0.6371  0.2377
 1909SOL    HW217364   3.527   1.020  11.109 -2.1114 -1.9438  1.2646
 1910SOL     OW17365   3.993   3.156   4.094 -0.6113  0.3081  0.3706
 1910SOL    HW117366   4.065   3.109   4.136  0.2965  2.1580  0.8723
 1910SOL    HW217367   3.944   3.183   4.172 -1.8355 -0.1168 -0.2416
 1911SOL     OW17368   3.049   1.261   3.309  0.1100 -0.1273 -0.7799
 1911SOL    HW117369   3.019   1.272   3.219  0.0711 -2.3217 -1.0539
 1911SOL    HW217370   3.129   1.313   3.307  0.3238 -0.4215  0.1237
 1912SOL     OW17371   4.636   0.157   8.543  0.6089  0.4694 -0.3014
 1912SOL    HW117372   4.636   0.086   8.479  2.9760  0.2283 -0.0494
 1912SOL    HW217373   4.584   0.224   8.500  0.8438 -0.6391 -2.3085
 1913SOL     OW17374   1.355   1.885   4.545 -0.4038 -0.1655  0.0187
 1913SOL    HW117375   1.402   1.926   4.618  0.2071 -1.0657  0.1297
 1913SOL    HW217376   1.349   1.792   4.564 -2.9656  0.0452  0.2212
 1914SOL     OW17377   1.385   1.136   4.404 -0.1921 -0.2739  0.0051
 1914SOL    HW117378   1.419   1.201   4.465 -1.6333 -1.1279  1.7448
 1914SOL    HW217379   1.434   1.060   4.433  1.2992  0.9381  0.6433
 1915SOL     OW17380   1.544   3.442  15.527 -0.8246  0.7732 -0.1459
 1915SOL    HW117381   1.594   3.378  15.578 -0.7706  1.3648  0.5573
 1915SOL    HW217382   1.603   3.466  15.456  0.3767  0.5203  0.7611
 1916SOL     OW17383   0.832   0.087  11.608  0.2206  0.1262 -0.6313
 1916SOL    HW117384   0.785   0.171  11.614  1.8822  0.9702  0.6774
 1916SOL    HW217385   0.788   0.044  11.681  1.0673 -1.5927 -1.1530
 1917SOL     OW17386   1.694   2.109   2.633 -0.2116 -0.6539 -0.0101
 1917SOL    HW117387   1.773   2.076   2.676  0.9089  0.5491 -1.1457
 1917SOL    HW217388   1.635   2.055   2.684 -1.1209  0.0937 -0.2632
 1918SOL     OW17389   2.044   3.562   6.240 -0.4465 -0.2817  0.1103
 1918SOL    HW117390   1.993   3.514   6.305 -0.0015 -3.6936 -2.0805
 1918SOL    HW217391   1.981   3.590   6.173 -0.7006  0.1714  0.5422
 1919SOL     OW17392   3.681   2.865  13.659 -0.2946  0.6053 -0.2515
 1919SOL    HW117393   3.712   2.776  13.676  0.5580  1.1185  0.9352
 1919SOL    HW217394   3.664   2.870  13.565 -0.6790 -1.3723 -0.2765
 1920SOL     OW17395   3.865   3.775   6.555 -0.3303  0.3858 -0.0286
 1920SOL    HW117396   3.857   3.689   6.514  1.6476 -0.3388  1.1015
 1920SOL    HW217397   3.939   3.762   6.615  0.6060  2.5311 -0.6942
 1921SOL     OW17398   3.449   2.112   8.172  0.1064  0.5627 -0.1362
 1921SOL    HW117399   3.451   2.059   8.252 -1.2285 -1.3107 -1.3437
 1921SOL    HW217400   3.393   2.055   8.118  2.8984 -2.2524 -0.0860
 1922SOL     OW17401   3.124   1.276   6.181  0.1786 -0.1785  0.3058
 1922SOL    HW117402   3.049   1.280   6.121  0.3288  0.5358  0.1645
 1922SOL    HW217403   3.125   1.363   6.222  1.4392  0.0100 -0.1358
 1923SOL     OW17404   0.096   4.302  11.321  0.5835  0.0601 -0.1955
 1923SOL    HW117405   0.191   4.299  11.336  0.4176  1.2154  1.0869
 1923SOL    HW217406   0.074   4.383  11.367  0.3959 -2.2153  3.7520
 1924SOL     OW17407   4.168   0.719   8.490 -0.3451 -0.2344  0.6981
 1924SOL    HW117408   4.246   0.752   8.534  0.1364  2.8572 -2.4712
 1924SOL    HW217409   4.115   0.798   8.496  0.2799  0.2109  0.2966
 1925SOL     OW17410   1.156   3.348   9.088 -0.2646 -0.5532  0.2382
 1925SOL    HW117411   1.242   3.389   9.095  0.1578 -1.6534  1.4550
 1925SOL    HW217412   1.110   3.400   9.022  1.1288  0.8881  0.4239
 1926SOL     OW17413   1.842   1.044   6.047 -0.4007 -0.3787  0.7105
 1926SOL    HW117414   1.762   1.016   6.093 -1.0858  2.0222  0.9786
 1926SOL    HW217415   1.918   0.993   6.073  0.7713  0.7015 -0.6131
 1927SOL     OW17416   0.136   4.414   4.397  0.2541  0.3867  0.2536
 1927SOL    HW117417   0.092   4.333   4.372 -2.7877  2.3167 -0.6768
 1927SOL    HW217418   0.151   4.472   4.322 -1.5282 -1.3913 -1.4621
 1928SOL     OW17419   1.279   0.404  15.694  0.5317  0.2011 -0.1678
 1928SOL    HW117420   1.189   0.374  15.705  0.7573  0.0928  1.4189
 1928SOL    HW217421   1.301   0.357  15.613  0.3179  2.3926 -1.4933
 1929SOL     OW17422   3.562   3.318   5.519  0.1364  0.2335  0.4248
 1929SOL    HW117423   3.549   3.354   5.431  1.1278 -0.1101  0.1383
 1929SOL    HW217424   3.482   3.351   5.558  0.6010  1.0409  0.7113
 1930SOL     OW17425   3.447   0.125   0.164  0.6535  0.3958 -0.0661
 1930SOL    HW117426   3.395   0.058   0.207  1.9883 -0.5210  0.1287
 1930SOL    HW217427   3.460   0.083   0.079  0.8432 -0.6013  0.4541
 1931SOL     OW17428   4.030   1.317   9.288  0.1197  0.5490 -0.0418
 1931SOL    HW117429   3.936   1.330   9.271 -0.1035  1.1963  1.6301
 1931SOL    HW217430   4.063   1.394   9.243 -0.6955  1.3667  0.7449
 1932SOL     OW17431   3.225   0.902   0.088 -0.1331  0.2909 -0.1446
 1932SOL    HW117432   3.275   0.820   0.081 -1.3865 -0.6142  1.7954
 1932SOL    HW217433   3.157   0.875   0.149 -0.9754  2.0185 -0.3190
 1933SOL     OW17434   2.009   0.506  13.416  0.3094 -0.0907  0.1209
 1933SOL    HW117435   1.984   0.415  13.432 -3.1335  0.6257 -1.1225
 1933SOL    HW217436   1.935   0.554  13.454  0.2375 -1.9762  2.3893
 1934SOL     OW17437   3.844   2.371   2.828 -0.0082 -0.6196 -0.2436
 1934SOL    HW117438   3.887   2.456   2.830 -0.1491 -0.6234  2.1610
 1934SOL    HW217439   3.835   2.337   2.917  0.5745  0.1894  0.1254
 1935SOL     OW17440   4.268   4.508  11.304 -0.0031  0.4431 -0.2763
 1935SOL    HW117441   4.334   4.559  11.352  0.9441 -1.0399 -0.0069
 1935SOL    HW217442   4.200   4.569  11.275 -0.2695 -0.8215 -2.3553
 1936SOL     OW17443   2.877   3.448   8.295 -0.1082  0.0568 -0.0743
 1936SOL    HW117444   2.818   3.454   8.219 -2.3766  0.7777  1.7368
 1936SOL    HW217445   2.880   3.353   8.291 -2.5165 -0.0844  1.1805
 1937SOL     OW17446   2.566   0.761   4.522 -0.2219  0.2988 -0.3108
 1937SOL    HW117447   2.587   0.855   4.525  1.7032 -0.1464  0.3738
 1937SOL    HW217448   2.491   0.769   4.463 -0.7506  1.8816  0.5818
 1938SOL     OW17449   0.644   2.239  16.669 -0.1486 -0.1276  0.3968
 1938SOL    HW117450   0.684   2.156  16.695 -0.5924 -0.7074 -0.8251
 1938SOL    HW217451   0.701   2.296  16.721  1.2412 -0.1916 -1.0581
 1939SOL     OW17452   3.150   1.017   9.816  0.9196  0.2839  0.3482
 1939SOL    HW117453   3.140   1.091   9.876 -3.1811  0.1921 -0.2454
 1939SOL    HW217454   3.236   0.984   9.843  1.4923 -0.4203 -2.4013
 1940SOL     OW17455   3.863   2.197   5.598  0.4165  0.0167  0.3187
 1940SOL    HW117456   3.858   2.153   5.683 -0.6502  0.6738  0.5821
 1940SOL    HW217457   3.853   2.290   5.618 -0.8878 -0.2233  0.7581
 1941SOL     OW17458   2.951   3.745   9.755  0.0205 -0.5183 -0.0235
 1941SOL    HW117459   3.040   3.720   9.779 -0.7611 -2.9861  0.3049
 1941SOL    HW217460   2.966   3.781   9.667  1.2378  1.9977  1.2324
 1942SOL     OW17461   2.888   1.240   7.471  0.4459 -0.1746 -0.5743
 1942SOL    HW117462   2.870   1.305   7.404 -0.0607 -1.2793 -1.5164
 1942SOL    HW217463   2.901   1.299   7.545 -0.2311  0.5878 -1.0692
 1943SOL     OW17464   4.072   3.564   4.269 -0.5308 -0.4162  0.2919
 1943SOL    HW117465   4.012   3.572   4.343  0.6077 -0.6870  1.2453
 1943SOL    HW217466   4.024   3.550   4.187  1.2705 -2.3229 -0.4428
 1944SOL     OW17467   3.880   0.484  12.222  0.0240 -0.2139 -0.4257
 1944SOL    HW117468   3.872   0.388  12.218  1.2156 -0.3838  1.3683
 1944SOL    HW217469   3.799   0.505  12.269 -0.1125  0.6004 -1.0356
 1945SOL     OW17470   0.387   0.228   3.167  0.2560 -0.6511  0.6685
 1945SOL    HW117471   0.342   0.279   3.100 -0.3526  2.0845  3.1862
 1945SOL    HW217472   0.380   0.141   3.127  1.3129 -0.7809  0.7657
 1946SOL     OW17473   0.337   4.136  14.976  0.0493 -0.5301  0.3488
 1946SOL    HW117474   0.266   4.088  15.019 -1.1368 -0.8311 -1.9157
 1946SOL    HW217475   0.297   4.133  14.889 -0.2500 -0.0933  0.4728
 1947SOL     OW17476   0.266   3.132   3.517  0.5432 -0.1188  0.2922
 1947SOL    HW117477   0.216   3.208   3.545  1.3911 -0.2600  2.2278
 1947SOL    HW217478   0.299   3.163   3.433 -1.2550  0.8266 -0.0719
 1948SOL     OW17479   4.319   1.628  13.234 -0.0126  0.0879  0.2518
 1948SOL    HW117480   4.260   1.553  13.238  1.0801 -0.7605  0.3856
 1948SOL    HW217481   4.403   1.595  13.202  0.8954  0.4655  2.2085
 1949SOL     OW17482   2.816   4.725  16.185  0.2816 -0.3551  0.2236
 1949SOL    HW117483   2.743   4.670  16.157  0.7654 -0.4517 -0.8475
 1949SOL    HW217484   2.879   4.664  16.149 -1.1416 -1.2454 -0.7713
 1950SOL     OW17485   0.688   1.874   8.832  0.5755  0.3749  0.4429
 1950SOL    HW117486   0.643   1.937   8.888  0.8746  1.5668 -0.6385
 1950SOL    HW217487   0.621   1.854   8.766  0.1582 -1.8203  1.5471
 1951SOL     OW17488   3.474   0.073  17.605  0.5212 -0.1069  0.6514
 1951SOL    HW117489   3.379   0.088  17.604  0.7546  1.3587 -1.2395
 1951SOL    HW217490   3.522   0.123  17.539 -0.2003  1.5772  1.3841
 1952SOL     OW17491   4.156   4.382   7.224 -0.2085  0.3454  0.0192
 1952SOL    HW117492   4.129   4.320   7.291  0.1744 -1.6208 -1.6219
 1952SOL    HW217493   4.223   4.332   7.178 -0.1575 -1.7723  2.3942
 1953SOL     OW17494   3.727   4.240   2.803 -0.5829  0.0076  0.3747
 1953SOL    HW117495   3.633   4.253   2.820 -0.7994  0.6299 -1.2577
 1953SOL    HW217496   3.767   4.290   2.874 -1.6034  1.6585 -0.2054
 1954SOL     OW17497   1.163   1.565   2.810 -0.3292 -0.7374  0.0365
 1954SOL    HW117498   1.082   1.578   2.859 -0.6914  1.7621 -1.2502
 1954SOL    HW217499   1.130   1.506   2.742  3.1736  0.4054 -2.6692
 1955SOL     OW17500   1.451   1.714   5.488 -0.3366 -0.3284  0.4949
 1955SOL    HW117501   1.374   1.759   5.523 -0.5276 -0.3131  0.0646
 1955SOL    HW217502   1.449   1.640   5.549  1.3950  0.5392  1.5826
 1956SOL     OW17503   4.691   3.790   6.277 -0.2385  0.2432 -0.1867
 1956SOL    HW117504   4.618   3.792   6.214  0.6939 -0.7556 -1.3151
 1956SOL    HW217505   4.718   3.881   6.284  1.5759 -0.4368  1.4877
 1957SOL     OW17506   4.260   4.228  14.954 -0.5383  0.0443 -0.0726
 1957SOL    HW117507   4.215   4.311  14.941 -2.9366 -0.8977  2.0985
 1957SOL    HW217508   4.196   4.181  14.902 -1.7312 -0.6459  1.9943
 1958SOL     OW17509   1.319   1.767   2.721 -0.1515 -0.1153  0.7957
 1958SOL    HW117510   1.258   1.716   2.774 -0.4271 -1.8975 -1.2586
 1958SOL    HW217511   1.352   1.710   2.652 -0.0601 -1.2698  1.7859
 1959SOL     OW17512   2.382   2.627   5.826 -0.1161 -0.1274 -0.1087
 1959SOL    HW117513   2.355   2.580   5.747 -2.8482 -0.5732  1.0707
 1959SOL    HW217514   2.379   2.719   5.801 -0.6799  0.1327  0.9086
 1960SOL     OW17515   3.052   3.508   7.961  0.0258 -0.2615 -0.0081
 1960SOL    HW117516   2.969   3.465   7.943  1.3916 -3.2301  0.6353
 1960SOL    HW217517   3.090   3.432   8.006 -0.3422 -0.6027 -0.2748
 1961SOL     OW17518   4.017   4.049   6.825 -0.3535 -0.2282  0.4222
 1961SOL    HW117519   3.949   3.983   6.815  0.7774 -1.6811  2.4815
 1961SOL    HW217520   4.046   4.029   6.913  0.1488  0.8634  0.5155
 1962SOL     OW17521   2.572   4.619   1.208  0.5541 -0.2646 -0.2662
 1962SOL    HW117522   2.572   4.654   1.119 -2.2532  1.1822  0.2995
 1962SOL    HW217523   2.556   4.700   1.256  0.1739 -1.0349  0.9168
 1963SOL     OW17524   2.531   0.430   5.702 -0.2724 -0.7731 -0.4306
 1963SOL    HW117525   2.588   0.445   5.778 -1.2011 -0.7925  0.2710
 1963SOL    HW217526   2.599   0.412   5.637  0.7031  0.0064  0.3729
 1964SOL     OW17527   3.938   0.233  13.315 -0.2464  0.6126  0.0182
 1964SOL    HW117528   3.927   0.289  13.238 -0.2584 -0.8840 -1.0695
 1964SOL    HW217529   4.034   0.229  13.321 -0.3724 -0.8418  1.0211
 1965SOL     OW17530   2.972   0.972   5.900 -0.3264 -0.5987  0.2409
 1965SOL    HW117531   3.055   0.971   5.950 -0.2332  2.6015  0.1494
 1965SOL    HW217532   3.008   0.993   5.814 -1.0414 -0.2945  0.0204
 1966SOL     OW17533   2.044   1.559  15.009 -0.0585 -0.0015  0.2531
 1966SOL    HW117534   2.032   1.476  15.055 -1.3002 -0.2213 -0.4590
 1966SOL    HW217535   1.959   1.557  14.964  0.2875  2.6508 -0.4973
 1967SOL     OW17536   0.026   2.918   3.847  0.0971  0.1312 -0.5388
 1967SOL    HW117537   0.018   2.838   3.795  1.3037 -0.2821 -0.0949
 1967SOL    HW217538   0.021   2.876   3.933  0.9548 -0.1181 -0.6118
 1968SOL     OW17539   3.339   2.996   1.758  0.0454  0.0735 -0.0906
 1968SOL    HW117540   3.383   2.927   1.807 -3.3026 -2.2832 -0.3837
 1968SOL    HW217541   3.302   2.942   1.689  0.0910 -0.1274  0.0443
 1969SOL     OW17542   1.108   4.131   5.551 -0.1170 -0.5894  0.2896
 1969SOL    HW117543   1.056   4.153   5.473 -0.3760  0.4648  0.7615
 1969SOL    HW217544   1.095   4.215   5.596  0.8471 -0.7871  0.9346
 1970SOL     OW17545   2.835   3.131   9.062 -0.1530  0.4038  0.0768
 1970SOL    HW117546   2.796   3.067   9.122  0.6016 -0.1004  0.0284
 1970SOL    HW217547   2.817   3.089   8.978  0.9751  1.6783 -0.7943
 1971SOL     OW17548   3.148   3.786   3.227 -0.5262 -0.3080 -0.1239
 1971SOL    HW117549   3.155   3.747   3.140 -0.0391  0.0435 -0.2451
 1971SOL    HW217550   3.099   3.867   3.220 -1.1186 -0.7433 -0.9975
 1972SOL     OW17551   3.513   0.275  14.985  0.8006  1.1265  0.5427
 1972SOL    HW117552   3.444   0.325  14.943  0.7556  0.1823 -0.4969
 1972SOL    HW217553   3.480   0.281  15.075 -1.2353  0.6954 -0.2025
 1973SOL     OW17554   2.191   1.807   6.851 -0.4112  0.2515  0.3558
 1973SOL    HW117555   2.101   1.781   6.868  0.4202 -1.1996  2.4733
 1973SOL    HW217556   2.195   1.897   6.882 -1.1134 -0.6654  3.0763
 1974SOL     OW17557   0.657   0.250   7.833  0.3097  0.4411 -0.2384
 1974SOL    HW117558   0.660   0.339   7.800  0.9694  0.4371 -0.1900
 1974SOL    HW217559   0.655   0.264   7.928 -1.6575 -3.5177  0.3616
 1975SOL     OW17560   1.726   0.683   6.078 -0.0157  0.6761  0.2447
 1975SOL    HW117561   1.801   0.693   6.019 -0.2417  0.8376 -0.0162
 1975SOL    HW217562   1.765   0.719   6.158  2.3848 -3.0383  0.7528
 1976SOL     OW17563   2.059   0.895   4.367 -0.1105  0.1776 -0.6512
 1976SOL    HW117564   2.009   0.946   4.431  0.0712 -2.1940  1.3758
 1976SOL    HW217565   1.992   0.837   4.330 -0.6237 -1.6381  3.1393
 1977SOL     OW17566   1.045   2.821   3.883  0.2328 -0.2293 -0.5392
 1977SOL    HW117567   1.059   2.739   3.931 -0.6483  0.1934  0.4390
 1977SOL    HW217568   1.105   2.797   3.813  1.2928  0.6934  0.0569
 1978SOL     OW17569   0.105   1.242   8.966 -0.5459  0.0858 -0.0532
 1978SOL    HW117570   0.145   1.159   8.939 -0.9705 -0.3678  0.7430
 1978SOL    HW217571   0.160   1.250   9.044  0.3421  1.1875 -0.7960
 1979SOL     OW17572   3.861   3.811  16.104  0.7807 -0.0238  0.1928
 1979SOL    HW117573   3.901   3.733  16.140  0.8333 -0.0249  0.1334
 1979SOL    HW217574   3.784   3.826  16.159  2.0954  1.2197  1.6818
 1980SOL     OW17575   3.609   3.871  16.228 -0.0959 -0.0326  0.2762
 1980SOL    HW117576   3.533   3.918  16.192  0.7897  2.4658  1.6276
 1980SOL    HW217577   3.575   3.782  16.228 -0.0064 -0.0677  1.1861
 1981SOL     OW17578   0.299   3.119  13.714 -0.0004 -0.0925  0.1700
 1981SOL    HW117579   0.327   3.169  13.637  1.0784  1.4331  1.5638
 1981SOL    HW217580   0.219   3.162  13.745 -1.3655 -1.7986 -1.0126
 1982SOL     OW17581   0.631   3.888   8.174  0.3972  0.0878  0.0138
 1982SOL    HW117582   0.610   3.794   8.173  0.2917  0.1536 -2.7887
 1982SOL    HW217583   0.609   3.901   8.266 -1.7215 -3.4305  0.0282
 1983SOL     OW17584   2.776   2.763   4.999  0.1570 -0.1351 -0.0055
 1983SOL    HW117585   2.700   2.715   5.032  1.5400 -1.8762  0.6557
 1983SOL    HW217586   2.816   2.813   5.070  0.5465 -0.1247 -0.2317
 1984SOL     OW17587   1.666   3.316   5.463 -0.0073 -0.3913  0.2976
 1984SOL    HW117588   1.690   3.316   5.555  1.3160 -0.5761 -0.0380
 1984SOL    HW217589   1.572   3.335   5.469  0.5772  1.6859  3.0472
 1985SOL     OW17590   2.814   3.932  10.885 -0.2483  0.2816  0.0555
 1985SOL    HW117591   2.798   3.858  10.828 -0.6284  0.8459 -0.5698
 1985SOL    HW217592   2.792   4.011  10.835  1.1935  2.4206  2.7963
 1986SOL     OW17593   2.740   3.577   6.765 -0.5753 -0.5232  0.4014
 1986SOL    HW117594   2.667   3.519   6.783 -1.4894  0.2638 -0.7641
 1986SOL    HW217595   2.797   3.530   6.704 -2.1505 -1.3865 -0.3836
 1987SOL     OW17596   3.213   3.667   4.089 -0.1398 -0.0152 -0.2179
 1987SOL    HW117597   3.217   3.762   4.091 -2.0635  0.0351  0.8285
 1987SOL    HW217598   3.306   3.645   4.096  0.0979  0.8144 -0.7140
 1988SOL     OW17599   0.194   3.773   0.084 -0.2279 -0.6270 -0.5310
 1988SOL    HW117600   0.260   3.716   0.044 -0.5144  0.2324 -2.2421
 1988SOL    HW217601   0.115   3.737   0.044 -0.8409 -0.6884  0.7492
 1989SOL     OW17602   3.321   2.438   3.627  0.2052 -0.4434  0.2132
 1989SOL    HW117603   3.271   2.500   3.575 -0.0632 -1.2664 -0.4991
 1989SOL    HW217604   3.253   2.394   3.678  1.5811 -3.0070 -0.1229
 1990SOL     OW17605   4.257   1.069   2.080  0.3785 -0.5690 -0.6143
 1990SOL    HW117606   4.194   1.133   2.047  1.0543  1.8831  2.9162
 1990SOL    HW217607   4.296   1.125   2.147 -0.9814 -1.5768  0.9976
 1991SOL     OW17608   1.945   1.825   8.985 -0.9175  0.6247  0.2648
 1991SOL    HW117609   1.912   1.736   8.976  1.7648 -0.7905  4.6947
 1991SOL    HW217610   2.022   1.814   8.929 -1.5195 -0.3733 -0.3773
 1992SOL     OW17611   2.958   3.630   4.100  0.2279  0.2097  0.2660
 1992SOL    HW117612   2.945   3.712   4.148 -2.1101 -0.9245  1.5501
 1992SOL    HW217613   3.049   3.613   4.123  0.1169 -0.6754  0.0498
 1993SOL     OW17614   0.314   3.620   4.929 -0.1894  0.1407 -0.5935
 1993SOL    HW117615   0.335   3.650   4.840 -2.1985 -2.4846 -1.9338
 1993SOL    HW217616   0.320   3.703   4.977  0.0290 -0.2528  0.0589
 1994SOL     OW17617   4.036   4.015   4.598  0.1420 -0.3866  0.1908
 1994SOL    HW117618   4.107   4.043   4.655 -1.7555  1.9950  1.3337
 1994SOL    HW217619   4.074   4.037   4.513 -1.7294  1.6445 -0.0923
 1995SOL     OW17620   1.359   3.871   7.175  0.1853  0.8782  0.3677
 1995SOL    HW117621   1.347   3.926   7.252 -1.6957 -0.3966  0.9817
 1995SOL    HW217622   1.270   3.838   7.177  0.7722 -0.6621  1.2691
 1996SOL     OW17623   4.402   4.241   5.211 -0.4212  0.1615  0.2144
 1996SOL    HW117624   4.385   4.326   5.252  0.8372  0.6809 -0.3215
 1996SOL    HW217625   4.493   4.227   5.237 -0.6132 -1.3344  0.0915
 1997SOL     OW17626   2.622   3.969   8.463  0.2898 -0.3300 -0.3111
 1997SOL    HW117627   2.537   3.928   8.483 -0.0010 -0.2591 -1.4306
 1997SOL    HW217628   2.608   3.994   8.372 -1.6579 -0.7425 -0.1339
 1998SOL     OW17629   4.464   1.841   6.712 -0.1975 -0.8408  0.1280
 1998SOL    HW117630   4.409   1.842   6.634 -1.1062 -0.0378  0.7764
 1998SOL    HW217631   4.455   1.746   6.724  2.2601 -1.1106 -0.2155
 1999SOL     OW17632   1.592   1.158   2.021 -0.5899  0.3390 -0.0501
 1999SOL    HW117633   1.628   1.146   2.109 -0.3977 -1.1171 -0.3285
 1999SOL    HW217634   1.522   1.093   2.025 -1.3669  1.1583 -0.1724
 2000SOL     OW17635   0.311   4.374   8.259 -0.2655 -0.3653  0.0487
 2000SOL    HW117636   0.332   4.287   8.293  0.8087 -0.6032 -1.2318
 2000SOL    HW217637   0.338   4.378   8.168 -1.9785  1.0741 -0.4017
 2001SOL     OW17638   1.239   0.195   0.151 -0.2843  0.2839 -0.2459
 2001SOL    HW117639   1.215   0.247   0.228  1.2314  1.4446 -0.5678
 2001SOL    HW217640   1.322   0.240   0.140 -0.7523  0.9551 -1.0621
 2002SOL     OW17641   1.768   0.806   4.566  0.1059 -0.0025 -0.1717
 2002SOL    HW117642   1.764   0.826   4.473 -2.1454 -2.8616 -0.7112
 2002SOL    HW217643   1.803   0.717   4.563  2.9046  1.1082 -1.1089
 2003SOL     OW17644   4.343   4.238   6.074 -0.3834  0.1741 -0.4435
 2003SOL    HW117645   4.438   4.238   6.062 -0.4765  0.1947 -1.1541
 2003SOL    HW217646   4.334   4.224   6.168  0.7143 -1.1610 -0.5418
 2004SOL     OW17647   3.623   0.164   5.797 -0.0676 -0.0510 -0.2332
 2004SOL    HW117648   3.575   0.184   5.717  0.8655  1.0188 -0.5243
 2004SOL    HW217649   3.587   0.228   5.858  1.4027  0.4488  0.1149
 2005SOL     OW17650   4.427   1.498  17.517 -0.3874 -0.5011 -0.2338
 2005SOL    HW117651   4.416   1.572  17.457  1.3184  0.1810  0.2805
 2005SOL    HW217652   4.485   1.442  17.466  0.6712 -1.8932  2.5071
 2006SOL     OW17653   1.116   4.117   6.570  0.3735 -0.0124  0.3155
 2006SOL    HW117654   1.145   4.132   6.480  2.2720 -0.9472  0.7638
 2006SOL    HW217655   1.025   4.143   6.555  0.0783 -0.7886  0.7574
 2007SOL     OW17656   3.563   1.596   7.518 -0.0659 -0.0537 -0.4527
 2007SOL    HW117657   3.585   1.615   7.610 -3.6597  1.8376  0.0127
 2007SOL    HW217658   3.613   1.514   7.513  1.1317  0.5309  1.7794
 2008SOL     OW17659   1.103   4.674   7.027 -0.2585  0.1825  0.0684
 2008SOL    HW117660   1.113   4.586   6.989  0.8030  0.2236  0.2399
 2008SOL    HW217661   1.008   4.671   7.023 -0.1913  0.6747 -2.3802
 2009SOL     OW17662   0.505   0.152  10.290 -0.0062  0.5600 -0.5583
 2009SOL    HW117663   0.549   0.113  10.214  1.3417  0.0271  0.4813
 2009SOL    HW217664   0.500   0.077  10.350 -0.7197  1.2540  0.2508
 2010SOL     OW17665   1.257   3.972   6.293 -0.3465 -0.1944 -0.0347
 2010SOL    HW117666   1.235   4.064   6.278 -0.7180 -0.3906 -0.6607
 2010SOL    HW217667   1.233   3.930   6.211 -0.1779 -0.1481 -0.1078
 2011SOL     OW17668   3.093   2.078   4.392 -0.0438  0.2116  0.2463
 2011SOL    HW117669   3.169   2.062   4.447  1.2306  1.7619 -1.0670
 2011SOL    HW217670   3.120   2.156   4.342  0.3989 -0.3438 -0.3835
 2012SOL     OW17671   2.897   3.327   3.594  0.2555  0.2383  0.2720
 2012SOL    HW117672   2.893   3.410   3.642 -0.8392  0.7754 -0.7416
 2012SOL    HW217673   2.811   3.328   3.552 -0.4253 -0.5904  1.6140
 2013SOL     OW17674   3.940   3.562  16.204 -0.5819 -0.1273 -0.3357
 2013SOL    HW117675   3.965   3.501  16.134  0.8723 -1.7560  1.6064
 2013SOL    HW217676   3.845   3.547  16.196 -0.3409 -1.9688  0.2669
 2014SOL     OW17677   3.849   4.575   3.446 -0.1169  0.8220  0.1935
 2014SOL    HW117678   3.763   4.611   3.423 -0.8422 -0.0833  1.4705
 2014SOL    HW217679   3.899   4.614   3.374 -0.6275  0.5120 -0.3310
 2015SOL     OW17680   3.628   0.943  14.664  0.4460  0.3757  0.2106
 2015SOL    HW117681   3.627   1.000  14.587  0.0499 -0.5570 -0.4739
 2015SOL    HW217682   3.720   0.936  14.690  0.9356 -1.1019 -1.9315
 2016SOL     OW17683   0.993   0.611   0.339  0.1098  0.4737 -0.0351
 2016SOL    HW117684   1.051   0.650   0.274 -0.0729 -0.0135 -0.4814
 2016SOL    HW217685   0.914   0.590   0.290  1.7422  0.4471 -2.6533
 2017SOL     OW17686   1.168   2.094  15.723 -0.3418 -0.2660 -0.2390
 2017SOL    HW117687   1.120   2.038  15.662 -0.1840  2.7770 -3.1638
 2017SOL    HW217688   1.096   2.146  15.760  0.6643  0.2641  0.9916
 2018SOL     OW17689   3.278   1.490   5.789  0.0362  0.3071 -0.4300
 2018SOL    HW117690   3.202   1.510   5.843  0.7104  1.2390  0.1793
 2018SOL    HW217691   3.252   1.416   5.734  3.0732 -0.9558 -0.1705
 2019SOL     OW17692   2.723   2.679   7.856 -0.0802  0.1930  0.1831
 2019SOL    HW117693   2.699   2.711   7.943  0.6948  0.1249  0.4239
 2019SOL    HW217694   2.696   2.587   7.856 -1.2618  0.5345  0.4968
 2020SOL     OW17695   3.029   0.888   3.690  0.4833  0.4007 -0.1116
 2020SOL    HW117696   3.007   0.898   3.782  2.9957  1.3371  0.3884
 2020SOL    HW217697   2.965   0.942   3.643 -0.3355 -0.9072 -0.4887
 2021SOL     OW17698   0.911   2.182  15.147 -0.4524 -0.8718  0.4128
 2021SOL    HW117699   0.977   2.147  15.207 -0.8405  0.0781  1.3890
 2021SOL    HW217700   0.833   2.144  15.187 -0.1412 -1.6248  0.3070
 2022SOL     OW17701   0.375   3.053   7.913  0.0251  0.1231  0.5207
 2022SOL    HW117702   0.435   3.008   7.973 -0.0998 -1.3316 -0.4489
 2022SOL    HW217703   0.298   3.017   7.956  0.7695  0.1433  1.8920
 2023SOL     OW17704   3.887   1.891   0.051  0.3738 -0.3917 -0.0529
 2023SOL    HW117705   3.815   1.829   0.062  0.6989 -0.5443  1.2116
 2023SOL    HW217706   3.948   1.850   0.112 -0.7613  1.1636  2.1128
 2024SOL     OW17707   1.314   2.118   2.862 -0.0718  0.5301  0.1437
 2024SOL    HW117708   1.292   2.203   2.899 -2.4985 -0.0470  0.0406
 2024SOL    HW217709   1.311   2.132   2.767 -0.2753 -1.0750 -0.0950
 2025SOL     OW17710   0.116   0.248   5.276 -0.2878  0.0102  0.9817
 2025SOL    HW117711   0.079   0.299   5.203  2.2802  0.5410  0.0572
 2025SOL    HW217712   0.040   0.197   5.305 -1.4522  2.3812  2.0795
 2026SOL     OW17713   3.421   3.826  12.554 -0.7158  0.1361 -0.1086
 2026SOL    HW117714   3.475   3.771  12.498 -1.2863  0.9449 -1.4372
 2026SOL    HW217715   3.474   3.796  12.627  0.6095  2.2253 -0.1982
 2027SOL     OW17716   3.385   3.620   3.147 -0.1039  0.1781  0.2769
 2027SOL    HW117717   3.357   3.614   3.056  0.7484  3.4785 -0.2244
 2027SOL    HW217718   3.419   3.710   3.143  3.7215 -1.3553 -1.0208
 2028SOL     OW17719   2.736   3.065   3.545 -0.2473  0.1518 -0.3128
 2028SOL    HW117720   2.819   3.052   3.591 -1.2585 -1.9395  0.9200
 2028SOL    HW217721   2.759   3.109   3.463 -0.3536  0.4790 -0.1672
 2029SOL     OW17722   0.126   2.569  13.600  0.3412  0.0483  0.3193
 2029SOL    HW117723   0.189   2.637  13.575 -1.6960  2.5807  2.1460
 2029SOL    HW217724   0.181   2.493  13.579  0.5954  0.0376  1.0134
 2030SOL     OW17725   2.660   1.718   8.240  0.3191  0.1144  0.5791
 2030SOL    HW117726   2.604   1.754   8.172 -1.4118 -1.6900  1.0589
 2030SOL    HW217727   2.716   1.660   8.188  0.1350 -1.4581  2.1316
 2031SOL     OW17728   3.411   2.292   0.538 -0.2782 -0.3371  0.3972
 2031SOL    HW117729   3.451   2.206   0.537  0.3321 -0.0492 -0.2880
 2031SOL    HW217730   3.450   2.319   0.455  0.3265  1.7550  1.3515
 2032SOL     OW17731   1.010   3.038   5.767 -0.2484  0.2343  0.2504
 2032SOL    HW117732   0.991   3.058   5.676  2.2184  0.2670 -0.2667
 2032SOL    HW217733   1.001   2.943   5.772 -0.1625  0.2370  0.4665
 2033SOL     OW17734   0.672   1.077  13.888 -0.5547 -0.2788 -0.4923
 2033SOL    HW117735   0.606   1.115  13.946  0.8830  1.5931 -0.0823
 2033SOL    HW217736   0.699   1.154  13.838 -0.2895  0.3356  0.5850
 2034SOL     OW17737   1.902   2.326   4.843 -0.2431  0.3880 -0.6121
 2034SOL    HW117738   1.926   2.410   4.804  1.9255  0.6914  1.3782
 2034SOL    HW217739   1.878   2.355   4.931 -0.6108  0.3921 -0.7140
 2035SOL     OW17740   2.870   4.309  17.625  0.6292  0.2532 -0.1606
 2035SOL    HW117741   2.938   4.300  17.692 -0.2494 -1.4804  0.4687
 2035SOL    HW217742   2.801   4.350  17.677  0.0987  0.8300 -1.3122
 2036SOL     OW17743   2.806   2.366   6.036 -0.4550 -0.7939 -0.1128
 2036SOL    HW117744   2.851   2.450   6.031 -0.5328 -0.6636  1.6422
 2036SOL    HW217745   2.774   2.360   6.126 -0.4879  0.1513 -0.0588
 2037SOL     OW17746   0.902   2.170   5.353 -0.5322  0.4296  0.7635
 2037SOL    HW117747   0.896   2.113   5.430 -0.0715  0.8993  1.1490
 2037SOL    HW217748   0.991   2.151   5.324 -0.7344  0.3333  0.2161
 2038SOL     OW17749   0.125   1.280   8.660  0.3604 -0.0296  0.0513
 2038SOL    HW117750   0.175   1.351   8.619 -0.2070  0.9184  0.9864
 2038SOL    HW217751   0.180   1.257   8.735 -2.2522  1.0366  2.2911
 2039SOL     OW17752   3.461   4.102   4.544  0.5352 -0.3201  0.5136
 2039SOL    HW117753   3.448   4.035   4.612 -2.2064  1.1613  1.4792
 2039SOL    HW217754   3.555   4.104   4.529  0.4579 -2.1836 -0.2523
 2040SOL     OW17755   3.350   2.556   1.814  0.3129  0.2166 -0.1778
 2040SOL    HW117756   3.269   2.592   1.850  1.6496  0.5678  2.5271
 2040SOL    HW217757   3.366   2.628   1.753  0.4384  2.1444  2.1119
 2041SOL     OW17758   2.644   1.187   3.428  0.7037  0.4378 -0.0101
 2041SOL    HW117759   2.644   1.240   3.348 -0.7527 -2.3357 -1.8647
 2041SOL    HW217760   2.721   1.131   3.417  0.1421 -0.2657 -0.3240
 2042SOL     OW17761   4.021   3.750   8.098 -0.1886  0.0618 -0.5125
 2042SOL    HW117762   4.049   3.753   8.007  0.2114 -1.0521 -0.4213
 2042SOL    HW217763   4.067   3.826   8.134 -0.0793 -0.5499  0.6374
 2043SOL     OW17764   3.678   2.599  15.490 -0.2301  0.0541  0.0228
 2043SOL    HW117765   3.701   2.568  15.578 -0.7824  2.1127  0.9139
 2043SOL    HW217766   3.635   2.681  15.517 -0.1416  0.3648 -0.7765
 2044SOL     OW17767   0.357   4.336  11.389  0.1653  0.1735 -0.1267
 2044SOL    HW117768   0.436   4.367  11.344 -1.1191  1.9719 -1.1283
 2044SOL    HW217769   0.378   4.359  11.479  1.4547  2.0345 -0.9075
 2045SOL     OW17770   2.716   2.219   1.999 -0.4213 -0.0022 -0.3349
 2045SOL    HW117771   2.719   2.139   1.946 -1.2580 -1.0404  1.1559
 2045SOL    HW217772   2.626   2.215   2.030  0.8248  0.9389  3.4148
 2046SOL     OW17773   3.821   3.256   3.911  0.1843  0.8562  0.3569
 2046SOL    HW117774   3.834   3.192   3.841  0.0773  2.1818 -0.8833
 2046SOL    HW217775   3.893   3.225   3.965  0.9320  1.3161 -0.3679
 2047SOL     OW17776   1.882   1.792   3.553  0.1860 -0.2243  0.1652
 2047SOL    HW117777   1.824   1.751   3.489  0.5516  1.5714 -1.3099
 2047SOL    HW217778   1.832   1.805   3.633 -0.8172  0.6439 -0.5991
 2048SOL     OW17779   1.569   3.494   0.730 -0.1576 -0.1269  0.3387
 2048SOL    HW117780   1.621   3.437   0.674  0.1557 -0.0541  0.5571
 2048SOL    HW217781   1.564   3.568   0.670 -0.2370 -1.5776 -1.4476
 2049SOL     OW17782   4.122   3.396  14.072 -0.3423 -0.2082  0.5489
 2049SOL    HW117783   4.196   3.375  14.016  0.5449 -0.4611  1.8137
 2049SOL    HW217784   4.068   3.321  14.048  0.4926 -0.6455  0.0596
 2050SOL     OW17785   1.003   1.630   1.545 -0.3012 -0.3754 -0.0352
 2050SOL    HW117786   0.929   1.613   1.603  0.5459  1.6298  1.6503
 2050SOL    HW217787   1.066   1.564   1.573  1.2088  0.9090 -0.3780
 2051SOL     OW17788   1.757   2.998   2.497 -0.4225 -0.2981  0.0198
 2051SOL    HW117789   1.837   3.041   2.525 -1.1508  1.0011  0.0839
 2051SOL    HW217790   1.722   3.073   2.449 -0.6388  0.7502  1.8575
 2052SOL     OW17791   3.854   3.592  13.101 -0.4788  0.2049 -0.0020
 2052SOL    HW117792   3.786   3.649  13.063 -0.9469  0.7758  1.6711
 2052SOL    HW217793   3.796   3.547  13.162  0.3619 -2.3515 -1.1137
 2053SOL     OW17794   2.322   3.765  10.310 -0.3087 -0.3260  0.4857
 2053SOL    HW117795   2.380   3.826  10.264 -1.2711 -0.0521 -0.3773
 2053SOL    HW217796   2.380   3.708  10.360  1.0512 -0.1841 -0.9399
 2054SOL     OW17797   0.485   0.403   8.791  0.4242 -0.2696 -0.5408
 2054SOL    HW117798   0.412   0.465   8.798  0.9254  0.2598 -0.0166
 2054SOL    HW217799   0.515   0.388   8.881  0.9248 -0.5998 -0.7631
 2055SOL     OW17800   0.258   2.797  12.681  0.1896  0.5992 -0.6282
 2055SOL    HW117801   0.206   2.792  12.600 -0.8261  2.1525 -0.0797
 2055SOL    HW217802   0.332   2.739  12.667 -1.5628 -1.3519 -1.6766
 2056SOL     OW17803   0.826   0.000  13.046  0.8105 -0.6287 -0.0694
 2056SOL    HW117804   0.783   4.699  13.121  1.7178 -1.6289 -0.1101
 2056SOL    HW217805   0.898   4.678  13.034  1.8369  0.8482 -1.5294
 2057SOL     OW17806   0.152   2.431   2.203 -0.6066  0.1166 -0.0221
 2057SOL    HW117807   0.177   2.383   2.123 -1.5652  1.1366 -0.9304
 2057SOL    HW217808   0.202   2.380   2.267 -1.0620 -0.7769 -0.3755
 2058SOL     OW17809   3.670   1.025   9.085 -0.5977  0.6256  0.0335
 2058SOL    HW117810   3.626   1.071   9.156  0.2247  1.6533 -0.1225
 2058SOL    HW217811   3.745   1.083   9.075 -0.2870  0.1840 -0.2024
 2059SOL     OW17812   2.531   4.407   2.034  0.0863  0.1637  0.3208
 2059SOL    HW117813   2.543   4.332   1.976 -0.0287 -0.0643  0.5912
 2059SOL    HW217814   2.544   4.476   1.969 -0.8684 -1.0099 -1.1109
 2060SOL     OW17815   1.094   0.260   5.664 -0.3803  0.2079  0.1628
 2060SOL    HW117816   1.064   0.177   5.628 -0.8738  1.5873 -2.6596
 2060SOL    HW217817   1.184   0.239   5.688 -0.3731  1.3032  1.1033
 2061SOL     OW17818   3.265   1.474   3.301  0.2962  1.2783  0.5155
 2061SOL    HW117819   3.323   1.458   3.375 -0.8511 -2.2184  0.6872
 2061SOL    HW217820   3.192   1.521   3.342 -1.0802 -0.1394 -0.3074
 2062SOL     OW17821   4.606   2.153  14.352 -0.3834 -0.0300  0.2414
 2062SOL    HW117822   4.593   2.100  14.274  1.8607 -0.4633  0.1760
 2062SOL    HW217823   4.521   2.155  14.396 -0.3003  2.3945  0.3343
 2063SOL     OW17824   0.475   4.441   8.535 -0.3130 -0.2243 -0.6305
 2063SOL    HW117825   0.463   4.518   8.591  0.9029 -0.6143  0.1649
 2063SOL    HW217826   0.425   4.376   8.584 -0.2733 -0.1931 -0.5485
 2064SOL     OW17827   4.474   2.188   3.897  0.2660  0.1020 -0.1917
 2064SOL    HW117828   4.521   2.261   3.938 -1.7660 -0.5572  3.3077
 2064SOL    HW217829   4.468   2.115   3.958 -2.8067  0.9360  0.5455
 2065SOL     OW17830   1.363   1.420  12.573  0.1061  0.2716  0.4438
 2065SOL    HW117831   1.297   1.416  12.643 -1.0250 -0.8535 -0.6679
 2065SOL    HW217832   1.443   1.385  12.613 -0.6939  0.7972  2.5114
 2066SOL     OW17833   4.624   3.633   7.498 -0.0501 -0.0786  0.2994
 2066SOL    HW117834   4.703   3.626   7.445 -0.8355 -3.9969 -0.3728
 2066SOL    HW217835   4.637   3.578   7.576 -0.0020  1.3850  1.3205
 2067SOL     OW17836   2.776   1.913   4.664  0.0689 -0.3388  0.1171
 2067SOL    HW117837   2.807   2.001   4.645 -1.5370  0.4938  1.3074
 2067SOL    HW217838   2.781   1.909   4.760  0.6000 -2.3566  0.0115
 2068SOL     OW17839   4.213   0.590   1.772  0.2185  0.4143 -0.3826
 2068SOL    HW117840   4.188   0.553   1.857  1.4358 -0.9222 -0.6074
 2068SOL    HW217841   4.307   0.598   1.791 -0.5099 -0.2924  3.5371
 2069SOL     OW17842   3.540   3.300  11.913 -0.0496  0.1664 -0.3641
 2069SOL    HW117843   3.483   3.230  11.946  0.6491 -0.2964 -0.1179
 2069SOL    HW217844   3.620   3.266  11.955 -2.0444 -2.1751  1.5852
 2070SOL     OW17845   3.997   0.988  12.444  0.3622  0.1663 -0.0333
 2070SOL    HW117846   4.079   0.941  12.453  0.9171  1.1797  0.2116
 2070SOL    HW217847   3.965   0.953  12.361 -1.2536  1.8246 -0.1121
 2071SOL     OW17848   0.718   1.144  13.140 -0.2606  0.1870  0.7572
 2071SOL    HW117849   0.677   1.230  13.147  0.0103  0.3534  0.3136
 2071SOL    HW217850   0.754   1.151  13.051 -0.0617  0.6656  0.8768
 2072SOL     OW17851   0.601   2.921  16.266  0.1581  0.2748 -0.1896
 2072SOL    HW117852   0.525   2.977  16.257  0.3022  0.4325 -0.4351
 2072SOL    HW217853   0.559   2.840  16.239 -1.1725  1.1481 -0.7088
 2073SOL     OW17854   1.464   1.429  11.867 -0.5418 -0.3006  0.1371
 2073SOL    HW117855   1.437   1.395  11.782 -0.8677 -0.7405  0.4157
 2073SOL    HW217856   1.378   1.436  11.909 -1.0487 -0.7893 -0.8256
 2074SOL     OW17857   0.246   2.303   0.074 -0.2889 -0.0998 -0.5154
 2074SOL    HW117858   0.228   2.352   0.155  0.2883  1.7586 -1.5073
 2074SOL    HW217859   0.193   2.224   0.086 -1.3667  0.5724 -0.7751
 2075SOL     OW17860   3.477   1.433  16.450  0.6892 -0.4233  0.3235
 2075SOL    HW117861   3.401   1.404  16.400 -0.5753 -1.4007  2.8188
 2075SOL    HW217862   3.520   1.492  16.388  0.0529 -0.3291 -0.0275
 2076SOL     OW17863   4.208   3.165  14.372 -0.1709  0.0809 -0.0818
 2076SOL    HW117864   4.178   3.088  14.324 -2.3939  0.4032  0.7883
 2076SOL    HW217865   4.149   3.236  14.348 -3.6449 -2.8212  0.0025
 2077SOL     OW17866   1.128   3.581   7.683  0.0435  0.2613 -0.0351
 2077SOL    HW117867   1.205   3.576   7.626 -0.6023 -0.1191 -0.8846
 2077SOL    HW217868   1.056   3.547   7.630  1.3453 -0.6692 -1.2271
 2078SOL     OW17869   1.873   0.816   6.278 -0.4073 -0.3375  0.9456
 2078SOL    HW117870   1.842   0.846   6.363 -0.6771 -1.9462  1.4180
 2078SOL    HW217871   1.960   0.856   6.278 -0.2159 -0.7398  0.1522
 2079SOL     OW17872   0.448   3.000   4.971  0.0692 -0.3643 -0.5402
 2079SOL    HW117873   0.437   2.990   5.066  0.1697  0.4038 -0.4491
 2079SOL    HW217874   0.505   3.077   4.968 -0.0347 -0.1814  1.9880
 2080SOL     OW17875   3.761   1.528   5.325  0.2897 -0.0219  0.4915
 2080SOL    HW117876   3.788   1.494   5.240 -2.2405  0.4711 -0.5269
 2080SOL    HW217877   3.774   1.465   5.395 -0.1144 -0.7920 -0.1242
 2081SOL     OW17878   4.608   1.181  10.747  0.0253 -0.0104  0.0449
 2081SOL    HW117879   4.676   1.248  10.757  0.8832 -1.1107  1.6906
 2081SOL    HW217880   4.657   1.103  10.774 -0.2393  0.7555  2.7962
 2082SOL     OW17881   0.958   4.650   2.254  0.2488 -0.1398  0.1096
 2082SOL    HW117882   0.971   4.558   2.277 -1.8381 -0.7040 -1.0305
 2082SOL    HW217883   0.864   4.651   2.239  0.2365 -0.4797  0.1759
 2083SOL     OW17884   2.025   1.096  12.893 -0.0439 -0.6300 -0.2883
 2083SOL    HW117885   1.944   1.131  12.930 -0.5592 -0.2014 -1.7989
 2083SOL    HW217886   2.079   1.175  12.898 -0.5723 -0.0487 -3.3954
 2084SOL     OW17887   3.424   1.412   2.928  0.3306 -0.9763  0.0024
 2084SOL    HW117888   3.431   1.469   3.005 -0.5264 -0.4950 -0.2728
 2084SOL    HW217889   3.461   1.331   2.963 -0.6803 -2.0062 -1.3109
 2085SOL     OW17890   1.450   1.715   3.592  0.0302  0.4047 -0.1573
 2085SOL    HW117891   1.543   1.690   3.595  0.2225  0.9629 -1.7256
 2085SOL    HW217892   1.437   1.796   3.640  1.4083  1.4616 -1.5872
 2086SOL     OW17893   1.556   3.211  16.028  0.2746  0.3611 -0.3171
 2086SOL    HW117894   1.514   3.285  16.072  1.3832  0.6180  0.3076
 2086SOL    HW217895   1.503   3.219  15.949 -0.7287  1.5944  0.4765
 2087SOL     OW17896   4.339   3.214   6.000 -0.1664  0.8152 -0.3164
 2087SOL    HW117897   4.337   3.199   5.906 -1.3776  0.3230 -0.2099
 2087SOL    HW217898   4.432   3.193   6.002 -0.2569  0.3465 -1.0529
 2088SOL     OW17899   1.028   1.239   8.536 -0.2787  0.0328  0.2150
 2088SOL    HW117900   1.052   1.290   8.613  2.0753  0.3704 -0.7256
 2088SOL    HW217901   0.982   1.170   8.583 -1.6848  0.3391 -0.7221
 2089SOL     OW17902   2.986   0.966   7.855 -0.1936 -0.3752 -0.3075
 2089SOL    HW117903   3.049   1.021   7.901 -0.9992 -2.1937  2.9768
 2089SOL    HW217904   2.918   1.027   7.828  0.1207 -0.0295 -0.3042
 2090SOL     OW17905   1.949   0.171  10.486  0.4713 -0.1395 -0.3966
 2090SOL    HW117906   2.023   0.185  10.545  0.8619  2.7288 -1.5406
 2090SOL    HW217907   1.885   0.132  10.546  0.8393  0.9046  0.6928
 2091SOL     OW17908   0.899   3.755   3.019 -0.0948  0.1393 -0.2761
 2091SOL    HW117909   0.860   3.745   3.106 -2.9933 -0.8594 -1.6980
 2091SOL    HW217910   0.913   3.849   3.026 -0.9460  0.2504 -0.1072
 2092SOL     OW17911   4.518   0.131  13.902  0.1684 -0.3928  0.2977
 2092SOL    HW117912   4.521   0.156  13.810 -0.6182 -0.3663  0.2733
 2092SOL    HW217913   4.494   0.038  13.891  1.7028 -0.7226 -0.2755
 2093SOL     OW17914   2.063   3.815   8.737  0.4737 -0.0432 -0.0342
 2093SOL    HW117915   2.156   3.838   8.740  0.8446 -1.5518 -0.1878
 2093SOL    HW217916   2.063   3.758   8.813 -0.5217 -0.7091 -0.5449
 2094SOL     OW17917   2.258   4.688  17.494 -0.6455  0.1761 -0.2031
 2094SOL    HW117918   2.203   4.619  17.456  1.1254 -0.8785 -0.8068
 2094SOL    HW217919   2.261   0.015  17.426 -0.8749  0.4960  0.0992
 2095SOL     OW17920   1.888   1.619   9.423  0.0225 -0.0036  0.4543
 2095SOL    HW117921   1.828   1.584   9.488  0.2231 -1.5511 -0.1876
 2095SOL    HW217922   1.972   1.636   9.467  1.4435 -0.0681 -2.2457
 2096SOL     OW17923   2.107   3.612   7.891 -0.7239 -0.7867  0.9171
 2096SOL    HW117924   2.062   3.529   7.909 -2.8844  0.5967  1.8685
 2096SOL    HW217925   2.042   3.644   7.829  0.5845  1.5271  0.7710
 2097SOL     OW17926   3.441   2.186   6.464 -0.0651 -0.1473 -0.0669
 2097SOL    HW117927   3.532   2.200   6.436 -0.5612  0.1346 -1.5346
 2097SOL    HW217928   3.396   2.207   6.383  3.0130 -1.2111 -2.0357
 2098SOL     OW17929   2.826   2.893   2.685 -0.3314  0.6121 -0.3957
 2098SOL    HW117930   2.757   2.941   2.638 -1.5640 -2.1005 -1.4233
 2098SOL    HW217931   2.819   2.807   2.644  2.3502 -0.2404  0.9718
 2099SOL     OW17932   4.536   0.173   6.737 -0.1464  0.2821 -0.0069
 2099SOL    HW117933   4.498   0.097   6.693  0.0681 -0.3396  0.8925
 2099SOL    HW217934   4.613   0.201   6.688  0.2332 -2.0641 -0.7421
 2100SOL     OW17935   0.995   1.555  12.920  0.5054  0.6443 -0.2695
 2100SOL    HW117936   1.043   1.581  12.998  0.0357  0.0578  0.2055
 2100SOL    HW217937   0.968   1.644  12.897 -1.8024  0.8624  3.3689
 2101SOL     OW17938   0.612   4.553   9.171  0.0569 -0.0666 -0.1528
 2101SOL    HW117939   0.583   4.556   9.080  0.4234 -1.5066 -0.3184
 2101SOL    HW217940   0.543   4.502   9.214 -2.0482  1.4568 -1.7790
 2102SOL     OW17941   1.603   0.972   5.221  0.0094 -0.1520 -0.2246
 2102SOL    HW117942   1.512   0.975   5.251 -0.7525 -1.2523 -2.4024
 2102SOL    HW217943   1.647   0.954   5.304 -3.5830 -0.5725  1.5872
 2103SOL     OW17944   2.592   1.833   4.971 -0.3126  0.6845 -0.4558
 2103SOL    HW117945   2.682   1.867   4.973 -0.4178  0.9788 -0.7051
 2103SOL    HW217946   2.611   1.740   4.962 -0.8102  0.6974 -1.6018
 2104SOL     OW17947   2.243   0.183   2.500  0.6704  0.0505  0.3155
 2104SOL    HW117948   2.267   0.264   2.455 -0.7993 -0.1715 -0.8916
 2104SOL    HW217949   2.287   0.114   2.452 -0.9422 -1.0599  0.4228
 2105SOL     OW17950   4.406   0.998   7.493 -0.2213 -0.4569 -0.2981
 2105SOL    HW117951   4.382   0.942   7.419 -1.9421  0.5076 -0.4450
 2105SOL    HW217952   4.324   1.004   7.541 -0.0389  0.5027 -0.1095
 2106SOL     OW17953   1.777   3.484  13.359 -0.2833  0.0347 -0.1836
 2106SOL    HW117954   1.793   3.577  13.371 -1.1691  0.1349  0.2663
 2106SOL    HW217955   1.787   3.449  13.448  1.3830 -0.5106 -0.5839
 2107SOL     OW17956   4.341   2.230   7.227 -0.8329  0.3711  0.5805
 2107SOL    HW117957   4.293   2.154   7.260 -1.7847  1.6865  2.2115
 2107SOL    HW217958   4.329   2.217   7.133 -0.7080 -1.8646  0.8748
 2108SOL     OW17959   1.716   3.854   6.004  0.5240 -0.0428 -0.4542
 2108SOL    HW117960   1.799   3.898   5.990 -0.1031  1.2779 -0.0390
 2108SOL    HW217961   1.658   3.916   5.960 -1.1932 -0.2490  1.4698
 2109SOL     OW17962   1.285   0.840   1.695  0.5871 -0.0905 -0.1654
 2109SOL    HW117963   1.307   0.821   1.604  0.4792 -0.0433 -0.2015
 2109SOL    HW217964   1.356   0.784   1.727  0.1286 -1.0709 -0.8570
 2110SOL     OW17965   1.339   3.243   2.957 -0.2864 -0.1487 -0.1354
 2110SOL    HW117966   1.365   3.224   3.047 -0.0114  1.4469  0.1211
 2110SOL    HW217967   1.427   3.241   2.920  0.6571 -0.4073  2.1740
 2111SOL     OW17968   2.690   2.050  16.853  0.6218  0.0930  0.3852
 2111SOL    HW117969   2.632   2.116  16.889  3.0320  2.4371 -0.0344
 2111SOL    HW217970   2.755   2.040  16.923 -0.3618  0.8307  1.3882
 2112SOL     OW17971   3.048   2.335   6.260  0.1536 -0.3109 -0.1734
 2112SOL    HW117972   3.045   2.383   6.343  0.0608  1.4240 -1.1867
 2112SOL    HW217973   3.088   2.400   6.202  1.6402 -1.1326 -0.0421
 2113SOL     OW17974   0.349   2.452  10.406 -0.1786 -0.3841 -0.1558
 2113SOL    HW117975   0.381   2.506  10.478  0.5178 -0.2329 -0.5789
 2113SOL    HW217976   0.325   2.373  10.456  0.0866 -1.3834 -1.5967
 2114SOL     OW17977   3.959   0.878  11.034  0.6933  0.2131 -0.5750
 2114SOL    HW117978   3.922   0.801  11.079 -1.5837  0.5363 -1.9059
 2114SOL    HW217979   3.893   0.910  10.972  0.6420  0.0780 -0.5904
 2115SOL     OW17980   1.991   2.977   9.382  0.3004 -0.0304 -0.0313
 2115SOL    HW117981   1.922   3.034   9.416  1.1038  2.6982 -3.0023
 2115SOL    HW217982   2.048   2.966   9.459 -1.1870 -0.1876  1.0462
 2116SOL     OW17983   0.025   2.933   3.003 -0.1682  0.4895  0.0026
 2116SOL    HW117984   0.011   2.991   3.078  0.5397 -0.1900  0.6560
 2116SOL    HW217985   0.101   2.974   2.961 -0.8592  2.4707  0.6819
 2117SOL     OW17986   0.018   2.305   9.128  0.1609  0.3808  0.6369
 2117SOL    HW117987   0.084   2.330   9.063  0.6191 -0.2996  0.8388
 2117SOL    HW217988   4.704   2.381   9.150 -0.8663 -0.3366  0.5544
 2118SOL     OW17989   3.843   4.620  16.342 -0.1254 -0.5465  0.0780
 2118SOL    HW117990   3.818   4.652  16.256 -0.9285  1.5346  1.1056
 2118SOL    HW217991   3.789   4.675  16.398  3.0692 -1.1057  3.7510
 2119SOL     OW17992   1.248   0.348   2.451  0.0096  0.1105 -0.2963
 2119SOL    HW117993   1.220   0.435   2.421  2.2657  1.3395  1.0708
 2119SOL    HW217994   1.218   0.302   2.373 -1.7295  0.5041  0.1549
 2120SOL     OW17995   1.989   4.179   5.069  0.1195 -0.6151  0.4582
 2120SOL    HW117996   1.976   4.155   4.978 -3.0025  2.9799 -0.0537
 2120SOL    HW217997   2.059   4.244   5.063  0.2262 -0.5293  2.6128
 2121SOL     OW17998   3.589   1.694   6.803  0.8045 -0.0933 -0.0277
 2121SOL    HW117999   3.677   1.700   6.766 -0.3603  3.3799 -2.3091
 2121SOL    HW218000   3.534   1.689   6.724 -1.0013  0.6363  1.1662
 2122SOL     OW18001   2.860   2.890   9.549 -0.1789 -0.1744 -0.4943
 2122SOL    HW118002   2.832   2.804   9.580 -0.2419  0.4609  1.2358
 2122SOL    HW218003   2.845   2.937   9.631  0.4517  1.0406 -1.0608
 2123SOL     OW18004   2.322   4.283   5.308 -0.1548  0.0935  0.1754
 2123SOL    HW118005   2.242   4.255   5.352  0.6707 -0.1818  1.4848
 2123SOL    HW218006   2.393   4.267   5.370  0.5273  1.2271 -0.3117
 2124SOL     OW18007   1.928   2.300   1.214  0.7033 -0.1299  0.2377
 2124SOL    HW118008   1.859   2.247   1.255  2.2465 -2.5603 -0.2975
 2124SOL    HW218009   1.879   2.373   1.177  0.6954 -0.2813 -0.0521
 2125SOL     OW18010   4.425   4.636  13.884  0.5615 -0.0255 -0.1158
 2125SOL    HW118011   4.424   4.541  13.869 -0.4366  0.0320 -0.4151
 2125SOL    HW218012   4.406   4.639  13.978 -0.4101  2.0292 -0.3860
 2126SOL     OW18013   2.698   0.104  11.159  0.3089 -0.4631  0.1637
 2126SOL    HW118014   2.628   0.105  11.094 -0.2829  0.0933  0.8109
 2126SOL    HW218015   2.667   0.181  11.206 -0.8217 -0.1772 -1.0471
 2127SOL     OW18016   2.532   0.797   8.199  0.1817 -0.6671  0.2959
 2127SOL    HW118017   2.546   0.863   8.267  1.6482 -1.0387  0.3549
 2127SOL    HW218018   2.550   0.837   8.114 -1.6471 -0.7460 -0.1316
 2128SOL     OW18019   1.421   2.056   6.691  0.2466  0.1209 -0.1209
 2128SOL    HW118020   1.350   2.115   6.715 -0.7534 -0.6223 -1.2233
 2128SOL    HW218021   1.412   2.055   6.596  0.5327  0.9940 -0.1563
 2129SOL     OW18022   3.735   4.724   7.369  0.0043 -0.3179 -0.1258
 2129SOL    HW118023   3.732   4.653   7.433  0.5968 -0.3474 -0.1325
 2129SOL    HW218024   3.652   0.031   7.383  0.9530  0.9750  1.1327
 2130SOL     OW18025   0.741   3.574   3.822  0.3164  0.1349 -0.1888
 2130SOL    HW118026   0.759   3.560   3.915 -1.3885  0.1411  0.1381
 2130SOL    HW218027   0.826   3.560   3.780  1.7087  1.8480  1.9841
 2131SOL     OW18028   2.354   0.650   1.910  0.0740 -0.1780 -0.1248
 2131SOL    HW118029   2.442   0.618   1.889  0.3954  0.8240 -0.3267
 2131SOL    HW218030   2.380   0.700   1.988  1.4565 -0.3659 -0.4514
 2132SOL     OW18031   3.943   2.861   8.756 -0.1866 -0.3647 -0.3520
 2132SOL    HW118032   3.957   2.933   8.818 -1.1972  0.0653 -0.6251
 2132SOL    HW218033   3.906   2.909   8.682 -0.7187 -1.9131 -1.0862
 2133SOL     OW18034   0.513   4.163   2.001  0.0730 -0.1102  0.1523
 2133SOL    HW118035   0.470   4.078   1.997  1.8475 -1.0651  1.4883
 2133SOL    HW218036   0.448   4.211   1.949  0.0391  0.1503  0.4285
 2134SOL     OW18037   0.864   0.872  13.938  0.4548  0.0853  0.0938
 2134SOL    HW118038   0.813   0.953  13.937 -0.1457 -0.2902 -0.0346
 2134SOL    HW218039   0.893   0.861  14.028 -0.7407 -0.0160  0.4742
 2135SOL     OW18040   2.709   3.076   1.351 -0.1863  0.1191  0.5077
 2135SOL    HW118041   2.654   3.086   1.429  1.3786 -1.2088  1.7612
 2135SOL    HW218042   2.711   3.166   1.318 -2.7496 -0.5302 -1.4549
 2136SOL     OW18043   0.823   0.554   8.934  0.1247 -0.3125 -0.0013
 2136SOL    HW118044   0.760   0.534   9.002  0.8021  0.7206  0.9396
 2136SOL    HW218045   0.899   0.505   8.966 -0.8097 -0.0367  2.6220
 2137SOL     OW18046   4.334   2.746  17.122  0.5580 -0.3718  0.0202
 2137SOL    HW118047   4.281   2.675  17.086 -0.3350 -0.9656  2.4976
 2137SOL    HW218048   4.417   2.735  17.076 -0.2368  0.3129 -1.5539
 2138SOL     OW18049   0.855   3.060  12.937 -0.9620  0.4504  0.2212
 2138SOL    HW118050   0.881   2.972  12.912  1.1498  1.8021 -2.3677
 2138SOL    HW218051   0.760   3.054  12.947 -0.6673 -1.9063  1.4941
 2139SOL     OW18052   4.359   2.462   2.616  0.5501  0.1197  0.0327
 2139SOL    HW118053   4.273   2.504   2.627  0.3751  0.4524 -2.5693
 2139SOL    HW218054   4.344   2.385   2.672  0.1940  2.2893  2.9152
 2140SOL     OW18055   4.574   0.845   7.680 -0.0620  0.2717  0.0013
 2140SOL    HW118056   4.548   0.851   7.589  1.8438  0.3530 -0.5316
 2140SOL    HW218057   4.534   0.922   7.721  0.8748  0.3129  0.8569
 2141SOL     OW18058   1.399   0.682   4.621  0.7309 -0.4423 -0.2435
 2141SOL    HW118059   1.308   0.668   4.594 -0.3921  2.0810  2.1720
 2141SOL    HW218060   1.448   0.660   4.542 -0.5027 -0.1321 -1.0934
 2142SOL     OW18061   3.438   3.739   6.823 -0.4242  0.7234  0.7771
 2142SOL    HW118062   3.386   3.748   6.902 -1.1501 -1.0231  0.5026
 2142SOL    HW218063   3.514   3.694   6.861 -1.8991  0.7713  3.7596
 2143SOL     OW18064   1.161   3.419   3.971  0.3530 -0.3664  0.1001
 2143SOL    HW118065   1.210   3.358   3.916 -0.2449  0.7526 -1.6424
 2143SOL    HW218066   1.072   3.414   3.938  0.8035 -0.8135 -1.0382
 2144SOL     OW18067   2.859   0.968   6.763 -0.3729  0.6716  0.1554
 2144SOL    HW118068   2.938   1.014   6.794 -0.5817  0.8002  0.4969
 2144SOL    HW218069   2.904   0.900   6.712  0.0594 -0.0701  1.5141
 2145SOL     OW18070   4.044   1.811   5.020  0.2213  0.2141 -0.1386
 2145SOL    HW118071   3.951   1.809   4.997  0.6281 -1.2132 -1.5981
 2145SOL    HW218072   4.078   1.853   4.941 -1.1359  0.9029 -0.3587
 2146SOL     OW18073   1.419   1.159  17.750  0.1340 -0.0510 -0.3027
 2146SOL    HW118074   1.448   1.245   0.025 -2.1042  0.7703 -0.5016
 2146SOL    HW218075   1.415   1.100   0.068  2.0042 -2.4917 -2.1031
 2147SOL     OW18076   3.850   0.922   7.854 -0.4064 -0.4401 -0.1595
 2147SOL    HW118077   3.883   0.918   7.765 -1.1227  2.1621 -0.5493
 2147SOL    HW218078   3.830   0.830   7.872 -1.0237 -0.7845 -2.6673
 2148SOL     OW18079   4.302   0.087   8.535  0.0221  0.0113  0.1504
 2148SOL    HW118080   4.371   0.137   8.491  0.4566  0.1574  1.0108
 2148SOL    HW218081   4.349   0.006   8.555 -0.3374 -0.3241 -0.3747
 2149SOL     OW18082   3.335   1.266   6.592  0.6262 -0.0723 -0.2601
 2149SOL    HW118083   3.243   1.286   6.575  0.7873  0.2536 -0.7431
 2149SOL    HW218084   3.371   1.263   6.504  0.8166 -5.4755 -0.0281
 2150SOL     OW18085   2.245   3.280   2.997 -0.6712  0.1755  0.7017
 2150SOL    HW118086   2.286   3.356   3.038  1.6951  0.4410 -2.1921
 2150SOL    HW218087   2.261   3.304   2.906  0.1716  0.1816  0.8540
 2151SOL     OW18088   4.672   1.503   4.125  0.2087  0.2664  0.2486
 2151SOL    HW118089   4.634   1.578   4.170 -0.4600  0.4252 -0.5824
 2151SOL    HW218090   0.006   1.529   4.069 -0.0398 -1.4333 -0.8798
 2152SOL     OW18091   3.344   4.412  17.085 -0.1920 -0.4004 -0.0804
 2152SOL    HW118092   3.290   4.464  17.026  1.4756  1.7678  0.3058
 2152SOL    HW218093   3.407   4.372  17.025  0.7633  0.3335  0.4121
 2153SOL     OW18094   2.339   4.011  15.095 -0.0855 -0.6239 -0.5307
 2153SOL    HW118095   2.417   3.976  15.138 -0.3397 -1.6754 -0.9142
 2153SOL    HW218096   2.318   4.067  15.170 -0.3412 -0.0121 -1.0616
 2154SOL     OW18097   2.213   3.965   7.813 -0.1301 -0.2121 -0.0930
 2154SOL    HW118098   2.270   3.888   7.821 -0.4101 -0.1833  2.1436
 2154SOL    HW218099   2.273   4.038   7.799 -2.0804  1.1564 -1.2677
 2155SOL     OW18100   2.406   0.584   4.198  0.0067 -0.6260  0.0317
 2155SOL    HW118101   2.475   0.622   4.252  0.6801  0.4662 -1.5849
 2155SOL    HW218102   2.440   0.496   4.183  0.0897 -0.2283 -2.1361
 2156SOL     OW18103   3.310   1.339   7.713  0.1913  0.4203 -0.3825
 2156SOL    HW118104   3.386   1.319   7.767 -1.8060 -1.5875  1.6874
 2156SOL    HW218105   3.329   1.277   7.643  0.5890  0.7366 -0.5598
 2157SOL     OW18106   3.766   0.484  13.623  0.4265 -0.1311  1.0836
 2157SOL    HW118107   3.826   0.546  13.581 -1.9431  2.1755  1.1160
 2157SOL    HW218108   3.723   0.540  13.688 -2.0766  0.1268 -0.7792
 2158SOL     OW18109   0.455   3.634  11.890  0.2958  0.1940 -0.6043
 2158SOL    HW118110   0.419   3.710  11.936 -1.5297 -0.2780 -1.2813
 2158SOL    HW218111   0.548   3.654  11.902  0.6335 -0.7502 -1.6171
 2159SOL     OW18112   2.133   4.510   4.534 -0.8803  0.0061 -0.5113
 2159SOL    HW118113   2.107   4.574   4.467 -1.4826  2.3432  1.9298
 2159SOL    HW218114   2.051   4.460   4.535 -0.0042 -1.4747 -3.2142
 2160SOL     OW18115   4.500   0.023  13.184  0.0289 -0.3848 -0.6733
 2160SOL    HW118116   4.443   0.090  13.147 -0.9991 -1.0467 -0.2836
 2160SOL    HW218117   4.466   4.684  13.143  1.4837 -1.9643  1.1347
 2161SOL     OW18118   1.051   0.207  14.044  0.0705  0.0691  0.2909
 2161SOL    HW118119   1.126   0.238  13.994 -1.4413  0.3219 -1.8132
 2161SOL    HW218120   1.086   0.125  14.079  1.6937  0.2237 -0.9609
 2162SOL     OW18121   3.067   2.063   1.815  0.1441  0.9263  0.7504
 2162SOL    HW118122   3.138   2.052   1.878  1.8388 -3.3300 -1.8117
 2162SOL    HW218123   3.107   2.055   1.728  0.3217  0.1196  0.9000
 2163SOL     OW18124   3.089   3.278   4.078  0.1605  0.6962 -0.1204
 2163SOL    HW118125   3.112   3.210   4.141  1.2294 -1.0121 -2.3679
 2163SOL    HW218126   3.129   3.246   3.997 -0.6439 -0.2805 -0.1388
 2164SOL     OW18127   0.993   3.603   3.700 -0.6089  0.8991  0.3208
 2164SOL    HW118128   0.983   3.673   3.635  0.3707  1.9660  1.3235
 2164SOL    HW218129   1.034   3.650   3.772  0.5327  0.1150  0.1982
 2165SOL     OW18130   2.199   1.164   7.567  0.0157  0.1500  0.0759
 2165SOL    HW118131   2.129   1.223   7.541 -0.3814 -0.0350  0.7306
 2165SOL    HW218132   2.210   1.200   7.655  1.5499  0.4181 -0.2253
 2166SOL     OW18133   1.524   0.381   2.406  0.1977  0.3846 -0.0314
 2166SOL    HW118134   1.497   0.473   2.404  1.3781  0.7343  0.2947
 2166SOL    HW218135   1.447   0.331   2.434  1.1644 -0.6493  0.7762
 2167SOL     OW18136   3.463   0.793   6.622  0.1674  0.2439  0.9708
 2167SOL    HW118137   3.499   0.717   6.577  1.3926  1.4530 -0.0779
 2167SOL    HW218138   3.529   0.855   6.592  2.0338 -1.0465  2.4689
 2168SOL     OW18139   2.786   1.756   3.050 -0.0556  0.1664  0.4829
 2168SOL    HW118140   2.704   1.707   3.056 -0.3839  0.6908  0.2695
 2168SOL    HW218141   2.850   1.687   3.029  0.6825  0.0499  3.1423
 2169SOL     OW18142   4.449   2.449   7.321  0.3529 -0.0508  0.2320
 2169SOL    HW118143   4.400   2.373   7.290  0.0136  0.7693 -1.2285
 2169SOL    HW218144   4.497   2.414   7.396 -0.9914 -0.7615  0.7541
 2170SOL     OW18145   0.020   3.675   3.993 -0.2825  0.4606 -0.3504
 2170SOL    HW118146   0.110   3.650   3.972 -1.0310 -1.0436 -1.7683
 2170SOL    HW218147   4.724   3.588   3.984 -2.1762  1.4623 -2.5218
 2171SOL     OW18148   3.992   2.015   9.926 -0.2394 -0.0624  0.4023
 2171SOL    HW118149   3.931   1.942   9.923  0.0056 -0.1787 -1.8885
 2171SOL    HW218150   3.950   2.084   9.873 -0.4252  0.5206  1.3139
 2172SOL     OW18151   4.257   2.164   6.048 -0.2295  0.1290  0.2797
 2172SOL    HW118152   4.169   2.126   6.037 -0.1001  0.2806 -1.1896
 2172SOL    HW218153   4.232   2.255   6.059  0.7278  0.6905 -2.4415
 2173SOL     OW18154   3.983   0.791   6.194  0.0392  0.2703 -0.0273
 2173SOL    HW118155   3.959   0.796   6.287  3.4349  1.2375  0.7786
 2173SOL    HW218156   4.078   0.790   6.204  0.0829  0.3702 -0.4575
 2174SOL     OW18157   0.972   0.983  16.602  0.3217 -0.2295 -0.7567
 2174SOL    HW118158   0.969   1.078  16.612  1.1022 -0.2913  0.0493
 2174SOL    HW218159   0.888   0.960  16.643  0.4585  0.5841 -0.0344
 2175SOL     OW18160   1.082   2.484   6.032 -0.3071 -0.2003 -0.2034
 2175SOL    HW118161   1.157   2.447   5.986  1.4660 -0.4035  2.8941
 2175SOL    HW218162   1.121   2.519   6.112  0.5082 -1.9604  0.1647
 2176SOL     OW18163   4.130   1.279   1.994  0.5055 -0.0694  0.3522
 2176SOL    HW118164   4.133   1.288   1.899 -0.2115 -0.2404  0.3178
 2176SOL    HW218165   4.067   1.345   2.021  0.2465  0.2733 -1.1295
 2177SOL     OW18166   1.856   1.147   3.576  0.0968  0.3130 -0.4913
 2177SOL    HW118167   1.870   1.213   3.644 -1.2184 -0.0489  0.1390
 2177SOL    HW218168   1.908   1.071   3.603 -0.3856  0.6155  1.2795
 2178SOL     OW18169   1.994   1.708  16.223 -0.2355 -0.2331 -0.1846
 2178SOL    HW118170   1.993   1.634  16.162 -0.1022 -0.6761  0.3443
 2178SOL    HW218171   2.018   1.781  16.166 -1.3989 -0.8755 -1.5053
 2179SOL     OW18172   4.352   2.203   7.571 -0.1403 -0.1337 -0.6629
 2179SOL    HW118173   4.431   2.149   7.575 -0.8688 -0.9628  2.3134
 2179SOL    HW218174   4.304   2.141   7.516  0.5528 -0.1943 -1.2036
 2180SOL     OW18175   2.799   3.201   7.215 -0.0300  0.3654  0.1847
 2180SOL    HW118176   2.839   3.119   7.246 -0.0992  0.5513  0.7676
 2180SOL    HW218177   2.840   3.263   7.276  2.4686 -0.7943 -0.2959
 2181SOL     OW18178   3.365   0.706  12.522 -0.3875 -0.1681  0.3942
 2181SOL    HW118179   3.345   0.671  12.436 -1.9127  2.9348 -0.4979
 2181SOL    HW218180   3.382   0.626  12.573  0.7197 -1.1230 -1.4805
 2182SOL     OW18181   2.289   2.131   2.531  0.3635  0.1339 -0.3156
 2182SOL    HW118182   2.324   2.220   2.538 -1.6986  0.9491 -0.2350
 2182SOL    HW218183   2.253   2.130   2.620 -1.2846  0.8195 -0.9855
 2183SOL     OW18184   4.338   3.907   6.323  0.5856 -0.9153  0.0765
 2183SOL    HW118185   4.250   3.933   6.351  0.2225 -2.7857  0.6398
 2183SOL    HW218186   4.387   3.985   6.350 -2.6403  1.2224 -0.2438
 2184SOL     OW18187   0.617   4.543   4.823  0.3371  0.3274  0.3275
 2184SOL    HW118188   0.615   4.610   4.755  0.4987  1.1306  1.1098
 2184SOL    HW218189   0.706   4.552   4.857 -0.5976 -0.4707  3.0002
 2185SOL     OW18190   1.168   4.273   7.090 -0.1435  0.3211  0.1838
 2185SOL    HW118191   1.191   4.327   7.014  0.3505  0.4228  0.4048
 2185SOL    HW218192   1.076   4.300   7.088 -0.6844 -1.4010  2.5921
 2186SOL     OW18193   3.873   4.281  15.028 -0.4458  0.1280  0.0861
 2186SOL    HW118194   3.909   4.255  14.943  0.8489 -0.9249  0.9518
 2186SOL    HW218195   3.785   4.292  14.994 -0.7281 -1.7239  0.2020
 2187SOL     OW18196   4.677   2.093   8.463 -0.4729  0.2700 -0.0892
 2187SOL    HW118197   0.001   2.042   8.513  0.8628  3.0316  1.0576
 2187SOL    HW218198   4.605   2.079   8.524 -0.1669  0.4397  0.3138
 2188SOL     OW18199   1.352   2.720  12.874 -0.3054 -0.2528  0.1876
 2188SOL    HW118200   1.354   2.658  12.801 -0.3472 -2.0981  1.7538
 2188SOL    HW218201   1.444   2.724  12.900 -0.5147  0.2594  0.8538
 2189SOL     OW18202   3.409   3.071   4.889 -0.0749 -0.5130  0.1693
 2189SOL    HW118203   3.423   3.112   4.804  2.2487  0.1162  0.8610
 2189SOL    HW218204   3.437   2.981   4.871  0.8256 -0.3495  0.7043
 2190SOL     OW18205   4.019   2.945  16.254 -0.3045  0.0415 -0.4102
 2190SOL    HW118206   3.988   3.010  16.192 -1.0297  1.4932  1.4597
 2190SOL    HW218207   4.094   2.907  16.208  0.1729  2.9692 -2.0179
 2191SOL     OW18208   3.870   3.831  11.829 -0.3547  0.1508  0.4393
 2191SOL    HW118209   3.891   3.737  11.823  0.0519  0.2930 -0.3076
 2191SOL    HW218210   3.821   3.822  11.910 -0.9593 -3.2896 -0.2997
 2192SOL     OW18211   0.675   1.121  15.076 -0.1523 -0.4424 -0.4234
 2192SOL    HW118212   0.618   1.149  15.005 -0.7394  0.2171  0.3176
 2192SOL    HW218213   0.699   1.206  15.112 -0.5003 -0.1667 -0.8409
 2193SOL     OW18214   4.279   0.806   8.030 -0.4498  0.3426  0.0613
 2193SOL    HW118215   4.197   0.797   8.079 -2.5775  2.0830 -3.2148
 2193SOL    HW218216   4.244   0.799   7.941  0.6599  0.8631 -0.4166
 2194SOL     OW18217   1.580   2.402   7.369  0.4694 -0.2312 -0.0713
 2194SOL    HW118218   1.526   2.408   7.291 -0.9820 -2.7418  0.7526
 2194SOL    HW218219   1.571   2.310   7.395 -1.5380  0.1070  0.4163
 2195SOL     OW18220   0.242   0.310   2.947 -0.6462 -0.7635  0.2487
 2195SOL    HW118221   0.314   0.341   2.892 -2.0921 -1.7891 -2.2181
 2195SOL    HW218222   0.196   0.246   2.891  0.8942  0.0548 -1.9442
 2196SOL     OW18223   1.545   3.995   9.081 -0.0443 -0.9557  0.0623
 2196SOL    HW118224   1.578   3.994   8.992  0.3434  0.5558  0.1992
 2196SOL    HW218225   1.517   3.904   9.087 -0.3067 -0.6774  3.4938
 2197SOL     OW18226   1.424   2.377   6.584 -0.7725 -0.9613 -0.4289
 2197SOL    HW118227   1.334   2.400   6.607 -0.9615 -1.9304 -0.2237
 2197SOL    HW218228   1.425   2.419   6.497 -1.2630 -1.9962 -0.9281
 2198SOL     OW18229   2.598   1.160   7.468 -0.5169 -0.5552 -0.6739
 2198SOL    HW118230   2.574   1.172   7.560  0.3207  0.5682 -0.5885
 2198SOL    HW218231   2.692   1.181   7.471 -1.1985  2.0834  2.1959
 2199SOL     OW18232   4.600   2.927   7.715  0.3762  0.2682  0.0090
 2199SOL    HW118233   4.588   2.882   7.631  0.9818 -0.4104  0.2826
 2199SOL    HW218234   4.621   2.854   7.773 -1.2343 -2.2849 -2.6222
 2200SOL     OW18235   1.241   2.283   6.306  0.0845  0.1428  0.0770
 2200SOL    HW118236   1.328   2.317   6.326  0.9124 -1.4626 -0.7647
 2200SOL    HW218237   1.238   2.307   6.214  2.6780  2.6287  0.6338
 2201SOL     OW18238   1.621   3.424   4.865  0.4300 -0.0563 -0.7768
 2201SOL    HW118239   1.682   3.468   4.807  0.3798  0.9502 -0.0540
 2201SOL    HW218240   1.627   3.475   4.945 -0.9220  2.2415 -2.1603
 2202SOL     OW18241   1.657   3.181   6.696 -0.5971 -0.2992  0.0035
 2202SOL    HW118242   1.606   3.243   6.643 -0.7765 -0.8919 -0.5266
 2202SOL    HW218243   1.653   3.102   6.641 -1.2583 -1.4857  1.7660
 2203SOL     OW18244   0.021   3.756   7.801 -0.3752 -0.0300 -0.2904
 2203SOL    HW118245   0.096   3.789   7.850 -0.7246  2.9763 -1.7376
 2203SOL    HW218246   0.054   3.669   7.781  0.1902 -0.0315  0.6417
 2204SOL     OW18247   2.423   0.193   7.329  0.0127  0.0427  0.4141
 2204SOL    HW118248   2.333   0.226   7.324  0.7176  2.2110  2.1761
 2204SOL    HW218249   2.465   0.224   7.249  2.0048 -2.3076  0.5426
 2205SOL     OW18250   1.148   3.189  12.475  1.0624  0.2010  0.5701
 2205SOL    HW118251   1.112   3.111  12.432 -0.0447 -0.0839  2.0205
 2205SOL    HW218252   1.086   3.200  12.547 -1.6348 -1.6306 -1.4366
 2206SOL     OW18253   2.025   4.390   8.635  0.3944  0.4260  0.2007
 2206SOL    HW118254   2.041   4.470   8.586 -0.0866  0.9127  0.8492
 2206SOL    HW218255   2.030   4.423   8.724  2.3566  0.0190  0.2490
 2207SOL     OW18256   1.552   2.425   5.096 -0.1521 -0.1611 -0.0305
 2207SOL    HW118257   1.512   2.483   5.032 -0.8356 -0.2545  0.3125
 2207SOL    HW218258   1.511   2.459   5.176  2.6370  1.4039  0.7297
 2208SOL     OW18259   0.757   1.694   5.781 -0.5525  0.0821  0.1705
 2208SOL    HW118260   0.846   1.730   5.779 -0.6293  0.1574 -2.4510
 2208SOL    HW218261   0.789   1.604   5.785  1.8821  0.8918 -0.5652
 2209SOL     OW18262   2.499   4.569   1.804 -0.1533 -0.0061 -0.5151
 2209SOL    HW118263   2.580   4.578   1.753  0.6198 -1.1392  0.5283
 2209SOL    HW218264   2.492   4.657   1.841 -0.2829 -0.2639  0.0722
 2210SOL     OW18265   1.936   4.218   9.038 -0.4361  0.3334 -0.7067
 2210SOL    HW118266   1.953   4.260   9.122 -2.6105  2.8570 -1.5258
 2210SOL    HW218267   2.005   4.260   8.988  1.8435 -0.8722  1.4619
 2211SOL     OW18268   4.486   3.138   4.947 -0.1218  0.2893 -0.5476
 2211SOL    HW118269   4.573   3.136   4.907  0.9806  0.1212  1.8655
 2211SOL    HW218270   4.466   3.231   4.946 -1.9643 -0.1320 -1.0749
 2212SOL     OW18271   3.645   4.367   2.401  0.3204 -0.3986 -0.1185
 2212SOL    HW118272   3.552   4.364   2.424 -0.8717  0.5259 -4.8238
 2212SOL    HW218273   3.654   4.302   2.332 -0.7603  1.7961 -2.3221
 2213SOL     OW18274   1.306   1.721   5.914  0.1820 -0.6438  0.1793
 2213SOL    HW118275   1.353   1.660   5.858  2.0917  0.2333  0.8125
 2213SOL    HW218276   1.357   1.799   5.893 -0.2725 -0.5426 -0.5509
 2214SOL     OW18277   1.267   1.272  13.636 -0.3302 -0.6728  0.3164
 2214SOL    HW118278   1.214   1.218  13.695 -2.4122  1.1672  0.1351
 2214SOL    HW218279   1.235   1.236  13.553  1.9740 -1.7669 -0.0979
 2215SOL     OW18280   4.507   1.238   2.956  0.0149 -0.5505 -0.5622
 2215SOL    HW118281   4.472   1.325   2.973  0.4562 -0.7910  1.5031
 2215SOL    HW218282   4.578   1.256   2.894 -2.3586 -0.6099 -3.3056
 2216SOL     OW18283   0.651   0.277   2.227  0.2617  0.6934 -0.1425
 2216SOL    HW118284   0.678   0.207   2.168 -4.9737 -1.5147  0.1035
 2216SOL    HW218285   0.679   0.246   2.313 -0.0733 -1.1205 -0.6930
 2217SOL     OW18286   0.683   4.664   3.886 -0.3650  0.1325 -0.0515
 2217SOL    HW118287   0.621   4.712   3.831 -0.8746  0.4504  0.7888
 2217SOL    HW218288   0.766   4.705   3.860  0.2805 -1.9066 -1.1447
 2218SOL     OW18289   4.123   1.928   6.994 -0.7300  0.2254 -0.2712
 2218SOL    HW118290   4.030   1.942   6.979 -1.1157 -0.2709  1.7533
 2218SOL    HW218291   4.132   1.873   7.072 -0.1860  1.6883  0.6917
 2219SOL     OW18292   0.155   1.901   3.718  0.4672  0.4572  0.2717
 2219SOL    HW118293   0.069   1.895   3.678  1.0569  1.3667 -1.1500
 2219SOL    HW218294   0.221   1.916   3.650 -1.1605  0.4207 -1.3085
 2220SOL     OW18295   1.284   0.207   3.440  0.4109 -0.0351 -0.1518
 2220SOL    HW118296   1.380   0.214   3.434  0.5585  0.4210  2.7771
 2220SOL    HW218297   1.257   0.135   3.383 -0.3775 -1.0464  1.5070
 2221SOL     OW18298   1.279   2.375   7.483 -0.2891  0.9964 -0.0466
 2221SOL    HW118299   1.265   2.464   7.517 -1.0574  0.3775  1.2704
 2221SOL    HW218300   1.306   2.398   7.394 -0.1982  0.8350 -0.0604
 2222SOL     OW18301   0.394   0.539   3.207  0.3165 -0.3975 -0.6211
 2222SOL    HW118302   0.417   0.501   3.291 -0.5238 -0.9391 -0.6424
 2222SOL    HW218303   0.312   0.492   3.192 -0.5811  1.2061 -0.8702
 2223SOL     OW18304   1.683   1.878   5.527 -0.1238 -0.0254  0.2378
 2223SOL    HW118305   1.736   1.798   5.528  1.1898  0.8564  1.3733
 2223SOL    HW218306   1.598   1.834   5.527 -0.1400  0.0062  0.1637
 2224SOL     OW18307   3.744   3.706   4.907 -0.2928 -0.1692 -0.2103
 2224SOL    HW118308   3.670   3.648   4.888  0.1367  0.1130 -2.7968
 2224SOL    HW218309   3.736   3.714   5.002 -2.9826 -0.5350 -0.4071
 2225SOL     OW18310   1.625   2.274   4.686  0.0338  0.0146 -0.1982
 2225SOL    HW118311   1.651   2.323   4.608  1.5313 -1.1039 -0.4055
 2225SOL    HW218312   1.710   2.238   4.711 -0.1657 -0.3255 -0.0102
 2226SOL     OW18313   2.177   4.690   5.001 -0.2255 -0.2159  0.0776
 2226SOL    HW118314   2.240   0.021   5.011  0.7496 -0.9010 -1.1450
 2226SOL    HW218315   2.198   4.680   4.908 -1.1147 -1.4276  0.0065
 2227SOL     OW18316   2.839   3.358   4.982 -0.0021 -0.1168 -0.4846
 2227SOL    HW118317   2.809   3.356   4.891 -1.2413 -0.9482 -0.0640
 2227SOL    HW218318   2.824   3.265   5.001 -0.6562  0.3494  1.2254
 2228SOL     OW18319   2.175   4.501   6.239  0.6343  0.0495 -0.1258
 2228SOL    HW118320   2.221   4.507   6.322 -0.1580 -1.5021  0.4283
 2228SOL    HW218321   2.083   4.490   6.263  0.8969 -0.0972  0.8124
 2229SOL     OW18322   2.043   0.628   2.020  0.0739  0.7380  0.9300
 2229SOL    HW118323   1.981   0.700   2.010 -0.5848  0.1732  0.9315
 2229SOL    HW218324   2.118   0.673   2.060 -1.3689  0.4419  3.9673
 2230SOL     OW18325   3.354   4.464   5.034  0.0478  0.0971  0.1300
 2230SOL    HW118326   3.338   4.401   4.964  1.6622  1.9189 -1.8828
 2230SOL    HW218327   3.417   4.413   5.084  0.6666  0.7319  0.0020
 2231SOL     OW18328   4.548   4.567  11.139  0.0291  0.3635  0.2411
 2231SOL    HW118329   4.476   4.623  11.111  0.3039  0.4204 -0.3729
 2231SOL    HW218330   4.623   4.625  11.124  1.9958 -2.4570 -0.7467
 2232SOL     OW18331   4.307   3.399   8.569  0.0990 -0.4137 -0.0064
 2232SOL    HW118332   4.282   3.492   8.572  0.2683 -0.3257 -1.2231
 2232SOL    HW218333   4.363   3.393   8.492 -2.2125 -1.9282 -1.5941
 2233SOL     OW18334   3.246   2.315   1.994  0.4623 -0.0121  0.6774
 2233SOL    HW118335   3.173   2.341   1.938 -0.1417 -0.3309  1.3204
 2233SOL    HW218336   3.309   2.385   1.976 -0.5419  0.5587 -0.6573
 2234SOL     OW18337   3.425   1.204   6.830 -0.1284  0.3778 -0.3932
 2234SOL    HW118338   3.392   1.234   6.746  3.4866  0.4166 -1.8266
 2234SOL    HW218339   3.439   1.284   6.880 -1.2302  0.0317  0.4520
 2235SOL     OW18340   3.116   0.890   5.118 -0.0683  0.2424  0.0843
 2235SOL    HW118341   3.034   0.883   5.070  0.2768 -0.3858 -0.4170
 2235SOL    HW218342   3.135   0.982   5.100  1.4650 -0.1401 -0.2618
 2236SOL     OW18343   0.941   3.931   3.945 -0.0075  0.1172  0.2218
 2236SOL    HW118344   0.909   3.946   3.856  0.4558 -1.0219 -0.1291
 2236SOL    HW218345   0.904   4.005   3.994  0.3764  0.4844 -0.0475
 2237SOL     OW18346   0.100   4.135   5.545  0.0138 -0.1913 -0.1909
 2237SOL    HW118347   0.007   4.139   5.569  0.1406  1.2638  0.1158
 2237SOL    HW218348   0.113   4.047   5.510 -0.1257 -0.4544  0.4167
 2238SOL     OW18349   0.527   0.814   9.382  0.6136  0.6863  0.3540
 2238SOL    HW118350   0.584   0.827   9.458 -1.1456 -1.7901  2.0705
 2238SOL    HW218351   0.462   0.884   9.393 -0.7415 -0.4843 -0.1863
 2239SOL     OW18352   0.321   2.671   6.917 -0.6278 -0.0452  0.6487
 2239SOL    HW118353   0.271   2.658   6.836  0.8434 -0.5478 -0.1749
 2239SOL    HW218354   0.363   2.756   6.903  0.4717 -0.8278 -0.7970
 2240SOL     OW18355   4.019   1.230  14.686 -0.2010  0.3840  0.4099
 2240SOL    HW118356   3.946   1.187  14.641  0.1188  0.3567 -0.0910
 2240SOL    HW218357   3.993   1.321  14.674 -2.2926 -0.2234  0.3594
 2241SOL     OW18358   4.183   1.279   4.367  0.2275 -0.7324 -0.2114
 2241SOL    HW118359   4.273   1.286   4.337 -0.1377 -0.2029 -1.1721
 2241SOL    HW218360   4.150   1.211   4.309  0.1930 -1.2005  0.3494
 2242SOL     OW18361   0.669   2.830  11.498 -0.1896 -0.1308  0.3179
 2242SOL    HW118362   0.665   2.905  11.557 -1.9110  1.0580 -1.2893
 2242SOL    HW218363   0.748   2.849  11.448  0.2586  1.4074  1.6232
 2243SOL     OW18364   0.667   1.539   3.589  0.2615  0.0484 -0.2751
 2243SOL    HW118365   0.717   1.460   3.566  1.9009  0.9676  0.1089
 2243SOL    HW218366   0.701   1.555   3.677  0.8589 -0.3090 -0.4396
 2244SOL     OW18367   3.955   1.865   5.804  0.1249  0.0351 -0.0854
 2244SOL    HW118368   3.895   1.790   5.802  1.0004 -0.6430 -0.9300
 2244SOL    HW218369   3.966   1.881   5.710  1.2729 -0.4168 -0.0188
 2245SOL     OW18370   3.251   1.126   3.786  0.0873  0.6374 -0.0429
 2245SOL    HW118371   3.269   1.034   3.767 -2.4813  0.4650 -1.6364
 2245SOL    HW218372   3.180   1.154   3.729 -0.6942 -1.2446  0.0017
 2246SOL     OW18373   4.074   3.050  15.614  0.1674  0.0632  0.2610
 2246SOL    HW118374   4.060   2.964  15.654 -0.6040 -0.3230 -0.8497
 2246SOL    HW218375   4.009   3.048  15.543  0.7357  0.6929 -0.2701
 2247SOL     OW18376   0.966   2.492  16.439 -0.1554 -0.3368  0.0568
 2247SOL    HW118377   0.872   2.504  16.434 -0.2080 -0.1941  1.4374
 2247SOL    HW218378   0.967   2.423  16.372 -0.6736 -0.0645 -0.2230
 2248SOL     OW18379   0.253   0.022   5.078  0.3280  0.2156  0.6109
 2248SOL    HW118380   0.298   0.105   5.060  0.4890 -0.2143 -1.0027
 2248SOL    HW218381   0.312   4.713   5.020 -1.0424 -0.8502  0.1297
 2249SOL     OW18382   3.912   1.212  10.269 -0.0162 -0.1300  0.2872
 2249SOL    HW118383   3.972   1.251  10.333 -0.4766  2.3100 -0.7860
 2249SOL    HW218384   3.830   1.254  10.296  1.1356  1.2090  1.7198
 2250SOL     OW18385   2.377   1.432   2.815 -0.2861 -0.3145 -0.0490
 2250SOL    HW118386   2.411   1.369   2.752 -0.5933 -1.2957  0.7708
 2250SOL    HW218387   2.330   1.371   2.873 -0.1559  0.1456  0.5411
 2251SOL     OW18388   0.503   1.019   7.205 -0.3261  0.0368  0.2511
 2251SOL    HW118389   0.536   1.029   7.116 -1.5890  2.1375  0.0311
 2251SOL    HW218390   0.513   0.924   7.214 -0.7092 -0.1829 -1.6946
 2252SOL     OW18391   3.433   3.569   1.098 -0.4744  0.2265  0.1834
 2252SOL    HW118392   3.395   3.588   1.183  0.2342  1.7677  0.1434
 2252SOL    HW218393   3.513   3.621   1.107 -0.0526 -0.5785  1.0606
 2253SOL     OW18394   0.950   1.275  15.443  0.4523 -0.7927  0.0492
 2253SOL    HW118395   1.032   1.243  15.405  0.0001  0.3040 -1.8544
 2253SOL    HW218396   0.912   1.210  15.502  1.1027 -1.7066 -0.5445
 2254SOL     OW18397   2.825   3.283  12.998 -0.1434 -0.0836  0.7250
 2254SOL    HW118398   2.782   3.280  12.912 -1.0854 -0.0345  1.1916
 2254SOL    HW218399   2.768   3.222  13.044 -2.3344  1.0137 -0.5523
 2255SOL     OW18400   2.973   0.968  14.978 -0.1996  0.4572  0.0603
 2255SOL    HW118401   2.887   0.938  15.007 -0.3612 -1.3004 -2.2242
 2255SOL    HW218402   2.951   1.044  14.925  0.0653  0.1865 -0.4423
 2256SOL     OW18403   3.125   2.831   9.775 -0.5495 -0.3609 -0.1119
 2256SOL    HW118404   3.142   2.766   9.707 -1.4580 -0.6023 -0.1188
 2256SOL    HW218405   3.049   2.879   9.741 -1.0642 -0.0619  1.4543
 2257SOL     OW18406   0.756   4.435   3.053  0.3681 -0.5018 -0.3087
 2257SOL    HW118407   0.719   4.479   2.977 -2.3656 -2.5714 -0.1460
 2257SOL    HW218408   0.776   4.506   3.114 -0.0379 -0.6018 -0.0595
 2258SOL     OW18409   3.765   1.865   6.468  0.3582 -0.3747 -0.1497
 2258SOL    HW118410   3.843   1.876   6.414 -0.1795  0.3531 -0.7793
 2258SOL    HW218411   3.711   1.938   6.437  1.5115 -0.7699 -3.0925
 2259SOL     OW18412   2.457   1.698  14.214  0.0500  0.0597 -0.0200
 2259SOL    HW118413   2.441   1.613  14.255 -0.3082  0.3996  0.5452
 2259SOL    HW218414   2.505   1.672  14.136 -0.0991  0.2122 -0.1631
 2260SOL     OW18415   3.256   1.562   6.820  0.3569 -0.7171  0.1654
 2260SOL    HW118416   3.171   1.592   6.788  0.1259 -0.4547  1.0509
 2260SOL    HW218417   3.228   1.474   6.845  1.0488 -1.0008 -0.0420
 2261SOL     OW18418   2.417   4.325   2.255 -0.4454 -0.1104 -0.2139
 2261SOL    HW118419   2.460   4.354   2.175 -1.9987  2.5734 -0.0513
 2261SOL    HW218420   2.463   4.384   2.315 -0.2029  1.3680 -1.8765
 2262SOL     OW18421   2.427   3.802  11.476  0.0927 -0.1649 -0.2542
 2262SOL    HW118422   2.480   3.762  11.545  1.4811  1.3062 -0.4584
 2262SOL    HW218423   2.467   3.890  11.471 -2.4922  1.1791  2.4026
 2263SOL     OW18424   1.063   3.672   2.408  0.6703  0.5112  0.2055
 2263SOL    HW118425   1.080   3.739   2.475  0.1437  1.2550 -0.4058
 2263SOL    HW218426   1.112   3.603   2.452  2.8619  2.1272  0.3214
 2264SOL     OW18427   0.111   3.221  11.466  0.6309 -0.2366 -0.1895
 2264SOL    HW118428   0.170   3.161  11.511  0.9278  0.0852 -0.1488
 2264SOL    HW218429   0.088   3.287  11.531 -0.8328 -2.3184  1.3977
 2265SOL     OW18430   2.838   1.177   7.821  0.3727  0.0303 -0.1844
 2265SOL    HW118431   2.884   1.242   7.768  0.9008 -1.6111 -1.7634
 2265SOL    HW218432   2.750   1.195   7.787 -1.3618 -2.3222  3.0160
 2266SOL     OW18433   3.223   1.020   6.510 -0.1244 -0.5596  0.4418
 2266SOL    HW118434   3.260   0.943   6.554  1.4241 -0.8767 -1.3889
 2266SOL    HW218435   3.229   1.082   6.582 -0.7557 -0.2092  0.1956
 2267SOL     OW18436   3.499   0.418   7.580  0.8532  0.2160 -0.4057
 2267SOL    HW118437   3.435   0.487   7.561 -1.5208 -1.4000  1.7224
 2267SOL    HW218438   3.579   0.463   7.606  0.6558  0.2757  0.0944
 2268SOL     OW18439   2.583   2.766   3.227 -0.3709  0.1184 -0.0454
 2268SOL    HW118440   2.623   2.683   3.203  0.3723  0.2367  0.7679
 2268SOL    HW218441   2.506   2.758   3.170  1.9347 -1.4888 -2.8821
 2269SOL     OW18442   3.920   3.470   3.253 -0.0951  0.3870 -0.6156
 2269SOL    HW118443   3.906   3.455   3.346 -0.8444  1.8172 -0.4935
 2269SOL    HW218444   4.015   3.464   3.245 -0.1691 -0.7608 -0.6371
 2270SOL     OW18445   3.619   1.817   3.523  0.2151 -0.5839 -0.1007
 2270SOL    HW118446   3.616   1.813   3.619 -1.4600 -0.1033 -0.1389
 2270SOL    HW218447   3.580   1.733   3.499 -0.6076 -0.6552  1.4850
 2271SOL     OW18448   1.643   0.409   0.707  0.3192 -0.7379  0.2733
 2271SOL    HW118449   1.565   0.445   0.664  1.4189 -3.8996 -4.3932
 2271SOL    HW218450   1.679   0.483   0.757  0.6010  0.1764 -1.2873
 2272SOL     OW18451   3.893   4.445   0.064  0.0850 -0.4624  0.2005
 2272SOL    HW118452   3.919   4.505  17.751 -0.3483  0.9459  1.2269
 2272SOL    HW218453   3.973   4.435   0.115 -0.6104 -2.4500  0.8974
 2273SOL     OW18454   1.490   2.451   2.292  0.0977 -0.0730 -0.1028
 2273SOL    HW118455   1.563   2.477   2.235 -0.7183  1.8411 -0.2932
 2273SOL    HW218456   1.422   2.500   2.246 -1.4027 -0.0385  2.1561
 2274SOL     OW18457   2.751   3.197   1.713 -0.4203  0.5583 -0.1127
 2274SOL    HW118458   2.757   3.270   1.652 -0.4848  0.2655 -0.4737
 2274SOL    HW218459   2.681   3.148   1.668  0.9494  0.4127 -2.0943
 2275SOL     OW18460   2.834   4.632   7.376  0.1654  0.1962 -0.0955
 2275SOL    HW118461   2.803   4.681   7.452 -1.2248 -0.8580  0.0134
 2275SOL    HW218462   2.774   4.666   7.308 -0.8969 -0.1155  0.6841
 2276SOL     OW18463   2.286   1.922   1.986 -0.9884 -0.1524  0.2465
 2276SOL    HW118464   2.276   1.910   2.080 -2.3434 -0.4586  0.0687
 2276SOL    HW218465   2.196   1.893   1.969 -0.9804 -0.4860  0.7554
 2277SOL     OW18466   3.717   1.335   2.680  0.3484 -0.7005  0.3081
 2277SOL    HW118467   3.804   1.311   2.709  0.2918 -0.6411  0.5241
 2277SOL    HW218468   3.663   1.289   2.743  0.6515  1.6479  2.2771
 2278SOL     OW18469   1.130   0.084  17.036  0.3140  0.4731 -0.7462
 2278SOL    HW118470   1.132   0.084  17.131 -0.4748  1.5456 -0.7261
 2278SOL    HW218471   1.089   0.001  17.012 -4.5169  2.5494  0.4437
 2279SOL     OW18472   2.105   0.996   8.587  0.2698 -0.3987 -0.3789
 2279SOL    HW118473   2.157   0.934   8.536 -0.4733 -0.4902 -1.0232
 2279SOL    HW218474   2.082   1.060   8.520  1.6822  1.4035  0.8738
 2280SOL     OW18475   3.122   3.701   2.404 -0.0558 -0.2048  0.2022
 2280SOL    HW118476   3.193   3.637   2.405 -0.3426 -0.4984  2.5298
 2280SOL    HW218477   3.172   3.769   2.361  0.8573  0.4655  2.3485
 2281SOL     OW18478   4.599   0.098   7.948  0.4101 -0.1560  0.9561
 2281SOL    HW118479   4.648   0.060   7.875 -0.6090  1.0520 -0.3631
 2281SOL    HW218480   4.652   0.066   8.021  2.0205  0.7182  0.1503
 2282SOL     OW18481   1.733   3.795   9.205  0.0088  0.0512 -0.7318
 2282SOL    HW118482   1.759   3.846   9.129  2.3247 -1.4540 -0.9502
 2282SOL    HW218483   1.805   3.802   9.267 -3.2575 -0.2535  3.1062
 2283SOL     OW18484   4.387   0.827   6.522 -0.3180  0.2044 -0.4787
 2283SOL    HW118485   4.414   0.743   6.485 -1.0036  0.3062 -1.2131
 2283SOL    HW218486   4.416   0.880   6.448  1.6328  1.0691  0.8966
 2284SOL     OW18487   3.879   0.587   5.501  0.5666  0.0934 -0.1145
 2284SOL    HW118488   3.933   0.576   5.580  0.0325 -3.5683 -0.2620
 2284SOL    HW218489   3.917   0.522   5.442  0.8786 -1.0734  1.3632
 2285SOL     OW18490   0.630   2.987  12.744 -0.5881  0.0903 -0.2238
 2285SOL    HW118491   0.608   2.894  12.745  0.8926 -0.2171  2.2414
 2285SOL    HW218492   0.653   3.002  12.652 -0.0903  1.7796  0.1816
 2286SOL     OW18493   1.968   0.607  14.736 -0.1029 -0.6661  0.4693
 2286SOL    HW118494   1.948   0.567  14.821 -2.0809  0.2071  0.3897
 2286SOL    HW218495   1.908   0.681  14.735  1.8132  0.8681 -0.8594
 2287SOL     OW18496   0.737   0.064   5.011 -0.2362 -0.3236  0.1038
 2287SOL    HW118497   0.725   0.145   4.962  0.0726 -0.7723 -0.7160
 2287SOL    HW218498   0.812   0.020   4.971  0.0902  2.6275 -2.5386
 2288SOL     OW18499   4.737   4.435  12.620 -0.0496  0.2226  0.2559
 2288SOL    HW118500   4.693   4.406  12.700 -3.5728  0.4830 -1.5800
 2288SOL    HW218501   0.080   4.392  12.639 -0.2956 -0.4898 -0.2648
 2289SOL     OW18502   1.138   0.773   7.327 -0.3017 -0.1529  0.1179
 2289SOL    HW118503   1.050   0.755   7.360  0.1183 -2.9266 -0.2065
 2289SOL    HW218504   1.151   0.683   7.295 -0.1657 -0.3248  0.6656
 2290SOL     OW18505   4.636   0.668  10.443 -0.1883  0.4787 -0.0872
 2290SOL    HW118506   4.548   0.703  10.430 -0.3234  0.0337 -0.3932
 2290SOL    HW218507   4.641   0.639  10.534 -0.8564  0.4297 -0.0653
 2291SOL     OW18508   2.402   2.648   7.651 -0.2189  0.0216  0.3163
 2291SOL    HW118509   2.458   2.595   7.707 -0.6138  0.3874  1.0484
 2291SOL    HW218510   2.421   2.586   7.580 -0.6943 -1.0055  1.0866
 2292SOL     OW18511   1.448   3.484  15.136 -0.0568  0.0668  0.4850
 2292SOL    HW118512   1.526   3.441  15.173  1.2368  1.9338 -0.0564
 2292SOL    HW218513   1.448   3.554  15.202 -0.9669  2.3576 -1.9360
 2293SOL     OW18514   3.994   2.827   5.781 -0.1122 -0.3365  0.2906
 2293SOL    HW118515   3.967   2.919   5.782  0.1790 -0.2456  0.0334
 2293SOL    HW218516   3.914   2.787   5.816 -0.3493 -1.0198 -1.0212
 2294SOL     OW18517   1.771   1.059   4.775  0.3279  0.6116 -0.5369
 2294SOL    HW118518   1.853   1.069   4.825  1.1836  2.2032 -2.2913
 2294SOL    HW218519   1.822   1.023   4.702  0.7230  0.3223 -0.1238
 2295SOL     OW18520   0.510   4.349   0.062  0.3605 -0.0223 -0.2130
 2295SOL    HW118521   0.548   4.414   0.121 -1.5755 -0.9013  1.9849
 2295SOL    HW218522   0.478   4.282   0.122 -3.2522 -0.3281 -2.4862
 2296SOL     OW18523   2.469   1.633   7.731  0.2186  0.6566  0.5878
 2296SOL    HW118524   2.421   1.711   7.757  2.1333  2.8411 -2.5008
 2296SOL    HW218525   2.470   1.641   7.636 -1.3965  2.0720  0.6966
 2297SOL     OW18526   3.323   3.306   8.234  0.1879 -0.5631  0.6934
 2297SOL    HW118527   3.244   3.264   8.200 -0.1203  1.4108 -1.0173
 2297SOL    HW218528   3.336   3.382   8.178  2.0464 -0.5485  1.1650
 2298SOL     OW18529   0.970   0.288   8.769 -0.2631 -0.6208 -0.4562
 2298SOL    HW118530   0.936   0.211   8.722 -2.4211  0.3198 -0.4394
 2298SOL    HW218531   0.924   0.273   8.851  0.5833  1.9045  0.4644
 2299SOL     OW18532   0.788   0.238  10.722  0.5112  0.0488 -0.3812
 2299SOL    HW118533   0.843   0.161  10.736 -0.8647 -1.0175 -0.7567
 2299SOL    HW218534   0.862   0.298  10.729 -0.6767  1.7949 -2.7948
 2300SOL     OW18535   1.272   2.047  11.405 -0.2523 -0.4076 -0.3283
 2300SOL    HW118536   1.229   1.999  11.475  0.4006 -1.9654 -1.0091
 2300SOL    HW218537   1.208   2.118  11.398 -1.7879 -1.6486  1.2777
 2301SOL     OW18538   3.964   2.833   4.186 -0.3980  0.1786 -0.3716
 2301SOL    HW118539   3.936   2.753   4.143 -3.2430  1.2332 -0.5068
 2301SOL    HW218540   3.993   2.895   4.119 -2.3529 -0.3759 -1.7550
 2302SOL     OW18541   1.993   0.669   5.942  0.1241 -0.4609  0.1348
 2302SOL    HW118542   1.981   0.730   5.870  0.5148 -1.0744 -0.4503
 2302SOL    HW218543   2.064   0.615   5.907 -0.5596  0.4611 -2.6325
 2303SOL     OW18544   1.777   3.435  13.634  0.3707  0.6314 -0.3211
 2303SOL    HW118545   1.762   3.529  13.646  1.2945  0.8950 -1.2877
 2303SOL    HW218546   1.720   3.391  13.697  1.7109 -1.3120 -0.4804
 2304SOL     OW18547   4.212   0.486   4.425 -0.4082 -0.2427  0.0224
 2304SOL    HW118548   4.183   0.437   4.349  3.4222 -1.9784 -0.3095
 2304SOL    HW218549   4.276   0.544   4.383  0.6311  0.1894  2.2171
 2305SOL     OW18550   1.055   2.040   6.051 -0.2952 -0.1419 -0.4624
 2305SOL    HW118551   1.002   2.089   5.988 -1.6132  1.7468  2.1540
 2305SOL    HW218552   1.139   2.085   6.044 -0.7070  0.9105  1.4029
 2306SOL     OW18553   4.713   0.614   9.163 -0.1316  0.4950  0.1103
 2306SOL    HW118554   4.628   0.643   9.194  0.4788  1.8988  0.4405
 2306SOL    HW218555   4.692   0.544   9.101 -2.8343 -0.6057  2.2954
 2307SOL     OW18556   4.171   2.644   2.642  0.2232  0.1958 -0.2742
 2307SOL    HW118557   4.151   2.678   2.555  1.9646  0.8122 -0.4246
 2307SOL    HW218558   4.223   2.713   2.683 -1.2985  1.3906 -0.3369
 2308SOL     OW18559   0.822   4.403  12.836  0.4606  0.3600  0.2991
 2308SOL    HW118560   0.884   4.360  12.777 -0.4578 -1.0394  0.3554
 2308SOL    HW218561   0.745   4.370  12.790  3.1701 -2.0970 -2.4709
 2309SOL     OW18562   0.841   4.649   7.059  0.7486 -0.5340  0.0959
 2309SOL    HW118563   0.812   4.630   7.148 -1.7101  1.3654 -0.2829
 2309SOL    HW218564   0.773   4.601   7.012  0.8608 -1.0410  0.4564
 2310SOL     OW18565   4.376   3.602   3.603  0.6068  0.6190  0.0727
 2310SOL    HW118566   4.300   3.585   3.659  0.5289  0.3380 -0.1172
 2310SOL    HW218567   4.345   3.593   3.513 -0.9236 -2.4768  0.8824
 2311SOL     OW18568   0.003   0.647   8.384  0.2224 -0.2826 -0.1892
 2311SOL    HW118569   0.053   0.715   8.429  0.8862 -0.4655 -0.6564
 2311SOL    HW218570   0.069   0.618   8.321  0.0395  0.0054 -0.5228
 2312SOL     OW18571   3.072   0.858  16.117  0.0919  0.3466  0.0272
 2312SOL    HW118572   3.162   0.878  16.141  0.5415 -1.5308 -0.0743
 2312SOL    HW218573   3.083   0.763  16.118  1.4980  0.5544  2.8747
 2313SOL     OW18574   2.670   1.380  13.262  0.2183  0.0945  0.1369
 2313SOL    HW118575   2.644   1.469  13.285 -1.6299  0.1748 -2.2727
 2313SOL    HW218576   2.595   1.366  13.205 -1.4462  0.9244  2.0987
 2314SOL     OW18577   0.591   4.468   8.288  0.4338 -0.1387  0.8226
 2314SOL    HW118578   0.520   4.431   8.235 -0.0192 -1.9857  2.7301
 2314SOL    HW218579   0.554   4.463   8.376 -0.7413 -0.6038  0.3142
 2315SOL     OW18580   2.236   3.534   0.066 -0.3933 -0.1289 -0.4151
 2315SOL    HW118581   2.303   3.552   0.133 -0.9551  1.7851 -0.3528
 2315SOL    HW218582   2.201   3.622   0.053 -0.1460 -0.1350 -1.0910
 2316SOL     OW18583   2.566   1.151   2.337 -0.2055  0.8317 -0.2500
 2316SOL    HW118584   2.550   1.057   2.332  0.1250  0.7857 -0.4333
 2316SOL    HW218585   2.562   1.170   2.244  2.3975 -1.1353 -0.7719
 2317SOL     OW18586   4.374   3.899  12.153  0.0055 -0.3906  0.3538
 2317SOL    HW118587   4.355   3.993  12.150  0.5639 -0.2409  1.4631
 2317SOL    HW218588   4.336   3.862  12.073 -2.1179 -1.3055  1.8069
 2318SOL     OW18589   1.766   2.603   7.432 -0.3379  0.0240 -0.5155
 2318SOL    HW118590   1.818   2.594   7.353 -1.1001 -2.1238 -0.7685
 2318SOL    HW218591   1.710   2.526   7.420  0.6609 -0.9733  1.1980
 2319SOL     OW18592   0.674   1.121   9.389  0.5749 -0.5555  0.6469
 2319SOL    HW118593   0.698   1.152   9.302 -0.0686 -0.7877  0.3890
 2319SOL    HW218594   0.692   1.195   9.446  2.5352 -1.7379  1.5842
 2320SOL     OW18595   2.072   2.368   5.797  0.2235 -0.0974 -0.1638
 2320SOL    HW118596   2.148   2.311   5.795  0.2769 -0.0183 -0.3343
 2320SOL    HW218597   2.109   2.435   5.740 -0.8854  0.5380 -0.1479
 2321SOL     OW18598   1.582   4.724  15.074 -0.4946  0.3180  0.3839
 2321SOL    HW118599   1.560   4.652  15.015 -0.9843  0.4710  0.3814
 2321SOL    HW218600   1.548   4.686  15.155  0.2223 -1.0357  0.0454
 2322SOL     OW18601   4.510   3.349   8.388  0.1280  0.0366 -0.5369
 2322SOL    HW118602   4.530   3.257   8.371  0.5476 -0.2208  1.2879
 2322SOL    HW218603   4.478   3.370   8.300 -0.0873 -0.7949 -0.6597
 2323SOL     OW18604   1.278   0.267  12.150  0.2009  0.6780 -1.4271
 2323SOL    HW118605   1.344   0.316  12.200 -0.1290  0.5335 -0.8473
 2323SOL    HW218606   1.332   0.217  12.088  0.0719  0.3141 -1.2500
 2324SOL     OW18607   4.554   3.205  11.982  0.6829 -0.7476  0.2793
 2324SOL    HW118608   4.516   3.237  11.900 -0.4917 -2.3571  0.1753
 2324SOL    HW218609   4.635   3.171  11.944  1.0031 -0.9035  1.1150
 2325SOL     OW18610   3.130   3.993   2.892  0.2055 -0.6794 -0.0417
 2325SOL    HW118611   3.133   3.904   2.925 -0.0487 -0.4993  0.4706
 2325SOL    HW218612   3.223   4.014   2.890 -0.0432  0.1211 -2.9988
 2326SOL     OW18613   3.094   4.559   4.886 -0.5452 -0.2011  0.5313
 2326SOL    HW118614   3.184   4.538   4.912 -0.5261 -0.2927  0.3882
 2326SOL    HW218615   3.058   4.473   4.868 -0.5117  0.3988 -2.3411
 2327SOL     OW18616   0.979   1.241   7.970 -0.9762 -0.5993  0.3756
 2327SOL    HW118617   1.005   1.333   7.972  0.9525 -1.1475  0.6267
 2327SOL    HW218618   1.051   1.198   8.017 -1.0053  1.9116  2.7236
 2328SOL     OW18619   0.596   2.528   7.489 -0.1641 -0.1370  0.6964
 2328SOL    HW118620   0.688   2.523   7.515  0.0533  0.2956 -0.0055
 2328SOL    HW218621   0.560   2.561   7.571  0.9841 -1.7037  1.8310
 2329SOL     OW18622   4.739   4.652   7.068 -0.7492  0.0147  0.2268
 2329SOL    HW118623   4.663   4.709   7.060 -0.2645  0.4023 -1.6643
 2329SOL    HW218624   0.048   4.670   6.987 -1.8256  1.0883 -0.1857
 2330SOL     OW18625   2.061   0.241  11.221 -0.7516  0.3028 -0.3486
 2330SOL    HW118626   2.126   0.293  11.173 -0.1108  0.8673  1.1348
 2330SOL    HW218627   2.053   0.166  11.161 -2.3382  0.1673  0.0287
 2331SOL     OW18628   0.176   0.008   7.268  0.5779  0.5293 -0.4666
 2331SOL    HW118629   0.128   4.738   7.186  0.2538 -0.2298 -0.1889
 2331SOL    HW218630   0.203   0.099   7.254  1.2914  0.3612 -0.2065
 2332SOL     OW18631   3.432   1.174   3.231  0.3086 -0.2943  0.4149
 2332SOL    HW118632   3.463   1.193   3.319 -0.7649 -2.3362  1.2253
 2332SOL    HW218633   3.509   1.212   3.189  0.0225  0.9715  1.0323
 2333SOL     OW18634   3.420   1.536   2.102 -0.2364 -0.0081 -0.6954
 2333SOL    HW118635   3.467   1.535   2.185 -0.1805  2.6679 -0.6976
 2333SOL    HW218636   3.473   1.475   2.051 -0.5453  0.9521 -2.1508
 2334SOL     OW18637   3.200   2.472   0.603  0.7548  0.3974  0.3427
 2334SOL    HW118638   3.269   2.414   0.571 -0.8518 -0.0727 -2.2694
 2334SOL    HW218639   3.127   2.412   0.590 -0.0286  1.2652  0.7000
 2335SOL     OW18640   0.161   0.708   2.792 -0.3824  0.5463 -0.5414
 2335SOL    HW118641   0.145   0.615   2.776  1.6466 -0.3405  2.6671
 2335SOL    HW218642   0.099   0.743   2.727  0.0013 -0.4443 -1.4241
 2336SOL     OW18643   0.361   3.789   3.160 -0.3016  1.2417  0.3037
 2336SOL    HW118644   0.407   3.708   3.179 -1.2630  1.0685  1.9116
 2336SOL    HW218645   0.340   3.777   3.067  1.7324 -1.3694  0.1776
 2337SOL     OW18646   4.458   0.150   3.125 -0.5702 -0.0392 -0.6426
 2337SOL    HW118647   4.520   0.077   3.133 -1.5385 -0.8097 -0.2252
 2337SOL    HW218648   4.511   0.226   3.101  0.2077 -0.5706 -0.6441
 2338SOL     OW18649   3.598   3.902  11.583 -0.1085  0.6012  0.0833
 2338SOL    HW118650   3.554   3.915  11.667  0.4722 -0.5654  0.5726
 2338SOL    HW218651   3.682   3.939  11.611  0.8668 -0.3381 -1.6307
 2339SOL     OW18652   1.947   2.411   2.839 -0.2647 -0.2026  0.0510
 2339SOL    HW118653   2.009   2.343   2.813  0.7789  0.0736  1.8213
 2339SOL    HW218654   1.959   2.467   2.763 -0.7829 -0.3440 -0.1384
 2340SOL     OW18655   1.714   1.632  15.095  0.0679  0.5783 -0.0297
 2340SOL    HW118656   1.682   1.627  15.005  0.2843 -0.7465 -0.0286
 2340SOL    HW218657   1.773   1.708  15.091 -0.5795  1.1729  1.8245
 2341SOL     OW18658   1.447   0.922   8.975 -0.0598 -0.5254 -0.2643
 2341SOL    HW118659   1.398   0.917   9.057 -1.7790  2.7169 -1.0927
 2341SOL    HW218660   1.397   0.863   8.918  0.0352 -0.5651 -0.3067
 2342SOL     OW18661   2.219   4.042   3.124  0.0538  0.3838 -0.3950
 2342SOL    HW118662   2.266   3.987   3.062  0.1114  0.5704 -0.5140
 2342SOL    HW218663   2.292   4.100   3.149  0.2501 -0.0566  0.0558
 2343SOL     OW18664   1.668   1.693   6.348 -0.0480 -0.1865 -0.1680
 2343SOL    HW118665   1.578   1.663   6.363  0.4966 -1.2732  0.9080
 2343SOL    HW218666   1.648   1.737   6.265  1.1712 -1.5925 -1.1880
 2344SOL     OW18667   3.923   4.178   8.065  0.5028  0.2233  0.5567
 2344SOL    HW118668   4.008   4.137   8.052 -0.2885 -0.9044 -1.1496
 2344SOL    HW218669   3.903   4.169   8.158 -2.3917  1.0142  0.0178
 2345SOL     OW18670   0.506   0.708   2.554 -0.2243 -0.0224  0.2149
 2345SOL    HW118671   0.435   0.754   2.510 -0.4957 -2.4876 -1.9335
 2345SOL    HW218672   0.465   0.623   2.560  3.3891 -1.9712 -2.2705
 2346SOL     OW18673   2.111   0.353   4.035 -0.7303 -0.1282 -0.1040
 2346SOL    HW118674   2.074   0.273   3.996 -0.1327 -0.2906 -0.3458
 2346SOL    HW218675   2.141   0.392   3.953  0.0553 -0.8107 -0.1543
 2347SOL     OW18676   3.422   3.130  12.742 -0.1741 -0.2625 -0.1475
 2347SOL    HW118677   3.371   3.200  12.701 -1.8439 -0.6768  1.2506
 2347SOL    HW218678   3.375   3.057  12.700 -1.3203  1.2008 -1.4206
 2348SOL     OW18679   4.120   0.607   3.460  0.0498  0.2779  0.5566
 2348SOL    HW118680   4.123   0.519   3.422  0.6364  0.9059 -0.8521
 2348SOL    HW218681   4.027   0.625   3.455 -0.0538 -0.0254  1.2930
 2349SOL     OW18682   3.607   4.661   2.831  0.5946  0.1610 -0.0826
 2349SOL    HW118683   3.566   0.001   2.798 -1.4688 -0.1988  1.6676
 2349SOL    HW218684   3.554   4.587   2.802 -1.4019 -0.1733  4.4996
 2350SOL     OW18685   4.584   3.624  11.343 -0.1953 -0.1503 -0.5097
 2350SOL    HW118686   4.549   3.570  11.272 -0.5475 -1.3236  0.5476
 2350SOL    HW218687   4.615   3.703  11.300 -3.7386  1.9671  0.8988
 2351SOL     OW18688   2.644   2.653   6.863 -0.8115  0.7921 -0.0889
 2351SOL    HW118689   2.706   2.584   6.841 -1.6291 -0.4221  1.4449
 2351SOL    HW218690   2.568   2.596   6.870 -0.6522  0.3333 -2.3169
 2352SOL     OW18691   1.557   3.187   2.342  0.3089 -0.3760 -0.4533
 2352SOL    HW118692   1.530   3.268   2.386  0.8628 -1.0244  1.0695
 2352SOL    HW218693   1.592   3.226   2.262 -1.2689  0.9126 -0.5231
 2353SOL     OW18694   2.879   2.709   4.196  0.2950 -0.4207  0.0825
 2353SOL    HW118695   2.935   2.646   4.150 -1.7227  0.0158 -2.9973
 2353SOL    HW218696   2.932   2.752   4.263  0.8834  1.6946 -1.7290
 2354SOL     OW18697   0.957   4.155   4.551 -0.1434  0.0854  0.4140
 2354SOL    HW118698   1.024   4.139   4.617  0.7105 -2.6329 -1.1203
 2354SOL    HW218699   0.978   4.099   4.476 -0.7157  1.1365 -0.5287
 2355SOL     OW18700   2.362   2.809   9.389 -0.2007  0.0806  0.2613
 2355SOL    HW118701   2.365   2.732   9.445 -1.3122 -0.4402 -0.4138
 2355SOL    HW218702   2.278   2.797   9.345  0.3655 -1.0869 -0.4816
 2356SOL     OW18703   1.733   4.088   2.833  0.2941  0.6040 -0.6275
 2356SOL    HW118704   1.701   4.171   2.797 -2.5121 -0.7303 -1.1900
 2356SOL    HW218705   1.827   4.096   2.817  0.0126 -1.9938 -3.6629
 2357SOL     OW18706   2.953   4.686   7.800 -0.0629  0.2617 -0.0032
 2357SOL    HW118707   3.010   4.610   7.805 -3.5833 -2.3413  0.8757
 2357SOL    HW218708   3.022   0.011   7.792  1.0751 -1.1892 -1.8327
 2358SOL     OW18709   2.045   0.225  16.169 -0.4176  0.1551  0.0801
 2358SOL    HW118710   2.028   0.136  16.199  4.0415 -0.7194  0.0649
 2358SOL    HW218711   2.141   0.226  16.172 -0.4034  2.5432 -0.9681
 2359SOL     OW18712   0.115   4.097   6.014  0.4304  0.2475  0.2884
 2359SOL    HW118713   0.085   4.044   6.087  0.7232 -1.1184 -0.5787
 2359SOL    HW218714   0.157   4.165   6.066 -2.2559  3.0767 -1.1954
 2360SOL     OW18715   4.239   2.420   3.991 -0.0793  0.3538  0.3505
 2360SOL    HW118716   4.317   2.409   4.045 -0.2000 -1.0728  0.2476
 2360SOL    HW218717   4.278   2.409   3.904 -1.4490  0.2605 -0.2540
 2361SOL     OW18718   3.575   4.292   9.632 -0.1874  0.2537 -0.0715
 2361SOL    HW118719   3.514   4.320   9.701 -0.2753 -0.9095  0.3206
 2361SOL    HW218720   3.548   4.356   9.566 -0.2059  1.2008  0.8555
 2362SOL     OW18721   1.216   3.029  10.251  0.0295  0.2129 -0.1841
 2362SOL    HW118722   1.145   3.092  10.241 -2.4463 -2.5221  0.1876
 2362SOL    HW218723   1.169   2.947  10.235  1.5118 -0.4421 -1.1744
 2363SOL     OW18724   1.971   0.462  15.001  0.2258 -0.3467 -0.7702
 2363SOL    HW118725   1.990   0.412  15.080 -0.9081  0.8673  0.2743
 2363SOL    HW218726   2.051   0.448  14.950 -0.0690  2.2415 -1.9605
 2364SOL     OW18727   4.057   3.479  15.590  0.4859  0.6918 -0.0238
 2364SOL    HW118728   4.002   3.507  15.516  0.6889  0.0839 -0.3991
 2364SOL    HW218729   4.144   3.495  15.555  1.1777 -2.6170  0.2118
 2365SOL     OW18730   4.221   4.037   4.362  0.4603 -0.0046  0.3097
 2365SOL    HW118731   4.231   3.979   4.286  0.1787 -0.5351  0.6761
 2365SOL    HW218732   4.235   4.113   4.305  1.9088 -1.3039 -1.0614
 2366SOL     OW18733   1.271   1.327  15.509  0.1651  0.4173  0.3900
 2366SOL    HW118734   1.325   1.376  15.446  1.6739 -0.9399  0.6320
 2366SOL    HW218735   1.269   1.238  15.475 -1.1398  0.5014  0.2331
 2367SOL     OW18736   3.657   3.141  10.305 -0.4036  0.5118  0.1434
 2367SOL    HW118737   3.748   3.163  10.287  0.1813 -1.5395  0.6830
 2367SOL    HW218738   3.610   3.198  10.243  0.9003  2.2041  0.6982
 2368SOL     OW18739   0.462   3.186   5.858  0.2492 -0.2388 -0.6155
 2368SOL    HW118740   0.467   3.201   5.764 -2.3781 -0.9152 -0.8524
 2368SOL    HW218741   0.391   3.245   5.882  1.0767 -0.0480  1.4204
 2369SOL     OW18742   0.745   1.738   9.124  0.3624 -0.3515  0.4674
 2369SOL    HW118743   0.768   1.760   9.034 -2.1396  0.2601 -0.0323
 2369SOL    HW218744   0.661   1.692   9.117  0.5261 -1.1557  3.7512
 2370SOL     OW18745   2.625   1.623  11.053  0.4385 -0.0293  0.2001
 2370SOL    HW118746   2.633   1.718  11.066  0.7816 -0.7207  4.8869
 2370SOL    HW218747   2.594   1.607  11.142  1.7873 -0.2483  0.6238
 2371SOL     OW18748   3.496   2.120  13.847  0.0285  0.1095 -0.0465
 2371SOL    HW118749   3.433   2.048  13.860 -1.0005  0.9461 -0.3755
 2371SOL    HW218750   3.441   2.190  13.812  1.5694  1.6898  0.7528
 2372SOL     OW18751   0.685   3.664   1.344 -0.2056  0.0717 -0.5701
 2372SOL    HW118752   0.637   3.708   1.274  1.2896  0.2263 -1.5021
 2372SOL    HW218753   0.615   3.676   1.409 -0.1302  1.0248 -0.6625
 2373SOL     OW18754   4.339   2.789   5.703  0.6129  1.0272 -0.0200
 2373SOL    HW118755   4.387   2.863   5.741  1.1200  0.2230  0.9372
 2373SOL    HW218756   4.311   2.832   5.623  0.8757 -2.8970 -2.2519
 2374SOL     OW18757   2.268   2.647   2.605 -0.2151 -0.9594  0.2577
 2374SOL    HW118758   2.180   2.627   2.636 -0.0550  1.2861  2.1739
 2374SOL    HW218759   2.281   2.741   2.614 -0.7056 -0.9171  0.5126
 2375SOL     OW18760   3.067   2.649  12.700  0.7236  0.0348  0.3115
 2375SOL    HW118761   3.133   2.633  12.633 -0.3968 -1.1572 -0.4936
 2375SOL    HW218762   3.050   2.561  12.732 -0.7973  0.6750  1.2468
 2376SOL     OW18763   3.782   3.007  11.035  0.0606 -0.3429 -0.4964
 2376SOL    HW118764   3.777   3.030  11.128 -0.9185  0.2523 -0.6936
 2376SOL    HW218765   3.811   2.916  11.046  3.3434  0.6405 -1.3844
 2377SOL     OW18766   1.209   3.781  10.099  0.9487  0.3532  0.7838
 2377SOL    HW118767   1.177   3.868  10.123 -0.3657  0.3627 -1.0337
 2377SOL    HW218768   1.230   3.747  10.187  0.7657 -0.7801  0.3869
 2378SOL     OW18769   3.048   1.069   8.190 -0.1156  0.1316 -0.3467
 2378SOL    HW118770   3.034   1.163   8.202  2.4529  0.3471  0.8374
 2378SOL    HW218771   2.975   1.049   8.131  1.0049 -0.2688 -1.5861
 2379SOL     OW18772   0.905   2.815  12.841  0.4977  0.2066 -0.1508
 2379SOL    HW118773   0.831   2.754  12.844  0.4265  0.3484  1.0785
 2379SOL    HW218774   0.939   2.806  12.752  1.8561  0.2534  0.3613
 2380SOL     OW18775   2.924   0.860   4.938 -0.0122  0.2577  0.0576
 2380SOL    HW118776   2.870   0.781   4.942  0.3571  0.0874  1.6110
 2380SOL    HW218777   2.925   0.869   4.843 -1.4367  1.0553  0.1312
 2381SOL     OW18778   4.354   4.605   7.233  0.2731 -0.4989  0.3379
 2381SOL    HW118779   4.260   4.600   7.217  0.0649 -0.9526  1.6929
 2381SOL    HW218780   4.355   4.678   7.296 -1.2965  1.0481 -1.4390
 2382SOL     OW18781   1.555   0.174  14.432  0.5321  0.0720  0.1268
 2382SOL    HW118782   1.573   0.119  14.508  0.7371 -0.8073 -0.5587
 2382SOL    HW218783   1.502   0.116  14.377  0.1066  1.4960 -0.9589
 2383SOL     OW18784   1.319   1.585   1.938 -0.0160  0.5842 -0.1711
 2383SOL    HW118785   1.348   1.502   1.900 -1.1594  0.4107 -0.6518
 2383SOL    HW218786   1.362   1.594   2.023 -0.6475 -1.1206  0.3229
 2384SOL     OW18787   3.818   0.607   6.679  0.5280  0.6946 -0.2159
 2384SOL    HW118788   3.805   0.666   6.753  0.2449  1.0833 -0.5798
 2384SOL    HW218789   3.887   0.547   6.706 -0.4570  0.5730  2.0223
 2385SOL     OW18790   3.647   4.017   1.668 -0.1190 -0.3731 -0.4513
 2385SOL    HW118791   3.567   4.065   1.690  0.0913 -0.3556  0.2907
 2385SOL    HW218792   3.700   4.027   1.748 -0.1824  1.8904 -0.6807
 2386SOL     OW18793   0.025   3.770   2.846  0.5378  0.4092 -0.1112
 2386SOL    HW118794   4.707   3.845   2.858 -0.5623 -0.4556  0.0445
 2386SOL    HW218795   0.078   3.801   2.773  3.5924 -1.9540  1.0933
 2387SOL     OW18796   2.530   2.488  11.261  0.1558  0.5327 -0.8016
 2387SOL    HW118797   2.599   2.442  11.309 -0.2927 -0.7876 -1.4309
 2387SOL    HW218798   2.518   2.558  11.325  3.6260 -0.7305  1.2579
 2388SOL     OW18799   1.154   1.141   3.119 -0.0006  0.0529  0.0070
 2388SOL    HW118800   1.129   1.075   3.055  1.2506 -0.5635  0.1459
 2388SOL    HW218801   1.204   1.197   3.061 -0.3909  0.3065 -0.0846
 2389SOL     OW18802   1.410   4.116   8.639 -0.1007  0.2108  0.2036
 2389SOL    HW118803   1.399   4.130   8.545  1.5590  2.3451  0.3521
 2389SOL    HW218804   1.327   4.073   8.663  0.7414 -1.9118 -0.6531
 2390SOL     OW18805   3.144   1.793   2.990  0.5815  0.0844 -0.1111
 2390SOL    HW118806   3.099   1.867   3.032 -0.6636 -0.3757 -0.6258
 2390SOL    HW218807   3.096   1.721   3.032 -2.2486 -0.1470 -3.7678
 2391SOL     OW18808   1.831   0.048   4.977  0.3037  0.1328  0.6410
 2391SOL    HW118809   1.839   0.003   4.892  1.3463  4.0157 -1.3108
 2391SOL    HW218810   1.764   4.737   5.022  0.0653 -0.2781 -0.1606
 2392SOL     OW18811   0.650   1.854   8.459  0.1851 -0.7604  0.0072
 2392SOL    HW118812   0.577   1.865   8.399  1.4641 -2.5436 -1.8846
 2392SOL    HW218813   0.721   1.896   8.410 -2.2106  1.8337 -1.2232
 2393SOL     OW18814   1.721   4.653   9.221  0.7378  0.4493 -0.1313
 2393SOL    HW118815   1.688   4.677   9.308 -1.1811 -2.1846 -0.1475
 2393SOL    HW218816   1.657   4.687   9.159  1.6487 -2.4396 -2.6361
 2394SOL     OW18817   3.736   0.003   3.079  0.1312 -0.2206 -0.1631
 2394SOL    HW118818   3.700   4.699   3.001 -0.7529  1.5800 -0.7553
 2394SOL    HW218819   3.816   4.691   3.089 -0.7028 -1.3625  0.5976
 2395SOL     OW18820   4.145   1.392  12.824  0.1751  1.2284  0.3259
 2395SOL    HW118821   4.158   1.465  12.763 -0.6392 -1.2298 -2.7965
 2395SOL    HW218822   4.230   1.372  12.863 -0.5896 -0.7250  0.9922
 2396SOL     OW18823   1.350   0.541  17.573 -0.3020 -0.5442 -0.3585
 2396SOL    HW118824   1.305   0.485  17.509 -1.4887  1.1141 -0.9637
 2396SOL    HW218825   1.276   0.574  17.624 -1.3415 -1.2905 -1.3641
 2397SOL     OW18826   3.883   2.079   4.112 -0.3295 -0.0696  0.0773
 2397SOL    HW118827   3.830   2.108   4.038  0.5574 -1.4739 -1.1194
 2397SOL    HW218828   3.871   1.985   4.098  1.3948 -0.4897  1.3267
 2398SOL     OW18829   4.458   0.249   8.363 -0.2742  0.2434 -0.4849
 2398SOL    HW118830   4.400   0.325   8.363 -1.4236 -0.6487  1.0838
 2398SOL    HW218831   4.500   0.257   8.277  2.4740 -1.6459  0.7042
 2399SOL     OW18832   2.333   2.309   3.208  0.6352 -0.2766 -0.0010
 2399SOL    HW118833   2.296   2.307   3.297  0.0947  0.5205 -0.2096
 2399SOL    HW218834   2.292   2.235   3.163  2.1040 -0.1275 -1.5611
 2400SOL     OW18835   2.079   4.232   5.433  0.8062  0.4797  0.6911
 2400SOL    HW118836   2.096   4.242   5.527  0.2752  2.1305  0.6092
 2400SOL    HW218837   2.036   4.146   5.436 -0.5935  1.0666 -2.3184
 2401SOL     OW18838   3.631   1.441   8.388  0.6587  0.2831 -0.1939
 2401SOL    HW118839   3.706   1.500   8.378 -0.4445  1.8441  0.9099
 2401SOL    HW218840   3.603   1.463   8.477  0.8147 -0.3815  0.0251
 2402SOL     OW18841   2.158   3.050   7.991 -0.3571 -0.4055 -0.0683
 2402SOL    HW118842   2.180   2.958   7.975 -0.3498 -0.3370 -0.4593
 2402SOL    HW218843   2.242   3.088   7.964  0.1057 -0.8111  0.7826
 2403SOL     OW18844   1.129   3.044   9.586 -0.2561  0.4850  0.1693
 2403SOL    HW118845   1.210   3.092   9.601  0.1010  0.0894 -0.4778
 2403SOL    HW218846   1.104   3.072   9.498 -0.0203  0.9111  0.2380
 2404SOL     OW18847   3.659   4.475   3.779  0.4371  0.4525  0.0151
 2404SOL    HW118848   3.574   4.512   3.804  0.3587  0.1689  0.1622
 2404SOL    HW218849   3.665   4.393   3.828 -0.5357  0.4741  0.1829
 2405SOL     OW18850   1.558   4.317   2.113  0.4377 -0.4283 -0.3373
 2405SOL    HW118851   1.617   4.380   2.154 -0.2268  1.4243 -2.2457
 2405SOL    HW218852   1.544   4.354   2.026 -0.0831 -0.5037 -0.2876
 2406SOL     OW18853   3.380   4.055   8.956 -0.1905 -0.2406  0.0657
 2406SOL    HW118854   3.360   4.130   8.899 -2.9831 -0.5181  0.6667
 2406SOL    HW218855   3.472   4.046   8.934  0.2462 -0.4924  2.0009
 2407SOL     OW18856   1.236   1.666  14.531  0.2221 -0.1523 -0.2042
 2407SOL    HW118857   1.190   1.661  14.615  0.8175  2.4871  0.2742
 2407SOL    HW218858   1.320   1.638  14.567  0.4595  0.2396 -0.4599
 2408SOL     OW18859   0.362   3.491   3.238  0.1575 -0.5845  0.5432
 2408SOL    HW118860   0.366   3.465   3.146 -0.0466  0.3838  0.2573
 2408SOL    HW218861   0.272   3.522   3.236  1.2317  2.4463 -0.6589
 2409SOL     OW18862   3.933   0.452   2.643 -0.0507 -0.4813 -0.3569
 2409SOL    HW118863   3.953   0.506   2.720  2.9446 -1.5440 -0.3851
 2409SOL    HW218864   3.943   0.364   2.680  1.3401  0.1713  0.8206
 2410SOL     OW18865   4.196   3.891   3.120  0.2899 -0.4231  0.5477
 2410SOL    HW118866   4.125   3.916   3.179  0.5108  0.5164  0.4191
 2410SOL    HW218867   4.267   3.934   3.168 -2.0904  2.7024  1.3532
 2411SOL     OW18868   1.053   1.880  16.737  0.1092 -0.4383  0.4406
 2411SOL    HW118869   0.978   1.858  16.682 -1.3604  0.2796  2.1683
 2411SOL    HW218870   1.036   1.817  16.807 -0.8325 -0.2442  0.3870
 2412SOL     OW18871   4.532   4.530   7.798  0.0771  0.5930  0.3108
 2412SOL    HW118872   4.575   4.466   7.741  0.1687  1.3254 -0.4480
 2412SOL    HW218873   4.487   4.477   7.863 -1.0596  0.2075 -0.7759
 2413SOL     OW18874   3.974   3.861   5.114 -0.4887  0.1686 -0.9482
 2413SOL    HW118875   4.018   3.795   5.061  1.9844 -0.1255  1.4518
 2413SOL    HW218876   3.929   3.922   5.056 -1.8519 -0.5528 -0.6442
 2414SOL     OW18877   0.594   1.613  12.396  0.1611 -0.0249  0.2826
 2414SOL    HW118878   0.613   1.549  12.465 -0.0815 -0.9674 -0.5313
 2414SOL    HW218879   0.511   1.649  12.426 -0.5653 -0.8710 -0.7051
 2415SOL     OW18880   3.441   3.602  12.032 -0.3217  0.5153 -0.0376
 2415SOL    HW118881   3.463   3.590  11.940 -1.3711 -1.0014 -0.0827
 2415SOL    HW218882   3.501   3.540  12.074  0.5643  1.5929  0.2933
 2416SOL     OW18883   1.408   1.010   9.383  1.0305  0.2647 -0.5334
 2416SOL    HW118884   1.353   0.987   9.309  0.1806 -1.3270  0.6017
 2416SOL    HW218885   1.443   1.095   9.354  2.2839  0.8868  2.7472
 2417SOL     OW18886   3.018   0.338   4.011  0.4184 -0.3352  0.4655
 2417SOL    HW118887   3.067   0.266   4.049 -0.6806 -0.7561  1.1063
 2417SOL    HW218888   2.932   0.322   4.051  0.6486  0.0228  1.1239
 2418SOL     OW18889   0.712   1.387   6.748 -0.4510  0.7110 -0.1865
 2418SOL    HW118890   0.743   1.327   6.815  1.3592  2.0445  0.1619
 2418SOL    HW218891   0.649   1.439   6.798  0.3313  0.3905  1.1490
 2419SOL     OW18892   2.815   2.354   5.142  0.8731  0.1921 -0.0087
 2419SOL    HW118893   2.725   2.384   5.134  0.8252  0.6320  2.1415
 2419SOL    HW218894   2.810   2.334   5.235  1.4282 -0.9072 -0.2113
 2420SOL     OW18895   0.324   3.982  11.439 -0.6417  0.2897  0.4250
 2420SOL    HW118896   0.231   3.963  11.453 -0.9359  2.1758  0.9772
 2420SOL    HW218897   0.330   4.078  11.439  2.0032  0.1326 -0.1514
 2421SOL     OW18898   2.544   3.392   6.887 -0.2165 -0.7640  0.0487
 2421SOL    HW118899   2.566   3.299   6.888  0.3900 -0.6215  0.3102
 2421SOL    HW218900   2.572   3.420   6.975  0.3417  0.7503 -0.6060
 2422SOL     OW18901   0.468   1.121  16.084 -0.0864  0.0919 -0.4982
 2422SOL    HW118902   0.520   1.064  16.028 -1.0748 -0.0892 -1.2344
 2422SOL    HW218903   0.458   1.076  16.168 -1.3406 -1.7817 -1.6470
 2423SOL     OW18904   0.966   0.391   0.119 -0.1123 -0.9912  0.0885
 2423SOL    HW118905   0.963   0.350   0.205 -0.8693 -0.9543  0.0787
 2423SOL    HW218906   0.904   0.463   0.129  0.1623 -0.6508 -0.6450
 2424SOL     OW18907   2.807   1.337  16.891 -0.4271  0.0402  0.2680
 2424SOL    HW118908   2.825   1.353  16.798 -1.3678 -0.3769  0.0044
 2424SOL    HW218909   2.889   1.337  16.939  0.0223 -1.9333 -0.5178
 2425SOL     OW18910   1.377   2.186   3.691 -0.8520  0.4815  0.6955
 2425SOL    HW118911   1.423   2.185   3.607 -0.4459  0.1401  0.9185
 2425SOL    HW218912   1.295   2.143   3.670 -0.9522  1.1575 -0.3202
 2426SOL     OW18913   3.106   0.041   2.769 -0.1908  0.1423  0.5630
 2426SOL    HW118914   3.100   4.692   2.804  0.9527 -0.3838 -0.5594
 2426SOL    HW218915   3.191   0.065   2.807  0.1108  1.4833 -0.9786
 2427SOL     OW18916   3.160   2.124   5.361  0.4092 -0.4996 -0.2615
 2427SOL    HW118917   3.176   2.162   5.274  0.7112 -1.7745 -0.7706
 2427SOL    HW218918   3.107   2.191   5.403  1.6080  0.6720 -0.6305
 2428SOL     OW18919   3.278   2.397  10.138  0.4765 -0.1724 -0.6474
 2428SOL    HW118920   3.185   2.389  10.159  0.0999 -0.7079 -2.4955
 2428SOL    HW218921   3.322   2.340  10.200  1.0826 -1.1268 -1.9668
 2429SOL     OW18922   1.130   2.045   5.296 -0.1288  0.5922 -1.4108
 2429SOL    HW118923   1.181   2.013   5.370  2.0615 -0.3521 -3.3249
 2429SOL    HW218924   1.196   2.081   5.237  0.3228  1.2936 -0.4800
 2430SOL     OW18925   4.368   1.247   7.661  0.1509  0.0582  0.5495
 2430SOL    HW118926   4.314   1.284   7.590  1.1880  0.4306 -0.0397
 2430SOL    HW218927   4.319   1.278   7.737  1.2406  4.0214 -0.3832
 2431SOL     OW18928   3.868   4.264   2.549  0.1961  0.2929  0.1825
 2431SOL    HW118929   3.824   4.258   2.634  2.9541 -2.3653  1.4244
 2431SOL    HW218930   3.796   4.316   2.512 -2.4001 -0.5854  3.9825
 2432SOL     OW18931   3.429   2.778  17.688  0.3198 -0.2893 -0.0941
 2432SOL    HW118932   3.381   2.748  17.611 -0.6225 -1.1571  0.8283
 2432SOL    HW218933   3.516   2.783  17.648  0.5634  0.7173  0.5595
 2433SOL     OW18934   2.048   4.357  17.153  0.1453 -0.3153  0.4974
 2433SOL    HW118935   2.112   4.381  17.086  0.8257  0.3816  1.3938
 2433SOL    HW218936   2.073   4.266  17.164  2.0198  0.2427  0.9268
 2434SOL     OW18937   2.992   3.008  14.520 -0.0805  0.0874 -0.3188
 2434SOL    HW118938   2.995   3.064  14.443 -0.3600 -1.0132 -1.1275
 2434SOL    HW218939   2.950   3.068  14.582  0.4107 -0.6719  0.7581
 2435SOL     OW18940   1.780   3.287  10.219  0.5929 -0.2154  0.0983
 2435SOL    HW118941   1.726   3.293  10.139  0.9341  1.8758  0.0229
 2435SOL    HW218942   1.860   3.245  10.190  2.3818  2.8800  0.5236
 2436SOL     OW18943   3.925   1.075   4.478  0.0958  0.3586  0.5381
 2436SOL    HW118944   3.964   1.053   4.394  1.2567 -1.3110  1.5092
 2436SOL    HW218945   3.889   1.162   4.468 -0.3142  0.1055 -0.1614
 2437SOL     OW18946   2.678   3.341   6.011  0.3464  0.5756  0.8128
 2437SOL    HW118947   2.658   3.412   6.073 -0.2920  0.8975  0.2403
 2437SOL    HW218948   2.612   3.281   6.047  0.6038  0.6026  1.3416
 2438SOL     OW18949   0.217   2.870  13.799 -0.9932 -0.7078  0.6465
 2438SOL    HW118950   0.253   2.953  13.769 -0.5229 -0.8387  0.8400
 2438SOL    HW218951   0.189   2.902  13.884  0.5798 -1.0545  1.3022
 2439SOL     OW18952   2.138   3.962   4.825 -0.0015  0.4001  0.2497
 2439SOL    HW118953   2.046   3.979   4.807  0.4111  0.5451 -1.6800
 2439SOL    HW218954   2.125   3.885   4.881 -2.1042  0.2578 -0.4576
 2440SOL     OW18955   4.090   0.257   7.325  0.7329 -0.4421  0.6677
 2440SOL    HW118956   4.069   0.322   7.392 -2.2378  0.8056 -1.4623
 2440SOL    HW218957   4.177   0.231   7.356  0.7991 -0.8583  0.1309
 2441SOL     OW18958   0.139   0.928  13.637  0.2427 -0.1333  0.3919
 2441SOL    HW118959   0.160   1.021  13.649  1.1372 -0.4366  1.1940
 2441SOL    HW218960   0.080   0.908  13.710  0.8848  0.7003  1.1531
 2442SOL     OW18961   1.892   2.923   4.831 -0.2645  0.1567  0.1815
 2442SOL    HW118962   1.972   2.975   4.840  0.5278 -0.7138 -1.7798
 2442SOL    HW218963   1.840   2.969   4.765  0.4479  2.2955  1.1325
 2443SOL     OW18964   2.513   2.733   0.772  0.1511  0.1273 -0.1429
 2443SOL    HW118965   2.582   2.775   0.721  1.8828 -0.7456  1.4644
 2443SOL    HW218966   2.431   2.767   0.736 -0.6420 -1.8458 -0.1830
 2444SOL     OW18967   0.493   3.944  13.155 -0.2988 -0.6852 -0.3174
 2444SOL    HW118968   0.575   3.919  13.113 -0.7339 -0.5899 -1.2307
 2444SOL    HW218969   0.490   3.893  13.236  0.0441  0.7522  0.5907
 2445SOL     OW18970   1.297   3.068   4.668  0.4924  0.3966 -0.3818
 2445SOL    HW118971   1.325   3.142   4.720  1.8370 -1.2704  1.2714
 2445SOL    HW218972   1.242   3.108   4.601 -0.5827 -2.5110 -1.2543
 2446SOL     OW18973   3.497   2.848   2.004  0.7449 -0.0576 -0.2382
 2446SOL    HW118974   3.558   2.836   1.931  0.8804  1.4135 -0.3654
 2446SOL    HW218975   3.561   2.841   2.075  0.2452 -2.1456  0.0167
 2447SOL     OW18976   3.129   0.460   2.200 -0.4854  0.5161 -0.5069
 2447SOL    HW118977   3.132   0.512   2.280 -0.5014 -1.2042  0.6007
 2447SOL    HW218978   3.048   0.488   2.158  0.2922  1.8744 -1.1350
 2448SOL     OW18979   4.540   0.757   8.858 -0.0316 -0.2811  0.2355
 2448SOL    HW118980   4.499   0.813   8.924  0.6593  1.7492 -1.0460
 2448SOL    HW218981   4.502   0.670   8.866 -0.9604  0.2355  1.4934
 2449SOL     OW18982   3.498   3.840  17.251  0.1113 -0.4171 -0.0910
 2449SOL    HW118983   3.531   3.768  17.307 -0.1229 -0.1701  0.3657
 2449SOL    HW218984   3.570   3.902  17.237  0.4301 -1.2647 -2.1811
 2450SOL     OW18985   4.459   0.115   2.102  0.5067 -0.0836  0.4406
 2450SOL    HW118986   4.434   0.190   2.046  0.6843 -0.5273 -0.2323
 2450SOL    HW218987   4.553   0.130   2.114  0.2351  1.8036  0.3134
 2451SOL     OW18988   4.115   3.942   5.973 -0.5716 -0.2105 -0.1193
 2451SOL    HW118989   4.125   3.980   5.886  2.3247  0.1982  0.4130
 2451SOL    HW218990   4.130   3.848   5.961 -0.0919 -0.2468  0.7624
 2452SOL     OW18991   2.085   3.068  11.712 -0.0380 -0.1200  0.0182
 2452SOL    HW118992   2.080   3.140  11.649 -0.2750 -0.4758 -0.3753
 2452SOL    HW218993   2.057   2.993  11.658  1.9248 -0.3932 -0.6543
 2453SOL     OW18994   4.482   1.578   5.028  0.7971 -0.3563  0.3898
 2453SOL    HW118995   4.575   1.570   5.007  1.1714  0.4839  1.7500
 2453SOL    HW218996   4.436   1.586   4.945  2.3649 -1.4756 -0.6056
 2454SOL     OW18997   4.103   0.999  12.788  0.3061  0.2774 -0.5699
 2454SOL    HW118998   4.055   1.081  12.793 -0.5911 -0.3325  0.8027
 2454SOL    HW218999   4.159   1.021  12.863  3.1494 -1.5629 -2.1471
 2455SOL     OW19000   0.511   4.258  13.378 -0.0772 -0.7541 -0.4517
 2455SOL    HW119001   0.499   4.314  13.454 -1.9336 -2.4941  0.5162
 2455SOL    HW219002   0.604   4.248  13.356 -0.2620 -0.7295 -1.2586
 2456SOL     OW19003   4.216   3.969   7.077 -0.1049  0.1801 -0.0995
 2456SOL    HW119004   4.153   3.995   7.144 -1.1625  0.0198 -1.0522
 2456SOL    HW219005   4.181   3.882   7.060  3.5952 -1.3036 -0.1688
 2457SOL     OW19006   4.093   2.327   7.165  0.0719  0.4074 -0.0029
 2457SOL    HW119007   4.007   2.287   7.154 -0.1457  0.8753 -0.0100
 2457SOL    HW219008   4.138   2.251   7.129  0.4347  1.4327 -1.7051
 2458SOL     OW19009   2.409   0.947   5.616 -0.2992 -0.8191  0.7366
 2458SOL    HW119010   2.455   0.882   5.563 -2.9489 -0.6007 -1.8108
 2458SOL    HW219011   2.336   0.966   5.557  0.5741  1.8542  0.5400
 2459SOL     OW19012   0.447   2.795   2.481  0.1763  0.2548 -0.1411
 2459SOL    HW119013   0.510   2.864   2.503  0.7338  0.3431 -2.0284
 2459SOL    HW219014   0.505   2.723   2.458 -0.2726 -0.0042 -0.4528
 2460SOL     OW19015   1.480   4.173   7.195 -0.9311 -0.0756 -0.2367
 2460SOL    HW119016   1.528   4.091   7.183  0.1148  0.8434 -2.4158
 2460SOL    HW219017   1.528   4.222   7.129  0.8897 -1.2021  0.2314
 2461SOL     OW19018   4.074   2.308  11.692  0.4779 -0.0476  0.0078
 2461SOL    HW119019   4.023   2.309  11.773 -1.8512 -2.6926 -1.4439
 2461SOL    HW219020   4.122   2.225  11.692 -0.7300 -0.7164 -4.4287
 2462SOL     OW19021   0.740   3.887  13.088  0.2197 -0.5510  0.2318
 2462SOL    HW119022   0.775   3.927  13.168  1.3159  0.9301 -0.9825
 2462SOL    HW219023   0.806   3.909  13.023  0.8689  1.4891  1.5795
 2463SOL     OW19024   3.732   2.182   8.743  0.4852  0.8383 -0.3650
 2463SOL    HW119025   3.713   2.185   8.837  1.3816 -0.7707 -0.1285
 2463SOL    HW219026   3.745   2.089   8.723 -0.2123 -0.0930  3.3967
 2464SOL     OW19027   4.340   0.351  17.360 -0.2373 -0.1096  0.3602
 2464SOL    HW119028   4.378   0.434  17.389 -0.5044  0.1894 -0.1588
 2464SOL    HW219029   4.341   0.349  17.265 -0.5049  0.1429  0.3519
 2465SOL     OW19030   1.633   0.239   5.739 -0.7776  0.0896 -0.6512
 2465SOL    HW119031   1.675   0.325   5.740 -1.6973  0.5245  1.4736
 2465SOL    HW219032   1.696   0.182   5.695 -1.2838 -0.2944 -0.8919
 2466SOL     OW19033   1.000   0.709   5.309  0.1175 -0.2215  0.1096
 2466SOL    HW119034   0.930   0.745   5.255 -0.9530 -1.7487  0.4735
 2466SOL    HW219035   1.009   0.772   5.381  2.3944  0.4778 -0.7672
 2467SOL     OW19036   0.398   4.070   9.723 -0.0170 -0.1136  0.0989
 2467SOL    HW119037   0.482   4.026   9.718  0.3636  0.8147 -1.9236
 2467SOL    HW219038   0.344   3.995   9.749 -0.1089  0.7941  2.4503
 2468SOL     OW19039   0.181   1.685   8.811 -0.3197  0.3739  0.0341
 2468SOL    HW119040   0.215   1.595   8.808 -0.4296  0.2975  1.5628
 2468SOL    HW219041   0.250   1.734   8.855  0.0868 -0.1878  0.0276
 2469SOL     OW19042   2.366   2.583   3.118  0.3975  0.0423 -0.5361
 2469SOL    HW119043   2.271   2.595   3.116  0.0943 -2.1579  0.5355
 2469SOL    HW219044   2.362   2.488   3.132  0.3217  0.0327 -0.6209
 2470SOL     OW19045   4.561   2.979   3.470  0.5325 -0.1315  0.1576
 2470SOL    HW119046   4.522   2.892   3.474 -1.6181  0.7731 -1.3312
 2470SOL    HW219047   4.513   3.008   3.392 -2.1236 -2.7917  0.7882
 2471SOL     OW19048   3.861   2.527   8.345 -0.0727 -0.5989 -0.4948
 2471SOL    HW119049   3.924   2.457   8.364  0.4671 -0.2814 -1.1203
 2471SOL    HW219050   3.911   2.607   8.358 -1.2835 -0.2433  1.9457
 2472SOL     OW19051   4.531   3.170   6.702 -0.1487  0.2007 -0.2750
 2472SOL    HW119052   4.544   3.080   6.671  0.6471  0.1041  0.3612
 2472SOL    HW219053   4.481   3.213   6.632 -3.7441  0.0125  2.1759
 2473SOL     OW19054   0.221   2.560  12.238 -0.1314  0.1178 -0.3231
 2473SOL    HW119055   0.133   2.523  12.225 -0.2001 -0.3388  1.4892
 2473SOL    HW219056   0.231   2.593  12.148  0.9686  0.2312 -0.1561
 2474SOL     OW19057   1.881   2.215   2.458  0.3199  0.2119 -0.0338
 2474SOL    HW119058   1.821   2.190   2.529 -1.9221  1.5403 -1.4799
 2474SOL    HW219059   1.824   2.211   2.381 -0.7104 -0.6935  0.7667
 2475SOL     OW19060   1.104   1.462   6.850  0.1517  0.1208  0.2538
 2475SOL    HW119061   1.130   1.542   6.895  3.5838  0.0157 -1.5374
 2475SOL    HW219062   1.126   1.405   6.923 -0.5632  0.0897  0.4511
 2476SOL     OW19063   2.451   1.495   8.712 -0.1553 -0.3100 -0.4796
 2476SOL    HW119064   2.365   1.455   8.699 -0.1668 -0.7519  0.9791
 2476SOL    HW219065   2.504   1.418   8.731  1.1223  0.4847 -0.8600
 2477SOL     OW19066   0.017   3.955   0.168  0.4556 -0.9720 -0.1221
 2477SOL    HW119067   4.714   3.974   0.084  3.1667 -5.1149 -2.4357
 2477SOL    HW219068   0.056   3.869   0.156  2.8056  0.6010 -3.7572
 2478SOL     OW19069   1.131   4.702  14.069  0.3873  0.2940  0.4476
 2478SOL    HW119070   1.172   4.734  13.989  3.2665 -0.5047  1.6084
 2478SOL    HW219071   1.162   4.611  14.065 -1.1995 -0.2174 -0.2276
 2479SOL     OW19072   3.863   2.581   4.147 -0.2473  0.4539 -0.4539
 2479SOL    HW119073   3.768   2.575   4.152 -0.1043  0.0002  1.7106
 2479SOL    HW219074   3.896   2.491   4.141  0.1048  0.6244 -1.1997
 2480SOL     OW19075   0.853   0.566   5.636  0.4747 -0.3127 -0.1708
 2480SOL    HW119076   0.822   0.531   5.553 -2.4640  2.3533 -0.2349
 2480SOL    HW219077   0.941   0.589   5.607  0.7560 -1.5665 -0.2869
 2481SOL     OW19078   1.939   3.171   7.895  0.2573 -0.1832  0.5057
 2481SOL    HW119079   2.012   3.125   7.935 -0.3048 -1.0847  0.4997
 2481SOL    HW219080   1.955   3.171   7.801 -0.5991 -3.0263  0.3621
 2482SOL     OW19081   0.565   3.346  13.437  0.5063  0.1650  0.2233
 2482SOL    HW119082   0.653   3.322  13.468  0.8388  0.6995 -0.2957
 2482SOL    HW219083   0.560   3.439  13.458 -0.8657 -0.0444  0.7740
 2483SOL     OW19084   3.886   3.254  10.619 -0.1184  0.3256  0.3287
 2483SOL    HW119085   3.917   3.229  10.706  2.0246 -0.0740 -0.5477
 2483SOL    HW219086   3.950   3.201  10.572 -1.1130 -1.3033  0.8392
 2484SOL     OW19087   4.275   1.199   6.233  0.0993 -0.1461  0.0956
 2484SOL    HW119088   4.189   1.231   6.261  0.5313  0.7544  0.4205
 2484SOL    HW219089   4.258   1.176   6.142 -2.0225 -0.3784  0.5659
 2485SOL     OW19090   0.317   0.306  16.337  0.5628  0.0173 -0.8201
 2485SOL    HW119091   0.411   0.312  16.322  1.1926 -1.9319  2.2340
 2485SOL    HW219092   0.293   0.240  16.272 -2.6864  0.8753 -0.4790
 2486SOL     OW19093   2.903   1.471   7.314 -0.1107 -0.6266 -0.5711
 2486SOL    HW119094   2.995   1.460   7.335 -1.2184  0.2082  4.6803
 2486SOL    HW219095   2.901   1.442   7.223  0.5244 -1.6897 -0.2387
 2487SOL     OW19096   0.744   3.218  10.029  0.4835  0.3201  0.3568
 2487SOL    HW119097   0.738   3.311  10.008 -2.3607 -0.1101 -0.7566
 2487SOL    HW219098   0.781   3.171   9.954 -2.4417 -0.6951 -0.4432
 2488SOL     OW19099   0.057   0.968  10.779  0.1721  0.1161 -0.0777
 2488SOL    HW119100   0.112   0.891  10.765 -0.5155  0.4654 -4.6371
 2488SOL    HW219101   0.029   0.979  10.689  2.5815  0.4485 -0.7994
 2489SOL     OW19102   1.342   3.788   4.317  0.4535 -0.7078  0.4172
 2489SOL    HW119103   1.342   3.878   4.350  1.1057 -0.3947 -0.4445
 2489SOL    HW219104   1.321   3.810   4.226 -1.9373  0.2411  1.1687
 2490SOL     OW19105   2.565   3.169   5.747  0.3360  0.7538 -0.3636
 2490SOL    HW119106   2.604   3.124   5.822 -1.0917 -2.9753 -1.8064
 2490SOL    HW219107   2.539   3.254   5.781 -1.8229  0.9044 -2.3724
 2491SOL     OW19108   3.149   4.305   9.033 -0.0662 -0.5520  0.0587
 2491SOL    HW119109   3.213   4.262   9.089  0.2300  1.9966  1.6773
 2491SOL    HW219110   3.064   4.279   9.067 -0.4046  0.6878  0.1587
 2492SOL     OW19111   2.336   1.810   4.111  0.3741  0.5140  0.0374
 2492SOL    HW119112   2.328   1.856   4.194 -0.5196 -1.3081  0.9612
 2492SOL    HW219113   2.275   1.865   4.062 -0.6830  1.8729  2.8809
 2493SOL     OW19114   3.173   2.563  16.195 -0.3770 -0.2744  0.2363
 2493SOL    HW119115   3.100   2.618  16.222 -0.5283 -1.4350  2.2028
 2493SOL    HW219116   3.205   2.530  16.280 -0.3527  0.3993  0.4854
 2494SOL     OW19117   0.920   1.275   8.303  0.4139  0.3302  0.0474
 2494SOL    HW119118   0.954   1.268   8.393  0.0986  2.0001  0.3071
 2494SOL    HW219119   0.992   1.321   8.259  1.2946 -1.7532 -0.6703
 2495SOL     OW19120   1.348   2.326   4.570  0.4573  0.0391  0.3398
 2495SOL    HW119121   1.409   2.270   4.619  1.6592  2.0845  1.2006
 2495SOL    HW219122   1.282   2.341   4.638  2.8722 -2.0250  3.1605
 2496SOL     OW19123   3.265   1.943   8.004  0.7840  0.1250  0.1893
 2496SOL    HW119124   3.280   1.905   7.918 -2.0974  0.2223 -0.3446
 2496SOL    HW219125   3.202   1.884   8.044  0.2260 -0.3004 -1.3264
 2497SOL     OW19126   3.239   0.600   4.431  0.2280 -0.6357  0.4903
 2497SOL    HW119127   3.309   0.645   4.478  0.3246  0.0004 -0.2670
 2497SOL    HW219128   3.268   0.508   4.435  1.2745 -0.2734  1.0760
 2498SOL     OW19129   0.284   3.317   1.804 -0.5750  0.3270  0.1819
 2498SOL    HW119130   0.313   3.236   1.761  1.4941  2.5254 -2.4992
 2498SOL    HW219131   0.190   3.302   1.812 -0.9697  1.5394 -2.3133
 2499SOL     OW19132   4.627   0.290  17.176 -0.2346 -0.5352 -0.1520
 2499SOL    HW119133   4.569   0.343  17.121  0.6020 -0.7300 -1.2448
 2499SOL    HW219134   4.663   0.354  17.237 -0.2013 -0.1030 -0.6177
 2500SOL     OW19135   2.064   2.073   8.151  0.3707 -0.4211  0.0394
 2500SOL    HW119136   1.981   2.036   8.182  0.0835  1.7773  1.8865
 2500SOL    HW219137   2.045   2.063   8.057 -0.0665 -1.4106  0.2386
 2501SOL     OW19138   1.852   4.088  12.641  0.1972  0.4695 -0.2702
 2501SOL    HW119139   1.798   4.010  12.658  2.0805 -0.7125  0.2559
 2501SOL    HW219140   1.888   4.110  12.727 -2.4224  0.0740  0.9400
 2502SOL     OW19141   4.267   2.909   6.761 -0.2538  0.2084 -0.3431
 2502SOL    HW119142   4.283   2.844   6.692 -0.7731  2.1834 -2.3151
 2502SOL    HW219143   4.288   2.864   6.844 -2.5685  0.3154  0.2916
 2503SOL     OW19144   0.426   3.726   1.460 -0.1071  0.4569 -0.0140
 2503SOL    HW119145   0.354   3.731   1.397  0.6723  0.1709 -0.9182
 2503SOL    HW219146   0.395   3.676   1.535 -3.3916  2.8432  0.2182
 2504SOL     OW19147   3.869   4.359  13.579  0.0196 -0.2415 -0.0656
 2504SOL    HW119148   3.863   4.447  13.543 -0.1393  0.2319  1.1313
 2504SOL    HW219149   3.965   4.355  13.581 -0.0162 -0.6849  1.1429
 2505SOL     OW19150   2.894   0.354   4.419 -0.2808 -0.2675  0.0099
 2505SOL    HW119151   2.964   0.361   4.484 -0.7306 -0.6044  0.5328
 2505SOL    HW219152   2.882   0.444   4.389 -0.9949 -1.0053 -1.9141
 2506SOL     OW19153   2.550   2.060  12.559  0.6010 -0.3507 -0.3905
 2506SOL    HW119154   2.641   2.049  12.588  0.7910  0.2360 -0.7709
 2506SOL    HW219155   2.574   2.074  12.467 -0.7758 -1.9409 -0.9970
 2507SOL     OW19156   0.755   0.846   4.792 -0.0709 -0.2450  0.1315
 2507SOL    HW119157   0.689   0.909   4.819  0.0041 -1.1949  2.5988
 2507SOL    HW219158   0.808   0.905   4.738  0.1429 -1.0757 -0.5661
 2508SOL     OW19159   0.148   3.817  12.957  0.2959 -0.0772 -0.1938
 2508SOL    HW119160   0.066   3.809  13.007 -0.3589 -1.3373 -1.4488
 2508SOL    HW219161   0.190   3.890  13.002 -2.1490  1.3657 -0.2503
 2509SOL     OW19162   1.837   0.634   1.658 -0.5946  0.8423  0.2322
 2509SOL    HW119163   1.794   0.688   1.723 -0.1943  1.2395  0.1667
 2509SOL    HW219164   1.927   0.636   1.690 -0.1819 -0.0938 -0.8440
 2510SOL     OW19165   1.467   0.281   9.217  1.0363  0.6116  0.2673
 2510SOL    HW119166   1.502   0.200   9.178  1.3500  1.5754 -1.4241
 2510SOL    HW219167   1.506   0.279   9.305 -0.9411 -2.6825  1.0917
 2511SOL     OW19168   2.381   1.588  13.003 -0.9083  0.8118  0.4389
 2511SOL    HW119169   2.347   1.546  12.924 -0.0135  1.1056 -0.1035
 2511SOL    HW219170   2.447   1.521  13.020 -1.8357 -0.2383 -0.0697
 2512SOL     OW19171   4.393   2.717  13.525  0.2509  0.3885 -0.3244
 2512SOL    HW119172   4.444   2.691  13.601  1.1138 -1.7402 -1.6435
 2512SOL    HW219173   4.373   2.809  13.543  0.0860  0.0913  1.0448
 2513SOL     OW19174   2.876   2.551   8.101  0.2453 -0.3478  0.0802
 2513SOL    HW119175   2.965   2.583   8.115  0.8490 -1.3646 -1.4024
 2513SOL    HW219176   2.824   2.618   8.145  0.5845 -0.0793  0.0694
 2514SOL     OW19177   3.009   3.856   9.516 -0.7579 -0.3963 -0.1746
 2514SOL    HW119178   3.081   3.797   9.490 -0.7100 -1.5046  2.4490
 2514SOL    HW219179   3.051   3.937   9.489  3.4291 -2.8235 -1.0370
 2515SOL     OW19180   0.429   2.593   2.708 -0.2147 -0.0393 -0.0126
 2515SOL    HW119181   0.375   2.616   2.633 -1.9653  0.1704  1.3183
 2515SOL    HW219182   0.373   2.625   2.778 -0.0995 -2.6856  1.2858
 2516SOL     OW19183   1.598   3.144   9.015  0.5334 -0.0841  0.7790
 2516SOL    HW119184   1.538   3.069   9.015  1.9411 -1.2042  0.4860
 2516SOL    HW219185   1.532   3.212   9.001  1.3540  0.4999 -0.1919
 2517SOL     OW19186   3.172   2.849   8.928 -0.2134 -0.3099  0.2188
 2517SOL    HW119187   3.110   2.826   8.997 -0.0092  1.1679  0.8983
 2517SOL    HW219188   3.139   2.796   8.856 -0.2704  1.5567 -1.1466
 2518SOL     OW19189   2.000   2.626   2.670  0.0942 -0.0745 -0.5666
 2518SOL    HW119190   1.908   2.601   2.671  0.4864 -1.2153  4.2656
 2518SOL    HW219191   1.994   2.716   2.638 -2.0440  0.4606  1.3025
 2519SOL     OW19192   1.817   0.313  11.924  0.1725 -0.3359  0.8276
 2519SOL    HW119193   1.896   0.355  11.959 -0.3438  1.0543  0.3230
 2519SOL    HW219194   1.769   0.310  12.007 -0.1035 -0.2261  0.6711
 2520SOL     OW19195   2.770   1.866   8.430  0.3835  0.0170  0.7201
 2520SOL    HW119196   2.720   1.812   8.369  2.4876 -0.9517 -0.1660
 2520SOL    HW219197   2.805   1.794   8.482 -0.4398  0.4445  1.8494
 2521SOL     OW19198   1.399   4.169   8.374 -0.3196 -0.6219  0.1158
 2521SOL    HW119199   1.469   4.150   8.311  0.5871 -0.4043  1.0485
 2521SOL    HW219200   1.344   4.092   8.357 -1.3248  0.6650 -2.3920
 2522SOL     OW19201   2.020   2.621   1.296 -0.4385  0.2994 -0.0961
 2522SOL    HW119202   2.039   2.627   1.203  0.4613 -0.1709  0.0607
 2522SOL    HW219203   2.033   2.527   1.306  0.2524  0.3816 -0.2272
 2523SOL     OW19204   2.590   0.320   6.186 -0.0080 -0.1519 -0.1954
 2523SOL    HW119205   2.505   0.360   6.206 -0.2678 -0.4348 -0.7522
 2523SOL    HW219206   2.614   0.389   6.124 -0.9780  0.0675 -0.3197
 2524SOL     OW19207   2.980   4.653   1.930 -0.3668 -0.2467 -0.2519
 2524SOL    HW119208   3.059   4.646   1.876 -0.9476 -0.5908 -1.0606
 2524SOL    HW219209   2.982   0.007   1.947  1.0975 -0.5387  1.1486
 2525SOL     OW19210   3.962   0.643  13.560 -0.2283 -0.6728 -0.4137
 2525SOL    HW119211   4.030   0.704  13.592  0.0831 -0.4129 -1.5858
 2525SOL    HW219212   4.020   0.587  13.509  0.5281 -1.0266  0.8424
 2526SOL     OW19213   0.984   3.578  10.800  0.3532  0.0723  0.4048
 2526SOL    HW119214   0.989   3.556  10.893  1.2303 -1.2424  0.0406
 2526SOL    HW219215   1.078   3.584  10.782 -0.1167 -0.0456 -2.0083
 2527SOL     OW19216   4.057   3.049  14.717  0.2392 -0.3944 -0.8479
 2527SOL    HW119217   4.050   2.960  14.753 -0.6195 -0.7584 -1.9083
 2527SOL    HW219218   4.139   3.042  14.669  1.5833  2.9710  0.9524
 2528SOL     OW19219   4.356   3.163   4.573  0.0754  0.4860  0.4357
 2528SOL    HW119220   4.421   3.201   4.632 -1.1392 -0.6052  2.4921
 2528SOL    HW219221   4.295   3.235   4.554 -0.8283 -0.4455 -0.2146
 2529SOL     OW19222   1.216   1.405  12.822  0.0438  0.2366 -0.1953
 2529SOL    HW119223   1.131   1.448  12.819  0.2596  0.3968 -3.5877
 2529SOL    HW219224   1.194   1.343  12.892  0.8824 -1.0429 -1.0721
 2530SOL     OW19225   1.835   0.755  16.476  0.4326  0.3177 -0.0250
 2530SOL    HW119226   1.792   0.824  16.426  0.7721 -0.5545 -1.5391
 2530SOL    HW219227   1.786   0.682  16.436 -0.9234  1.0549  0.2899
 2531SOL     OW19228   3.058   2.964   6.753 -0.0437 -0.9135  0.5647
 2531SOL    HW119229   3.058   2.871   6.732 -1.7877 -0.1698 -2.6559
 2531SOL    HW219230   3.098   2.953   6.840 -0.9728 -0.5950  1.0320
 2532SOL     OW19231   4.175   1.175   5.984 -0.1397 -0.4517  0.0824
 2532SOL    HW119232   4.130   1.103   5.942 -0.1012 -0.7940  0.6215
 2532SOL    HW219233   4.133   1.253   5.948  0.7258  0.0507  0.1593
 2533SOL     OW19234   4.665   0.827   4.242  0.1285 -0.1766 -0.0050
 2533SOL    HW119235   4.585   0.789   4.276  0.3046  2.3019  3.1229
 2533SOL    HW219236   4.630   0.890   4.179 -1.6460  0.0896  1.2531
 2534SOL     OW19237   2.631   3.446   9.392 -0.0007  0.6889 -0.2719
 2534SOL    HW119238   2.665   3.357   9.381 -1.5960 -0.0318  0.6573
 2534SOL    HW219239   2.578   3.460   9.313 -2.3872  0.7597  1.3637
 2535SOL     OW19240   2.850   0.336   3.778  0.1385  0.1220 -0.1651
 2535SOL    HW119241   2.879   0.355   3.688  1.1791 -0.6455  0.0085
 2535SOL    HW219242   2.885   0.408   3.831 -0.3607 -0.5992  1.1473
 2536SOL     OW19243   3.794   4.379   4.409 -0.0207  0.2159  0.6853
 2536SOL    HW119244   3.864   4.339   4.359  0.5574  1.3963  0.5415
 2536SOL    HW219245   3.837   4.368   4.494  0.5967  0.7770  0.4447
 2537SOL     OW19246   0.879   2.198  17.461  0.1917  0.1063  0.1878
 2537SOL    HW119247   0.923   2.264  17.515 -0.9134 -0.3024  1.5907
 2537SOL    HW219248   0.953   2.157  17.416  0.3653  1.5178 -0.8065
 2538SOL     OW19249   1.954   0.237   1.577 -0.2634  0.5433  0.1924
 2538SOL    HW119250   2.014   0.171   1.542 -0.6622  0.4215 -0.2598
 2538SOL    HW219251   1.900   0.186   1.638 -1.7864  1.3556 -0.4900
 2539SOL     OW19252   1.720   0.746   5.120  0.3682 -0.3558  0.1868
 2539SOL    HW119253   1.709   0.735   5.025 -0.5917 -0.1093  0.2725
 2539SOL    HW219254   1.691   0.836   5.130 -0.1504 -0.2024 -2.6431
 2540SOL     OW19255   1.565   3.117   1.982 -0.2346  0.6722 -0.5557
 2540SOL    HW119256   1.607   3.191   2.026 -1.9663  0.8567  0.7910
 2540SOL    HW219257   1.612   3.129   1.899  1.9840 -1.7184  0.3616
 2541SOL     OW19258   2.180   4.677   7.530  0.6420  0.7383 -1.0249
 2541SOL    HW119259   2.127   0.013   7.556  2.2328  1.7528 -0.7651
 2541SOL    HW219260   2.245   4.676   7.601  1.9272 -0.5611 -2.2240
 2542SOL     OW19261   1.115   0.531   1.670 -0.1073  0.3006  0.0267
 2542SOL    HW119262   1.129   0.437   1.671 -0.5932  0.3215  4.7992
 2542SOL    HW219263   1.194   0.565   1.713 -0.2646 -1.0197  1.3298
 2543SOL     OW19264   4.565   2.312  10.534 -0.1826 -0.4333 -0.2531
 2543SOL    HW119265   4.532   2.354  10.614 -0.7169 -0.6381 -0.3670
 2543SOL    HW219266   4.627   2.254  10.579  0.4615 -0.6613 -1.4340
 2544SOL     OW19267   3.968   2.172  16.573  0.3959  0.3440 -0.2113
 2544SOL    HW119268   4.034   2.121  16.528  0.8293  2.3567 -1.8415
 2544SOL    HW219269   3.914   2.096  16.596  0.9821  0.0496  0.1771
 2545SOL     OW19270   3.915   4.257   6.036  0.1944  0.1075 -0.1774
 2545SOL    HW119271   3.859   4.185   6.004  0.4359  0.6784 -1.9093
 2545SOL    HW219272   3.885   4.280   6.124  0.5904  0.8425 -0.2342
 2546SOL     OW19273   3.328   2.632   7.291  0.4257  0.0193  0.2584
 2546SOL    HW119274   3.421   2.629   7.267  1.4536  1.2405  3.9996
 2546SOL    HW219275   3.311   2.726   7.292 -2.1036 -0.4832  2.4472
 2547SOL     OW19276   1.920   3.568  16.770 -0.8631  0.4568  0.5393
 2547SOL    HW119277   1.833   3.604  16.787 -1.6032 -0.7419 -0.7223
 2547SOL    HW219278   1.953   3.603  16.688 -3.4476  2.0735  0.2045
 2548SOL     OW19279   1.041   0.747  17.455 -0.0332 -0.3627 -0.1948
 2548SOL    HW119280   1.056   0.674  17.395 -0.9483 -0.3269 -0.4666
 2548SOL    HW219281   1.108   0.805  17.419  0.7859 -0.8892  0.4564
 2549SOL     OW19282   4.268   3.082   7.249 -0.2822  0.1132 -0.1018
 2549SOL    HW119283   4.316   3.143   7.192  1.2781 -3.4540 -2.6089
 2549SOL    HW219284   4.340   3.042   7.297 -0.6207  0.5451  0.7595
 2550SOL     OW19285   1.862   3.482  11.765  1.0486  0.0851  0.0665
 2550SOL    HW119286   1.824   3.418  11.706  3.4878  0.8564 -2.3060
 2550SOL    HW219287   1.888   3.546  11.699  1.6285  0.0559  0.2606
 2551SOL     OW19288   2.316   0.826   4.469 -0.4689  0.3124 -0.1550
 2551SOL    HW119289   2.240   0.857   4.421 -0.8392  1.5302  1.2105
 2551SOL    HW219290   2.341   0.913   4.500  0.0332  0.1090  0.0128
 2552SOL     OW19291   3.940   2.897   5.073 -0.1278  0.3335  0.0171
 2552SOL    HW119292   3.982   2.836   5.012 -0.1541  0.6233 -0.2882
 2552SOL    HW219293   3.905   2.953   5.005 -1.7627  0.1600  0.7209
 2553SOL     OW19294   0.763   0.614   1.942  0.0298 -0.0971  0.2223
 2553SOL    HW119295   0.728   0.651   2.023 -0.2162 -0.8822  0.4805
 2553SOL    HW219296   0.836   0.672   1.922 -0.1597  0.3115  0.7315
 2554SOL     OW19297   4.407   0.493   9.705  0.1539 -0.5348 -0.4324
 2554SOL    HW119298   4.479   0.504   9.768  0.4918 -1.2381 -0.6995
 2554SOL    HW219299   4.374   0.583   9.697  0.5374 -0.2353  1.2463
 2555SOL     OW19300   1.542   0.650   6.538  0.6264  0.5114  0.5161
 2555SOL    HW119301   1.481   0.715   6.573 -1.1446  1.2918 -4.0437
 2555SOL    HW219302   1.486   0.619   6.467  2.8124  0.6002 -1.2629
 2556SOL     OW19303   0.976   2.745   5.743  0.1908  0.4755  0.1140
 2556SOL    HW119304   0.885   2.735   5.772  0.0602  1.5492  0.0918
 2556SOL    HW219305   1.006   2.656   5.760 -0.1775  0.3220 -0.0398
 2557SOL     OW19306   3.446   1.401   9.160  0.0206  0.4375  0.3249
 2557SOL    HW119307   3.503   1.347   9.214 -0.0649  2.5184  2.4936
 2557SOL    HW219308   3.443   1.357   9.075  0.6882  1.1250 -0.0556
 2558SOL     OW19309   3.773   1.524   7.208  0.4844  0.2060  0.0142
 2558SOL    HW119310   3.708   1.583   7.169 -0.5357  0.1259  1.6271
 2558SOL    HW219311   3.726   1.474   7.274  0.8463 -0.0687  0.0692
 2559SOL     OW19312   3.352   1.702   4.606  0.2280  0.1481 -0.5542
 2559SOL    HW119313   3.314   1.786   4.581 -1.0401 -1.2853 -3.4361
 2559SOL    HW219314   3.442   1.708   4.576  0.8761  1.3640  1.6164
 2560SOL     OW19315   2.684   3.043   6.507 -0.2857 -0.3568 -0.1618
 2560SOL    HW119316   2.733   2.961   6.498  2.3290  0.9764  2.1336
 2560SOL    HW219317   2.693   3.056   6.601 -0.2715 -2.1004  0.0758
 2561SOL     OW19318   3.635   0.552  17.687 -0.2821 -0.5311  0.5300
 2561SOL    HW119319   3.588   0.485  17.638 -2.0221  1.9264 -1.1451
 2561SOL    HW219320   3.704   0.494  17.718  1.2716  1.0522  0.0288
 2562SOL     OW19321   2.823   4.186  16.187  0.3559  0.4503  0.2107
 2562SOL    HW119322   2.886   4.242  16.140  1.3783  0.5264  1.6542
 2562SOL    HW219323   2.840   4.214  16.277  1.3923 -1.7872  0.6873
 2563SOL     OW19324   4.577   1.642   3.152  0.2058  0.2655  0.4007
 2563SOL    HW119325   4.552   1.656   3.243  1.7031  0.5221  0.7790
 2563SOL    HW219326   4.672   1.638   3.163  0.0315  0.2536  1.8528
 2564SOL     OW19327   3.644   0.250  12.575  0.1936 -0.1318 -0.1428
 2564SOL    HW119328   3.562   0.293  12.548  0.6250  0.6220 -0.2627
 2564SOL    HW219329   3.625   0.237  12.668 -0.0899  0.2366 -0.1471
 2565SOL     OW19330   2.168   1.101  17.358  0.1219  0.1141 -0.3166
 2565SOL    HW119331   2.098   1.045  17.391 -0.1187  0.6374  0.0690
 2565SOL    HW219332   2.155   1.176  17.417  0.8877 -0.1329  0.1618
 2566SOL     OW19333   2.399   2.396   4.529  0.0468 -0.2957 -0.2344
 2566SOL    HW119334   2.464   2.336   4.493 -0.2605  0.2975 -1.7572
 2566SOL    HW219335   2.373   2.422   4.441  0.5851  2.8738  0.5434
 2567SOL     OW19336   1.159   1.842   4.945 -0.1130  0.1685 -0.2753
 2567SOL    HW119337   1.223   1.866   5.012 -0.7064 -0.2998  0.4580
 2567SOL    HW219338   1.210   1.787   4.885  0.4708  1.2488 -0.7619
 2568SOL     OW19339   0.876   4.439   9.203  0.1981  0.1399  0.3697
 2568SOL    HW119340   0.861   4.356   9.157 -0.3380 -0.7549  2.1280
 2568SOL    HW219341   0.798   4.489   9.181  0.8979  0.5013 -1.3096
 2569SOL     OW19342   1.622   1.064   3.480  0.0472 -0.2412  0.1819
 2569SOL    HW119343   1.620   0.973   3.510 -1.5463  0.1331  1.2443
 2569SOL    HW219344   1.714   1.085   3.493  0.9201 -4.0916  0.1973
 2570SOL     OW19345   4.222   2.734   6.011 -0.0339 -0.2161 -0.0999
 2570SOL    HW119346   4.182   2.821   6.017 -1.1228 -0.6596 -0.9706
 2570SOL    HW219347   4.215   2.722   5.916  0.2869 -0.3470 -0.1071
 2571SOL     OW19348   4.106   0.707  12.447  0.1052  0.5482 -0.0191
 2571SOL    HW119349   4.127   0.746  12.362 -1.4915 -1.0291 -1.1582
 2571SOL    HW219350   4.012   0.689  12.448 -0.0772  1.4802 -1.0543
 2572SOL     OW19351   4.687   4.226   5.255 -0.1924  0.2896 -0.1494
 2572SOL    HW119352   0.042   4.221   5.242  0.0350  1.3683  1.0756
 2572SOL    HW219353   4.688   4.315   5.291 -2.9484  1.7759 -3.7428
 2573SOL     OW19354   2.681   3.653  12.851  0.4796 -0.4395 -0.6047
 2573SOL    HW119355   2.608   3.704  12.817  1.2804  1.6986  0.8775
 2573SOL    HW219356   2.688   3.586  12.783 -0.7238  0.0098 -1.1574
 2574SOL     OW19357   4.336   4.737  11.011  0.2869 -0.0396 -0.0500
 2574SOL    HW119358   4.308   4.646  11.017  0.8513 -0.1761  0.4026
 2574SOL    HW219359   4.261   0.050  10.982  1.8724  0.1489 -3.8548
 2575SOL     OW19360   3.181   0.824   4.123 -0.6461  0.5546  0.2903
 2575SOL    HW119361   3.263   0.868   4.147 -0.9329  1.0876  0.2897
 2575SOL    HW219362   3.206   0.732   4.120 -2.0079  0.1984 -0.1212
 2576SOL     OW19363   0.771   3.550   8.074  0.8514 -0.3863 -0.3098
 2576SOL    HW119364   0.847   3.598   8.106  0.4347  1.6333 -2.3365
 2576SOL    HW219365   0.709   3.564   8.146  1.7447  1.1655  0.1613
 2577SOL     OW19366   3.548   2.290   3.407  0.2469  0.3926  0.0039
 2577SOL    HW119367   3.522   2.198   3.406  0.5409  0.3217 -1.3921
 2577SOL    HW219368   3.542   2.329   3.494  0.3814 -2.1651  1.1485
 2578SOL     OW19369   1.489   0.655   2.470  0.1689  0.2083  0.0885
 2578SOL    HW119370   1.416   0.697   2.516 -1.6795 -1.0323 -1.7203
 2578SOL    HW219371   1.545   0.732   2.475  0.7085 -0.1196 -0.9555
 2579SOL     OW19372   1.436   1.698   4.925  0.2383 -0.6101 -0.4222
 2579SOL    HW119373   1.436   1.603   4.930 -0.8868 -0.5286  1.0880
 2579SOL    HW219374   1.434   1.714   5.019  1.9476  0.7936 -0.6223
 2580SOL     OW19375   0.938   3.302  16.942  0.0667 -0.1372 -0.3290
 2580SOL    HW119376   0.937   3.208  16.963  0.1231  0.1594  1.0019
 2580SOL    HW219377   0.982   3.342  17.017  0.5388 -0.4353 -0.4430
 2581SOL     OW19378   3.308   1.800   2.198 -0.1529 -0.0960  0.2701
 2581SOL    HW119379   3.358   1.738   2.144 -0.4985  0.5656 -0.7973
 2581SOL    HW219380   3.380   1.841   2.245  0.0544  0.9133 -0.9297
 2582SOL     OW19381   1.118   0.124   4.438  0.1886  0.4358 -0.0895
 2582SOL    HW119382   1.139   0.088   4.524 -0.6932 -2.6827 -1.1900
 2582SOL    HW219383   1.102   0.217   4.453  1.4190  0.3398  1.7752
 2583SOL     OW19384   4.193   4.024   4.896 -0.2461 -0.1179 -0.4372
 2583SOL    HW119385   4.200   3.941   4.850  1.6975 -0.1292 -0.0905
 2583SOL    HW219386   4.098   4.034   4.908  0.1291 -0.4003  2.8547
 2584SOL     OW19387   0.268   1.194  11.648 -0.2216  0.5071 -0.1708
 2584SOL    HW119388   0.245   1.249  11.573  0.0024  2.1310  0.9393
 2584SOL    HW219389   0.288   1.107  11.614 -2.2911 -0.4371  1.0160
 2585SOL     OW19390   2.626   0.936   2.643 -0.2236 -0.0374 -0.5290
 2585SOL    HW119391   2.561   0.986   2.692 -1.0008 -1.3529 -0.2266
 2585SOL    HW219392   2.703   0.942   2.700 -0.4292 -0.9770 -0.1621
 2586SOL     OW19393   0.684   0.246  14.499 -0.2173 -0.1012 -0.2240
 2586SOL    HW119394   0.754   0.218  14.440 -0.6566  0.1703 -0.8674
 2586SOL    HW219395   0.747   0.281  14.562 -0.5952  2.0377 -1.0536
 2587SOL     OW19396   3.597   1.579  12.754  0.1128 -0.4157 -0.2160
 2587SOL    HW119397   3.561   1.513  12.695  1.4190 -1.8566  0.6017
 2587SOL    HW219398   3.574   1.663  12.712  1.9653 -1.2418 -2.9404
 2588SOL     OW19399   0.761   0.969   3.321  0.1555  0.0290  0.1350
 2588SOL    HW119400   0.793   1.007   3.239 -0.8243  0.9703  0.1886
 2588SOL    HW219401   0.698   1.036   3.347 -0.9383 -0.4368 -1.2907
 2589SOL     OW19402   4.631   1.144  12.482  0.3106  0.4159 -0.0454
 2589SOL    HW119403   4.714   1.136  12.436 -0.5317 -1.3417 -1.2823
 2589SOL    HW219404   4.655   1.083  12.552  1.1754  0.9500  0.1277
 2590SOL     OW19405   4.151   0.788  10.857 -0.1807 -0.5245  0.1961
 2590SOL    HW119406   4.171   0.742  10.939  2.9161  0.1296 -0.1945
 2590SOL    HW219407   4.084   0.849  10.889 -0.2918 -0.6391  0.1812
 2591SOL     OW19408   3.795   2.014  10.887  0.1965 -0.0873  0.0380
 2591SOL    HW119409   3.785   1.919  10.878 -2.4296  0.3353 -1.5857
 2591SOL    HW219410   3.709   2.044  10.857 -0.8835 -1.9904  1.1921
 2592SOL     OW19411   3.479   3.800   3.587 -0.3785 -0.2658 -0.5839
 2592SOL    HW119412   3.484   3.709   3.617 -1.5285  0.6271  2.3282
 2592SOL    HW219413   3.457   3.844   3.669 -1.0576 -0.4335 -0.6764
 2593SOL     OW19414   0.746   3.064  11.945  0.1784 -0.0181 -0.3493
 2593SOL    HW119415   0.679   3.078  12.012 -0.6888 -0.2682 -1.1682
 2593SOL    HW219416   0.820   3.097  11.996  0.0016  0.0316 -0.1273
 2594SOL     OW19417   2.947   0.495  11.718 -0.0876  0.3374  0.1506
 2594SOL    HW119418   2.978   0.544  11.795  0.0913 -0.3626  0.5245
 2594SOL    HW219419   2.960   0.405  11.748  0.1919  0.0583 -0.8168
 2595SOL     OW19420   4.039   4.307   0.407  0.3592 -0.0828 -0.4082
 2595SOL    HW119421   4.091   4.352   0.474 -0.1894 -0.3664  0.2191
 2595SOL    HW219422   4.065   4.348   0.325  1.2845  1.3416  0.5855
 2596SOL     OW19423   1.599   1.970   0.396 -0.3755 -0.4408 -0.4676
 2596SOL    HW119424   1.538   2.002   0.462  0.7110 -1.9302  1.2569
 2596SOL    HW219425   1.610   1.880   0.428 -1.6348 -0.3537  0.2097
 2597SOL     OW19426   1.464   1.814  12.510  0.5628 -0.3950 -0.6405
 2597SOL    HW119427   1.440   1.822  12.602 -0.4912  1.3313 -1.0725
 2597SOL    HW219428   1.434   1.725  12.490  1.0522 -0.4936 -0.9405
 2598SOL     OW19429   1.009   0.286  15.597  1.1975  0.2622  0.3632
 2598SOL    HW119430   0.944   0.238  15.649  1.1094  0.7838  0.7375
 2598SOL    HW219431   0.977   0.274  15.508 -0.6996  0.2263  1.0465
 2599SOL     OW19432   3.016   0.132   8.055  0.4136 -0.5164  0.2396
 2599SOL    HW119433   2.977   0.061   8.005  0.6193 -2.0311  2.2457
 2599SOL    HW219434   3.004   0.102   8.146 -0.6117  4.7160  1.8518
 2600SOL     OW19435   3.600   3.106   5.706  0.2827 -0.0883 -0.1329
 2600SOL    HW119436   3.579   3.163   5.633 -1.1907  3.2565  2.8999
 2600SOL    HW219437   3.654   3.161   5.763  1.0481  0.1052 -1.0345
 2601SOL     OW19438   0.243   4.004   3.619 -0.0095  0.7458 -0.1065
 2601SOL    HW119439   0.181   4.067   3.581  1.9435  1.7522 -1.6289
 2601SOL    HW219440   0.224   4.025   3.710  0.8684 -0.5566  0.3790
 2602SOL     OW19441   0.876   1.885   0.043 -0.0109 -0.0339  0.5086
 2602SOL    HW119442   0.878   1.980   0.032  1.0914 -0.0948  0.2662
 2602SOL    HW219443   0.799   1.882   0.101  0.4092 -2.1236  0.9701
 2603SOL     OW19444   0.216   2.100   5.447 -0.2201 -0.8316  0.0522
 2603SOL    HW119445   0.265   2.022   5.421 -0.1635 -0.6844 -0.2779
 2603SOL    HW219446   0.149   2.101   5.379  0.0461 -1.8402 -0.2299
 2604SOL     OW19447   2.700   2.982  10.030 -0.2916  0.0299  0.2381
 2604SOL    HW119448   2.626   2.979   9.969 -0.1232 -1.9546  0.1421
 2604SOL    HW219449   2.763   2.936   9.975  0.9140  0.0215  1.6404
 2605SOL     OW19450   1.754   4.014  13.679 -0.0901  0.8471 -0.1415
 2605SOL    HW119451   1.842   4.032  13.645  0.4211  0.0264  0.7580
 2605SOL    HW219452   1.702   4.034  13.601 -0.9542  1.0034  0.4710
 2606SOL     OW19453   1.376   0.327   4.920 -0.0852  0.2680 -0.4371
 2606SOL    HW119454   1.411   0.256   4.866  1.6299  1.3448 -0.7495
 2606SOL    HW219455   1.415   0.402   4.875 -0.5000  0.5654 -0.3021
 2607SOL     OW19456   3.024   4.607   4.589 -0.0956  0.4382 -0.2763
 2607SOL    HW119457   2.978   4.647   4.662  0.7493 -1.8386  1.5312
 2607SOL    HW219458   3.033   4.680   4.528  1.6589  1.0866  0.7672
 2608SOL     OW19459   3.107   3.317  14.878 -0.5335  0.3845  0.0456
 2608SOL    HW119460   3.134   3.315  14.786  1.7143 -0.0325  0.7180
 2608SOL    HW219461   3.171   3.373  14.921  0.7602 -1.9219  1.1208
 2609SOL     OW19462   0.572   3.586  17.019  0.4012 -0.7850  0.8591
 2609SOL    HW119463   0.540   3.510  17.069 -0.9977  0.9793  2.6455
 2609SOL    HW219464   0.510   3.652  17.050 -0.1236 -0.8834  0.0105
 2610SOL     OW19465   2.507   3.040   7.016  0.2823  0.1801  0.3900
 2610SOL    HW119466   2.499   2.968   7.078  1.0305 -0.2233  0.0175
 2610SOL    HW219467   2.414   3.064   7.011 -0.0747 -1.4473 -0.6384
 2611SOL     OW19468   1.953   2.072   1.943  0.5054  0.2500 -0.0692
 2611SOL    HW119469   2.030   2.089   1.997  0.5835 -0.5513  0.0705
 2611SOL    HW219470   1.942   2.162   1.912 -0.7832  0.5091  1.1429
 2612SOL     OW19471   0.432   1.606   0.906 -0.1256 -0.1749 -0.0707
 2612SOL    HW119472   0.390   1.593   0.991  2.3484  0.8759  1.3312
 2612SOL    HW219473   0.360   1.655   0.867  0.2426  0.5612  0.1748
 2613SOL     OW19474   1.304   2.891   1.627  0.2293 -0.2257  0.0214
 2613SOL    HW119475   1.370   2.927   1.567 -1.0556  1.1261 -0.5814
 2613SOL    HW219476   1.340   2.927   1.708 -0.9321 -0.5447  0.6807
 2614SOL     OW19477   2.565   0.280   7.109 -0.1356 -0.1402  0.4574
 2614SOL    HW119478   2.620   0.272   7.032  0.1198 -3.0117  0.9420
 2614SOL    HW219479   2.491   0.318   7.061  0.6999  0.0652 -0.6459
 2615SOL     OW19480   2.505   4.693   8.151  0.9342 -0.0562 -0.2241
 2615SOL    HW119481   2.413   4.709   8.171  1.1935  0.2714  0.6999
 2615SOL    HW219482   2.546   0.037   8.171  1.0115  0.6307 -3.2114
 2616SOL     OW19483   1.757   3.845   1.858 -0.6498 -0.4948 -0.2326
 2616SOL    HW119484   1.733   3.851   1.766 -0.1321  0.6057 -0.2967
 2616SOL    HW219485   1.666   3.833   1.885 -0.5913  2.3049  1.1816
 2617SOL     OW19486   1.239   3.800   8.585 -0.0208 -0.6686 -0.0081
 2617SOL    HW119487   1.201   3.886   8.601 -1.5469 -1.0445 -1.6806
 2617SOL    HW219488   1.233   3.786   8.491 -0.9510  2.0064 -0.3462
 2618SOL     OW19489   2.689   1.060  13.341 -0.2354  0.2733  0.2719
 2618SOL    HW119490   2.632   1.063  13.417 -0.3519 -0.8426  0.2206
 2618SOL    HW219491   2.695   0.966  13.326  1.3256  0.4516 -0.3167
 2619SOL     OW19492   0.789   1.295   9.577 -0.4969  0.3728  0.8927
 2619SOL    HW119493   0.811   1.202   9.588  1.4273  0.7801  0.3657
 2619SOL    HW219494   0.846   1.333   9.644  1.2827  0.6998 -0.8268
 2620SOL     OW19495   2.844   0.641  12.499  0.2512  0.0845  0.4262
 2620SOL    HW119496   2.806   0.606  12.418  0.7280  1.1863 -0.2672
 2620SOL    HW219497   2.774   0.638  12.564  1.5006 -0.7210  1.7327
 2621SOL     OW19498   2.284   3.695   6.970  0.3523 -0.4040 -0.1424
 2621SOL    HW119499   2.327   3.768   7.014  0.3378 -0.2054 -0.4636
 2621SOL    HW219500   2.244   3.735   6.893  2.1156  0.9687 -0.3568
 2622SOL     OW19501   1.769   3.377   5.961 -0.3415 -0.5222  0.2095
 2622SOL    HW119502   1.762   3.440   6.032  1.3976  0.2047 -0.2755
 2622SOL    HW219503   1.861   3.367   5.936 -0.4387  1.0934 -0.7574
 2623SOL     OW19504   1.224   3.838   6.057 -0.5797  0.1572  0.3523
 2623SOL    HW119505   1.249   3.746   6.056 -3.2173 -0.5295 -0.1114
 2623SOL    HW219506   1.229   3.854   5.963 -2.7695  1.4242  0.4560
 2624SOL     OW19507   0.717   4.499  13.539 -0.1246 -0.2860  0.3440
 2624SOL    HW119508   0.625   4.507  13.566  0.7065  0.9819  2.7752
 2624SOL    HW219509   0.755   4.494  13.626 -0.7381 -0.4510  0.6013
 2625SOL     OW19510   4.214   1.987   7.327 -0.3834  0.5803 -0.3435
 2625SOL    HW119511   4.260   1.907   7.354  0.3083  0.7956 -0.8998
 2625SOL    HW219512   4.142   1.940   7.284 -1.7909  4.0386 -1.7532
 2626SOL     OW19513   4.116   2.912   7.126  0.1190 -0.5361 -0.2940
 2626SOL    HW119514   4.171   2.968   7.181 -2.1970  1.5989 -0.1454
 2626SOL    HW219515   4.190   2.889   7.070  1.0045 -0.8346  1.0040
 2627SOL     OW19516   4.201   1.134  10.847 -0.3739  0.2878  0.2177
 2627SOL    HW119517   4.240   1.074  10.911 -0.6367  1.4683  1.4906
 2627SOL    HW219518   4.260   1.124  10.773 -1.2005 -1.5782 -0.1877
 2628SOL     OW19519   0.140   0.715   7.468  0.3831  0.1155 -0.7659
 2628SOL    HW119520   0.161   0.799   7.428 -0.7124 -0.8678 -3.3640
 2628SOL    HW219521   0.220   0.703   7.520 -0.6656  0.5844  0.9577
 2629SOL     OW19522   4.656   0.751  11.887 -0.1249 -0.4556  0.7678
 2629SOL    HW119523   4.687   0.823  11.942  1.0329 -0.6359  0.3555
 2629SOL    HW219524   4.654   0.795  11.803 -0.9562 -1.0254  0.4960
 2630SOL     OW19525   3.914   4.554   6.263  0.0944  0.1329 -0.2338
 2630SOL    HW119526   3.935   4.584   6.175  0.4726  0.2318 -0.1101
 2630SOL    HW219527   3.890   4.628   6.319 -0.7464 -1.0886  1.0142
 2631SOL     OW19528   1.489   1.965  15.349 -0.1231  0.3289 -0.5181
 2631SOL    HW119529   1.472   1.871  15.344  1.1930  0.3027 -3.8457
 2631SOL    HW219530   1.566   1.966  15.406 -1.3218 -0.1860  1.1116
 2632SOL     OW19531   1.198   3.745   3.829  0.4958  0.5710 -0.5138
 2632SOL    HW119532   1.243   3.795   3.898  0.6747  0.4363 -0.5313
 2632SOL    HW219533   1.187   3.816   3.765  0.7571  0.1170 -1.0609
 2633SOL     OW19534   4.529   3.894   9.106 -0.1856 -0.2034 -0.0554
 2633SOL    HW119535   4.516   3.973   9.053  0.2290 -0.3612 -0.3978
 2633SOL    HW219536   4.490   3.908   9.192 -1.1856 -0.0652 -0.5336
 2634SOL     OW19537   2.615   2.952   6.771  0.1818 -0.4718 -0.5265
 2634SOL    HW119538   2.658   2.876   6.811  0.4992 -0.5386 -0.9911
 2634SOL    HW219539   2.555   2.975   6.841  0.3894 -0.3399 -0.3927
 2635SOL     OW19540   4.152   4.504   8.463 -0.0101  0.2352  0.0900
 2635SOL    HW119541   4.171   4.499   8.556 -1.5196 -1.5385  0.2972
 2635SOL    HW219542   4.103   4.586   8.455  0.9643  0.4817 -3.5461
 2636SOL     OW19543   2.785   0.185   2.193  0.0302 -0.1345  0.7328
 2636SOL    HW119544   2.843   0.176   2.117  0.6609 -0.4222  1.2557
 2636SOL    HW219545   2.778   0.281   2.197  1.3649 -0.0750  1.5485
 2637SOL     OW19546   0.266   0.589   0.968 -0.3439  0.2765 -0.1767
 2637SOL    HW119547   0.183   0.546   0.987 -0.2330  0.7602  1.3426
 2637SOL    HW219548   0.235   0.639   0.892  0.1169  0.1074 -0.4794
 2638SOL     OW19549   0.543   2.209   9.227  0.1248 -0.4033  0.2331
 2638SOL    HW119550   0.626   2.208   9.274 -0.3716  1.0767  1.1578
 2638SOL    HW219551   0.487   2.206   9.305 -0.5911  0.8547 -0.2179
 2639SOL     OW19552   0.994   1.139   1.714 -0.0573  0.5413  0.0559
 2639SOL    HW119553   0.919   1.140   1.773 -0.2083  0.3006 -0.1292
 2639SOL    HW219554   0.958   1.108   1.630  1.2599 -1.4049  0.1924
 2640SOL     OW19555   0.049   3.859   1.215  0.5535  0.8907 -0.2086
 2640SOL    HW119556   4.717   3.919   1.235 -1.1406 -1.6942  1.4092
 2640SOL    HW219557   0.033   3.786   1.275 -1.3071  2.6298  1.4228
 2641SOL     OW19558   4.586   4.478   7.208 -0.6588 -0.1603  0.1582
 2641SOL    HW119559   4.500   4.514   7.228 -0.1554  1.2799 -0.2220
 2641SOL    HW219560   4.621   4.556   7.165  0.8856 -2.3754 -2.6028
 2642SOL     OW19561   2.247   1.991   9.623  0.4652 -0.7132 -0.2142
 2642SOL    HW119562   2.286   1.911   9.659 -1.7803 -0.8942  1.7781
 2642SOL    HW219563   2.327   2.033   9.592  0.3110  1.0212  1.7610
 2643SOL     OW19564   0.344   2.007   4.079  0.2264 -0.1919 -0.1082
 2643SOL    HW119565   0.312   2.059   4.152  0.3269  0.0354 -0.2270
 2643SOL    HW219566   0.301   1.922   4.090 -2.2629  0.6845 -3.2659
 2644SOL     OW19567   1.506   4.267   5.041 -0.5765 -0.2479  0.4369
 2644SOL    HW119568   1.513   4.185   4.992  1.4346 -1.0276  2.0593
 2644SOL    HW219569   1.581   4.274   5.100  1.0208  0.5678 -1.6924
 2645SOL     OW19570   2.744   3.747   5.490  0.8451  0.8774  0.7815
 2645SOL    HW119571   2.705   3.737   5.576  1.9894 -0.5975  1.1167
 2645SOL    HW219572   2.756   3.658   5.457 -0.4280  0.7330  0.7134
 2646SOL     OW19573   2.351   3.022   9.197 -0.5522 -0.0211  0.1670
 2646SOL    HW119574   2.404   2.962   9.251  0.8045  0.9549 -0.0831
 2646SOL    HW219575   2.336   3.085   9.267  1.4493 -1.8082  2.2205
 2647SOL     OW19576   3.144   0.822  12.729  0.1330  0.4762 -0.0132
 2647SOL    HW119577   3.223   0.852  12.684 -0.3318  1.5867 -0.0940
 2647SOL    HW219578   3.117   0.907  12.764  1.6562  1.6310 -1.6453
 2648SOL     OW19579   1.858   3.547   2.101  0.7090 -0.2743  0.2292
 2648SOL    HW119580   1.818   3.633   2.118 -1.6223 -1.2181 -0.4096
 2648SOL    HW219581   1.926   3.568   2.037 -0.0711 -0.4850 -0.6796
 2649SOL     OW19582   1.371   4.449   3.913  0.4773 -0.7805 -0.4360
 2649SOL    HW119583   1.438   4.429   3.848 -0.5753 -1.6982 -1.2179
 2649SOL    HW219584   1.390   4.387   3.984 -0.1162 -1.9414 -1.3063
 2650SOL     OW19585   0.859   1.060   5.560  0.3127 -0.2291 -0.3113
 2650SOL    HW119586   0.945   1.028   5.588  0.6521  0.8159 -0.1440
 2650SOL    HW219587   0.854   1.002   5.485 -2.2647  1.6982 -1.6252
 2651SOL     OW19588   0.958   0.212   9.858  0.1344  0.2339  0.1473
 2651SOL    HW119589   1.039   0.251   9.824  1.7086 -2.7702  0.4518
 2651SOL    HW219590   0.969   0.125   9.820 -2.3763  0.8103 -1.8714
 2652SOL     OW19591   1.661   1.641  16.527  0.2346  0.1748 -0.1536
 2652SOL    HW119592   1.617   1.556  16.540  0.5225  0.1820  0.8433
 2652SOL    HW219593   1.655   1.656  16.433  0.2139  1.2550  0.0223
 2653SOL     OW19594   1.048   1.047   6.689  0.2990  0.1448  0.2000
 2653SOL    HW119595   1.021   0.957   6.710 -0.3617 -0.0448 -1.4335
 2653SOL    HW219596   1.144   1.047   6.684  0.2816 -1.6267 -0.3099
 2654SOL     OW19597   1.920   0.618   8.972  0.1768 -0.3804 -0.2069
 2654SOL    HW119598   1.939   0.685   9.037 -0.1544 -1.1357  0.6761
 2654SOL    HW219599   1.826   0.631   8.967  0.0188 -1.2650  0.3071
 2655SOL     OW19600   4.220   4.008  11.217 -0.0833  0.0092  0.5130
 2655SOL    HW119601   4.243   4.100  11.230  0.6905 -0.3409  1.5909
 2655SOL    HW219602   4.287   3.992  11.150 -0.8228  1.2874 -0.5390
 2656SOL     OW19603   3.316   0.160   2.868 -0.5231  0.3212 -0.2122
 2656SOL    HW119604   3.363   0.158   2.951  1.4611 -0.9356 -1.3894
 2656SOL    HW219605   3.382   0.169   2.799 -1.9719  0.7430 -1.5543
 2657SOL     OW19606   0.563   3.087   4.532 -0.6101  0.4163  0.0469
 2657SOL    HW119607   0.587   2.998   4.507 -0.0278  0.7435 -0.5677
 2657SOL    HW219608   0.555   3.084   4.627 -2.6403  1.7711 -0.0620
 2658SOL     OW19609   2.599   4.180   6.082 -0.0765  0.3360 -0.3433
 2658SOL    HW119610   2.626   4.114   6.146 -1.1204  0.8994  0.6822
 2658SOL    HW219611   2.639   4.254   6.128 -1.5691 -0.4117  2.1790
 2659SOL     OW19612   1.121   0.537  17.304  0.1263 -0.0364  0.3804
 2659SOL    HW119613   1.088   0.449  17.324 -0.0169  0.0499  0.5195
 2659SOL    HW219614   1.215   0.521  17.296  0.2716  1.8153 -1.5753
 2660SOL     OW19615   0.491   0.196   9.396 -0.0672 -0.0093  0.2520
 2660SOL    HW119616   0.577   0.239   9.394  2.4492 -5.0338  1.0119
 2660SOL    HW219617   0.485   0.175   9.489 -1.5824  0.8236  0.3452
 2661SOL     OW19618   1.719   1.643   8.947 -0.2403  0.1336 -0.0341
 2661SOL    HW119619   1.701   1.550   8.933 -1.8837 -0.0008  3.0406
 2661SOL    HW219620   1.714   1.648   9.042  1.5326 -1.7692  0.1603
 2662SOL     OW19621   3.712   0.347   4.866  0.8752  0.6401  0.2836
 2662SOL    HW119622   3.723   0.301   4.949 -0.9696 -1.5622 -0.7017
 2662SOL    HW219623   3.756   0.427   4.895 -1.3553  1.0704  2.4523
 2663SOL     OW19624   3.189   4.398  15.901  0.2676  0.2082  0.1672
 2663SOL    HW119625   3.117   4.337  15.883  0.5506  0.1897 -0.9000
 2663SOL    HW219626   3.180   4.455  15.825  0.2666 -0.8563 -0.6367
 2664SOL     OW19627   2.053   2.901   6.958  0.5481  0.4234  0.1748
 2664SOL    HW119628   2.002   2.820   6.964 -0.7219  1.2478  0.4298
 2664SOL    HW219629   2.061   2.927   7.050  1.5232 -0.6489  0.4007
 2665SOL     OW19630   1.106   4.433   6.851  0.0541 -0.3732 -0.7710
 2665SOL    HW119631   1.173   4.374   6.815 -1.1724 -2.5066  0.4093
 2665SOL    HW219632   1.068   4.473   6.773 -0.2699 -0.7808 -0.8258
 2666SOL     OW19633   4.113   2.403   6.104 -0.2505 -0.4105  0.5844
 2666SOL    HW119634   4.115   2.477   6.165 -1.8626 -0.0820  0.2286
 2666SOL    HW219635   4.048   2.436   6.042  0.4350  0.4399  0.3197
 2667SOL     OW19636   4.724   2.589   4.823 -0.0347 -0.6092 -0.1699
 2667SOL    HW119637   4.684   2.609   4.908  1.4836  1.4129  0.0659
 2667SOL    HW219638   4.677   2.507   4.810 -0.5161 -0.4666  0.6437
 2668SOL     OW19639   4.585   1.657   7.987  0.0907  0.3441 -0.6318
 2668SOL    HW119640   4.617   1.747   7.974  0.1404  0.3931 -0.1701
 2668SOL    HW219641   4.497   1.678   8.017  0.8701  1.3798  0.9772
 2669SOL     OW19642   2.946   4.647   5.220 -0.1745 -0.0740  0.2492
 2669SOL    HW119643   3.031   4.604   5.213 -0.1386  0.1684 -0.8430
 2669SOL    HW219644   2.897   4.569   5.247 -0.1413 -0.1474  0.1011
 2670SOL     OW19645   3.055   1.929   9.521  0.5464 -0.3672  1.0108
 2670SOL    HW119646   2.978   1.963   9.476  0.7845 -1.5990 -0.3440
 2670SOL    HW219647   3.050   1.834   9.512 -1.1291 -0.3258  1.5168
 2671SOL     OW19648   3.101   2.905   7.314  0.3163 -0.0012  0.8752
 2671SOL    HW119649   3.013   2.880   7.342  0.4239 -2.9754 -1.3888
 2671SOL    HW219650   3.144   2.893   7.398 -0.9035 -0.6230  1.4161
 2672SOL     OW19651   3.174   2.175  11.359 -0.5103 -0.1367 -0.2932
 2672SOL    HW119652   3.146   2.084  11.361 -0.7453 -0.0707 -0.4789
 2672SOL    HW219653   3.254   2.174  11.412 -1.0128 -2.3945  0.4279
 2673SOL     OW19654   0.562   0.528   0.330 -0.2755 -0.3240  0.1110
 2673SOL    HW119655   0.540   0.440   0.360 -0.2175 -0.0484  0.9726
 2673SOL    HW219656   0.488   0.586   0.348  0.4085  1.4423 -2.7029
 2674SOL     OW19657   0.477   0.855   6.000  0.0041  0.4223  0.2240
 2674SOL    HW119658   0.526   0.813   6.071 -0.4745  0.7108  0.7218
 2674SOL    HW219659   0.447   0.937   6.039 -0.4367  0.6119 -0.4968
 2675SOL     OW19660   3.410   3.817   5.085 -0.2903 -0.1596 -0.3509
 2675SOL    HW119661   3.442   3.886   5.026  0.3868 -1.3780 -1.3949
 2675SOL    HW219662   3.473   3.823   5.157 -1.7377  1.2753  0.8044
 2676SOL     OW19663   0.243   3.216   5.092 -0.1677  0.1255 -0.1619
 2676SOL    HW119664   0.272   3.264   5.014 -1.4772  0.9834 -0.1327
 2676SOL    HW219665   0.297   3.258   5.159  0.9187 -2.1559  0.3766
 2677SOL     OW19666   2.801   0.858   2.294 -0.4163  0.1560  0.0902
 2677SOL    HW119667   2.813   0.801   2.370  0.4607  0.7442  0.3857
 2677SOL    HW219668   2.812   0.946   2.330 -1.2330  0.2473  0.1299
 2678SOL     OW19669   0.340   3.075  14.156  0.0882 -0.0443 -0.8501
 2678SOL    HW119670   0.267   3.022  14.122  1.0790 -1.0230 -1.4412
 2678SOL    HW219671   0.309   3.155  14.114 -0.3583 -0.0240 -0.4817
 2679SOL     OW19672   1.891   0.993   2.018 -0.2572  0.0231  0.1230
 2679SOL    HW119673   1.857   0.946   2.094 -0.0655  1.8655  1.3701
 2679SOL    HW219674   1.839   1.074   2.010  0.5870  0.1489 -4.1293
 2680SOL     OW19675   1.218   3.985  11.606  0.6362  0.0967 -0.3750
 2680SOL    HW119676   1.214   3.936  11.524 -0.7407 -0.9751  0.3350
 2680SOL    HW219677   1.277   4.058  11.586  1.3095 -0.6688 -1.2024
 2681SOL     OW19678   4.421   2.449  16.858 -0.0684 -0.4991  0.1782
 2681SOL    HW119679   4.351   2.473  16.797 -0.3403 -1.8278 -0.0354
 2681SOL    HW219680   4.479   2.383  16.820 -0.8552 -0.9329 -0.2775
 2682SOL     OW19681   4.675   2.804   9.109 -0.4207 -0.1104 -0.3181
 2682SOL    HW119682   4.672   2.730   9.050  0.9983 -0.1653 -0.3361
 2682SOL    HW219683   4.723   2.759   9.179 -0.1777  0.8942  0.1675
 2683SOL     OW19684   0.049   1.280  14.828 -0.6058 -0.1956 -0.8538
 2683SOL    HW119685   0.054   1.205  14.887 -0.7184  1.1944  0.9299
 2683SOL    HW219686   4.694   1.278  14.813 -0.8843 -0.6823  0.9576
 2684SOL     OW19687   0.953   0.789   3.291  0.3266  0.2104  0.0520
 2684SOL    HW119688   0.909   0.705   3.299  1.0857 -0.2359 -0.5011
 2684SOL    HW219689   0.878   0.844   3.317  0.6374 -0.3459  2.1100
 2685SOL     OW19690   3.647   2.907  15.326  1.6322  0.3052  0.4252
 2685SOL    HW119691   3.582   2.888  15.393 -0.5095  1.4589 -1.3558
 2685SOL    HW219692   3.611   2.859  15.252 -1.4419  4.0323 -0.4797
 2686SOL     OW19693   1.850   0.870   3.385 -0.1477  0.5180 -0.7052
 2686SOL    HW119694   1.936   0.837   3.412  0.0590  1.0776 -0.6749
 2686SOL    HW219695   1.828   0.811   3.313  0.1552 -1.5316  0.8564
 2687SOL     OW19696   2.862   3.206   0.527 -0.2174 -0.2364  0.3049
 2687SOL    HW119697   2.940   3.216   0.472 -0.8397  0.6470 -0.4237
 2687SOL    HW219698   2.903   3.231   0.610  0.0514  0.7847 -0.1301
 2688SOL     OW19699   1.872   1.040   3.047  0.2250  0.0100 -0.7092
 2688SOL    HW119700   1.898   1.075   3.132 -3.1470 -1.1928  0.8035
 2688SOL    HW219701   1.778   1.047   3.036  0.1407 -2.7332 -1.7513
 2689SOL     OW19702   3.858   3.726   3.143  0.1462 -0.6509  0.3045
 2689SOL    HW119703   3.814   3.670   3.207  1.3621 -1.7561  0.1788
 2689SOL    HW219704   3.946   3.736   3.180 -1.4421  0.2253  3.7677
 2690SOL     OW19705   1.629   0.217   6.048 -0.0432  0.0592 -0.0357
 2690SOL    HW119706   1.662   0.276   6.115  1.6651 -2.0885  0.9958
 2690SOL    HW219707   1.603   0.280   5.981 -3.2417 -1.7473 -0.5285
 2691SOL     OW19708   4.354   1.656   8.175 -0.0869  0.3754 -0.4318
 2691SOL    HW119709   4.359   1.703   8.258 -0.9883  0.9570 -0.6969
 2691SOL    HW219710   4.279   1.692   8.128  1.5501  3.3168 -0.7306
 2692SOL     OW19711   2.511   2.248  14.398  0.0776 -0.2279 -0.3687
 2692SOL    HW119712   2.570   2.172  14.392  1.9515  1.1154  1.2791
 2692SOL    HW219713   2.489   2.256  14.490 -0.3592 -1.9542 -0.3145
 2693SOL     OW19714   4.353   2.991   1.242  0.0714 -0.2254  0.1423
 2693SOL    HW119715   4.377   2.956   1.328  0.9487  0.4241  0.1533
 2693SOL    HW219716   4.394   2.923   1.188 -0.3836 -0.1140 -0.3447
 2694SOL     OW19717   1.136   0.638   9.086  0.1150 -0.0336 -0.0096
 2694SOL    HW119718   1.128   0.667   8.995 -0.4363  0.8185  0.3118
 2694SOL    HW219719   1.065   0.575   9.100  0.4551 -0.4141  0.0191
 2695SOL     OW19720   2.660   1.559   2.779 -0.4436  0.6147  0.0027
 2695SOL    HW119721   2.569   1.555   2.748 -0.5533 -0.4361  0.4579
 2695SOL    HW219722   2.694   1.628   2.721  1.2775  1.4373  2.0063
 2696SOL     OW19723   2.223   1.396   5.060  0.3849  0.0288 -0.0205
 2696SOL    HW119724   2.253   1.306   5.052  0.8695  0.0036  2.0017
 2696SOL    HW219725   2.141   1.391   5.109  0.5372  1.5440  0.4098
 2697SOL     OW19726   1.483   3.740  13.347  0.0583  0.1122 -0.1044
 2697SOL    HW119727   1.401   3.773  13.310  0.7461 -1.3955 -2.9568
 2697SOL    HW219728   1.478   3.753  13.442  2.1409 -0.9397  0.1489
 2698SOL     OW19729   0.309   3.245   6.940  0.1913  0.0647 -0.2937
 2698SOL    HW119730   0.334   3.215   7.027  1.2734  0.8201 -0.3454
 2698SOL    HW219731   0.229   3.194   6.930 -0.0472  0.5242 -0.7461
 2699SOL     OW19732   2.324   1.215   7.955 -0.1224  0.3730  0.5669
 2699SOL    HW119733   2.370   1.272   8.017 -0.3432  1.2307 -0.0500
 2699SOL    HW219734   2.344   1.259   7.872 -0.5697 -0.9003 -0.2181
 2700SOL     OW19735   2.446   3.208  10.100  0.5837  0.1993 -0.6077
 2700SOL    HW119736   2.379   3.215  10.168 -0.5889 -3.4870 -1.4104
 2700SOL    HW219737   2.492   3.126  10.116  1.8633  0.8896 -0.7792
 2701SOL     OW19738   0.397   4.562   3.161 -0.8479 -0.2706 -0.3493
 2701SOL    HW119739   0.331   4.560   3.231  0.1340  0.2543  0.5882
 2701SOL    HW219740   0.463   4.506   3.201 -1.0190 -1.6942 -2.0648
 2702SOL     OW19741   3.409   0.936   2.157  0.2718 -0.0449 -0.5064
 2702SOL    HW119742   3.411   1.015   2.103 -1.8449  0.1093 -0.3728
 2702SOL    HW219743   3.316   0.918   2.143  0.3525  0.2588 -1.4485
 2703SOL     OW19744   0.740   2.105  16.422  0.5928  0.3490 -0.4254
 2703SOL    HW119745   0.712   2.169  16.487  1.5669 -0.7381  1.0721
 2703SOL    HW219746   0.795   2.163  16.369  3.8787 -2.2188  0.1639
 2704SOL     OW19747   4.154   2.058   4.747  0.0740  0.2062 -0.3755
 2704SOL    HW119748   4.233   2.104   4.719 -0.0927 -0.8052 -2.4456
 2704SOL    HW219749   4.152   2.109   4.829 -1.0921 -2.3909  1.2020
 2705SOL     OW19750   2.649   0.819   1.650 -0.9473 -0.0273 -0.0630
 2705SOL    HW119751   2.620   0.902   1.688  0.6654  0.4174  0.2194
 2705SOL    HW219752   2.584   0.816   1.580  1.1067 -0.1088 -1.9830
 2706SOL     OW19753   2.362   3.678  13.443  0.4933  0.2577  0.2632
 2706SOL    HW119754   2.280   3.723  13.462  1.4036  1.5821  1.0697
 2706SOL    HW219755   2.351   3.603  13.502  2.2537 -1.1044 -1.1334
 2707SOL     OW19756   4.271   3.373   8.858 -0.4173 -0.1715 -0.2208
 2707SOL    HW119757   4.364   3.375   8.880 -0.8150  3.3048  1.0606
 2707SOL    HW219758   4.266   3.350   8.765 -0.4741 -0.8106 -0.0638
 2708SOL     OW19759   4.424   1.324   5.146 -0.3442  0.3736 -0.5473
 2708SOL    HW119760   4.389   1.338   5.234 -1.5451  2.3992 -1.3392
 2708SOL    HW219761   4.448   1.412   5.118 -0.8203  0.3988 -0.8687
 2709SOL     OW19762   1.044   1.529   4.226  0.3888  0.2119  0.2258
 2709SOL    HW119763   1.120   1.471   4.229  0.7800  0.6759 -0.7321
 2709SOL    HW219764   0.970   1.470   4.215 -0.5306  0.9892  2.3439
 2710SOL     OW19765   1.310   4.236  16.668 -0.5575  0.1281 -0.4351
 2710SOL    HW119766   1.296   4.270  16.757 -2.7793 -0.7789 -0.4393
 2710SOL    HW219767   1.319   4.317  16.618  0.6322 -0.6251 -1.4401
 2711SOL     OW19768   2.597   3.196   9.215  0.4714  0.2404  0.0092
 2711SOL    HW119769   2.507   3.175   9.191  1.3302 -1.7195 -1.5589
 2711SOL    HW219770   2.610   3.144   9.295  0.3409 -0.1821 -0.2472
 2712SOL     OW19771   2.261   3.556   3.800  0.0043  0.7421  0.1222
 2712SOL    HW119772   2.201   3.607   3.854 -0.4964 -1.0455  1.2544
 2712SOL    HW219773   2.242   3.593   3.714 -1.0130  0.8988  0.4054
 2713SOL     OW19774   0.804   2.529   2.596  0.1929 -0.1532 -0.1074
 2713SOL    HW119775   0.827   2.604   2.652 -0.3486 -0.5050  0.5893
 2713SOL    HW219776   0.846   2.453   2.635 -0.6390  0.5623  2.1886
 2714SOL     OW19777   2.134   3.768  13.597 -0.6571  0.1389  0.0572
 2714SOL    HW119778   2.153   3.791  13.688 -1.0232 -0.4422  0.2859
 2714SOL    HW219779   2.041   3.790  13.588 -0.6489  0.0869 -0.1398
 2715SOL     OW19780   1.700   1.325   5.834 -0.2028  0.2192  0.5436
 2715SOL    HW119781   1.660   1.309   5.748  0.5057  1.8881 -0.0920
 2715SOL    HW219782   1.794   1.321   5.816 -0.6392 -1.5728 -1.3465
 2716SOL     OW19783   4.455   1.732  13.456  0.1944  0.1862 -0.3390
 2716SOL    HW119784   4.544   1.738  13.421  0.4693  0.7434  0.4383
 2716SOL    HW219785   4.405   1.739  13.375 -0.7274  0.4464  0.2514
 2717SOL     OW19786   3.757   4.141  17.391  0.3447 -0.5006 -0.1711
 2717SOL    HW119787   3.702   4.144  17.313 -1.0404  0.2753  0.8492
 2717SOL    HW219788   3.845   4.149  17.353  1.9558  0.1668  3.6850
 2718SOL     OW19789   2.852   3.820   6.786  0.0386 -0.8387 -0.4203
 2718SOL    HW119790   2.791   3.746   6.787 -1.5854  0.4922  2.0451
 2718SOL    HW219791   2.864   3.832   6.692 -0.8251 -0.1608 -0.4469
 2719SOL     OW19792   0.348   2.795   8.433 -0.3667  0.1491  0.8266
 2719SOL    HW119793   0.335   2.822   8.523 -2.2055  2.2091 -0.0708
 2719SOL    HW219794   0.443   2.780   8.430 -0.2223  2.0185 -5.3849
 2720SOL     OW19795   4.503   0.253   3.852  0.0926 -0.1989  0.1715
 2720SOL    HW119796   4.463   0.313   3.789  2.0088  1.4731  0.5575
 2720SOL    HW219797   4.595   0.276   3.842  0.5260 -2.3989 -0.8624
 2721SOL     OW19798   2.535   4.141  10.435  0.1769 -0.2391  0.3482
 2721SOL    HW119799   2.560   4.233  10.442  1.7815 -0.7995  2.1151
 2721SOL    HW219800   2.440   4.144  10.425  0.0701 -0.8843  1.1498
 2722SOL     OW19801   0.291   3.376   4.036 -0.1083  0.5583 -0.0054
 2722SOL    HW119802   0.236   3.298   4.025  1.6289 -0.2043 -3.1249
 2722SOL    HW219803   0.378   3.337   4.039 -0.6253 -0.5380  0.5760
 2723SOL     OW19804   1.163   4.401   0.970 -0.0810 -0.7603 -0.0571
 2723SOL    HW119805   1.186   4.321   1.017 -0.4480 -0.0981  1.2700
 2723SOL    HW219806   1.100   4.443   1.029 -0.3651 -1.4096  0.1102
 2724SOL     OW19807   3.712   1.517  11.696 -0.3898 -0.6647 -0.2515
 2724SOL    HW119808   3.769   1.456  11.649  1.4670  1.2034 -0.4260
 2724SOL    HW219809   3.766   1.546  11.769 -2.9678  0.0742  1.3831
 2725SOL     OW19810   0.919   1.267   9.874  0.2398 -0.2323 -0.6399
 2725SOL    HW119811   0.914   1.205   9.802 -1.6118 -1.6745  0.7461
 2725SOL    HW219812   0.955   1.346   9.834 -0.4568  0.7136  0.6068
 2726SOL     OW19813   0.885   0.685  17.640  0.0732  0.8508  0.0995
 2726SOL    HW119814   0.928   0.710  17.558 -0.7902 -0.7251 -0.8384
 2726SOL    HW219815   0.890   0.766  17.690 -1.5815  0.8830  0.2174
 2727SOL     OW19816   4.357   3.422  16.973  0.2364 -0.1388 -0.1234
 2727SOL    HW119817   4.314   3.465  16.900  2.0674  2.1545  0.1462
 2727SOL    HW219818   4.432   3.387  16.925  0.3755 -1.5919  1.1695
 2728SOL     OW19819   1.629   1.807  17.660  0.5245  0.2380  0.0240
 2728SOL    HW119820   1.596   1.896  17.662  1.8228  0.7460 -1.1638
 2728SOL    HW219821   1.625   1.791  17.755  1.5443 -0.8056 -0.1052
 2729SOL     OW19822   4.265   4.636  13.683  0.1645 -0.7875  0.0930
 2729SOL    HW119823   4.342   4.645  13.738  0.0978  2.9139 -0.4150
 2729SOL    HW219824   4.280   4.555  13.634 -0.2779 -1.6137  1.2863
 2730SOL     OW19825   1.486   3.336   6.562 -0.1832 -0.2135  0.1392
 2730SOL    HW119826   1.414   3.324   6.501 -0.5069  1.5191  0.1661
 2730SOL    HW219827   1.456   3.415   6.607  0.2183  0.1242 -0.1821
 2731SOL     OW19828   3.360   3.783   7.988  0.0013  0.1440  0.1149
 2731SOL    HW119829   3.373   3.847   7.918  0.4953  0.8946  0.8996
 2731SOL    HW219830   3.272   3.764   7.956  0.5179 -1.1861 -0.5275
 2732SOL     OW19831   1.314   4.717   1.964  0.7264 -0.6781 -0.5104
 2732SOL    HW119832   1.300   4.698   1.871 -1.3503 -0.3719 -0.2607
 2732SOL    HW219833   1.230   4.685   1.997  1.8808 -1.7061  1.4716
 2733SOL     OW19834   1.025   2.086   8.109 -0.0413 -0.1239 -0.0436
 2733SOL    HW119835   1.004   1.999   8.073  2.3613 -0.8335  0.2645
 2733SOL    HW219836   0.993   2.142   8.039 -1.1831  0.8454  1.2600
 2734SOL     OW19837   2.147   3.676   5.788 -0.1786  0.0222  0.2318
 2734SOL    HW119838   2.216   3.700   5.726 -0.0055 -0.0800  0.3840
 2734SOL    HW219839   2.128   3.769   5.803 -2.4414 -0.5336  0.7421
 2735SOL     OW19840   1.069   0.383   4.491  0.2664 -0.3772  0.2556
 2735SOL    HW119841   0.984   0.425   4.481 -0.3981 -1.5810  0.8315
 2735SOL    HW219842   1.129   0.424   4.428 -1.1679  0.3629 -0.6148
 2736SOL     OW19843   2.082   2.027   5.674  0.0102 -0.3336 -0.2371
 2736SOL    HW119844   2.082   2.036   5.579 -0.8067  0.7722 -0.1367
 2736SOL    HW219845   2.107   2.114   5.704  0.9325 -0.9744  0.8370
 2737SOL     OW19846   3.237   2.599  12.477  0.0041 -0.4926  0.4892
 2737SOL    HW119847   3.329   2.580  12.494 -0.1001  0.4891  2.2214
 2737SOL    HW219848   3.233   2.621  12.384  1.7073 -0.0344  0.5253
 2738SOL     OW19849   3.038   0.702   8.385  0.9321 -0.1304  0.2970
 2738SOL    HW119850   2.950   0.726   8.358  0.9419 -2.9352 -2.1732
 2738SOL    HW219851   3.044   0.616   8.343 -0.4050 -0.8120  1.4874
 2739SOL     OW19852   3.147   3.005   5.751  0.2489  0.8892 -0.2404
 2739SOL    HW119853   3.067   3.048   5.782  1.0988  1.3314  1.3186
 2739SOL    HW219854   3.138   3.046   5.665 -1.9549 -2.4394 -1.6146
 2740SOL     OW19855   3.398   1.336   3.531  0.2977  0.4024 -0.2288
 2740SOL    HW119856   3.428   1.289   3.608  0.2696 -0.2979 -0.6487
 2740SOL    HW219857   3.306   1.343   3.559  1.2590 -2.0933  3.4559
 2741SOL     OW19858   3.371   1.155   6.081  0.1543 -0.1417  0.4133
 2741SOL    HW119859   3.379   1.118   5.993  0.0004  1.4795 -0.2804
 2741SOL    HW219860   3.289   1.204   6.078  0.3574  0.2729  1.6855
 2742SOL     OW19861   3.909   0.189   5.670 -0.2163  0.0719 -0.2043
 2742SOL    HW119862   3.839   0.251   5.693 -0.8707 -0.9426  0.5770
 2742SOL    HW219863   3.919   0.193   5.575 -1.4696 -2.7158 -0.4335
 2743SOL     OW19864   4.700   3.257   5.131 -0.5597 -0.1105 -0.0934
 2743SOL    HW119865   0.050   3.276   5.107 -0.3094  0.7409  1.5367
 2743SOL    HW219866   4.658   3.313   5.066 -0.2601 -0.2063 -0.3673
 2744SOL     OW19867   1.413   3.093  16.258  0.1149  1.0614 -0.5375
 2744SOL    HW119868   1.477   3.133  16.199  0.8092 -0.4793 -0.8091
 2744SOL    HW219869   1.356   3.044  16.199  0.7724 -0.1067 -0.2032
 2745SOL     OW19870   0.134   3.540  11.123  0.5520  0.6281 -0.1691
 2745SOL    HW119871   0.136   3.588  11.040  1.1256  0.2661 -0.3656
 2745SOL    HW219872   0.041   3.529  11.141  0.9900  2.1706  2.9984
 2746SOL     OW19873   4.241   0.541  10.495 -0.2705  0.2181 -0.4577
 2746SOL    HW119874   4.192   0.469  10.453  0.9729 -1.0799  0.3153
 2746SOL    HW219875   4.189   0.620  10.480  0.6268  1.1326  1.1873
 2747SOL     OW19876   4.700   1.597   6.151 -0.1981  0.3330  0.3457
 2747SOL    HW119877   4.649   1.570   6.074  0.2182 -3.0348  1.2616
 2747SOL    HW219878   4.637   1.590   6.222 -0.6999 -0.5310 -0.1851
 2748SOL     OW19879   0.432   1.949   4.416 -0.2705 -0.6249 -0.5322
 2748SOL    HW119880   0.411   1.891   4.489  0.5731  0.7847  0.8298
 2748SOL    HW219881   0.345   1.968   4.381 -0.1326 -1.7178 -1.4449
 2749SOL     OW19882   3.502   3.051   2.328 -0.4582  0.1142  0.3536
 2749SOL    HW119883   3.438   3.001   2.277 -0.0978 -1.3928  1.3689
 2749SOL    HW219884   3.519   3.123   2.267 -2.5931 -0.1044 -0.4911
 2750SOL     OW19885   3.488   2.617   1.494  0.1864 -0.0529 -0.3443
 2750SOL    HW119886   3.520   2.534   1.529  2.8376  1.1945  0.1774
 2750SOL    HW219887   3.565   2.655   1.453  0.6906 -0.2273  0.4488
 2751SOL     OW19888   3.061   3.509   2.715 -0.0783  0.0203  0.1548
 2751SOL    HW119889   3.128   3.458   2.669  0.1164 -0.2354  0.7115
 2751SOL    HW219890   3.043   3.444   2.784 -4.5818 -1.2141 -2.1874
 2752SOL     OW19891   4.224   0.855   9.415 -0.1245 -0.1384 -0.4404
 2752SOL    HW119892   4.196   0.765   9.404  0.0630 -0.5098  2.1617
 2752SOL    HW219893   4.180   0.905   9.346  0.2459 -1.2685 -1.5019
 2753SOL     OW19894   4.200   4.693   4.605  0.6581  0.3786  0.2602
 2753SOL    HW119895   4.207   4.691   4.701 -1.1463  1.2273  0.4163
 2753SOL    HW219896   4.278   0.003   4.581  0.0451 -0.0508 -2.6187
 2754SOL     OW19897   1.009   0.545  11.063  0.0263  0.2499  0.0486
 2754SOL    HW119898   0.927   0.584  11.095 -1.3450 -0.4772 -2.6179
 2754SOL    HW219899   1.060   0.626  11.074  1.7429 -1.0278  1.3981
 2755SOL     OW19900   4.385   0.198  13.019 -0.5704  1.0383  0.4801
 2755SOL    HW119901   4.406   0.165  12.932  0.2805 -0.1390  1.1252
 2755SOL    HW219902   4.331   0.272  12.993 -1.6273 -0.1959 -0.8052
 2756SOL     OW19903   3.986   0.818   7.283 -0.4408 -0.5660  0.5317
 2756SOL    HW119904   4.049   0.749   7.302  1.3062  0.5498 -1.2700
 2756SOL    HW219905   3.936   0.777   7.212  0.3868 -0.7955  0.0843
 2757SOL     OW19906   1.132   2.353   5.066  0.5019 -0.3864 -0.4839
 2757SOL    HW119907   1.205   2.394   5.113  1.5080 -2.5260 -0.2099
 2757SOL    HW219908   1.147   2.266   5.102 -1.0830 -0.9517 -1.1921
 2758SOL     OW19909   1.905   3.718   6.802 -0.4784  0.4519  0.0896
 2758SOL    HW119910   1.884   3.767   6.722  0.9477  2.7349  1.1012
 2758SOL    HW219911   1.817   3.685   6.817  0.5056 -1.6873  1.0833
 2759SOL     OW19912   0.383   1.043   7.534 -0.1250  0.1703  0.3682
 2759SOL    HW119913   0.302   1.036   7.584  1.1022 -0.9760  2.1904
 2759SOL    HW219914   0.354   1.077   7.449 -2.4281  1.9645  1.8791
 2760SOL     OW19915   1.711   1.313  15.300 -0.2760  0.1975  0.6698
 2760SOL    HW119916   1.722   1.284  15.210 -0.4470  2.2561 -0.0221
 2760SOL    HW219917   1.617   1.326  15.310  0.1692  0.7453  4.1953
 2761SOL     OW19918   3.137   4.342   2.349 -0.4736 -0.4833  0.5505
 2761SOL    HW119919   3.096   4.413   2.300  0.4887  0.2446  0.8023
 2761SOL    HW219920   3.071   4.291   2.395 -1.5989  0.0261 -0.4905
 2762SOL     OW19921   0.313   0.627   8.780 -0.2475  0.5186  0.0860
 2762SOL    HW119922   0.223   0.638   8.810 -0.6805 -0.3648 -0.8878
 2762SOL    HW219923   0.358   0.663   8.857  0.7985  0.4763 -0.5114
 2763SOL     OW19924   0.716   2.302   4.327 -0.3490  0.2221 -0.0089
 2763SOL    HW119925   0.714   2.381   4.381  0.7112 -0.7097  1.3808
 2763SOL    HW219926   0.683   2.234   4.386 -0.7951  0.4574  0.0208
 2764SOL     OW19927   1.802   2.397   0.759  0.0872 -0.2923 -0.6725
 2764SOL    HW119928   1.852   2.431   0.684 -0.3254  2.6771  0.4046
 2764SOL    HW219929   1.811   2.465   0.826  0.6932  0.4648 -1.5154
 2765SOL     OW19930   1.754   4.317   7.458  0.5205  0.4345 -0.3942
 2765SOL    HW119931   1.847   4.297   7.456  0.2683 -0.6073 -1.4817
 2765SOL    HW219932   1.774   4.396   7.509 -1.8211  0.2454  0.8421
 2766SOL     OW19933   0.722   3.181   1.307  0.0204  0.6351  0.0537
 2766SOL    HW119934   0.734   3.211   1.217 -0.2864 -0.4487 -0.3441
 2766SOL    HW219935   0.735   3.088   1.289  0.6158  0.8518 -0.6220
 2767SOL     OW19936   4.546   2.274   2.927  0.2315  0.3176 -0.0474
 2767SOL    HW119937   4.557   2.229   3.010 -0.3063  1.5807  0.7083
 2767SOL    HW219938   4.576   2.202   2.871  1.0923  0.3613  0.3597
 2768SOL     OW19939   3.011   0.013   8.294  0.1515  0.4660 -0.6625
 2768SOL    HW119940   3.105   0.018   8.311  0.2250 -0.5316 -0.7863
 2768SOL    HW219941   2.977   0.024   8.383  1.6792 -0.1731 -0.0112
 2769SOL     OW19942   2.093   3.723   3.923  0.2585  0.1907  0.5230
 2769SOL    HW119943   2.002   3.751   3.932 -0.2667 -1.7540  1.1079
 2769SOL    HW219944   2.102   3.654   3.988 -1.1545 -0.5284 -0.0425
 2770SOL     OW19945   1.137   1.476  14.910 -0.3171  0.7048 -0.1996
 2770SOL    HW119946   1.145   1.563  14.869 -0.6312  0.2177 -1.3011
 2770SOL    HW219947   1.090   1.422  14.846 -0.3489  1.6712 -0.9911
 2771SOL     OW19948   3.630   0.256  15.911  0.6637 -0.0780  0.2028
 2771SOL    HW119949   3.569   0.190  15.944  1.2645  0.6255  2.7677
 2771SOL    HW219950   3.687   0.275  15.986  0.3100  0.1098  0.4257
 2772SOL     OW19951   0.062   3.549   3.323 -0.7383  0.3776  0.0465
 2772SOL    HW119952   0.070   3.629   3.375  1.0509  1.2720 -1.5966
 2772SOL    HW219953   0.010   3.561   3.243  0.3968  0.0965 -0.7427
 2773SOL     OW19954   0.295   2.892   8.666 -0.7978  0.4092  0.4580
 2773SOL    HW119955   0.282   2.986   8.655  1.0558  0.6809  0.6285
 2773SOL    HW219956   0.336   2.889   8.753 -1.9405 -0.5944  0.9819
 2774SOL     OW19957   0.494   0.614   6.281 -0.4918  0.5812 -0.1563
 2774SOL    HW119958   0.582   0.650   6.268  0.0013 -0.5479  0.0155
 2774SOL    HW219959   0.511   0.521   6.264  1.0170  0.7738  0.3325
 2775SOL     OW19960   2.606   2.548  11.008  0.3019 -0.0443  0.3761
 2775SOL    HW119961   2.574   2.522  11.094  1.2029  1.3843  1.1559
 2775SOL    HW219962   2.628   2.641  11.016  1.7869 -0.3609 -0.1222
 2776SOL     OW19963   2.714   1.842  13.343 -0.5268 -0.1032  0.2678
 2776SOL    HW119964   2.750   1.883  13.421 -2.1920  0.6251  0.6519
 2776SOL    HW219965   2.742   1.899  13.272 -1.3902 -1.3419 -1.0904
 2777SOL     OW19966   3.031   3.619  11.169 -0.5225 -0.1555  0.3508
 2777SOL    HW119967   3.062   3.573  11.091  0.6049 -0.0448  0.7327
 2777SOL    HW219968   2.986   3.691  11.126 -1.1066 -0.4406  0.4794
 2778SOL     OW19969   0.702   3.337  15.268  0.3996  0.0024  0.0295
 2778SOL    HW119970   0.764   3.266  15.250 -0.8500 -1.0091 -0.2865
 2778SOL    HW219971   0.747   3.415  15.235 -3.3103  1.5757 -1.2906
 2779SOL     OW19972   4.069   2.213  15.010  0.2942 -0.3582 -0.0949
 2779SOL    HW119973   4.065   2.256  14.924 -0.7275 -2.1497 -0.9367
 2779SOL    HW219974   4.035   2.127  14.986  1.8915 -1.5190  1.8368
 2780SOL     OW19975   3.367   1.446   8.302 -0.3630 -0.1703  0.1370
 2780SOL    HW119976   3.448   1.420   8.346 -1.0029 -0.6889  1.0217
 2780SOL    HW219977   3.384   1.538   8.282 -0.2463  0.2652  2.2454
 2781SOL     OW19978   4.511   3.155   7.862 -0.3476 -0.0858  0.4936
 2781SOL    HW119979   4.555   3.073   7.837 -0.9839  0.0596 -1.0497
 2781SOL    HW219980   4.535   3.143   7.954 -1.4319  2.3857  1.0768
 2782SOL     OW19981   0.270   1.422   3.253  0.1374  0.2299 -0.5652
 2782SOL    HW119982   0.327   1.361   3.205  0.2055 -1.6203  1.8834
 2782SOL    HW219983   0.318   1.414   3.335 -1.4342 -0.7784  0.2526
 2783SOL     OW19984   4.691   2.786  13.561 -0.0472  0.4025  0.7351
 2783SOL    HW119985   4.730   2.762  13.477 -0.2064  0.9908  0.4981
 2783SOL    HW219986   4.728   2.718  13.618 -1.8150 -0.6997  0.5717
 2784SOL     OW19987   2.423   0.382   6.893 -0.3578 -0.1200  0.4553
 2784SOL    HW119988   2.475   0.457   6.865  1.1123 -1.4597 -0.3974
 2784SOL    HW219989   2.335   0.419   6.903  0.0075  1.6926 -2.9400
 2785SOL     OW19990   3.391   3.762   6.426  0.1218 -0.0650  0.1779
 2785SOL    HW119991   3.461   3.807   6.473  0.2414 -0.6915  0.5942
 2785SOL    HW219992   3.386   3.821   6.351  1.7306  0.6408  0.6231
 2786SOL     OW19993   2.988   0.092   8.556  0.6438 -0.3344 -0.0097
 2786SOL    HW119994   3.019   0.145   8.629 -0.2638  1.0784 -0.6645
 2786SOL    HW219995   2.894   0.108   8.551  0.3297 -1.6464  1.7045
 2787SOL     OW19996   3.232   4.570  15.690 -0.3540 -0.2890 -0.1506
 2787SOL    HW119997   3.160   4.628  15.665 -0.4585 -0.5873 -0.5320
 2787SOL    HW219998   3.268   4.550  15.604 -0.3885  1.6774 -0.6231
 2788SOL     OW19999   2.639   0.767   4.192 -0.3949 -0.4731 -0.2360
 2788SOL    HW120000   2.580   0.829   4.150  0.9929  0.5686 -0.6670
 2788SOL    HW220001   2.707   0.829   4.219  1.5181 -2.5416 -0.2533
 2789SOL     OW20002   1.040   3.209   8.452 -0.3901  0.2460  0.2268
 2789SOL    HW120003   1.064   3.119   8.430  0.5660  0.0428  2.1795
 2789SOL    HW220004   1.090   3.266   8.393 -0.0290 -2.0112 -1.6610
 2790SOL     OW20005   0.262   3.802   7.941  0.1078  0.1563  0.3925
 2790SOL    HW120006   0.309   3.728   7.980  0.6835  1.2758  1.8270
 2790SOL    HW220007   0.286   3.871   8.003  1.7489  0.4093 -0.5313
 2791SOL     OW20008   1.598   2.118   7.391 -0.9953 -0.2657 -0.0791
 2791SOL    HW120009   1.581   2.029   7.422 -1.2982  0.6562  2.3923
 2791SOL    HW220010   1.575   2.107   7.298  2.3008 -0.9010 -0.8316
 2792SOL     OW20011   3.846   1.533   4.104  0.4258  0.0036 -0.4100
 2792SOL    HW120012   3.899   1.525   4.183  0.1420 -1.2329 -0.3576
 2792SOL    HW220013   3.910   1.555   4.036  1.5971  0.0623  0.7256
 2793SOL     OW20014   3.117   1.960  13.500 -0.3078  0.0897  0.0740
 2793SOL    HW120015   3.132   2.004  13.584 -2.4206 -0.3675  0.6888
 2793SOL    HW220016   3.071   1.884  13.535  0.3102 -0.8317 -1.1179
 2794SOL     OW20017   4.614   2.931  12.279 -0.0408  0.5868 -0.0491
 2794SOL    HW120018   4.666   2.941  12.199 -0.4633 -0.5667 -0.4579
 2794SOL    HW220019   4.563   3.012  12.279 -1.3475 -0.2388 -0.3823
 2795SOL     OW20020   1.989   3.078   6.042 -0.1616  0.0007 -0.9095
 2795SOL    HW120021   1.901   3.043   6.055 -1.0321  2.5879  0.1170
 2795SOL    HW220022   2.001   3.064   5.948 -0.6407  2.1595 -1.2842
 2796SOL     OW20023   0.600   1.969   6.191 -0.5221  0.2556  0.0732
 2796SOL    HW120024   0.691   1.951   6.168  0.0983  1.9109  1.2653
 2796SOL    HW220025   0.579   2.026   6.116  1.2321  1.2205  0.3162
 2797SOL     OW20026   1.069   0.586   2.974 -0.1078 -0.0157 -0.5738
 2797SOL    HW120027   0.978   0.557   2.961 -0.1805  0.4796 -1.1853
 2797SOL    HW220028   1.040   0.648   3.041 -1.6135 -1.8274  0.4641
 2798SOL     OW20029   2.003   3.039  13.672  0.4598  0.1851 -0.2060
 2798SOL    HW120030   2.054   3.062  13.594  0.2371  0.2300 -0.3397
 2798SOL    HW220031   2.056   3.081  13.739 -0.5847  0.1958  0.6134
 2799SOL     OW20032   0.876   3.596   3.287 -0.1476 -0.1279  0.3649
 2799SOL    HW120033   0.819   3.523   3.264  2.2471 -2.3076  1.3839
 2799SOL    HW220034   0.965   3.564   3.298  0.2147  0.2809 -1.4771
 2800SOL     OW20035   1.779   3.825   2.142  0.0259  0.0150 -0.5773
 2800SOL    HW120036   1.783   3.846   2.048  1.3441  0.0752 -0.5205
 2800SOL    HW220037   1.701   3.874   2.164  0.7000  0.0376  1.7117
 2801SOL     OW20038   4.155   3.615   2.599 -0.2142 -0.1243 -0.1435
 2801SOL    HW120039   4.225   3.677   2.620  1.2151 -1.4033 -1.1244
 2801SOL    HW220040   4.071   3.661   2.602  0.3257  0.8265  0.4039
 2802SOL     OW20041   0.892   4.582  10.396  0.4753  0.1783 -0.6622
 2802SOL    HW120042   0.877   4.674  10.373 -1.8121  0.2453  1.1388
 2802SOL    HW220043   0.923   4.575  10.486  0.8952 -0.3726 -0.8505
 2803SOL     OW20044   4.588   1.115   9.129 -0.0368 -0.5843  0.1907
 2803SOL    HW120045   4.632   1.077   9.205 -0.0075  2.7920  1.8454
 2803SOL    HW220046   4.662   1.133   9.071 -0.6875  0.1196 -0.4301
 2804SOL     OW20047   4.575   3.691   4.772 -0.1505  0.5687 -0.1660
 2804SOL    HW120048   4.485   3.674   4.744  0.0640  0.5613 -0.8685
 2804SOL    HW220049   4.616   3.615   4.730 -2.5980 -1.1037  0.4368
 2805SOL     OW20050   1.809   2.562   2.349 -0.0587  0.2868  0.2554
 2805SOL    HW120051   1.792   2.468   2.350  1.3955  0.0388  1.8045
 2805SOL    HW220052   1.754   2.600   2.280  0.6015  0.8300  0.0260
 2806SOL     OW20053   3.882   2.763   3.278  0.3032 -0.3384 -0.1270
 2806SOL    HW120054   3.962   2.712   3.285  0.9199  0.3660 -2.0533
 2806SOL    HW220055   3.916   2.849   3.304  1.3171 -0.8236  0.1660
 2807SOL     OW20056   1.952   1.894   5.423  0.0287 -1.2209 -0.5727
 2807SOL    HW120057   1.905   1.926   5.346  0.6816 -1.9223 -1.2600
 2807SOL    HW220058   1.898   1.815   5.434  0.2072 -1.2897 -0.1903
 2808SOL     OW20059   2.103   0.707   3.463  0.5613 -0.0452  0.1197
 2808SOL    HW120060   2.137   0.713   3.553  0.8475 -1.9296  0.1305
 2808SOL    HW220061   2.035   0.640   3.471  0.8182 -0.3240 -0.0210
 2809SOL     OW20062   4.335   0.401   6.728  0.3782 -0.1870 -0.0235
 2809SOL    HW120063   4.409   0.339   6.727  0.2572 -0.3402  0.5116
 2809SOL    HW220064   4.368   0.456   6.799  2.2057 -1.1755 -0.1085
 2810SOL     OW20065   3.036   0.812  11.450  0.1532  0.4367 -0.9928
 2810SOL    HW120066   3.088   0.751  11.503 -1.5677 -0.1292  0.0549
 2810SOL    HW220067   3.069   0.899  11.475  1.6312 -0.4031 -0.0199
 2811SOL     OW20068   4.285   1.189   8.515 -0.0705 -0.3034 -0.1467
 2811SOL    HW120069   4.369   1.213   8.554 -0.8925 -1.1844  2.1944
 2811SOL    HW220070   4.283   1.093   8.512  0.9263 -0.3944  1.5850
 2812SOL     OW20071   1.115   0.575   0.001  0.1110  0.0463 -0.0041
 2812SOL    HW120072   1.103   0.496   0.054 -3.1635 -0.8325 -2.0733
 2812SOL    HW220073   1.021   0.576  17.739  0.3767  0.4540 -1.2290
 2813SOL     OW20074   0.078   0.650  16.405  0.2670 -0.7184 -0.4267
 2813SOL    HW120075   0.034   0.732  16.428 -0.5597 -1.1583 -0.4485
 2813SOL    HW220076   0.101   0.610  16.489 -0.9318 -0.6363 -0.0558
 2814SOL     OW20077   4.235   4.726   8.237 -0.5395  0.0969  0.6873
 2814SOL    HW120078   4.255   0.044   8.163 -1.5157 -1.2160 -0.5964
 2814SOL    HW220079   4.141   4.719   8.225 -0.0985 -3.6734 -0.6105
 2815SOL     OW20080   1.032   4.399   4.076 -0.4059 -0.5552  0.1005
 2815SOL    HW120081   0.938   4.380   4.075 -0.3243 -0.9690  0.4589
 2815SOL    HW220082   1.034   4.492   4.055 -0.8054 -0.7280 -0.7071
 2816SOL     OW20083   3.132   1.539   8.007  0.6064 -0.0203 -0.2122
 2816SOL    HW120084   3.218   1.498   8.009  0.4460 -0.3642 -0.3979
 2816SOL    HW220085   3.124   1.578   7.920 -2.6757 -0.0482  0.0760
 2817SOL     OW20086   4.244   1.019   5.067  1.1672 -0.2758 -0.4314
 2817SOL    HW120087   4.183   1.075   5.114 -0.2673 -0.4190 -2.1071
 2817SOL    HW220088   4.218   0.929   5.089  0.5245  0.2434  0.8744
 2818SOL     OW20089   1.927   1.192   3.283  0.8617  0.2874 -0.5586
 2818SOL    HW120090   1.997   1.155   3.336  0.9897  1.7859  0.3039
 2818SOL    HW220091   1.863   1.188   3.354  0.3327 -3.6398 -1.2340
 2819SOL     OW20092   4.478   0.016   4.268 -0.1076 -0.0355  0.6740
 2819SOL    HW120093   4.479   0.097   4.217  0.0360  0.7650  1.9552
 2819SOL    HW220094   4.390   0.028   4.303  0.2688  1.5413  1.0740
 2820SOL     OW20095   0.145   4.618  11.568 -0.4267  0.4373  0.1196
 2820SOL    HW120096   0.077   4.586  11.509 -0.4295  0.9986 -0.1779
 2820SOL    HW220097   0.138   4.552  11.638  2.5049 -0.0861 -0.0782
 2821SOL     OW20098   4.038   2.608   3.781 -0.1764  0.2025  0.2786
 2821SOL    HW120099   4.041   2.559   3.864  1.5222  0.3301  0.2841
 2821SOL    HW220100   4.042   2.538   3.716 -1.8899  0.2109  0.1608
 2822SOL     OW20101   2.851   1.488  16.355 -0.5834  0.5478  0.2075
 2822SOL    HW120102   2.769   1.458  16.394 -0.9326 -0.2457 -1.1234
 2822SOL    HW220103   2.830   1.581  16.342  3.2516  1.4886  0.8598
 2823SOL     OW20104   2.071   0.082  11.434  0.3138  0.1445  0.3184
 2823SOL    HW120105   1.986   0.048  11.459  2.1102 -2.5356  2.7995
 2823SOL    HW220106   2.049   0.123  11.350 -0.8305 -0.1515  0.4793
 2824SOL     OW20107   4.251   3.077   3.580 -0.3781 -0.1205  0.6376
 2824SOL    HW120108   4.270   2.985   3.561  0.7217 -0.1607  1.9018
 2824SOL    HW220109   4.288   3.122   3.504 -2.6391  0.1784 -0.2703
 2825SOL     OW20110   1.882   4.648   0.884  0.0501  0.0079  0.2290
 2825SOL    HW120111   1.825   4.659   0.807  2.4173  2.8922 -1.1149
 2825SOL    HW220112   1.831   4.696   0.948 -0.9983 -0.3890 -0.3021
 2826SOL     OW20113   1.760   2.741   5.041  0.2444  0.1829 -0.0642
 2826SOL    HW120114   1.783   2.812   4.981 -0.6936  1.3138  0.9469
 2826SOL    HW220115   1.680   2.708   5.001  0.9082 -0.7266 -0.6730
 2827SOL     OW20116   0.681   4.391   2.691  0.6559 -0.0539 -0.5916
 2827SOL    HW120117   0.664   4.480   2.722  1.8486 -1.0522  2.9402
 2827SOL    HW220118   0.613   4.374   2.625 -0.3978 -1.6205  0.9109
 2828SOL     OW20119   1.631   3.443   4.383 -0.0222  0.3531 -0.2612
 2828SOL    HW120120   1.548   3.484   4.406  0.2440  0.0880  1.1749
 2828SOL    HW220121   1.617   3.351   4.360 -0.7021 -0.0703  1.8618
 2829SOL     OW20122   3.672   1.331   3.156 -0.3437  0.0160 -0.3578
 2829SOL    HW120123   3.678   1.394   3.228  1.6429 -2.8935  2.0246
 2829SOL    HW220124   3.750   1.275   3.160  2.2972  3.6596  0.0220
 2830SOL     OW20125   1.950   3.061   2.249 -0.0217 -0.1232  0.1744
 2830SOL    HW120126   1.986   3.111   2.175 -1.4179 -1.3501 -1.3484
 2830SOL    HW220127   2.025   3.025   2.296 -1.4056  1.0781  3.2628
 2831SOL     OW20128   0.122   2.367   5.457  0.6187  0.1513 -0.5325
 2831SOL    HW120129   0.150   2.276   5.460 -0.5349 -0.2720 -2.3450
 2831SOL    HW220130   0.046   2.368   5.398  0.6415 -0.8467 -0.5693
 2832SOL     OW20131   0.209   2.984  17.466 -0.5838  0.5702 -0.3961
 2832SOL    HW120132   0.248   2.930  17.535 -2.2293 -0.0155  0.0900
 2832SOL    HW220133   0.223   3.072  17.500  1.0840 -0.5461  1.7963
 2833SOL     OW20134   1.715   3.201   0.901 -0.1900 -0.2042  0.1353
 2833SOL    HW120135   1.724   3.137   0.830 -0.3360  1.0493 -1.0294
 2833SOL    HW220136   1.712   3.153   0.984  1.0916  0.1474  0.3695
 2834SOL     OW20137   4.136   2.203  15.526  0.4454  0.1419  0.1426
 2834SOL    HW120138   4.059   2.221  15.472  1.2057  0.9433 -0.6829
 2834SOL    HW220139   4.141   2.297  15.546  1.0004  0.1983 -0.2652
 2835SOL     OW20140   1.706   0.009   6.203  0.6483  0.4539 -0.0510
 2835SOL    HW120141   1.662   0.070   6.144 -0.3149 -0.1373  0.0710
 2835SOL    HW220142   1.794   0.033   6.173  0.7506  0.6254  0.3838
 2836SOL     OW20143   1.153   1.330  13.103  0.5367 -0.3248 -0.2764
 2836SOL    HW120144   1.240   1.307  13.135 -0.9587 -3.4795  1.5570
 2836SOL    HW220145   1.154   1.425  13.117 -1.5577 -0.1961 -0.8959
 2837SOL     OW20146   2.198   4.519   9.872 -0.3966 -0.0858  0.1680
 2837SOL    HW120147   2.181   4.596   9.926  1.0454  0.1958  0.2258
 2837SOL    HW220148   2.108   4.493   9.851  0.4777 -2.7635 -0.3167
 2838SOL     OW20149   2.087   3.844  16.636 -0.0016 -0.5402  0.1426
 2838SOL    HW120150   2.111   3.756  16.605  0.3791 -1.1257  2.1234
 2838SOL    HW220151   2.125   3.905  16.573 -1.8648  1.6748  1.1877
 2839SOL     OW20152   0.937   4.140   1.039 -0.0560 -0.1681 -0.0836
 2839SOL    HW120153   1.010   4.173   1.091 -0.0232 -3.1421  1.7008
 2839SOL    HW220154   0.862   4.171   1.091  0.6273  1.3808 -0.0302
 2840SOL     OW20155   3.943   1.637  10.388  0.0905  0.1329 -0.1593
 2840SOL    HW120156   3.901   1.585  10.456  0.4256  1.4537  1.0441
 2840SOL    HW220157   4.022   1.680  10.421  0.5547  0.9854 -2.3585
 2841SOL     OW20158   0.851   0.379  13.039 -0.3286 -0.6434  0.2442
 2841SOL    HW120159   0.931   0.330  13.055 -0.9789 -2.1389 -1.1474
 2841SOL    HW220160   0.856   0.383  12.943  0.9758 -0.6834  0.3108
 2842SOL     OW20161   4.386   1.396   8.793 -0.0745 -0.5090  0.9161
 2842SOL    HW120162   4.353   1.360   8.876  0.4028 -0.0333  1.3079
 2842SOL    HW220163   4.481   1.393   8.802  0.2101 -2.3935 -2.8043
 2843SOL     OW20164   0.454   3.438  15.187  0.1295 -0.0938 -0.3859
 2843SOL    HW120165   0.541   3.417  15.220 -0.4602 -2.2761 -0.2016
 2843SOL    HW220166   0.415   3.432  15.275 -1.1319  2.1009 -0.7920
 2844SOL     OW20167   4.273   3.887   3.561  0.8101 -0.5168  0.3419
 2844SOL    HW120168   4.226   3.900   3.644 -0.3758 -2.7630  0.0205
 2844SOL    HW220169   4.296   3.796   3.582  2.0326 -0.5359 -1.1524
 2845SOL     OW20170   2.431   1.462  14.344 -0.0944  0.0936 -0.0289
 2845SOL    HW120171   2.520   1.449  14.377  0.2984  1.1860 -0.6386
 2845SOL    HW220172   2.369   1.437  14.412  1.9908 -0.6285  1.5921
 2846SOL     OW20173   3.326   1.780   3.488 -0.1786  0.6102  0.1293
 2846SOL    HW120174   3.334   1.807   3.580 -1.1451 -0.0310  0.4005
 2846SOL    HW220175   3.231   1.793   3.481 -0.2498 -0.4426 -0.7299
 2847SOL     OW20176   2.691   2.085  12.294  0.1195  0.4333  0.6777
 2847SOL    HW120177   2.744   2.165  12.288 -0.7403  0.9172 -0.5191
 2847SOL    HW220178   2.620   2.096  12.231  1.5186  1.4833 -0.7229
 2848SOL     OW20179   2.321   4.032   8.466  0.2035  0.7289 -0.3355
 2848SOL    HW120180   2.280   4.037   8.552  0.7770 -1.2299  0.0438
 2848SOL    HW220181   2.337   4.126   8.455 -0.8449  0.7768 -1.5210
 2849SOL     OW20182   4.570   3.858   4.071 -0.0193 -0.2438 -0.3657
 2849SOL    HW120183   4.627   3.785   4.047 -1.4294 -1.7505  0.8556
 2849SOL    HW220184   4.604   3.925   4.012  1.5014 -0.3343  0.3954
 2850SOL     OW20185   4.083   1.390  15.041 -0.4651 -0.0614 -0.9204
 2850SOL    HW120186   4.099   1.296  15.029 -1.1759 -0.6695  2.6897
 2850SOL    HW220187   4.163   1.416  15.087 -0.3094 -2.1722  0.0068
 2851SOL     OW20188   4.227   0.406   7.539 -0.0115  0.6093 -0.6157
 2851SOL    HW120189   4.235   0.339   7.607  3.1875  2.0621  0.4253
 2851SOL    HW220190   4.315   0.442   7.544  1.2705 -2.5944 -0.5783
 2852SOL     OW20191   4.402   2.795  14.913  0.5945  0.3782  0.2384
 2852SOL    HW120192   4.458   2.789  14.836  1.4143 -0.2702  0.8892
 2852SOL    HW220193   4.445   2.870  14.953  3.3403 -1.0802  0.0001
 2853SOL     OW20194   4.282   1.084   4.801  0.4683 -0.3134  0.6436
 2853SOL    HW120195   4.296   1.085   4.895 -0.2704  0.1995  0.7507
 2853SOL    HW220196   4.354   1.026   4.777 -0.1192  0.0042 -1.9391
 2854SOL     OW20197   2.932   3.028   3.361  0.4955 -0.2981  0.2416
 2854SOL    HW120198   2.863   3.020   3.295 -2.4496  1.5716  3.1495
 2854SOL    HW220199   2.904   2.945   3.400 -0.0872 -0.7271 -1.0836
 2855SOL     OW20200   1.583   3.376   3.551 -0.7592 -0.1413  0.7522
 2855SOL    HW120201   1.588   3.343   3.640  0.9629  0.5103  0.8922
 2855SOL    HW220202   1.513   3.318   3.520  0.5397  0.0937 -2.6889
 2856SOL     OW20203   2.743   1.584   4.759 -0.1241  0.7582 -0.0632
 2856SOL    HW120204   2.650   1.594   4.739 -0.3500  0.2350  0.7237
 2856SOL    HW220205   2.773   1.673   4.738  2.7419  0.0917  1.1622
 2857SOL     OW20206   4.172   1.061   0.346  0.5368  0.2466 -0.8200
 2857SOL    HW120207   4.225   1.137   0.319 -1.3229  1.0023 -2.3774
 2857SOL    HW220208   4.214   0.996   0.289 -0.9757  0.7372 -2.4978
 2858SOL     OW20209   0.337   1.404   6.239  0.0225  0.2834  0.0766
 2858SOL    HW120210   0.252   1.432   6.273 -1.4401  0.8575 -4.0175
 2858SOL    HW220211   0.387   1.472   6.283  0.4429 -1.1438  1.7990
 2859SOL     OW20212   0.303   1.910  15.456  0.4968 -0.1780 -0.8305
 2859SOL    HW120213   0.391   1.881  15.435  0.1892 -0.6033 -1.5252
 2859SOL    HW220214   0.272   1.823  15.482 -2.5412  0.9511 -0.6483
 2860SOL     OW20215   4.105   1.778   0.182 -0.0507  0.1999  0.2277
 2860SOL    HW120216   4.144   1.864   0.164  0.4820 -0.0916  0.0183
 2860SOL    HW220217   4.176   1.719   0.205  1.4393  0.7520 -3.0644
 2861SOL     OW20218   1.529   1.658   7.313  0.4765 -0.0815  0.1904
 2861SOL    HW120219   1.468   1.709   7.260  1.8237  2.1313  0.7683
 2861SOL    HW220220   1.576   1.601   7.251  1.1096 -1.5906  2.0487
 2862SOL     OW20221   3.010   1.065   7.139  0.5791 -0.5876  0.2836
 2862SOL    HW120222   3.011   1.011   7.218 -1.8590  0.9870  1.3993
 2862SOL    HW220223   2.932   1.117   7.159  0.3788 -0.9376  0.4229
 2863SOL     OW20224   0.853   4.389  13.100  0.3875  0.6694 -0.2509
 2863SOL    HW120225   0.796   4.367  13.027 -0.4558 -0.5365  0.7535
 2863SOL    HW220226   0.794   4.435  13.160  0.2921  0.4410 -0.1680
 2864SOL     OW20227   1.118   4.160   3.030  0.3126 -0.3044 -0.1295
 2864SOL    HW120228   1.103   4.244   3.073 -4.2346 -2.1718  1.8994
 2864SOL    HW220229   1.213   4.170   3.025  0.4394 -1.5061 -0.0152
 2865SOL     OW20230   4.242   2.577  16.040 -0.5587  0.7156  0.0115
 2865SOL    HW120231   4.235   2.512  16.109 -2.1465  0.3937 -0.4619
 2865SOL    HW220232   4.304   2.641  16.077 -0.0903  0.5569 -0.4955
 2866SOL     OW20233   3.570   3.217  14.741  0.0647 -0.1512  0.1764
 2866SOL    HW120234   3.552   3.292  14.798 -0.6482 -0.6673  0.6179
 2866SOL    HW220235   3.564   3.257  14.654  2.3700  0.8235  0.4522
 2867SOL     OW20236   1.993   0.239   9.058 -0.4407 -0.0069  0.5871
 2867SOL    HW120237   1.950   0.197   9.133  0.1283 -2.6938 -0.6105
 2867SOL    HW220238   1.918   0.261   9.002  0.2750  1.3594  0.1594
 2868SOL     OW20239   3.104   4.050   1.909  0.0871 -0.4900  0.3867
 2868SOL    HW120240   3.148   4.084   1.986  2.3401  0.2113 -1.1995
 2868SOL    HW220241   3.019   4.021   1.942 -0.8152  0.3468 -1.1635
 2869SOL     OW20242   0.647   3.273  15.565  0.2449  0.2624 -0.0401
 2869SOL    HW120243   0.642   3.367  15.552  0.7172  0.0361 -1.8334
 2869SOL    HW220244   0.610   3.245  15.482 -3.5034  0.2527  1.5858
 2870SOL     OW20245   1.044   0.817  13.731 -0.1216 -0.4937  0.0518
 2870SOL    HW120246   0.966   0.781  13.773  0.1303 -1.0829  0.0133
 2870SOL    HW220247   1.012   0.823  13.641 -1.1170  0.6140  0.4689
 2871SOL     OW20248   0.066   0.046   4.512 -0.6721  0.2233 -0.1546
 2871SOL    HW120249   0.113   4.716   4.558 -1.1216 -0.9589 -1.4973
 2871SOL    HW220250   0.048   0.102   4.587 -1.3256 -0.3056  0.0885
 2872SOL     OW20251   3.168   1.106   7.453  0.6042  0.3677  0.5739
 2872SOL    HW120252   3.203   1.034   7.400  0.8352  0.9114 -0.0235
 2872SOL    HW220253   3.092   1.058   7.484 -1.1273  2.2187 -0.8397
 2873SOL     OW20254   2.816   1.892   8.764 -0.1552 -0.3327  0.0637
 2873SOL    HW120255   2.759   1.815   8.775 -1.4254  0.6802  0.6410
 2873SOL    HW220256   2.760   1.954   8.717  1.3419  0.1349 -1.0783
 2874SOL     OW20257   1.687   2.645   3.138  0.7745 -0.1684  0.0033
 2874SOL    HW120258   1.751   2.649   3.066  0.2265  0.7120 -0.4409
 2874SOL    HW220259   1.671   2.734   3.170 -3.1086 -0.0642 -2.1368
 2875SOL     OW20260   3.363   4.559   7.518 -0.2697  0.3343 -0.0470
 2875SOL    HW120261   3.342   4.534   7.428 -2.0157  1.3564  0.0762
 2875SOL    HW220262   3.349   4.478   7.567 -2.2814  0.9368  0.3981
 2876SOL     OW20263   2.299   3.381   5.338 -0.4078  0.2799 -0.6393
 2876SOL    HW120264   2.348   3.346   5.264 -2.5927 -1.7284 -1.1528
 2876SOL    HW220265   2.365   3.353   5.402 -1.6528  0.8419  0.9086
 2877SOL     OW20266   2.948   2.948   1.303 -0.0156  0.2373  0.3468
 2877SOL    HW120267   2.908   2.913   1.224  0.3762 -2.6132  1.3933
 2877SOL    HW220268   2.881   3.005   1.340 -0.4787  0.6853 -1.1771
 2878SOL     OW20269   3.353   3.093   2.725 -0.1051  0.2528 -0.7366
 2878SOL    HW120270   3.261   3.066   2.722 -0.5398  1.4251  2.4006
 2878SOL    HW220271   3.376   3.039   2.800 -2.5892  0.3023  0.0489
 2879SOL     OW20272   4.487   0.753   5.595  0.0465  0.1117  0.0574
 2879SOL    HW120273   4.565   0.727   5.644 -0.1425 -1.2397 -0.3559
 2879SOL    HW220274   4.478   0.682   5.531 -0.6312  1.1249 -0.9694
 2880SOL     OW20275   1.048   2.991   9.306 -0.5263 -0.3268  0.7851
 2880SOL    HW120276   1.045   3.084   9.327  1.7051  0.1008 -0.7109
 2880SOL    HW220277   1.116   2.996   9.238  0.5473  0.5474  1.9257
 2881SOL     OW20278   2.705   4.123  10.682  0.1555 -0.5768 -0.4906
 2881SOL    HW120279   2.671   4.094  10.597 -0.4063  2.4456 -1.3214
 2881SOL    HW220280   2.626   4.160  10.722  0.3613  0.3310 -0.9193
 2882SOL     OW20281   3.325   3.829   1.505 -0.1621 -0.4893  0.4453
 2882SOL    HW120282   3.291   3.877   1.580 -1.3121  1.4575 -1.3511
 2882SOL    HW220283   3.364   3.902   1.458 -0.4265  1.3800  3.1593
 2883SOL     OW20284   3.559   2.047   6.653  0.2213 -0.4285  0.8964
 2883SOL    HW120285   3.511   2.090   6.582 -0.8295  1.5037  2.7994
 2883SOL    HW220286   3.498   1.975   6.668  1.3788 -2.2412 -3.2569
 2884SOL     OW20287   4.027   1.059   2.916 -0.7928 -0.4058  0.5002
 2884SOL    HW120288   4.083   0.981   2.920 -0.0611  0.1262  0.5573
 2884SOL    HW220289   3.978   1.040   2.836 -1.0024 -0.9182  0.7455
 2885SOL     OW20290   0.829   4.079   6.172 -0.1757 -0.6757 -0.0605
 2885SOL    HW120291   0.916   4.083   6.133 -0.1556 -1.5814 -0.1095
 2885SOL    HW220292   0.822   3.989   6.140  0.5969  0.5897 -3.7612
 2886SOL     OW20293   0.171   0.701   6.004 -0.2751  0.1642  0.1826
 2886SOL    HW120294   0.228   0.625   5.992 -1.5078 -1.0505  2.0995
 2886SOL    HW220295   0.216   0.742   6.078 -2.9904 -0.2151  2.0037
 2887SOL     OW20296   0.967   2.851  10.376 -0.1506  0.1557 -0.3837
 2887SOL    HW120297   0.930   2.938  10.358 -3.2485 -0.7870  1.3456
 2887SOL    HW220298   0.992   2.829  10.287  0.1524 -0.5914 -0.1095
 2888SOL     OW20299   4.072   1.538  15.660 -0.2816 -0.4331  0.2108
 2888SOL    HW120300   4.064   1.491  15.743 -0.2720 -1.9888 -0.6726
 2888SOL    HW220301   4.165   1.559  15.656 -0.6605  1.4668  1.2176
 2889SOL     OW20302   1.584   0.480   5.943  0.1711  0.4927 -0.1239
 2889SOL    HW120303   1.613   0.541   6.012  1.0608 -1.8936  1.6212
 2889SOL    HW220304   1.649   0.493   5.874 -1.1501 -0.4234 -1.5339
 2890SOL     OW20305   1.395   1.111   3.785  0.3083  0.5628 -0.2375
 2890SOL    HW120306   1.363   1.039   3.840 -0.6627  0.8037 -0.4950
 2890SOL    HW220307   1.323   1.148   3.735  0.6668  1.9697  0.2878
 2891SOL     OW20308   2.839   0.267   8.822  0.1610 -0.3600 -0.1423
 2891SOL    HW120309   2.837   0.348   8.872 -0.5675 -0.5463  0.1311
 2891SOL    HW220310   2.752   0.278   8.783  0.4378  0.6913 -0.4861
 2892SOL     OW20311   2.660   3.046   0.453 -0.3126  0.1188  0.5226
 2892SOL    HW120312   2.729   3.110   0.471 -1.8281  1.8989  0.0394
 2892SOL    HW220313   2.582   3.094   0.482 -1.2257 -0.2303 -1.3615
 2893SOL     OW20314   4.372   3.159   3.343  0.8945  0.2160 -0.2888
 2893SOL    HW120315   4.443   3.223   3.336  3.6280 -2.6790  0.3819
 2893SOL    HW220316   4.380   3.102   3.266 -1.9850  0.9509 -1.0993
 2894SOL     OW20317   3.192   3.011   1.168  0.3581 -0.4714 -0.0267
 2894SOL    HW120318   3.239   2.936   1.131  0.5419  0.4275 -1.5836
 2894SOL    HW220319   3.105   2.972   1.168  0.0143  0.3049 -1.2789
 2895SOL     OW20320   0.679   0.068  16.037 -0.8200  0.4869 -0.3942
 2895SOL    HW120321   0.760   0.072  16.087 -0.2940 -0.4645 -1.1664
 2895SOL    HW220322   0.714   0.036  15.954  1.4171 -2.3897  1.6787
 2896SOL     OW20323   0.334   0.722  16.289 -0.5670  0.0310 -0.1855
 2896SOL    HW120324   0.269   0.682  16.346  1.1189 -2.6855 -0.1784
 2896SOL    HW220325   0.308   0.814  16.287  2.5016  0.9062 -0.1758
 2897SOL     OW20326   2.035   3.578   2.534 -0.2729  0.3187 -0.6395
 2897SOL    HW120327   1.975   3.510   2.502 -1.1078  0.4719  0.6045
 2897SOL    HW220328   2.030   3.648   2.469 -2.0329  1.1964  0.4327
 2898SOL     OW20329   0.926   3.314   5.132 -0.6649  0.6366  0.2072
 2898SOL    HW120330   1.022   3.313   5.132 -0.6780  0.8395 -3.4271
 2898SOL    HW220331   0.902   3.308   5.225  0.0023  1.2847  0.4263
 2899SOL     OW20332   1.477   0.604   5.661  0.2497 -0.0120  0.1645
 2899SOL    HW120333   1.568   0.582   5.643 -0.7142 -1.6063 -2.6861
 2899SOL    HW220334   1.428   0.578   5.583 -0.4435 -0.1556  0.6461
 2900SOL     OW20335   3.498   4.004   1.356 -0.3885 -0.1928  1.0521
 2900SOL    HW120336   3.559   3.937   1.326 -0.7716  0.4823 -1.2772
 2900SOL    HW220337   3.543   4.040   1.432 -0.1062  1.0248  0.3148
 2901SOL     OW20338   4.004   1.107   4.784 -0.4848 -0.1166  0.4015
 2901SOL    HW120339   4.005   1.052   4.706 -1.8840  0.8401 -0.2841
 2901SOL    HW220340   4.098   1.106   4.801 -0.2415  0.1230 -0.9479
 2902SOL     OW20341   2.505   3.961   6.652  0.0157 -0.4363 -0.0675
 2902SOL    HW120342   2.440   4.026   6.628 -0.6341 -1.8439 -2.1190
 2902SOL    HW220343   2.586   4.013   6.654 -1.9307  2.5919 -0.4753
 2903SOL     OW20344   2.842   1.641  14.567 -0.5040  0.8075 -0.2923
 2903SOL    HW120345   2.816   1.731  14.582 -0.5249  0.5317  1.2815
 2903SOL    HW220346   2.895   1.618  14.643  1.2327 -2.9326 -2.6065
 2904SOL     OW20347   3.500   2.312   3.096  0.1672  0.4470  0.5199
 2904SOL    HW120348   3.562   2.367   3.048  2.8398  1.0908  4.6751
 2904SOL    HW220349   3.533   2.223   3.095  1.0829  0.8262 -2.5266
 2905SOL     OW20350   1.944   0.923   3.718  0.3444 -0.2550  0.3762
 2905SOL    HW120351   1.966   0.975   3.795  0.2252 -0.5860  0.6320
 2905SOL    HW220352   2.013   0.857   3.725  0.4266  0.1761  3.7784
 2906SOL     OW20353   3.498   2.867  14.554  0.7295  0.0092  0.2500
 2906SOL    HW120354   3.492   2.923  14.631  0.7523 -0.1719  0.3826
 2906SOL    HW220355   3.592   2.856  14.544  0.2335 -2.1234 -2.2541
 2907SOL     OW20356   4.464   1.489  10.770  0.3094  0.6591 -0.2283
 2907SOL    HW120357   4.510   1.472  10.687  2.6430  0.2009  1.1661
 2907SOL    HW220358   4.471   1.400  10.804 -0.0898  0.7144 -0.0036
 2908SOL     OW20359   1.084   3.282  11.186  0.0788  0.3149  0.1750
 2908SOL    HW120360   1.057   3.281  11.278 -0.4006  0.9704  0.0456
 2908SOL    HW220361   1.098   3.190  11.162  3.9142  1.2843 -1.3558
 2909SOL     OW20362   1.034   2.133   3.763 -0.0635 -0.0385  0.5169
 2909SOL    HW120363   1.041   2.051   3.813  0.2570 -2.6535 -3.8528
 2909SOL    HW220364   0.973   2.107   3.695  0.7546  1.2504 -0.6999
 2910SOL     OW20365   1.028   0.077   5.000 -0.0612  0.2212 -0.8413
 2910SOL    HW120366   0.999   0.161   4.965 -0.7513 -0.3210 -1.5613
 2910SOL    HW220367   1.102   0.095   5.058 -0.0426  0.8605 -1.0657
 2911SOL     OW20368   1.777   0.073   5.584 -0.2225  0.0319  0.2523
 2911SOL    HW120369   1.755   0.035   5.499  0.2726 -0.6462  0.4237
 2911SOL    HW220370   1.872   0.088   5.580 -0.4083  0.4783 -2.3507
 2912SOL     OW20371   4.103   4.036   8.883 -0.1428 -0.4030 -0.0951
 2912SOL    HW120372   4.101   3.952   8.929  1.7357  0.0099  0.7205
 2912SOL    HW220373   4.014   4.069   8.896 -0.8446 -2.9317  1.4849
 2913SOL     OW20374   4.066   3.208   5.153 -0.2222 -0.4285  0.6776
 2913SOL    HW120375   4.067   3.145   5.226 -0.3371 -0.6900  0.4531
 2913SOL    HW220376   4.159   3.197   5.133 -0.0596 -0.3874  1.3900
 2914SOL     OW20377   1.771   0.325   8.919  0.6331 -0.0070 -0.3649
 2914SOL    HW120378   1.797   0.371   8.999 -0.9519  1.1491 -0.5110
 2914SOL    HW220379   1.710   0.385   8.876 -0.1980 -0.9012 -0.4407
 2915SOL     OW20380   0.369   3.595  15.549  0.2708 -0.7426  0.7030
 2915SOL    HW120381   0.342   3.520  15.496 -0.4155 -0.0561  0.0779
 2915SOL    HW220382   0.320   3.584  15.631 -0.7001  1.8815  0.4586
 2916SOL     OW20383   0.222   2.686   9.483  0.0353  0.1129  0.2602
 2916SOL    HW120384   0.197   2.715   9.571  1.6005  2.6114 -0.1138
 2916SOL    HW220385   0.311   2.654   9.496  1.2202  3.1583 -0.3719
 2917SOL     OW20386   2.401   4.631  15.436  0.4372 -0.5797 -0.3138
 2917SOL    HW120387   2.333   4.699  15.444 -0.8529 -2.0173  1.0137
 2917SOL    HW220388   2.342   4.577  15.384 -0.7951  0.6519 -0.2383
 2918SOL     OW20389   0.230   3.952  16.248 -0.0416 -0.2047 -0.4305
 2918SOL    HW120390   0.282   4.028  16.223  0.2133 -0.7604 -1.5671
 2918SOL    HW220391   0.164   3.983  16.311 -0.2204 -1.7538  0.1608
 2919SOL     OW20392   3.781   1.006   9.500 -0.3168 -0.1424  0.3549
 2919SOL    HW120393   3.721   1.016   9.426  0.5704 -2.0406 -0.6407
 2919SOL    HW220394   3.763   0.917   9.531 -0.1523  0.1758  1.3605
 2920SOL     OW20395   2.169   1.598   2.994  0.1749  0.3670  0.2001
 2920SOL    HW120396   2.154   1.521   3.049  1.9029  0.3895  0.6941
 2920SOL    HW220397   2.085   1.606   2.948  0.2498  1.5120  0.2589
 2921SOL     OW20398   2.790   3.774   8.399 -0.0840  0.4529  0.3710
 2921SOL    HW120399   2.841   3.824   8.336  0.1620  0.7811  0.8410
 2921SOL    HW220400   2.747   3.843   8.449 -1.6890 -0.0261 -0.3276
 2922SOL     OW20401   3.094   2.633  13.237 -0.2097 -0.0873  0.1850
 2922SOL    HW120402   3.042   2.624  13.157  0.8964 -1.3416 -0.3909
 2922SOL    HW220403   3.179   2.655  13.199  0.1720 -2.8734 -0.5921
 2923SOL     OW20404   4.266   4.313   4.316  0.0609 -0.4698  0.6658
 2923SOL    HW120405   4.329   4.345   4.381  1.9203 -0.1924 -1.2797
 2923SOL    HW220406   4.322   4.262   4.258 -0.3719 -0.2021  0.0196
 2924SOL     OW20407   2.038   4.245  15.128 -0.2905 -0.2135  0.2523
 2924SOL    HW120408   2.022   4.251  15.222 -3.6783  1.0687 -0.3928
 2924SOL    HW220409   2.012   4.331  15.094 -0.8356 -2.0454 -3.9778
 2925SOL     OW20410   2.730   2.974   3.132 -0.3224 -0.1218  0.9103
 2925SOL    HW120411   2.780   2.927   3.064  0.1912 -1.2088  2.0481
 2925SOL    HW220412   2.670   2.907   3.164  0.2184 -1.7230 -1.4486
 2926SOL     OW20413   2.833   4.226   5.544 -0.6391  0.2657  0.1065
 2926SOL    HW120414   2.797   4.200   5.629  1.9349 -3.3520  0.0800
 2926SOL    HW220415   2.817   4.145   5.496  1.0588  0.1573 -0.2666
 2927SOL     OW20416   0.854   0.560  14.602  0.1156  0.6618 -0.1523
 2927SOL    HW120417   0.886   0.471  14.621 -1.2013  0.5625  1.6151
 2927SOL    HW220418   0.920   0.617  14.642 -1.4620  1.6603  1.0115
 2928SOL     OW20419   4.039   3.637  15.875  0.7504 -0.2279  0.0937
 2928SOL    HW120420   4.060   3.727  15.901 -0.8020  0.2646 -0.3270
 2928SOL    HW220421   4.080   3.640  15.789  1.4275 -2.6307  0.3425
 2929SOL     OW20422   2.750   4.658   1.712  0.1984 -0.4136 -0.5729
 2929SOL    HW120423   2.793   4.594   1.769  1.6434  1.8676  0.9111
 2929SOL    HW220424   2.788   4.643   1.625  1.8955 -0.2849  0.1431
 2930SOL     OW20425   3.144   0.277  16.210 -0.5164 -0.2204  0.1150
 2930SOL    HW120426   3.136   0.192  16.169 -0.6581 -0.1084 -0.0892
 2930SOL    HW220427   3.213   0.321  16.161  0.8217 -1.9209  0.4777
 2931SOL     OW20428   0.846   2.575   6.131 -0.1964 -0.1804 -0.0254
 2931SOL    HW120429   0.846   2.479   6.141 -0.6176 -0.2491 -0.6911
 2931SOL    HW220430   0.924   2.585   6.077  1.0310 -2.4376  1.3054
 2932SOL     OW20431   2.797   3.166  10.200 -0.0501 -0.4632  0.2881
 2932SOL    HW120432   2.763   3.124  10.279 -0.9481  0.0494  0.1711
 2932SOL    HW220433   2.748   3.110  10.140 -0.6678  1.3689 -0.8970
 2933SOL     OW20434   2.991   2.611   3.253 -0.5350 -0.5121  0.1586
 2933SOL    HW120435   2.900   2.630   3.273 -0.6092 -0.1833 -0.4910
 2933SOL    HW220436   2.977   2.551   3.179 -0.4247  1.2504 -1.3170
 2934SOL     OW20437   2.449   3.936   1.878  0.2314  0.0210 -0.2011
 2934SOL    HW120438   2.423   3.963   1.966 -1.1194 -0.6501 -0.3914
 2934SOL    HW220439   2.471   3.843   1.885 -0.8444 -0.1707  0.7198
 2935SOL     OW20440   1.368   4.705   2.548  0.1686 -0.2342  0.1662
 2935SOL    HW120441   1.370   4.703   2.452 -0.1291  0.1787  0.1513
 2935SOL    HW220442   1.332   4.619   2.569  1.1978 -0.5520  0.6805
 2936SOL     OW20443   3.035   0.712   6.065  0.1745 -0.2714  0.1457
 2936SOL    HW120444   3.100   0.768   6.021 -0.2503 -1.8420 -2.4597
 2936SOL    HW220445   3.000   0.659   5.993  0.7851 -0.7109  0.1753
 2937SOL     OW20446   1.899   0.856   7.487 -0.1516 -0.0680  0.0916
 2937SOL    HW120447   1.840   0.919   7.529 -1.5428 -2.1346  1.2340
 2937SOL    HW220448   1.843   0.837   7.412 -2.2798  1.0410  1.3856
 2938SOL     OW20449   3.632   2.294  12.511 -0.0326 -0.9962  0.4509
 2938SOL    HW120450   3.690   2.310  12.437  0.0739 -0.5945  0.6205
 2938SOL    HW220451   3.577   2.371  12.499  0.1698 -0.6706  1.5663
 2939SOL     OW20452   4.368   4.344  12.874  0.0292 -0.0285 -0.1104
 2939SOL    HW120453   4.297   4.323  12.814 -0.5348 -0.1386  0.5971
 2939SOL    HW220454   4.432   4.279  12.847  3.2673  3.3708 -0.6669
 2940SOL     OW20455   1.104   4.526   4.482 -0.1017  0.1405 -0.0904
 2940SOL    HW120456   1.015   4.550   4.509 -0.9015 -0.1508 -2.5073
 2940SOL    HW220457   1.142   4.531   4.570  0.1669 -2.0511 -0.0822
 2941SOL     OW20458   3.456   1.960   8.547  0.6824  0.6474 -0.4861
 2941SOL    HW120459   3.513   2.031   8.515  1.4348 -0.7386 -2.2031
 2941SOL    HW220460   3.375   2.011   8.550  1.0068  1.1359  0.0939
 2942SOL     OW20461   3.239   1.084  10.222  0.4202  0.0607  0.1970
 2942SOL    HW120462   3.270   1.024  10.154 -2.1061 -2.6388  1.3851
 2942SOL    HW220463   3.151   1.098  10.188  1.3000  3.2783 -0.7459
 2943SOL     OW20464   4.192   3.943   8.608 -0.1964 -0.8920 -0.1890
 2943SOL    HW120465   4.250   4.015   8.584 -1.1078  0.2471  0.9924
 2943SOL    HW220466   4.138   3.981   8.677  0.2179 -0.8312  0.1020
 2944SOL     OW20467   2.546   4.297  17.278  0.3922 -0.0653  0.1590
 2944SOL    HW120468   2.631   4.271  17.242 -0.1636 -0.5239 -0.8223
 2944SOL    HW220469   2.549   4.252  17.362  0.9779  1.3136  0.8851
 2945SOL     OW20470   3.346   1.913   6.747 -0.0579 -0.0152 -0.3597
 2945SOL    HW120471   3.299   1.889   6.827 -2.9877 -1.2457 -2.4158
 2945SOL    HW220472   3.310   1.853   6.681  2.7807 -1.4697 -0.5649
 2946SOL     OW20473   3.499   4.046   4.927  0.6241  0.3001  0.0161
 2946SOL    HW120474   3.472   4.135   4.906  1.1763  0.3087 -0.6617
 2946SOL    HW220475   3.485   4.002   4.843 -2.1661 -1.9060  1.6003
 2947SOL     OW20476   0.841   1.276   8.912 -0.0907 -0.5665 -0.0940
 2947SOL    HW120477   0.897   1.310   8.981 -0.9146 -1.0928  0.8318
 2947SOL    HW220478   0.907   1.301   8.847 -0.6339 -1.8560 -1.1497
 2948SOL     OW20479   0.897   0.467   7.972  0.2512  0.8451  0.3483
 2948SOL    HW120480   0.890   0.379   7.935  0.9382  1.6518 -1.7087
 2948SOL    HW220481   0.910   0.521   7.894  0.3430  0.2361 -0.0587
 2949SOL     OW20482   3.386   0.280  15.233  0.1911  0.3525  0.6687
 2949SOL    HW120483   3.426   0.273  15.320  2.4039  0.5006 -0.3424
 2949SOL    HW220484   3.291   0.278  15.246  0.1193 -1.0434 -0.1171
 2950SOL     OW20485   1.905   1.988   8.402  0.3027  0.1125  0.2009
 2950SOL    HW120486   1.914   2.069   8.451 -0.8509  0.3710 -0.0199
 2950SOL    HW220487   1.965   1.924   8.439  0.5288 -0.1128 -0.5615
 2951SOL     OW20488   0.827   1.090   3.574 -0.7053  0.1566 -0.0724
 2951SOL    HW120489   0.827   1.056   3.663 -0.4470  2.1361  0.6905
 2951SOL    HW220490   0.846   1.010   3.525  2.0927  1.4272 -1.0566
 2952SOL     OW20491   0.821   3.065   5.003  0.3775 -0.2161  0.3951
 2952SOL    HW120492   0.883   3.124   5.045 -0.2226 -0.5396  1.7599
 2952SOL    HW220493   0.750   3.130   5.000 -0.4430 -1.2078 -1.6835
 2953SOL     OW20494   3.310   4.673  15.926  0.2924  0.0135  0.2470
 2953SOL    HW120495   3.277   4.634  15.846 -2.7739  0.7756  1.1275
 2953SOL    HW220496   3.316   4.594  15.980  0.3188  1.2294  2.0430
 2954SOL     OW20497   2.610   3.436   8.742  0.2238  0.2373 -0.0835
 2954SOL    HW120498   2.651   3.443   8.828 -1.3305 -1.4890  0.8242
 2954SOL    HW220499   2.677   3.470   8.683  1.7958  1.6584  2.5281
 2955SOL     OW20500   3.093   3.346  13.119 -0.1558  0.5779 -0.0934
 2955SOL    HW120501   3.124   3.290  13.048 -1.0721 -0.2020  0.1126
 2955SOL    HW220502   3.000   3.325  13.105 -0.1239  0.5277 -0.2317
 2956SOL     OW20503   2.002   2.665   3.974  0.0681  0.1272  0.0246
 2956SOL    HW120504   2.020   2.598   3.908 -1.9339 -3.4151  3.1547
 2956SOL    HW220505   2.091   2.687   4.002  0.3859  0.7958 -1.4516
 2957SOL     OW20506   0.126   2.987   7.649 -0.0381 -0.4689 -0.1241
 2957SOL    HW120507   0.211   2.952   7.674  0.8814 -0.7336 -3.7271
 2957SOL    HW220508   0.067   2.916   7.677 -1.9707  0.6786 -1.2555
 2958SOL     OW20509   0.919   4.586   9.869 -0.6949  0.2186  0.1624
 2958SOL    HW120510   1.013   4.568   9.859 -0.7698 -1.2951  2.3404
 2958SOL    HW220511   0.915   4.558   9.960 -1.5721 -0.1231  0.0170
 2959SOL     OW20512   0.703   2.862   6.710 -0.3774  0.0007 -0.2513
 2959SOL    HW120513   0.755   2.784   6.690  0.9028  1.3326 -2.2148
 2959SOL    HW220514   0.751   2.930   6.662  1.7750 -0.3902  1.3504
 2960SOL     OW20515   0.435   1.583   7.403  0.4344 -0.1344 -0.0498
 2960SOL    HW120516   0.367   1.582   7.470 -0.6982 -0.0828 -1.1971
 2960SOL    HW220517   0.417   1.500   7.359 -0.8145  1.1839 -2.0272
 2961SOL     OW20518   4.135   1.820   1.093 -0.1342 -0.1191  0.0258
 2961SOL    HW120519   4.207   1.799   1.153  1.1836  2.7057 -0.5408
 2961SOL    HW220520   4.059   1.812   1.149 -0.9846  0.6997 -1.0088
 2962SOL     OW20521   1.519   3.414   9.592 -0.1650 -0.2535  0.2654
 2962SOL    HW120522   1.609   3.396   9.565 -0.3300 -0.6108 -0.0459
 2962SOL    HW220523   1.536   3.471   9.667  1.5089 -1.0127  0.4840
 2963SOL     OW20524   1.343   3.111   2.146  0.4887  0.3039 -0.2147
 2963SOL    HW120525   1.424   3.082   2.105  0.9597 -0.3881  1.2240
 2963SOL    HW220526   1.352   3.206   2.156 -1.8414  0.6952 -1.7055
 2964SOL     OW20527   4.113   1.614   9.929 -0.4019  0.2860  0.1920
 2964SOL    HW120528   4.060   1.539   9.956 -2.7806  1.7434 -0.4684
 2964SOL    HW220529   4.161   1.585   9.852 -1.3504 -0.5849 -0.0656
 2965SOL     OW20530   2.143   2.431  17.571 -0.1109 -0.1103  0.1873
 2965SOL    HW120531   2.076   2.363  17.576 -1.2645  1.0022  0.1310
 2965SOL    HW220532   2.172   2.446  17.481  0.3369 -0.6950  0.2366
 2966SOL     OW20533   0.593   2.700   8.609 -0.1036 -0.6238  0.5712
 2966SOL    HW120534   0.599   2.779   8.663  1.9909 -0.6710  0.4271
 2966SOL    HW220535   0.685   2.679   8.594 -0.0472  0.2297 -0.2576
 2967SOL     OW20536   3.720   1.385   7.478 -0.1901 -0.0086  0.5689
 2967SOL    HW120537   3.805   1.361   7.442 -0.3015 -2.0362  1.6831
 2967SOL    HW220538   3.705   1.320   7.547  1.6942  0.2480  1.2239
 2968SOL     OW20539   0.621   1.655   6.226 -0.3983  0.6436  0.2559
 2968SOL    HW120540   0.690   1.719   6.208  1.0373 -0.2287  2.6974
 2968SOL    HW220541   0.673   1.579   6.255  0.9781  1.5724  0.1967
 2969SOL     OW20542   0.323   0.348   2.109 -0.0215 -0.0824  0.1433
 2969SOL    HW120543   0.238   0.368   2.071 -1.2809  1.2234  3.7275
 2969SOL    HW220544   0.308   0.260   2.143  2.1766 -1.0735 -1.4463
 2970SOL     OW20545   2.207   2.555  15.666 -0.6138  0.0435  0.3647
 2970SOL    HW120546   2.265   2.611  15.717 -0.5230 -0.5238  0.8874
 2970SOL    HW220547   2.129   2.611  15.660 -0.4987  0.2867  1.1057
 2971SOL     OW20548   4.730   1.910   4.608  0.0995  0.4372 -0.1249
 2971SOL    HW120549   4.727   1.882   4.700  2.4541 -0.7089 -0.4099
 2971SOL    HW220550   4.733   1.825   4.564 -0.0426  0.3287  0.0736
 2972SOL     OW20551   0.886   0.372   3.735 -0.1090 -0.7335  0.2947
 2972SOL    HW120552   0.824   0.340   3.669  0.8124 -0.5455 -0.6541
 2972SOL    HW220553   0.940   0.294   3.742  1.6270  0.1454 -3.4469
 2973SOL     OW20554   1.391   3.834   2.243 -0.2534  0.1762 -0.1012
 2973SOL    HW120555   1.298   3.823   2.225 -0.5315  0.9866  0.8108
 2973SOL    HW220556   1.412   3.757   2.295 -0.2862 -0.5058 -1.1164
 2974SOL     OW20557   1.529   0.987   2.480  0.0702  0.1307  0.0360
 2974SOL    HW120558   1.448   1.029   2.449  1.2362  0.8581 -1.9622
 2974SOL    HW220559   1.522   1.008   2.573 -2.0671 -0.2834 -0.0191
 2975SOL     OW20560   0.673   3.276   7.683  0.0249 -0.5567  0.1014
 2975SOL    HW120561   0.715   3.213   7.625  2.3576  0.5414  0.6090
 2975SOL    HW220562   0.715   3.358   7.658 -0.5563  0.6365  3.0762
 2976SOL     OW20563   1.668   4.697   8.358  0.1188 -0.1067 -0.2565
 2976SOL    HW120564   1.587   4.697   8.410 -0.0381 -1.6670 -0.4947
 2976SOL    HW220565   1.689   4.604   8.361 -1.7277 -0.4734  1.3501
 2977SOL     OW20566   0.699   3.929   7.877 -0.0431  0.3868  0.3796
 2977SOL    HW120567   0.765   3.868   7.843 -0.4078  0.9687 -1.3820
 2977SOL    HW220568   0.671   3.887   7.959 -2.9343  0.4757 -0.5763
 2978SOL     OW20569   2.754   0.844   5.967 -0.3558 -0.0102  0.1641
 2978SOL    HW120570   2.840   0.886   5.962 -0.1179 -0.4083  0.9124
 2978SOL    HW220571   2.713   0.901   6.032 -0.1893 -0.1863  0.4258
 2979SOL     OW20572   2.693   1.028   4.601  0.0370 -0.0737  0.0927
 2979SOL    HW120573   2.642   1.101   4.566 -0.2204  0.2836  1.2261
 2979SOL    HW220574   2.689   1.051   4.694  0.9239  0.7842 -0.0831
 2980SOL     OW20575   0.313   3.440  16.103 -0.3004 -0.3543  0.1361
 2980SOL    HW120576   0.275   3.467  16.019  0.0140  2.3235  0.8608
 2980SOL    HW220577   0.282   3.349  16.103  2.2759 -1.2321 -2.9737
 2981SOL     OW20578   0.632   2.912   7.930  0.6079 -0.4605  0.0375
 2981SOL    HW120579   0.617   2.833   7.982 -3.4250  0.2670 -0.0014
 2981SOL    HW220580   0.634   2.877   7.841  2.3549  0.2482 -0.1988
 2982SOL     OW20581   3.888   0.783   2.258 -0.3341 -0.2344  0.2813
 2982SOL    HW120582   3.983   0.775   2.251 -0.4626 -0.5593 -0.9632
 2982SOL    HW220583   3.863   0.704   2.306 -2.3557  0.3110  0.1496
 2983SOL     OW20584   1.555   1.135   8.839 -0.5659 -0.1131 -0.7896
 2983SOL    HW120585   1.530   1.111   8.750  0.4097 -1.4223 -0.7012
 2983SOL    HW220586   1.505   1.072   8.891  1.5385 -0.2398  1.0660
 2984SOL     OW20587   3.349   0.199   6.523  0.4454 -0.4213 -0.0249
 2984SOL    HW120588   3.387   0.123   6.479  2.0329 -0.1786  0.8917
 2984SOL    HW220589   3.274   0.224   6.469  1.5383  1.3044 -0.7239
 2985SOL     OW20590   4.305   1.111  12.947  0.1475 -0.4273  0.0101
 2985SOL    HW120591   4.356   1.030  12.949 -1.3653 -1.3192  1.7452
 2985SOL    HW220592   4.368   1.182  12.937  0.0809 -0.5553 -1.3216
 2986SOL     OW20593   4.670   1.770  13.302  0.5433  0.0659 -0.2784
 2986SOL    HW120594   4.671   1.712  13.226 -0.7445 -1.3345  0.7592
 2986SOL    HW220595   0.023   1.777  13.324  0.3215  0.2916  0.5887
 2987SOL     OW20596   0.802   0.555   2.971 -0.2644  0.3362  0.2469
 2987SOL    HW120597   0.783   0.472   2.927  2.4296 -1.2852  2.1400
 2987SOL    HW220598   0.728   0.605   2.937 -0.3338 -0.2472 -0.4624
 2988SOL     OW20599   3.035   2.411   3.750 -0.2472 -0.5841 -0.2030
 2988SOL    HW120600   3.017   2.425   3.843 -2.9991 -0.2916 -0.7816
 2988SOL    HW220601   2.948   2.383   3.722  1.0863 -1.9964 -2.9608
 2989SOL     OW20602   3.156   0.834  11.765  1.5012  0.2774 -0.3203
 2989SOL    HW120603   3.167   0.789  11.681 -0.8787  1.0653 -1.0595
 2989SOL    HW220604   3.120   0.761  11.815  1.8506  0.8744  0.8226
 2990SOL     OW20605   1.857   0.540   6.426 -0.1357  0.0399  0.0171
 2990SOL    HW120606   1.811   0.484   6.488  0.0583 -0.4004 -0.2337
 2990SOL    HW220607   1.825   0.629   6.444  0.8208  0.1723  1.0516
 2991SOL     OW20608   4.700   1.285   7.204 -0.1976  0.0156  0.0479
 2991SOL    HW120609   0.009   1.205   7.185  1.3901  1.0127 -0.0888
 2991SOL    HW220610   4.706   1.337   7.125  1.0126 -2.4879 -1.5157
 2992SOL     OW20611   2.543   1.862  17.747 -0.3068 -0.3017  0.3681
 2992SOL    HW120612   2.523   1.874   0.082 -2.9563 -1.4735 -0.0407
 2992SOL    HW220613   2.450   1.858  17.723 -0.5243  2.3571  0.7812
 2993SOL     OW20614   1.973   4.069   2.419  0.0803 -0.1654  0.2525
 2993SOL    HW120615   1.915   4.105   2.352 -1.1058 -0.2864  1.2128
 2993SOL    HW220616   2.060   4.100   2.394  0.1721 -0.1585  0.5765
 2994SOL     OW20617   3.363   1.810   7.745 -0.5979  0.0648 -0.1601
 2994SOL    HW120618   3.367   1.721   7.711 -1.9900  0.6344 -1.7964
 2994SOL    HW220619   3.453   1.829   7.772 -1.2955  0.3154  1.9998
 2995SOL     OW20620   0.821   1.026  17.559 -0.7739  0.1832  0.0892
 2995SOL    HW120621   0.814   1.097  17.623 -1.6049  0.1654  0.0145
 2995SOL    HW220622   0.885   0.968  17.599  0.6101  0.5628 -1.5578
 2996SOL     OW20623   4.132   0.537   2.462 -0.0537 -0.3313  0.4618
 2996SOL    HW120624   4.116   0.494   2.378 -0.0140  1.9123 -0.6929
 2996SOL    HW220625   4.054   0.505   2.508  0.4790 -2.4758 -0.1280
 2997SOL     OW20626   3.451   2.216   5.430 -0.2394  0.1934  0.0378
 2997SOL    HW120627   3.479   2.162   5.356  1.4187  1.6087 -0.3588
 2997SOL    HW220628   3.359   2.191   5.423 -0.6927  1.3671  1.6669
 2998SOL     OW20629   2.565   1.280   4.625  0.6180 -0.3862 -0.3929
 2998SOL    HW120630   2.604   1.342   4.563 -0.0872  0.0245 -0.4268
 2998SOL    HW220631   2.508   1.343   4.670  2.1138 -1.0756  2.5080
 2999SOL     OW20632   2.864   1.160  11.908 -0.0613 -0.3347 -0.0048
 2999SOL    HW120633   2.946   1.149  11.859  0.0413 -0.7471  0.2585
 2999SOL    HW220634   2.891   1.121  11.992  1.9036  1.9996  0.4472
 3000SOL     OW20635   1.786   1.783  14.623  0.0899  0.3049 -0.4909
 3000SOL    HW120636   1.863   1.730  14.605 -0.7771 -1.8631  2.1167
 3000SOL    HW220637   1.719   1.720  14.596  0.1601 -0.0843  0.2462
 3001SOL     OW20638   3.865   1.312   5.468  0.2621  0.0182  0.4789
 3001SOL    HW120639   3.830   1.223   5.465 -1.2343  0.6080  0.3846
 3001SOL    HW220640   3.959   1.293   5.475  0.5819  2.3512  2.8020
 3002SOL     OW20641   0.204   4.466  17.283  0.5058 -0.4238  0.2567
 3002SOL    HW120642   0.161   4.384  17.258 -1.1829  0.4648  0.2504
 3002SOL    HW220643   0.292   4.434  17.306  0.3027 -2.4120 -1.6998
 3003SOL     OW20644   0.026   2.717  15.087 -0.4539  0.5183  0.0720
 3003SOL    HW120645   0.079   2.637  15.078 -0.2869  0.3004  2.9337
 3003SOL    HW220646   4.701   2.694  15.155 -1.3608  0.9871 -0.6378
 3004SOL     OW20647   2.991   0.612   9.430  0.3590  0.0171 -0.0127
 3004SOL    HW120648   3.029   0.680   9.374 -1.9628  1.3089 -0.0079
 3004SOL    HW220649   2.899   0.639   9.424  0.1018 -1.0666 -0.9288
 3005SOL     OW20650   0.270   0.814   6.218  0.0325 -0.8779 -0.5962
 3005SOL    HW120651   0.345   0.755   6.222  0.5552 -0.1940 -0.4008
 3005SOL    HW220652   0.264   0.841   6.310  0.4493 -1.1860 -0.4844
 3006SOL     OW20653   0.889   2.283   4.728  0.3937 -0.3495  0.1962
 3006SOL    HW120654   0.870   2.193   4.753 -2.0077  0.0625 -0.0925
 3006SOL    HW220655   0.976   2.269   4.692  0.2091  2.7716 -1.5326
 3007SOL     OW20656   0.593   3.219  16.557  1.0748  0.4386  0.5411
 3007SOL    HW120657   0.650   3.275  16.610  0.2609  2.7915 -1.0711
 3007SOL    HW220658   0.535   3.197  16.630 -0.3715  0.5440 -0.5650
 3008SOL     OW20659   4.354   2.662  16.512 -0.5075  0.2940 -0.3058
 3008SOL    HW120660   4.329   2.739  16.564 -0.7086 -0.5270  0.8127
 3008SOL    HW220661   4.344   2.587  16.570 -0.2389 -0.8191 -1.6870
 3009SOL     OW20662   0.301   1.839   9.013 -0.4753 -0.2668  0.0246
 3009SOL    HW120663   0.206   1.839   9.009 -0.5923  0.7760  2.4743
 3009SOL    HW220664   0.308   1.929   9.045 -3.5112 -0.3710  0.9847
 3010SOL     OW20665   4.568   1.228   6.567  0.3392  0.4412  0.2452
 3010SOL    HW120666   4.531   1.227   6.478 -0.6408 -2.4501  0.6952
 3010SOL    HW220667   4.627   1.301   6.550 -0.0538  0.9853  1.2236
 3011SOL     OW20668   4.022   1.502   4.356 -0.1226  0.4101  1.0832
 3011SOL    HW120669   4.079   1.425   4.358 -0.8043 -0.1356 -0.3572
 3011SOL    HW220670   4.089   1.570   4.357  1.0006 -0.7373  2.4142
 3012SOL     OW20671   3.125   3.687  16.870 -0.3705  0.0193 -0.2988
 3012SOL    HW120672   3.082   3.677  16.785  1.1044 -2.1793 -0.7494
 3012SOL    HW220673   3.168   3.602  16.872 -0.2048  0.1812  3.5575
 3013SOL     OW20674   0.894   2.780   7.673  0.0043  0.5321 -0.0770
 3013SOL    HW120675   0.926   2.784   7.583  0.7967 -2.2393  0.0925
 3013SOL    HW220676   0.802   2.804   7.677 -0.0923  0.1060  0.3175
 3014SOL     OW20677   1.979   3.949   5.496 -0.6351  0.4206  0.1626
 3014SOL    HW120678   1.980   3.917   5.406 -1.3706 -0.6649  0.5410
 3014SOL    HW220679   1.885   3.943   5.513 -0.7510  2.4024  0.1898
 3015SOL     OW20680   2.780   2.782   0.059 -0.1410 -0.3963  0.0101
 3015SOL    HW120681   2.810   2.770   0.149  0.2313  1.5468  0.1490
 3015SOL    HW220682   2.692   2.747   0.053 -0.5305  0.0322  3.0110
 3016SOL     OW20683   2.209   0.901   6.655 -0.8911 -0.1334 -0.4208
 3016SOL    HW120684   2.263   0.903   6.576 -0.7276  0.7668 -0.2829
 3016SOL    HW220685   2.199   0.996   6.655  0.2861 -0.0101  2.1970
 3017SOL     OW20686   4.307   2.520   2.251 -0.7380 -0.1518  0.5629
 3017SOL    HW120687   4.275   2.567   2.174 -0.2334 -0.3327  0.2383
 3017SOL    HW220688   4.366   2.456   2.211 -1.3144 -0.2389 -0.1353
 3018SOL     OW20689   2.142   2.980   4.533 -0.1737  0.1788  0.5230
 3018SOL    HW120690   2.080   3.015   4.469  0.3453  1.2803  0.6144
 3018SOL    HW220691   2.130   3.029   4.614  1.7481  0.6144  0.5655
 3019SOL     OW20692   3.374   0.967   7.002 -0.7375  0.2695  0.0755
 3019SOL    HW120693   3.467   0.989   7.001 -0.8088  0.5138 -1.3448
 3019SOL    HW220694   3.354   0.947   6.910  0.7373  0.2935 -0.2472
 3020SOL     OW20695   1.152   4.670   6.026 -0.1043  0.3649 -0.1455
 3020SOL    HW120696   1.127   4.654   6.117 -0.7529  2.2818  0.0080
 3020SOL    HW220697   1.246   4.653   6.027 -0.0107  0.4998 -3.6731
 3021SOL     OW20698   2.954   0.856   4.309 -0.0114  0.1313  0.2439
 3021SOL    HW120699   3.003   0.844   4.228 -0.8066 -1.0722 -0.0671
 3021SOL    HW220700   2.878   0.908   4.283 -0.4936  0.1383  1.6820
 3022SOL     OW20701   3.486   1.701   6.076  0.0660  0.5005 -0.4410
 3022SOL    HW120702   3.535   1.619   6.073  0.1524  0.6809 -4.7494
 3022SOL    HW220703   3.461   1.701   6.168 -0.0798 -1.0326 -0.4822
 3023SOL     OW20704   0.324   0.956  12.700  0.0023 -0.2551 -0.4618
 3023SOL    HW120705   0.392   0.964  12.767  1.0153 -1.5290 -1.3192
 3023SOL    HW220706   0.359   0.886  12.644 -2.0408 -0.7415 -1.1291
 3024SOL     OW20707   2.288   1.322   2.462  0.2766 -0.3804 -0.2501
 3024SOL    HW120708   2.338   1.338   2.382  0.3075 -2.1056 -0.5774
 3024SOL    HW220709   2.210   1.377   2.457 -0.2576 -1.0952  0.1563
 3025SOL     OW20710   4.535   3.402   3.635 -0.2546  0.3766  0.0686
 3025SOL    HW120711   4.479   3.475   3.609  1.6443  1.9151  0.2760
 3025SOL    HW220712   4.481   3.359   3.701  0.7335 -1.8318 -0.5233
 3026SOL     OW20713   0.995   4.392  12.276  0.1075  0.5778  0.0513
 3026SOL    HW120714   1.090   4.400  12.288  0.4321 -1.1579 -1.2731
 3026SOL    HW220715   1.000   4.379  12.182 -3.3698 -2.0376  0.2433
 3027SOL     OW20716   4.163   3.263   9.086  0.1167 -0.5309 -0.8567
 3027SOL    HW120717   4.224   3.300   9.022  0.6659  0.6751  0.3657
 3027SOL    HW220718   4.099   3.333   9.096  0.5219 -0.4711  1.2735
 3028SOL     OW20719   2.501   0.853  15.631 -0.2139  0.4199 -0.0738
 3028SOL    HW120720   2.480   0.770  15.674 -0.4052  0.0982 -0.7765
 3028SOL    HW220721   2.414   0.873  15.594 -0.9859 -0.5287  1.2608
 3029SOL     OW20722   2.381   2.629   2.046  0.4066 -0.4729 -0.4010
 3029SOL    HW120723   2.340   2.690   1.985  1.4547 -1.9179 -2.5855
 3029SOL    HW220724   2.302   2.581   2.071  0.2911  0.4853  1.0626
 3030SOL     OW20725   1.089   0.464   6.775  0.0790 -0.2791 -0.5305
 3030SOL    HW120726   1.020   0.472   6.840 -0.1204  1.4878 -0.9609
 3030SOL    HW220727   1.156   0.449   6.841 -0.0268 -1.4351 -0.6766
 3031SOL     OW20728   2.931   0.428   5.953 -0.3761 -0.2650 -0.8363
 3031SOL    HW120729   2.854   0.455   6.003  1.0575  1.6920  0.3385
 3031SOL    HW220730   2.940   0.499   5.890  1.4291  1.7921  1.7179
 3032SOL     OW20731   3.579   3.180   0.602  0.2560 -0.0279 -0.0344
 3032SOL    HW120732   3.664   3.137   0.610  1.3796  1.6058 -2.9598
 3032SOL    HW220733   3.554   3.149   0.515 -0.1962  0.2556 -0.0070
 3033SOL     OW20734   1.158   3.011   1.234 -0.2594 -0.0211  0.5874
 3033SOL    HW120735   1.181   2.989   1.144  0.0855 -3.5637  1.5242
 3033SOL    HW220736   1.135   3.104   1.238  0.8236  0.1870  1.9887
 3034SOL     OW20737   3.350   3.384   7.704 -0.2323  0.2260  0.4819
 3034SOL    HW120738   3.413   3.321   7.738 -1.2666  0.0960  2.1351
 3034SOL    HW220739   3.381   3.461   7.751 -1.0463  2.3151 -2.4186
 3035SOL     OW20740   3.202   0.066   7.774 -0.5490  0.8210 -0.0214
 3035SOL    HW120741   3.221   0.090   7.683 -0.2642 -1.8998 -0.7028
 3035SOL    HW220742   3.290   0.068   7.813 -0.8523  1.8511  0.5780
 3036SOL     OW20743   2.726   1.136  10.780  0.2603  1.0691  0.2148
 3036SOL    HW120744   2.657   1.122  10.716  0.3286  0.7135  0.2234
 3036SOL    HW220745   2.797   1.137  10.716 -0.0155 -2.9213 -0.1053
 3037SOL     OW20746   1.501   1.703  15.286 -0.5652 -0.0255 -0.0113
 3037SOL    HW120747   1.513   1.625  15.340 -2.1864  0.3607  0.9121
 3037SOL    HW220748   1.563   1.688  15.215 -0.5743 -1.3694  0.2719
 3038SOL     OW20749   0.025   0.122  17.356 -0.6504  0.1328 -0.0057
 3038SOL    HW120750   0.059   0.074  17.281 -0.7315  0.5776 -0.3274
 3038SOL    HW220751   4.697   0.176  17.316  0.8155  2.1059  0.1936
 3039SOL     OW20752   2.817   4.716   3.229 -0.0620  0.2505  0.3554
 3039SOL    HW120753   2.763   0.012   3.299  0.3247 -1.3923  1.5259
 3039SOL    HW220754   2.745   4.669   3.187  0.1590 -0.0409  0.3019
 3040SOL     OW20755   1.633   0.632   7.617  0.2027 -0.5732  0.0362
 3040SOL    HW120756   1.573   0.703   7.596 -0.0913 -1.3383 -1.7053
 3040SOL    HW220757   1.587   0.579   7.682  2.6512 -3.0510 -0.2369
 3041SOL     OW20758   4.661   3.707  12.069  0.3530 -0.3464  0.6662
 3041SOL    HW120759   4.659   3.689  12.162 -0.3812 -1.3445  0.4551
 3041SOL    HW220760   4.618   3.793  12.059  0.0122 -0.5877  0.0386
 3042SOL     OW20761   2.430   3.970   5.743 -0.3599 -0.3561 -0.1843
 3042SOL    HW120762   2.476   3.929   5.817  0.7737  0.9473 -0.1545
 3042SOL    HW220763   2.363   4.003   5.802 -0.1017  0.1769 -0.1866
 3043SOL     OW20764   2.901   1.158  13.610  0.2381 -0.0547  0.2385
 3043SOL    HW120765   2.989   1.147  13.573 -0.2242 -0.7938 -0.6400
 3043SOL    HW220766   2.860   1.073  13.594 -1.3590  0.6576  0.5495
 3044SOL     OW20767   2.302   3.541   2.574 -0.8512 -0.0040 -0.4926
 3044SOL    HW120768   2.217   3.548   2.532 -1.5500  0.0370  0.9387
 3044SOL    HW220769   2.353   3.614   2.540  0.9291 -0.0977  1.9437
 3045SOL     OW20770   2.808   4.389  16.736  0.5050  0.0893  0.1365
 3045SOL    HW120771   2.786   4.448  16.664 -0.8169 -0.0796  0.4047
 3045SOL    HW220772   2.903   4.399  16.734  0.2625  2.7867  1.5264
 3046SOL     OW20773   0.017   0.399   6.196  0.0903  0.5242  0.0012
 3046SOL    HW120774   0.102   0.400   6.241  1.1604  2.0284 -2.0799
 3046SOL    HW220775   0.020   0.323   6.137 -0.8363  1.2266 -0.9505
 3047SOL     OW20776   3.279   0.585   7.856  0.0583 -0.1003 -0.0365
 3047SOL    HW120777   3.198   0.534   7.866 -0.3555  0.1580 -1.9736
 3047SOL    HW220778   3.337   0.509   7.855 -0.2070 -0.3068  0.0487
 3048SOL     OW20779   0.536   3.745   1.755 -0.3108 -0.6563  0.2436
 3048SOL    HW120780   0.613   3.754   1.699 -0.4838 -1.1536 -0.0689
 3048SOL    HW220781   0.553   3.668   1.809 -0.4949  0.7950  2.3817
 3049SOL     OW20782   3.597   3.383   6.044  0.6595 -0.0459  0.0981
 3049SOL    HW120783   3.612   3.471   6.078  2.2266  0.4080 -1.8013
 3049SOL    HW220784   3.506   3.406   6.026  0.0870 -1.8891  0.7113
 3050SOL     OW20785   3.623   4.082  14.851 -0.0489 -0.0519  0.0870
 3050SOL    HW120786   3.652   4.173  14.843  3.7667 -1.1867  1.2903
 3050SOL    HW220787   3.564   4.075  14.775 -1.1189 -1.7905  1.0695
 3051SOL     OW20788   2.020   2.914   8.886  0.2528  0.2421  0.3146
 3051SOL    HW120789   1.986   2.957   8.964  1.0230 -1.1793  1.4473
 3051SOL    HW220790   1.951   2.850   8.871 -0.3787  0.3613  2.8470
 3052SOL     OW20791   1.252   0.127   3.019  0.1379  0.1667  0.0404
 3052SOL    HW120792   1.268   0.079   2.938 -1.2861 -1.8721  0.9499
 3052SOL    HW220793   1.180   0.182   2.988  0.1188  0.1167 -0.0049
 3053SOL     OW20794   1.338   0.082   9.552 -0.0956  0.4329  0.5971
 3053SOL    HW120795   1.248   0.084   9.585  0.2318  0.7607  1.4824
 3053SOL    HW220796   1.350   0.177   9.545 -0.2280  0.5112  1.4523
 3054SOL     OW20797   0.485   3.826   9.083 -0.0391 -0.1574  0.0338
 3054SOL    HW120798   0.426   3.804   9.154  0.0792  2.2493  0.8786
 3054SOL    HW220799   0.419   3.849   9.017  0.5056 -1.0938 -0.8380
 3055SOL     OW20800   1.528   3.929   5.377 -0.2718 -0.2465  0.6906
 3055SOL    HW120801   1.565   3.844   5.402 -2.2483 -0.7569  1.8256
 3055SOL    HW220802   1.506   3.969   5.460 -1.2572  0.5824  0.0292
 3056SOL     OW20803   2.034   0.078   6.109 -0.7614 -0.3498  0.5251
 3056SOL    HW120804   2.108   0.100   6.165 -0.4404 -0.0010 -0.0299
 3056SOL    HW220805   1.990   0.163   6.103 -0.3815 -0.1791  0.0750
 3057SOL     OW20806   4.139   4.695   6.671  0.1835  0.3096  0.0612
 3057SOL    HW120807   4.184   4.640   6.606 -2.9641 -2.1251 -0.0929
 3057SOL    HW220808   4.182   4.671   6.753 -0.0053  1.7940  0.5798
 3058SOL     OW20809   4.488   3.638   6.409  0.3688  0.2259 -0.0774
 3058SOL    HW120810   4.572   3.665   6.372  0.0724 -0.1569 -1.0251
 3058SOL    HW220811   4.446   3.722   6.426  0.2908  0.0962  0.3729
 3059SOL     OW20812   3.047   4.504   4.020  0.1460 -0.3433 -0.0673
 3059SOL    HW120813   2.959   4.533   3.996  0.6853  0.9896 -0.4413
 3059SOL    HW220814   3.103   4.545   3.954  1.9353 -0.3675  1.4363
 3060SOL     OW20815   1.937   0.123  11.779  0.4812 -0.8778 -0.1044
 3060SOL    HW120816   1.889   0.194  11.822 -0.0714  0.3856 -2.7696
 3060SOL    HW220817   2.017   0.174  11.763 -0.5423  1.0863  0.9122
 3061SOL     OW20818   1.611   0.512   4.484 -0.3084  0.1099  0.2206
 3061SOL    HW120819   1.573   0.424   4.488 -1.0978  0.4902  1.2724
 3061SOL    HW220820   1.701   0.494   4.512  0.1323 -0.2561 -1.4550
 3062SOL     OW20821   2.103   1.100   2.503  0.0951 -0.6169 -0.3386
 3062SOL    HW120822   2.029   1.136   2.453 -2.0228 -4.0959  0.3079
 3062SOL    HW220823   2.177   1.160   2.499 -0.7434  0.4030 -0.6795
 3063SOL     OW20824   0.256   1.685   5.452 -0.3122 -0.1035  0.1790
 3063SOL    HW120825   0.176   1.637   5.473 -0.1191 -1.5197 -2.3331
 3063SOL    HW220826   0.271   1.718   5.540  1.2159 -1.1423  0.3088
 3064SOL     OW20827   2.660   1.544   3.564 -1.2866 -0.0078 -0.0316
 3064SOL    HW120828   2.633   1.468   3.616 -1.2290 -0.3949 -0.5757
 3064SOL    HW220829   2.576   1.580   3.536 -0.9298  0.0782 -0.9634
 3065SOL     OW20830   3.082   1.756   3.861  0.2758  0.1079  0.6867
 3065SOL    HW120831   3.033   1.702   3.799  1.2868 -0.9905  0.8342
 3065SOL    HW220832   3.032   1.756   3.942  0.9457 -3.6699  1.1367
 3066SOL     OW20833   2.735   2.381   3.728 -0.8205 -0.1412  0.6264
 3066SOL    HW120834   2.696   2.438   3.662 -2.4128  0.7452  2.3169
 3066SOL    HW220835   2.775   2.448   3.783  0.1574 -1.5116  1.5808
 3067SOL     OW20836   0.014   4.688  13.670  0.4344  0.4552  0.2360
 3067SOL    HW120837   4.724   4.620  13.730 -0.6373  1.1881  0.5455
 3067SOL    HW220838   4.681   4.692  13.608 -0.9686  0.0694  1.8480
 3068SOL     OW20839   4.066   1.936  10.677  0.7562 -0.1918 -0.0422
 3068SOL    HW120840   4.030   1.859  10.722  0.2362  0.0128 -0.1010
 3068SOL    HW220841   4.107   1.982  10.751  1.7730 -1.3947  0.1364
 3069SOL     OW20842   3.563   0.718   5.750  0.2039  0.0084 -0.1529
 3069SOL    HW120843   3.653   0.689   5.762  0.4072  1.0722  0.8995
 3069SOL    HW220844   3.518   0.694   5.831  0.8955 -2.2599 -0.4604
 3070SOL     OW20845   1.347   0.559   3.005  0.1239  0.0812 -0.0537
 3070SOL    HW120846   1.252   0.556   2.994  0.4060  0.8843 -2.8109
 3070SOL    HW220847   1.369   0.539   2.914  0.2409 -0.8447  0.1844
 3071SOL     OW20848   2.617   0.818   6.850 -0.4530 -0.6004 -0.8671
 3071SOL    HW120849   2.686   0.761   6.883 -1.4533 -0.7364  1.0195
 3071SOL    HW220850   2.664   0.900   6.865  2.8570 -2.7583  0.4199
 3072SOL     OW20851   2.960   0.010   5.771  0.4513 -0.1203  0.4368
 3072SOL    HW120852   2.887   0.030   5.829 -0.5160 -0.9915 -0.4908
 3072SOL    HW220853   3.014   0.089   5.778 -0.5194  0.6562 -0.9147
 3073SOL     OW20854   1.762   3.766   7.171 -0.0990 -0.1929  0.1724
 3073SOL    HW120855   1.805   3.794   7.252  1.5441 -1.4379 -0.2800
 3073SOL    HW220856   1.783   3.674   7.181  1.1626 -0.0371 -1.1264
 3074SOL     OW20857   1.392   1.270  11.633 -0.3465 -0.3238  0.6520
 3074SOL    HW120858   1.336   1.223  11.695  0.8306 -0.2606  1.7709
 3074SOL    HW220859   1.332   1.262  11.558 -2.8322 -1.2814  2.7474
 3075SOL     OW20860   0.804   3.493   7.511  0.0663  0.2642  0.0803
 3075SOL    HW120861   0.765   3.496   7.423  1.7497  1.4601 -0.6374
 3075SOL    HW220862   0.776   3.578   7.546 -1.5417 -0.0456 -0.4491
 3076SOL     OW20863   1.987   3.333   5.177 -0.1057  0.6397 -0.4777
 3076SOL    HW120864   1.927   3.390   5.226 -2.1098 -2.6945  0.9035
 3076SOL    HW220865   2.020   3.264   5.233 -0.3070  2.0160  1.3419
 3077SOL     OW20866   0.375   3.566   7.986  0.6573 -0.3592 -0.0298
 3077SOL    HW120867   0.416   3.495   8.035 -0.6520 -0.1109  1.4049
 3077SOL    HW220868   0.398   3.537   7.898  1.1979  1.2979 -0.4490
 3078SOL     OW20869   4.477   2.687  12.205  0.6622  0.1634 -0.2077
 3078SOL    HW120870   4.515   2.772  12.228 -1.0628  0.9141 -0.1415
 3078SOL    HW220871   4.388   2.710  12.231  1.3607 -0.6210  2.8046
 3079SOL     OW20872   2.740   0.126   5.486 -0.3070 -0.4954 -0.3474
 3079SOL    HW120873   2.647   0.141   5.505 -0.1812  1.3180 -1.1875
 3079SOL    HW220874   2.744   0.030   5.486  0.5541 -0.4530 -0.8405
 3080SOL     OW20875   0.999   1.947   3.488  0.2445  0.2528  0.0301
 3080SOL    HW120876   0.981   1.860   3.523 -0.3642  0.5633  0.4733
 3080SOL    HW220877   0.978   1.943   3.394  1.9096 -1.9317 -0.2670
 3081SOL     OW20878   1.697   0.903  14.109 -0.3418  0.1938  0.4978
 3081SOL    HW120879   1.626   0.840  14.115  0.2561 -0.1984  3.5228
 3081SOL    HW220880   1.653   0.987  14.123 -0.0069  0.7910 -1.9360
 3082SOL     OW20881   1.451   1.112   7.639  0.2903 -0.3790  0.6126
 3082SOL    HW120882   1.442   1.153   7.725 -2.4592  0.2035  0.0442
 3082SOL    HW220883   1.391   1.168   7.590 -1.4409  0.1787  3.3962
 3083SOL     OW20884   4.260   2.756   3.258  0.1009  0.5661  0.3575
 3083SOL    HW120885   4.263   2.693   3.186 -0.5064  1.2177 -0.2428
 3083SOL    HW220886   4.269   2.839   3.211 -1.6844  0.4961 -0.0859
 3084SOL     OW20887   0.304   0.715   5.397 -0.4912  0.2770 -0.6100
 3084SOL    HW120888   0.254   0.780   5.446 -3.0196 -1.0754 -1.3997
 3084SOL    HW220889   0.376   0.700   5.459  0.7863  0.7512 -2.0023
 3085SOL     OW20890   0.453   1.245   3.084  0.1187 -0.8189 -0.0161
 3085SOL    HW120891   0.437   1.325   3.035 -0.9779 -1.5799 -0.8995
 3085SOL    HW220892   0.482   1.181   3.018  2.1395 -1.0706  1.1186
 3086SOL     OW20893   2.017   2.044   6.995 -0.3632  0.2816 -0.3898
 3086SOL    HW120894   1.992   1.953   6.978 -0.8565  0.4715 -0.6927
 3086SOL    HW220895   1.970   2.063   7.075  2.2976  0.1911  1.1977
 3087SOL     OW20896   1.036   1.467   1.333  0.1398 -0.0385  0.2791
 3087SOL    HW120897   1.013   1.527   1.404  2.4782  0.3676  0.6805
 3087SOL    HW220898   1.092   1.406   1.381  0.4813  0.8103  0.9510
 3088SOL     OW20899   2.627   3.206  16.605  0.2844 -0.3468  0.3251
 3088SOL    HW120900   2.629   3.125  16.555 -2.0551 -0.3251  0.2241
 3088SOL    HW220901   2.592   3.187  16.692  1.6020 -1.7139  0.5442
 3089SOL     OW20902   4.692   4.112  17.561 -0.4919 -0.3743  0.7087
 3089SOL    HW120903   4.704   4.151  17.647  1.5144  3.2619 -1.2297
 3089SOL    HW220904   0.045   4.106  17.540 -0.8482 -1.4773 -0.5860
 3090SOL     OW20905   2.912   1.581   8.147  0.5293  0.2375 -0.0322
 3090SOL    HW120906   2.985   1.554   8.092 -1.1844  1.9500 -3.1465
 3090SOL    HW220907   2.962   1.611   8.223  1.0611  3.5256 -1.6353
 3091SOL     OW20908   2.136   0.886   6.265  0.2067  0.2812 -0.5659
 3091SOL    HW120909   2.193   0.837   6.206  0.8397 -0.1785  0.4193
 3091SOL    HW220910   2.195   0.918   6.333 -0.3292  3.4179 -1.5718
 3092SOL     OW20911   1.283   1.249  10.435  0.5292 -0.6784 -0.2520
 3092SOL    HW120912   1.202   1.225  10.388 -1.2291  1.9273  1.4481
 3092SOL    HW220913   1.343   1.254  10.360 -1.6443  2.0408 -1.8140
 3093SOL     OW20914   4.686   2.260   8.261  0.0877  0.4551 -0.0711
 3093SOL    HW120915   4.695   2.206   8.340 -0.3999  0.2540 -0.1504
 3093SOL    HW220916   4.592   2.250   8.247  0.0252 -1.4531  1.6598
 3094SOL     OW20917   2.943   2.458   3.003 -0.1595 -0.1511  0.0715
 3094SOL    HW120918   2.979   2.476   2.916 -0.3798 -0.1626 -0.0240
 3094SOL    HW220919   2.952   2.364   3.017  1.3358 -0.1939 -1.2133
 3095SOL     OW20920   4.505   3.530   2.878 -0.0750  0.4342 -0.1767
 3095SOL    HW120921   4.487   3.622   2.857 -0.4713  0.8682  2.0973
 3095SOL    HW220922   4.431   3.489   2.833 -0.8342  0.8461  0.6938
 3096SOL     OW20923   2.089   0.218   2.037 -0.5523  0.1109 -0.2632
 3096SOL    HW120924   2.048   0.279   2.097  0.2011 -0.4456  0.8029
 3096SOL    HW220925   2.025   0.147   2.032 -0.8810  0.5271 -2.1568
 3097SOL     OW20926   2.333   2.973   6.570  0.2749  0.4658 -0.0077
 3097SOL    HW120927   2.344   3.004   6.480 -1.5253  3.7499  0.9045
 3097SOL    HW220928   2.348   3.060   6.606  0.2654  0.1144  0.8680
 3098SOL     OW20929   1.752   1.517   6.099  0.5351  0.2597 -0.3702
 3098SOL    HW120930   1.683   1.581   6.114  0.3335 -0.5920  2.4589
 3098SOL    HW220931   1.770   1.531   6.006  0.7311  0.5784 -0.2850
 3099SOL     OW20932   0.680   0.069   2.513  0.2246 -0.8029 -0.5436
 3099SOL    HW120933   0.758   0.112   2.476  0.6697 -2.0601 -1.0643
 3099SOL    HW220934   0.730   0.006   2.565 -1.8149 -2.1850 -0.2694
 3100SOL     OW20935   4.328   3.579  12.779 -0.1946  0.1652 -0.2959
 3100SOL    HW120936   4.311   3.643  12.710 -0.8524 -0.2538 -0.5187
 3100SOL    HW220937   4.239   3.561  12.809 -0.5026  0.4533 -1.0273
 3101SOL     OW20938   4.208   2.428   0.156  0.3341  0.0602  0.6429
 3101SOL    HW120939   4.224   2.434   0.251 -2.0482 -0.7845  1.1141
 3101SOL    HW220940   4.136   2.364   0.153 -1.7884  2.4094  0.9673
 3102SOL     OW20941   3.909   1.550   8.384  0.2758  0.3996 -0.3283
 3102SOL    HW120942   3.952   1.546   8.299 -1.5963 -1.0607 -1.2099
 3102SOL    HW220943   3.960   1.491   8.440  1.4668  1.7069 -0.0444
 3103SOL     OW20944   0.027   3.327   3.470 -0.1984  0.3759 -0.5305
 3103SOL    HW120945   4.679   3.344   3.504  0.5802  0.1537  1.6165
 3103SOL    HW220946   0.042   3.410   3.425 -2.3476  1.3026  0.4467
 3104SOL     OW20947   1.845   4.204   2.027 -0.1402  0.1955  0.1125
 3104SOL    HW120948   1.777   4.199   1.959 -1.6074  2.5394  1.3911
 3104SOL    HW220949   1.884   4.118   2.019 -0.6296 -0.0479  0.3302
 3105SOL     OW20950   2.407   2.474   7.453  0.2999 -0.1839  0.1561
 3105SOL    HW120951   2.493   2.492   7.415 -0.5545  1.5052 -0.9768
 3105SOL    HW220952   2.407   2.380   7.470  0.3575 -0.0803  0.7374
 3106SOL     OW20953   1.278   3.404   9.825  0.1087 -0.0711  0.2636
 3106SOL    HW120954   1.300   3.490   9.862  1.2851 -0.8129  1.3054
 3106SOL    HW220955   1.296   3.352   9.904  1.9590  1.7734  1.0761
 3107SOL     OW20956   2.977   3.253  15.450  0.0769  0.0694  0.4144
 3107SOL    HW120957   3.046   3.300  15.496  0.6168  0.1292 -0.4598
 3107SOL    HW220958   2.935   3.211  15.525  0.2262 -2.0423 -0.6645
 3108SOL     OW20959   4.131   1.720   1.725 -0.2109  0.2088  0.1590
 3108SOL    HW120960   4.040   1.743   1.706 -1.0649 -1.8515  1.6878
 3108SOL    HW220961   4.127   1.627   1.703 -0.5000  0.0378  0.9144
 3109SOL     OW20962   3.806   2.985  13.880  0.5326 -0.8034 -0.1308
 3109SOL    HW120963   3.782   2.946  13.796  0.5748 -1.4071  0.1317
 3109SOL    HW220964   3.728   2.965  13.933 -0.5654  0.2250 -1.3435
 3110SOL     OW20965   1.477   0.633  16.566  0.6648 -0.0941  0.4611
 3110SOL    HW120966   1.466   0.563  16.630 -0.9316  0.3655  0.7020
 3110SOL    HW220967   1.395   0.679  16.584  0.0871 -0.3191 -1.5923
 3111SOL     OW20968   4.518   4.351  15.027  0.9266  0.6074  0.3624
 3111SOL    HW120969   4.444   4.293  15.046  2.0741 -0.5991  1.1531
 3111SOL    HW220970   4.531   4.332  14.934  3.3152 -0.8336  1.0079
 3112SOL     OW20971   4.210   3.330  12.280  0.2821  0.6351 -0.6249
 3112SOL    HW120972   4.191   3.419  12.309  2.4327  1.1297 -0.7764
 3112SOL    HW220973   4.240   3.350  12.192 -0.2124  0.7603 -0.7675
 3113SOL     OW20974   3.391   4.370   2.438 -0.3135 -0.6458  0.1900
 3113SOL    HW120975   3.347   4.286   2.453  0.4323 -0.7004  2.1549
 3113SOL    HW220976   3.329   4.408   2.375 -0.2484 -1.5191 -0.3897
 3114SOL     OW20977   4.350   0.808   3.299  0.0097 -0.1237  0.2693
 3114SOL    HW120978   4.378   0.899   3.309 -0.8287  0.2072 -0.3842
 3114SOL    HW220979   4.270   0.823   3.350 -0.5912  0.7616 -0.9256
 3115SOL     OW20980   1.709   4.710  16.310  0.1306  0.0123 -0.3200
 3115SOL    HW120981   1.696   0.034  16.240  0.0110  1.7537  1.2991
 3115SOL    HW220982   1.802   4.722  16.328  0.3889 -1.4186 -0.6508
 3116SOL     OW20983   0.470   4.018   5.607  0.0978 -0.3157 -0.4879
 3116SOL    HW120984   0.446   4.053   5.521 -2.4652 -0.2717  0.2626
 3116SOL    HW220985   0.391   4.026   5.660  1.9872  1.5967  2.0445
 3117SOL     OW20986   1.478   1.362   1.898 -0.2479  0.6216  0.1481
 3117SOL    HW120987   1.508   1.285   1.946 -1.8563 -0.1747 -0.1104
 3117SOL    HW220988   1.511   1.340   1.811 -2.5789  4.5982 -1.7521
 3118SOL     OW20989   1.992   4.691  16.509 -0.2556  0.5369 -0.5430
 3118SOL    HW120990   1.985   4.682  16.414 -3.7211  4.0500 -0.6114
 3118SOL    HW220991   2.072   0.004  16.514  0.8111 -0.9792 -1.3349
 3119SOL     OW20992   3.745   1.702   8.105 -0.3619 -0.0597  0.5207
 3119SOL    HW120993   3.803   1.740   8.039 -0.0663 -0.8207  0.3446
 3119SOL    HW220994   3.763   1.762   8.178  0.2946 -0.8279  0.9957
 3120SOL     OW20995   3.851   4.112   3.508 -0.3553  0.1303  0.3748
 3120SOL    HW120996   3.834   4.205   3.497  0.8896 -0.0060 -2.6413
 3120SOL    HW220997   3.852   4.091   3.601 -2.2192  0.6172  0.5077
 3121SOL     OW20998   1.558   0.821   2.101 -0.2032  0.1830  0.5226
 3121SOL    HW120999   1.626   0.846   2.164  0.4622 -1.3751  0.4207
 3121SOL    HW221000   1.503   0.899   2.099  1.6406  1.4438 -1.1584
 3122SOL     OW21001   1.216   1.357   4.711  0.1097  0.4110 -0.0927
 3122SOL    HW121002   1.170   1.352   4.627 -1.6167  1.7622  0.7387
 3122SOL    HW221003   1.250   1.268   4.710 -0.5164  0.1793 -1.0576
 3123SOL     OW21004   1.670   0.161  17.098  0.0224 -0.5311 -0.5084
 3123SOL    HW121005   1.671   0.119  17.011 -0.4406 -1.1983 -0.1923
 3123SOL    HW221006   1.582   0.199  17.093  0.5907  0.9932  1.3500
 3124SOL     OW21007   1.639   4.321   3.483 -0.1142 -0.7044 -0.1095
 3124SOL    HW121008   1.677   4.407   3.500  1.3098 -1.3911  0.1723
 3124SOL    HW221009   1.588   4.335   3.403  0.4030 -1.2820 -0.5460
 3125SOL     OW21010   1.727   4.632   5.831 -0.0905  0.3892  0.2685
 3125SOL    HW121011   1.812   4.615   5.871  0.0678 -1.2537 -0.7807
 3125SOL    HW221012   1.740   4.716   5.786 -0.0164  0.2748  0.0745
 3126SOL     OW21013   2.745   4.739   2.397 -0.2632  0.9422 -0.3165
 3126SOL    HW121014   2.763   0.050   2.318  0.6234  0.5435 -0.3701
 3126SOL    HW221015   2.689   0.062   2.443 -1.1609 -0.2510  0.2224
 3127SOL     OW21016   0.130   2.047   5.094 -0.4036 -0.4844  0.5357
 3127SOL    HW121017   0.169   2.132   5.119  0.9209  0.2171 -3.9210
 3127SOL    HW221018   0.204   1.993   5.124  0.0439 -0.5066 -0.6276
 3128SOL     OW21019   0.555   1.022   6.260 -0.3665 -0.5134 -0.0657
 3128SOL    HW121020   0.635   1.071   6.237 -0.3055 -0.7395 -0.3427
 3128SOL    HW221021   0.581   0.960   6.327  3.3834  2.4038  1.2242
 3129SOL     OW21022   4.505   4.072  10.794  0.1108 -0.1457 -0.0525
 3129SOL    HW121023   4.533   4.133  10.727 -1.5627 -0.2405 -0.8427
 3129SOL    HW221024   4.566   3.998  10.785 -0.2086 -0.6565  1.9894
 3130SOL     OW21025   4.087   4.404   6.417  0.1136 -0.3310  0.1037
 3130SOL    HW121026   4.016   4.451   6.372  1.2495  1.4446  0.1579
 3130SOL    HW221027   4.140   4.478   6.446 -0.5850 -0.7311  2.3679
 3131SOL     OW21028   4.589   2.916   4.651 -0.2159 -0.2769 -0.2008
 3131SOL    HW121029   4.650   2.970   4.700  0.9250 -0.6594 -1.1977
 3131SOL    HW221030   4.635   2.893   4.570  0.3470  1.0825 -0.2563
 3132SOL     OW21031   1.847   1.269   1.922  0.1468  0.7986 -0.4470
 3132SOL    HW121032   1.841   1.343   1.861  1.3308  2.3622  1.3005
 3132SOL    HW221033   1.765   1.269   1.971  1.2086 -0.1698  1.3359
 3133SOL     OW21034   1.179   4.100   4.016 -0.2399  0.2221  0.5461
 3133SOL    HW121035   1.182   4.124   3.924 -2.1060 -0.4696  0.2914
 3133SOL    HW221036   1.084   4.108   4.028 -0.0608  2.3541  0.6998
 3134SOL     OW21037   3.869   4.702   6.647  0.1931  0.3572 -0.5768
 3134SOL    HW121038   3.964   4.696   6.639  0.0540 -2.1472 -0.4754
 3134SOL    HW221039   3.853   0.041   6.697  0.6006 -0.1307  0.3213
 3135SOL     OW21040   2.161   4.140   6.404  0.3736 -0.3403 -0.0942
 3135SOL    HW121041   2.086   4.126   6.462  0.7602  0.7853  0.6710
 3135SOL    HW221042   2.121   4.134   6.317  0.3774  1.0266 -0.1834
 3136SOL     OW21043   1.282   0.166   6.195  0.0889 -0.1520  0.1826
 3136SOL    HW121044   1.297   0.085   6.145 -2.1960 -0.1998 -0.4412
 3136SOL    HW221045   1.262   0.128   6.280  1.3569 -0.6762  0.2424
 3137SOL     OW21046   0.066   2.548  14.396  0.4865  0.5721 -0.1509
 3137SOL    HW121047   0.013   2.547  14.475 -0.6074 -1.4169 -0.9074
 3137SOL    HW221048   0.155   2.554  14.431  0.4366 -0.0397  0.0696
 3138SOL     OW21049   2.696   4.030   3.482 -0.1945  0.0015 -0.1408
 3138SOL    HW121050   2.606   4.058   3.500 -0.2547  1.0731 -2.1787
 3138SOL    HW221051   2.720   4.052   3.573  0.4117  1.7423 -0.7141
 3139SOL     OW21052   2.322   3.401   4.535 -0.1596 -0.3256 -0.2827
 3139SOL    HW121053   2.279   3.484   4.559  0.9206  0.4774 -1.1099
 3139SOL    HW221054   2.381   3.394   4.610 -0.8552  1.3019  0.4357
 3140SOL     OW21055   0.188   3.829   4.191 -0.4771  0.2953 -0.1580
 3140SOL    HW121056   0.160   3.738   4.178 -0.2435  0.0441  1.0164
 3140SOL    HW221057   0.156   3.861   4.107 -1.3165  1.3295  0.5533
 3141SOL     OW21058   0.604   1.956  10.357 -0.3635 -0.0386 -0.2526
 3141SOL    HW121059   0.606   1.861  10.344  0.1226 -0.0345 -0.1805
 3141SOL    HW221060   0.697   1.974  10.360 -0.5103  0.8697 -1.0610
 3142SOL     OW21061   1.759   0.756  14.765 -0.1589 -0.4230 -1.3781
 3142SOL    HW121062   1.740   0.682  14.707 -1.0359 -1.0220 -0.3318
 3142SOL    HW221063   1.720   0.831  14.721  0.1233  1.1631  1.0871
 3143SOL     OW21064   3.114   1.320   9.951 -0.0545  0.0758 -0.3565
 3143SOL    HW121065   3.030   1.339   9.994 -0.1684 -1.1308 -0.0494
 3143SOL    HW221066   3.178   1.337  10.020 -0.9932  2.8002 -0.1586
 3144SOL     OW21067   2.015   4.461   6.794  0.0199  0.1669  0.3945
 3144SOL    HW121068   2.099   4.422   6.815 -0.2844 -0.1363  1.0468
 3144SOL    HW221069   1.957   4.397   6.836 -0.4728  0.1080 -0.3766
 3145SOL     OW21070   1.864   2.442   6.933  0.0520 -0.2318 -0.0835
 3145SOL    HW121071   1.862   2.352   6.898  2.0369  0.8587 -3.0201
 3145SOL    HW221072   1.875   2.489   6.850  0.7703 -0.1491  0.0586
 3146SOL     OW21073   0.364   2.298   4.615 -0.4030  0.2788  0.1519
 3146SOL    HW121074   0.320   2.217   4.641 -5.2946  2.4690 -1.3361
 3146SOL    HW221075   0.456   2.271   4.617 -0.7939 -1.1984 -1.4729
 3147SOL     OW21076   1.239   4.664   4.266  0.1047 -0.7530 -0.1047
 3147SOL    HW121077   1.181   4.735   4.291  3.3974  2.1119 -0.7012
 3147SOL    HW221078   1.217   4.603   4.336  0.1958 -2.3889 -1.4885
 3148SOL     OW21079   2.571   3.655   1.524  0.1588  0.0977  0.2271
 3148SOL    HW121080   2.488   3.607   1.525  0.9567 -1.2629  1.8129
 3148SOL    HW221081   2.553   3.715   1.452  1.4537 -1.2424 -1.2259
 3149SOL     OW21082   1.691   3.450  15.303  0.4851  0.3452 -0.2552
 3149SOL    HW121083   1.736   3.456  15.219  2.7004  0.3365  0.9346
 3149SOL    HW221084   1.665   3.358  15.305  0.3973  0.3581 -0.7734
 3150SOL     OW21085   1.492   0.231   1.683 -0.1881  0.1912 -0.0630
 3150SOL    HW121086   1.583   0.204   1.672 -0.4513 -0.6972 -0.0638
 3150SOL    HW221087   1.440   0.198   1.609 -0.6681 -0.6434  0.6359
 3151SOL     OW21088   3.637   1.140   4.302  0.0708  0.0489  0.2554
 3151SOL    HW121089   3.658   1.223   4.346 -0.6034 -0.0178  0.6951
 3151SOL    HW221090   3.548   1.123   4.333 -0.2991  1.3809 -0.0681
 3152SOL     OW21091   4.089   1.811  13.338  0.0638 -0.5079 -0.3480
 3152SOL    HW121092   4.157   1.869  13.370 -2.6313  2.2725  0.3615
 3152SOL    HW221093   4.059   1.855  13.258 -1.9822 -1.4797 -0.1305
 3153SOL     OW21094   1.310   4.712   4.597  0.3189  0.3506  0.1314
 3153SOL    HW121095   1.351   0.051   4.632 -0.9917  1.0388  0.1431
 3153SOL    HW221096   1.372   4.685   4.529 -2.0106  0.9684 -2.2224
 3154SOL     OW21097   4.371   3.056  13.307 -0.1623 -0.0855  0.1333
 3154SOL    HW121098   4.280   3.058  13.276 -0.3913  0.1453  0.8314
 3154SOL    HW221099   4.368   3.089  13.397 -0.1685 -1.4377  0.6354
 3155SOL     OW21100   0.981   0.422   2.656 -0.0546  0.1808  0.0581
 3155SOL    HW121101   1.046   0.364   2.617 -0.5491 -1.2233  1.3213
 3155SOL    HW221102   0.925   0.432   2.579  1.3965  0.2368 -0.9783
 3156SOL     OW21103   3.624   0.067   9.109 -0.6705 -0.6737 -0.3139
 3156SOL    HW121104   3.619   0.031   9.020  2.2797 -1.2759 -0.2462
 3156SOL    HW221105   3.540   0.033   9.138 -1.8869 -0.0703 -3.1958
 3157SOL     OW21106   3.882   3.777   3.550 -0.0999 -0.6579  0.2878
 3157SOL    HW121107   3.877   3.764   3.645 -0.2503  0.7889  0.4858
 3157SOL    HW221108   3.791   3.769   3.519  0.2259  0.8330 -1.0593
 3158SOL     OW21109   2.262   2.799   0.695  0.2655  0.2526 -0.1424
 3158SOL    HW121110   2.208   2.758   0.628 -2.7363  0.4021  2.1450
 3158SOL    HW221111   2.186   2.842   0.736 -1.5530 -2.1489 -1.0340
 3159SOL     OW21112   0.885   2.504   1.695  0.0994 -0.1290  0.0664
 3159SOL    HW121113   0.971   2.533   1.726  1.1630 -0.9239 -2.1623
 3159SOL    HW221114   0.832   2.503   1.775 -0.4213  0.1201 -0.2759
 3160SOL     OW21115   2.436   0.172   7.943  0.1459 -0.2881 -0.7706
 3160SOL    HW121116   2.468   0.185   7.854  1.2912 -5.5840 -1.0920
 3160SOL    HW221117   2.442   0.264   7.970  1.1069 -1.0399  1.5854
 3161SOL     OW21118   0.546   3.142   2.358 -0.0955  0.5048 -0.3962
 3161SOL    HW121119   0.638   3.166   2.365  0.1746 -0.9417  1.2174
 3161SOL    HW221120   0.516   3.118   2.446 -0.1773  0.7534 -0.3563
 3162SOL     OW21121   0.803   1.327   3.471 -0.7683 -0.1041  0.0974
 3162SOL    HW121122   0.810   1.239   3.509  1.6964  0.4220  0.8331
 3162SOL    HW221123   0.741   1.302   3.402 -0.7186  1.2858 -0.4463
 3163SOL     OW21124   1.145   2.421   6.667  0.0240  0.2258  0.4464
 3163SOL    HW121125   1.138   2.477   6.744 -0.9616 -0.2848  0.7296
 3163SOL    HW221126   1.108   2.340   6.703  0.9106 -0.6734 -0.6707
 3164SOL     OW21127   4.037   3.037   0.221 -0.7060 -0.3478 -0.0385
 3164SOL    HW121128   3.947   3.069   0.230  0.4974  2.6856  1.1616
 3164SOL    HW221129   4.033   2.972   0.292 -1.7635 -1.1391 -0.8295
 3165SOL     OW21130   2.514   3.986   9.805  0.1999 -0.4912  0.0658
 3165SOL    HW121131   2.572   3.912   9.787 -1.5374 -1.7831 -0.2133
 3165SOL    HW221132   2.436   3.952   9.762  0.2116 -0.3145 -0.0962
 3166SOL     OW21133   2.807   2.487   9.365  0.4119  0.1961 -0.2882
 3166SOL    HW121134   2.803   2.546   9.440  0.9611 -0.9681  0.6451
 3166SOL    HW221135   2.738   2.526   9.311  2.2339  1.6935 -1.5370
 3167SOL     OW21136   2.645   3.939   4.918  0.2634 -0.4014 -0.2302
 3167SOL    HW121137   2.722   3.982   4.880  0.2984 -0.4420 -0.2061
 3167SOL    HW221138   2.582   4.011   4.915 -0.0144 -0.6943 -1.4234
 3168SOL     OW21139   3.134   3.897   6.426  0.3411  0.0173 -0.6042
 3168SOL    HW121140   3.189   3.834   6.473  1.3564 -0.0531 -1.8807
 3168SOL    HW221141   3.183   3.911   6.345 -0.0944 -0.5610 -0.9644
 3169SOL     OW21142   0.330   4.231   9.009  0.3215 -0.1105 -0.4699
 3169SOL    HW121143   0.289   4.304   9.056  0.7404 -1.0491  1.3502
 3169SOL    HW221144   0.419   4.241   9.042 -0.6560  4.2841  0.8462
 3170SOL     OW21145   2.517   4.487   4.923 -0.0777 -0.2640  0.1565
 3170SOL    HW121146   2.432   4.443   4.927  0.2056 -0.7114  1.3716
 3170SOL    HW221147   2.538   4.481   4.830  1.1608  0.7889  0.3644
 3171SOL     OW21148   0.886   2.836  15.547  0.6154 -0.1982 -0.2003
 3171SOL    HW121149   0.912   2.918  15.589 -2.1739  0.9267 -0.7232
 3171SOL    HW221150   0.948   2.777  15.590  0.7369 -1.2031 -1.7447
 3172SOL     OW21151   2.681   2.400  15.119  0.1254 -0.3714 -0.0203
 3172SOL    HW121152   2.611   2.335  15.124  0.1118 -0.3207  0.4497
 3172SOL    HW221153   2.754   2.364  15.170 -0.0398 -1.8745 -0.8510
 3173SOL     OW21154   4.378   4.583   8.669 -0.0434 -0.1527  0.2526
 3173SOL    HW121155   4.459   4.603   8.716  0.5949 -1.7658 -0.1348
 3173SOL    HW221156   4.333   4.517   8.722  0.5813 -0.2755  0.6363
 3174SOL     OW21157   1.464   0.534   3.261  0.3701 -0.0026 -0.1992
 3174SOL    HW121158   1.463   0.623   3.296  1.1341 -0.5900  1.3169
 3174SOL    HW221159   1.437   0.550   3.171  0.5153 -0.6707 -0.3579
 3175SOL     OW21160   3.811   0.683   6.984  0.3199  0.9782 -0.0272
 3175SOL    HW121161   3.747   0.724   7.042  0.1060  0.1098  0.3495
 3175SOL    HW221162   3.829   0.769   6.947  0.5370  1.3548  0.9629
 3176SOL     OW21163   1.459   0.278  16.423  0.1409  0.2066  0.2762
 3176SOL    HW121164   1.454   0.276  16.327  0.0068 -0.6724  0.3001
 3176SOL    HW221165   1.378   0.327  16.434 -0.6943 -1.3277  0.9437
 3177SOL     OW21166   2.561   1.287   3.653  0.3216  0.4870  0.2613
 3177SOL    HW121167   2.652   1.271   3.679  0.8522 -0.6087 -2.2432
 3177SOL    HW221168   2.565   1.255   3.563 -1.0495  0.1801  0.3117
 3178SOL     OW21169   4.030   3.213   5.955 -0.1302  0.1096  0.8400
 3178SOL    HW121170   3.998   3.282   6.014  0.2079  2.1596 -1.3718
 3178SOL    HW221171   4.124   3.229   5.960  0.3796 -2.0737 -2.4237
 3179SOL     OW21172   4.452   1.067   3.373  0.2959  0.4251 -0.7103
 3179SOL    HW121173   4.395   1.132   3.331 -3.3733 -1.2721  1.6244
 3179SOL    HW221174   4.540   1.106   3.372  0.2138  0.5157 -3.2896
 3180SOL     OW21175   2.705   2.135   5.360  0.3408 -0.1284  0.5610
 3180SOL    HW121176   2.721   2.043   5.382 -1.7364 -1.2618 -2.6399
 3180SOL    HW221177   2.611   2.138   5.340  0.6303 -0.4304 -0.8650
 3181SOL     OW21178   4.550   1.192   8.627  0.5421  0.0408  0.2769
 3181SOL    HW121179   4.620   1.134   8.657  2.0522  0.0994 -3.0245
 3181SOL    HW221180   4.521   1.231   8.709 -0.1296  0.5701 -0.2152
 3182SOL     OW21181   2.903   0.353   3.298 -0.3101 -0.3717 -0.5111
 3182SOL    HW121182   2.907   0.420   3.366  1.3987 -2.2169  1.1759
 3182SOL    HW221183   2.944   0.276   3.336 -3.5123 -0.9415  1.7315
 3183SOL     OW21184   2.704   2.884   9.138 -0.4597 -0.0428  0.3980
 3183SOL    HW121185   2.663   2.820   9.197  1.0867  0.5253  2.0747
 3183SOL    HW221186   2.701   2.831   9.058  1.1791  1.1701 -0.4634
 3184SOL     OW21187   0.889   1.880   6.433  0.4142  0.4140  0.4976
 3184SOL    HW121188   0.893   1.861   6.339 -1.3639 -2.0753  0.9217
 3184SOL    HW221189   0.953   1.950   6.446 -0.8607  1.3838  1.4788
 3185SOL     OW21190   3.258   2.823   3.857 -0.3079 -0.6333 -0.2457
 3185SOL    HW121191   3.348   2.849   3.874 -0.4091  0.0830 -0.8211
 3185SOL    HW221192   3.261   2.804   3.763  0.0902 -0.0785 -0.3466
 3186SOL     OW21193   3.999   1.937  15.494 -0.0599  0.6482 -0.0509
 3186SOL    HW121194   4.035   1.877  15.429  0.3291  0.3451  0.4442
 3186SOL    HW221195   4.079   1.981  15.523 -0.8819  0.3085  2.7070
 3187SOL     OW21196   2.705   2.086  10.906  0.4503 -0.4618  0.8817
 3187SOL    HW121197   2.698   2.181  10.894  0.9499 -0.5293 -0.0082
 3187SOL    HW221198   2.799   2.074  10.890  0.5681  0.0420  1.2072
 3188SOL     OW21199   2.451   3.466  16.233 -0.0776 -0.3621  0.2970
 3188SOL    HW121200   2.524   3.500  16.182 -0.0565 -1.4030 -0.3756
 3188SOL    HW221201   2.493   3.446  16.317 -2.7166 -3.1998  0.9656
 3189SOL     OW21202   2.529   4.443   6.773  0.0576 -0.3613  0.2656
 3189SOL    HW121203   2.582   4.493   6.710  0.7527 -0.6302  0.6310
 3189SOL    HW221204   2.592   4.371   6.770  1.1484  0.5166  1.9501
 3190SOL     OW21205   3.203   3.275   5.308  0.5453  0.8413  0.2762
 3190SOL    HW121206   3.159   3.283   5.224 -1.2919 -0.4148  1.1040
 3190SOL    HW221207   3.279   3.229   5.272  0.6609  1.2559 -0.0077
 3191SOL     OW21208   3.223   4.656   6.946 -0.2463  0.3022  0.2728
 3191SOL    HW121209   3.240   4.677   6.854 -2.4283 -0.6602 -0.3563
 3191SOL    HW221210   3.310   4.631   6.977 -0.0567  0.1107 -0.3989
 3192SOL     OW21211   0.896   0.476   2.374 -0.2234 -0.2644  0.1450
 3192SOL    HW121212   0.972   0.528   2.400 -0.4929  1.1152 -1.7908
 3192SOL    HW221213   0.868   0.512   2.290  1.4626  1.0960  0.1635
 3193SOL     OW21214   1.288   1.052   2.655 -0.2159 -0.3333 -0.3857
 3193SOL    HW121215   1.220   1.117   2.675 -0.4919 -0.6897 -0.1658
 3193SOL    HW221216   1.343   1.054   2.733 -1.5409 -0.9196  0.5649
 3194SOL     OW21217   1.609   0.953   1.472 -0.3809 -0.0071 -0.1193
 3194SOL    HW121218   1.553   0.975   1.397 -0.8251  0.0314  0.2205
 3194SOL    HW221219   1.639   0.864   1.458 -0.7856  0.0567 -1.3939
 3195SOL     OW21220   3.376   3.073   5.888 -0.0484  0.0027  0.3480
 3195SOL    HW121221   3.301   3.063   5.829 -1.2336 -0.1515  1.8811
 3195SOL    HW221222   3.442   3.112   5.831 -0.8751 -0.8255 -1.1968
 3196SOL     OW21223   2.582   4.520   2.343  0.9168 -0.0527  0.2600
 3196SOL    HW121224   2.655   4.477   2.297  0.7045  0.9138 -0.9597
 3196SOL    HW221225   2.636   4.586   2.386  0.0553  2.5291 -2.6829
 3197SOL     OW21226   2.065   4.231  16.054  0.1980  0.2698 -0.2989
 3197SOL    HW121227   2.028   4.157  16.007 -0.4666  0.8135 -0.6236
 3197SOL    HW221228   2.156   4.211  16.033 -0.1161 -0.9994 -0.4173
 3198SOL     OW21229   1.001   2.256   6.398  0.1150  0.1351  0.5332
 3198SOL    HW121230   1.087   2.287   6.369 -0.6825 -0.4220 -2.4379
 3198SOL    HW221231   0.943   2.308   6.343 -0.2648  0.3542  1.1370
 3199SOL     OW21232   1.932   4.235  12.086  0.2445  0.0197  0.6341
 3199SOL    HW121233   1.872   4.287  12.033 -0.0101 -0.3637  0.5472
 3199SOL    HW221234   2.017   4.279  12.080  0.1435  0.0385 -0.5744
 3200SOL     OW21235   2.491   4.260  10.792 -0.4781 -0.3578  0.2655
 3200SOL    HW121236   2.487   4.294  10.882 -2.7053 -2.4152  0.9470
 3200SOL    HW221237   2.476   4.347  10.756  0.9081 -0.6420 -1.0023
 3201SOL     OW21238   3.405   0.584  11.873 -0.5555  0.2764  0.1327
 3201SOL    HW121239   3.438   0.585  11.963 -0.8577  0.1663  0.2417
 3201SOL    HW221240   3.413   0.676  11.845 -1.9515 -0.0874 -1.4501
 3202SOL     OW21241   0.655   2.321   2.224 -0.0669 -0.3275  0.0823
 3202SOL    HW121242   0.749   2.313   2.206  0.3456  0.1782  2.0957
 3202SOL    HW221243   0.653   2.399   2.279 -1.7605 -0.2767 -0.0379
 3203SOL     OW21244   4.199   2.099  16.899  0.6774  0.5347  0.0912
 3203SOL    HW121245   4.291   2.076  16.882  0.4066 -0.9230  0.6205
 3203SOL    HW221246   4.205   2.121  16.992 -1.8850  0.6782  0.2069
 3204SOL     OW21247   2.726   0.341   2.559 -0.0275 -0.0849  0.1351
 3204SOL    HW121248   2.723   0.385   2.644  0.0257 -1.1304  0.6829
 3204SOL    HW221249   2.811   0.298   2.573 -1.2127 -2.2383  0.7706
 3205SOL     OW21250   1.575   4.276   2.467  0.1049 -0.0417  0.2262
 3205SOL    HW121251   1.541   4.190   2.440  1.4539 -0.4544 -0.1748
 3205SOL    HW221252   1.647   4.285   2.405  0.7117 -2.0636  0.6050
 3206SOL     OW21253   4.615   1.538  16.296  0.1013 -0.0507 -0.1409
 3206SOL    HW121254   4.560   1.528  16.218 -0.8187 -0.4145  0.5639
 3206SOL    HW221255   4.569   1.598  16.354  0.5737  1.3912 -1.2506
 3207SOL     OW21256   2.938   1.393   3.913  0.1068 -0.2824 -0.1168
 3207SOL    HW121257   3.014   1.437   3.950  0.2065  0.3971 -1.1196
 3207SOL    HW221258   2.878   1.379   3.986 -1.8790 -0.8509 -1.8411
 3208SOL     OW21259   3.808   1.936   2.188 -0.1874 -0.0350  0.4926
 3208SOL    HW121260   3.805   1.853   2.236 -2.1886 -0.3723 -0.2219
 3208SOL    HW221261   3.857   1.917   2.108  0.1610  0.9804  0.4647
 3209SOL     OW21262   3.398   0.550   4.852  0.7935  0.2862 -0.8484
 3209SOL    HW121263   3.437   0.622   4.902  0.5547 -0.7855  0.9048
 3209SOL    HW221264   3.306   0.577   4.855  0.7516 -0.1232  1.7924
 3210SOL     OW21265   2.632   2.146  13.295 -0.1164 -0.5003 -0.3422
 3210SOL    HW121266   2.670   2.135  13.382 -2.2265  4.5097  1.1896
 3210SOL    HW221267   2.541   2.121  13.313 -0.0629  0.8348  1.7118
 3211SOL     OW21268   0.893   2.970   2.001  0.3473  0.4360  0.6002
 3211SOL    HW121269   0.951   2.971   2.077  3.6982  1.4250 -1.9421
 3211SOL    HW221270   0.950   2.946   1.928 -0.3525 -1.3586  0.6419
 3212SOL     OW21271   1.725   2.599   2.721  0.2047 -0.5415 -0.1979
 3212SOL    HW121272   1.651   2.548   2.753 -1.0860  1.0635 -0.5978
 3212SOL    HW221273   1.681   2.641   2.647 -1.0735 -0.0794  0.8318
 3213SOL     OW21274   0.808   2.762  14.159  0.3327  0.1254 -0.1064
 3213SOL    HW121275   0.795   2.779  14.252 -0.4786 -1.8713  0.1532
 3213SOL    HW221276   0.718   2.781  14.131  0.2043 -0.8559 -0.3568
 3214SOL     OW21277   2.152   0.192   9.419  0.8847 -0.0970 -0.5363
 3214SOL    HW121278   2.154   0.133   9.494  2.4634 -1.3045 -1.5227
 3214SOL    HW221279   2.057   0.209   9.422  0.4910 -2.1220 -1.7308
 3215SOL     OW21280   3.000   1.572   8.975 -0.0327 -0.4439 -0.1026
 3215SOL    HW121281   3.035   1.534   9.055  0.2920  1.7050  0.7640
 3215SOL    HW221282   2.912   1.533   8.972 -0.9754  1.5727  1.6520
 3216SOL     OW21283   3.693   2.809   3.057  0.2933 -0.1606 -0.6021
 3216SOL    HW121284   3.689   2.903   3.075  1.4414 -0.4129  1.0320
 3216SOL    HW221285   3.769   2.796   3.114 -0.2766  2.1344  0.6897
 3217SOL     OW21286   4.155   2.850  15.008 -0.1891  0.3394 -0.1536
 3217SOL    HW121287   4.128   2.924  15.064  0.3916  1.0175 -0.7722
 3217SOL    HW221288   4.250   2.840  15.015 -0.3555 -1.5520 -0.7333
 3218SOL     OW21289   0.023   1.372   0.592 -0.6662  0.1884 -0.4638
 3218SOL    HW121290   0.092   1.348   0.531  0.4410  2.8488 -0.2498
 3218SOL    HW221291   0.034   1.465   0.607  0.0529  0.3653 -2.1945
 3219SOL     OW21292   0.117   0.891   8.466 -0.0273  0.2922 -0.2782
 3219SOL    HW121293   0.204   0.859   8.490 -0.3732 -0.5520 -0.1537
 3219SOL    HW221294   0.141   0.971   8.418  1.2929  0.9273  1.4375
 3220SOL     OW21295   3.996   3.068   8.944 -0.1668  0.2257  0.1253
 3220SOL    HW121296   4.043   3.134   8.995  0.6033  1.8444 -2.6884
 3220SOL    HW221297   3.924   3.120   8.907 -1.7398 -2.1320 -0.0963
 3221SOL     OW21298   2.847   1.505  15.617 -0.0112  0.6242  0.0860
 3221SOL    HW121299   2.775   1.514  15.555 -1.3691 -0.8125  1.4421
 3221SOL    HW221300   2.847   1.410  15.629 -2.2566  0.5255 -0.7178
 3222SOL     OW21301   0.767   2.628   8.875 -0.0499 -0.1299 -0.3722
 3222SOL    HW121302   0.780   2.569   8.950  1.6593  1.2010  0.3759
 3222SOL    HW221303   0.692   2.681   8.900 -0.1587 -0.9309  1.0066
 3223SOL     OW21304   0.990   4.687   6.271 -0.5649  0.2164 -0.1379
 3223SOL    HW121305   0.923   4.620   6.282 -0.0379 -0.3792 -0.5176
 3223SOL    HW221306   0.954   0.008   6.206  1.4100 -0.1812 -1.5913
 3224SOL     OW21307   3.921   3.412  15.975 -0.3440  0.0256  0.2490
 3224SOL    HW121308   3.969   3.491  15.952  0.5774 -0.6134 -0.0503
 3224SOL    HW221309   3.927   3.380  15.885 -1.8677 -1.5517  0.7181
 3225SOL     OW21310   4.554   3.269   4.154  0.1388 -0.0202 -0.3566
 3225SOL    HW121311   4.472   3.248   4.109  1.1450 -1.5028 -1.5009
 3225SOL    HW221312   4.558   3.194   4.215  0.5909 -0.9472 -1.5227
 3226SOL     OW21313   2.500   4.562   6.496  0.1801  0.2242 -0.0275
 3226SOL    HW121314   2.497   4.657   6.484 -1.8397  0.0079 -1.3698
 3226SOL    HW221315   2.415   4.523   6.473  1.2963 -1.6190 -1.0500
 3227SOL     OW21316   0.444   0.422   1.087 -0.0919 -0.2462 -0.3816
 3227SOL    HW121317   0.462   0.353   1.023  0.3388 -0.4028 -0.0874
 3227SOL    HW221318   0.385   0.487   1.049 -1.0818  0.0958  1.7470
 3228SOL     OW21319   3.671   3.507   1.494  0.3487  0.5776  0.1763
 3228SOL    HW121320   3.596   3.452   1.512  1.5337 -1.9031 -2.4429
 3228SOL    HW221321   3.642   3.580   1.548  0.4468  0.2283  0.6944
 3229SOL     OW21322   1.109   2.080  15.301  0.1630  0.0496 -0.4683
 3229SOL    HW121323   1.186   2.133  15.318 -1.7283  2.2813  1.1888
 3229SOL    HW221324   1.157   2.008  15.260 -0.2847 -0.7653  0.4192
 3230SOL     OW21325   4.368   0.826  10.719  0.3348 -0.4893  0.6844
 3230SOL    HW121326   4.278   0.819  10.753  0.2984 -2.6692  0.0823
 3230SOL    HW221327   4.411   0.886  10.780  1.4137  1.7345 -2.2841
 3231SOL     OW21328   4.319   4.545  11.669  0.3928  0.0041  0.5011
 3231SOL    HW121329   4.237   4.522  11.714  0.3145 -0.6908  0.0077
 3231SOL    HW221330   4.280   4.599  11.601  2.1238  0.5407 -0.0652
 3232SOL     OW21331   0.926   3.299  17.367 -0.2868 -0.4107 -0.7814
 3232SOL    HW121332   0.843   3.265  17.332 -1.0418  0.7140 -0.0944
 3232SOL    HW221333   0.920   3.393  17.351  0.3196 -0.0506  1.0747
 3233SOL     OW21334   3.771   2.790   2.658 -0.6995  0.3681  0.5204
 3233SOL    HW121335   3.728   2.786   2.572 -1.4127 -0.7636  0.9262
 3233SOL    HW221336   3.818   2.873   2.662  2.5199 -1.3986 -0.2236
 3234SOL     OW21337   4.738   3.740   0.982  0.1540 -0.5485 -0.3743
 3234SOL    HW121338   0.022   3.799   0.911 -0.8083 -1.0459 -1.0992
 3234SOL    HW221339   0.021   3.791   1.060 -1.2638  1.5743 -1.3497
 3235SOL     OW21340   4.376   4.145   7.218  0.5782  0.0053 -0.1239
 3235SOL    HW121341   4.325   4.085   7.163 -1.7007  0.7017  1.2271
 3235SOL    HW221342   4.363   4.099   7.301 -0.6069  1.8136  0.6929
 3236SOL     OW21343   4.449   4.287   8.671 -0.1869 -0.8151  0.4003
 3236SOL    HW121344   4.412   4.336   8.745 -2.6552 -1.1116 -0.6193
 3236SOL    HW221345   4.538   4.266   8.699  0.8293  0.3700 -1.9808
 3237SOL     OW21346   4.350   3.081   5.160 -0.0449 -0.1658  0.3992
 3237SOL    HW121347   4.421   3.090   5.097 -0.4036  0.0425  0.0244
 3237SOL    HW221348   4.310   2.995   5.144  0.1558 -0.4685  1.4978
 3238SOL     OW21349   0.936   2.154  13.614  0.4612 -0.1677  0.3503
 3238SOL    HW121350   0.992   2.224  13.579 -0.9834 -0.6465 -2.9710
 3238SOL    HW221351   1.001   2.125  13.678  0.7537 -0.2588  0.0121
 3239SOL     OW21352   4.132   1.517   2.281  0.3580 -0.4619 -0.3349
 3239SOL    HW121353   4.058   1.570   2.253 -0.2327  0.5357  3.1341
 3239SOL    HW221354   4.118   1.499   2.374 -0.3809  0.4004 -0.2815
 3240SOL     OW21355   0.223   0.392  13.211 -0.3964 -0.2920  0.4331
 3240SOL    HW121356   0.231   0.324  13.144 -0.3753 -0.8435  0.9880
 3240SOL    HW221357   0.284   0.352  13.274 -0.5932 -1.7745 -0.3197
 3241SOL     OW21358   2.221   3.227   8.572  0.5739 -0.3298  0.8900
 3241SOL    HW121359   2.286   3.267   8.514 -0.4730  0.9628  0.5984
 3241SOL    HW221360   2.252   3.255   8.658 -0.8815  0.7084  1.0771
 3242SOL     OW21361   3.650   0.328  13.430  0.2887 -0.1472 -0.3170
 3242SOL    HW121362   3.678   0.352  13.518 -2.0959 -0.7854  0.6049
 3242SOL    HW221363   3.734   0.335  13.383  0.1066 -1.1384 -0.7842
 3243SOL     OW21364   0.919   1.798  15.146 -0.4428  0.6577 -0.0434
 3243SOL    HW121365   0.898   1.872  15.203  1.1621  1.4132 -0.4339
 3243SOL    HW221366   0.995   1.827  15.096 -0.6656  5.6947  2.4430
 3244SOL     OW21367   3.724   3.599   3.793 -0.1071 -0.4559 -0.1069
 3244SOL    HW121368   3.632   3.574   3.794 -0.3939  0.6022  1.0160
 3244SOL    HW221369   3.765   3.527   3.746  0.0057 -0.9304  0.7151
 3245SOL     OW21370   0.524   0.743   7.212 -0.6818  0.3572  0.4352
 3245SOL    HW121371   0.545   0.650   7.207  1.0848  0.6028  3.3232
 3245SOL    HW221372   0.496   0.757   7.121 -4.1360  0.4907  1.5214
 3246SOL     OW21373   2.026   0.661   4.029 -0.2510  0.2215  0.3428
 3246SOL    HW121374   1.948   0.710   4.056 -0.2028  0.7958 -0.5443
 3246SOL    HW221375   2.011   0.573   4.062  1.2182 -0.7542 -1.5713
 3247SOL     OW21376   0.025   0.949   1.911  0.0793  0.1673  0.4479
 3247SOL    HW121377   0.100   1.005   1.894 -1.0892  1.5040 -0.3713
 3247SOL    HW221378   0.064   0.865   1.887 -2.2817 -0.9936  0.6700
 3248SOL     OW21379   1.189   1.279  17.043 -0.1930 -0.1435  0.6901
 3248SOL    HW121380   1.274   1.235  17.048 -0.8224 -1.5776 -1.0150
 3248SOL    HW221381   1.130   1.207  17.068 -1.0258  1.1225  2.3934
 3249SOL     OW21382   4.313   2.458  13.538 -0.3696  0.2628  0.2352
 3249SOL    HW121383   4.255   2.469  13.614 -0.9518 -0.3906 -0.1223
 3249SOL    HW221384   4.343   2.549  13.532  0.6565 -0.0553  0.5621
 3250SOL     OW21385   3.711   2.105  13.106 -0.7905 -0.0247  0.0823
 3250SOL    HW121386   3.633   2.124  13.055 -1.4917  0.3833  1.3224
 3250SOL    HW221387   3.744   2.195  13.103  0.2597 -0.3703  1.1657
 3251SOL     OW21388   0.290   3.993  10.888  0.3793 -0.1661 -0.1802
 3251SOL    HW121389   0.236   4.048  10.830 -0.9648 -0.7891  0.4719
 3251SOL    HW221390   0.237   3.968  10.964  1.2853  1.2009  0.9094
 3252SOL     OW21391   4.537   3.660  11.606 -0.0549  0.1796  0.2206
 3252SOL    HW121392   4.465   3.712  11.570  0.4717  1.5654  1.1647
 3252SOL    HW221393   4.574   3.641  11.519  0.0437  3.0737 -0.3628
 3253SOL     OW21394   2.501   1.195   0.885  0.2916  0.3084  0.0143
 3253SOL    HW121395   2.559   1.198   0.809  0.9763  1.3360  0.5875
 3253SOL    HW221396   2.507   1.285   0.917 -0.1065  0.7525 -1.1572
 3254SOL     OW21397   2.517   3.493   3.252 -0.2075 -0.0536  0.0677
 3254SOL    HW121398   2.436   3.442   3.258 -0.8167  1.0280  1.0808
 3254SOL    HW221399   2.529   3.495   3.157 -0.4773  1.5635  0.0759
 3255SOL     OW21400   2.524   3.127   9.652 -0.6656 -0.1051  0.7609
 3255SOL    HW121401   2.467   3.203   9.644  1.3560  1.4224  0.9052
 3255SOL    HW221402   2.604   3.173   9.679  0.3748 -0.3565 -1.8694
 3256SOL     OW21403   3.075   2.899   8.148  0.5498  0.2301  0.0743
 3256SOL    HW121404   3.107   2.810   8.136 -0.3219 -0.3416  2.0802
 3256SOL    HW221405   2.999   2.880   8.204  1.9192 -1.0869  1.4848
 3257SOL     OW21406   1.263   4.556  13.200  0.0946  0.1230 -0.7060
 3257SOL    HW121407   1.226   4.565  13.113  1.1066  1.6162 -0.9817
 3257SOL    HW221408   1.185   4.574  13.253  0.3549  0.6705 -0.5117
 3258SOL     OW21409   2.130   0.513   8.195  0.5994  0.6231 -0.4166
 3258SOL    HW121410   2.194   0.574   8.160 -1.7519  3.0666 -0.4940
 3258SOL    HW221411   2.083   0.483   8.117 -1.4506  0.8236  0.7245
 3259SOL     OW21412   1.103   1.121  13.777 -0.7505  0.0341 -0.4078
 3259SOL    HW121413   1.028   1.103  13.720 -1.6881 -1.1938  1.2056
 3259SOL    HW221414   1.119   1.037  13.819  1.5218  0.4869 -0.3907
 3260SOL     OW21415   1.385   0.990   0.190 -0.5106 -0.7485  0.1438
 3260SOL    HW121416   1.315   0.924   0.190 -0.1837 -1.0944 -1.2128
 3260SOL    HW221417   1.460   0.932   0.202  0.7806  0.7419 -0.7891
 3261SOL     OW21418   1.218   1.019  13.050  0.5766 -0.2585 -0.3214
 3261SOL    HW121419   1.169   1.096  13.077  0.6708  0.2908 -1.7074
 3261SOL    HW221420   1.197   1.013  12.956  1.4956 -0.1545 -0.5354
 3262SOL     OW21421   3.719   2.829  17.606  0.0256  0.2223  0.7923
 3262SOL    HW121422   3.797   2.866  17.565  0.3760 -0.6988  0.6143
 3262SOL    HW221423   3.767   2.788  17.679  1.4562 -0.8520 -0.7399
 3263SOL     OW21424   0.850   2.436  14.351 -0.5735  0.1523  0.2488
 3263SOL    HW121425   0.853   2.471  14.440  1.6434  0.9038 -0.1166
 3263SOL    HW221426   0.868   2.509  14.292 -0.9719  0.8989  1.0626
 3264SOL     OW21427   4.675   0.102  11.456 -0.6131 -0.1438 -0.3593
 3264SOL    HW121428   0.030   0.104  11.447 -0.3539 -1.2505  2.0635
 3264SOL    HW221429   4.653   0.092  11.364  0.7783 -1.2725 -0.5694
 3265SOL     OW21430   3.487   2.488   2.198 -0.2595 -0.5726  0.4169
 3265SOL    HW121431   3.456   2.480   2.108 -0.0587  0.1725  0.2864
 3265SOL    HW221432   3.435   2.563   2.226  0.4512 -0.3859  1.2240
 3266SOL     OW21433   0.780   0.547   6.547 -0.3272  0.4962  0.1861
 3266SOL    HW121434   0.800   0.535   6.639 -0.5352 -3.3546 -0.2930
 3266SOL    HW221435   0.804   0.638   6.529  1.3409 -0.7343 -3.9284
 3267SOL     OW21436   3.400   4.699   3.590 -0.4190  0.1427 -0.0381
 3267SOL    HW121437   3.495   4.707   3.596 -0.1782 -0.7155 -2.5721
 3267SOL    HW221438   3.389   4.688   3.495  2.2733  1.2342 -0.4883
 3268SOL     OW21439   3.901   0.864  12.217 -0.2257 -0.1730  0.3880
 3268SOL    HW121440   3.809   0.837  12.210  0.2882 -1.9628  0.2996
 3268SOL    HW221441   3.944   0.800  12.160 -0.1944  1.3039 -1.2597
 3269SOL     OW21442   1.608   2.685   2.186 -0.2419 -0.3811  0.0230
 3269SOL    HW121443   1.530   2.712   2.138 -0.2477 -1.0920 -0.3608
 3269SOL    HW221444   1.659   2.765   2.169  0.8104 -1.3360 -1.3487
 3270SOL     OW21445   3.527   2.305  10.636 -0.8804  0.3088  0.4343
 3270SOL    HW121446   3.519   2.211  10.651 -0.4866  0.2785  0.4378
 3270SOL    HW221447   3.445   2.328  10.680 -1.1682  0.4083 -0.1399
 3271SOL     OW21448   0.315   2.687   5.134  0.1965 -0.3989 -1.2519
 3271SOL    HW121449   0.246   2.747   5.164  2.4053  1.3978  0.1549
 3271SOL    HW221450   0.316   2.632   5.212 -0.5127  0.6745 -0.4816
 3272SOL     OW21451   4.082   2.545   7.591  0.0485  0.6387  0.4952
 3272SOL    HW121452   4.112   2.510   7.675 -3.4276 -2.0015  0.6573
 3272SOL    HW221453   4.112   2.475   7.533 -0.1319 -0.4061  1.6763
 3273SOL     OW21454   3.211   0.005  16.248  0.1835  0.3926  0.2605
 3273SOL    HW121455   3.168   4.704  16.173 -0.1962  0.3073  0.5250
 3273SOL    HW221456   3.153   4.706  16.313  0.2552  0.1579  0.1841
 3274SOL     OW21457   1.788   3.469   9.518 -0.6612 -0.0129  0.1566
 3274SOL    HW121458   1.864   3.515   9.554 -0.0490 -0.1415 -0.9602
 3274SOL    HW221459   1.797   3.499   9.427 -0.8929  1.1385  0.5120
 3275SOL     OW21460   2.434   3.201  10.697  0.2709  0.0228 -0.0420
 3275SOL    HW121461   2.481   3.120  10.719  0.0230  0.1866  1.1035
 3275SOL    HW221462   2.467   3.213  10.608 -0.7782 -0.6942 -0.5233
 3276SOL     OW21463   1.146   2.786  16.518  0.1916  0.1086  0.5225
 3276SOL    HW121464   1.109   2.723  16.455  0.6951  0.6857 -0.3499
 3276SOL    HW221465   1.221   2.736  16.551  0.0262 -0.1313  0.5373
 3277SOL     OW21466   2.702   1.014  15.646 -0.0135  0.5306 -0.4331
 3277SOL    HW121467   2.633   0.947  15.647  2.1287 -1.6194  1.3947
 3277SOL    HW221468   2.695   1.036  15.739  0.5607  3.0204 -0.9656
 3278SOL     OW21469   2.467   3.174  15.275  0.4845  0.1535  0.1177
 3278SOL    HW121470   2.532   3.116  15.235 -2.7111 -1.7069 -2.2914
 3278SOL    HW221471   2.514   3.224  15.342 -1.1827 -0.9120  2.0720
 3279SOL     OW21472   2.819   2.235  12.792 -0.5696 -0.0023 -0.3763
 3279SOL    HW121473   2.733   2.222  12.832 -0.7887  0.2014 -0.7848
 3279SOL    HW221474   2.818   2.164  12.728 -0.8087 -0.2983 -0.0437
 3280SOL     OW21475   2.182   3.302  12.943 -0.2135 -0.6926 -0.4302
 3280SOL    HW121476   2.273   3.293  12.971 -0.6808 -1.6807  0.7610
 3280SOL    HW221477   2.152   3.382  12.986 -1.7989 -2.2749  1.4639
 3281SOL     OW21478   2.770   1.481   2.423  0.1638 -0.0380 -0.2975
 3281SOL    HW121479   2.743   1.430   2.499  0.7407  1.2664  0.7824
 3281SOL    HW221480   2.865   1.466   2.425  0.0383 -0.6146  1.1449
 3282SOL     OW21481   2.900   1.444   6.357 -0.2926 -0.1474  0.5471
 3282SOL    HW121482   2.845   1.515   6.392 -0.8602  0.9545 -2.6190
 3282SOL    HW221483   2.934   1.488   6.280  0.2586 -1.4531  0.0478
 3283SOL     OW21484   0.366   1.784   2.986 -0.8336 -0.1013  0.1159
 3283SOL    HW121485   0.346   1.824   2.902 -0.8121 -0.5282 -0.0902
 3283SOL    HW221486   0.294   1.810   3.043  0.3395 -0.5952  1.8533
 3284SOL     OW21487   3.810   2.186   4.336  0.4012  0.1934  0.2521
 3284SOL    HW121488   3.814   2.136   4.254 -0.8506  0.7751 -0.1538
 3284SOL    HW221489   3.873   2.140   4.392 -1.0731 -1.1809  0.8020
 3285SOL     OW21490   3.652   2.455   2.511 -0.4632  0.0785 -0.1270
 3285SOL    HW121491   3.599   2.535   2.512 -1.3748 -0.5322 -0.2500
 3285SOL    HW221492   3.662   2.435   2.604 -1.1580 -0.1931 -0.1144
 3286SOL     OW21493   3.268   2.913   0.797  0.3605  0.0507 -0.8739
 3286SOL    HW121494   3.284   2.900   0.890  0.2229  1.1563 -0.7007
 3286SOL    HW221495   3.270   2.823   0.766  0.1703 -1.1272  2.5546
 3287SOL     OW21496   1.718   0.749   4.841 -0.0096  0.3170 -0.1147
 3287SOL    HW121497   1.776   0.673   4.831  0.2134  0.3163  1.0803
 3287SOL    HW221498   1.703   0.787   4.755 -0.1860 -0.1016 -0.2633
 3288SOL     OW21499   0.797   2.924   9.293  0.2196 -0.2187  0.7057
 3288SOL    HW121500   0.800   2.901   9.200  1.0003 -2.0616  1.1826
 3288SOL    HW221501   0.886   2.956   9.306  0.2408  0.6386 -1.4470
 3289SOL     OW21502   0.173   2.916  10.095 -0.7236  0.1857 -0.1056
 3289SOL    HW121503   0.107   2.985  10.089 -0.5959  0.2549 -0.6762
 3289SOL    HW221504   0.153   2.868  10.176 -1.5339  0.6941 -0.0005
 3290SOL     OW21505   2.582   4.234   4.643 -0.6111  0.3971 -0.5065
 3290SOL    HW121506   2.580   4.322   4.680  0.7965  0.1703  0.1118
 3290SOL    HW221507   2.509   4.196   4.692 -0.0706  0.1002  0.0745
 3291SOL     OW21508   0.273   3.145   8.557  0.1706  0.6399  0.5457
 3291SOL    HW121509   0.215   3.213   8.525 -0.7903 -0.7836 -0.7134
 3291SOL    HW221510   0.324   3.189   8.625 -0.3687  0.7488  0.8815
 3292SOL     OW21511   4.676   2.264   2.612 -0.3288  0.5326 -0.1346
 3292SOL    HW121512   4.687   2.182   2.659  0.4282  0.9315  0.3891
 3292SOL    HW221513   4.719   2.322   2.675 -1.2890  0.9580  0.1207
 3293SOL     OW21514   0.575   3.816  10.245 -0.1977 -0.0309  0.2167
 3293SOL    HW121515   0.609   3.731  10.215  1.2969 -0.3946  2.9183
 3293SOL    HW221516   0.523   3.778  10.315 -0.6224  0.5914  0.2334
 3294SOL     OW21517   4.026   2.925   1.705 -0.0040  0.2069 -0.2908
 3294SOL    HW121518   3.992   2.925   1.616  0.0825  0.1740 -0.3245
 3294SOL    HW221519   3.994   2.842   1.740  0.0123 -0.1291 -1.0798
 3295SOL     OW21520   2.331   2.230  13.493 -0.1839 -0.7445 -0.3603
 3295SOL    HW121521   2.241   2.259  13.509  0.0361 -0.4280  0.2900
 3295SOL    HW221522   2.338   2.136  13.512 -1.9038 -0.7985  0.0103
 3296SOL     OW21523   1.796   2.723   8.438 -0.0681 -0.3219  0.1840
 3296SOL    HW121524   1.783   2.628   8.433  0.3807 -0.4082  0.6842
 3296SOL    HW221525   1.881   2.734   8.480  0.9130 -1.8329 -1.4446
 3297SOL     OW21526   4.107   0.764   7.800  0.4345  0.3429  0.1281
 3297SOL    HW121527   4.042   0.775   7.731  1.1576  0.1200 -0.5942
 3297SOL    HW221528   4.101   0.670   7.815 -1.2318  0.6589  1.4219
 3298SOL     OW21529   0.162   0.106  12.630  0.0474  0.9147  0.0284
 3298SOL    HW121530   0.152   0.086  12.723 -2.1135  1.4260 -0.0983
 3298SOL    HW221531   0.208   0.190  12.627  4.0920 -1.3108 -1.1539
 3299SOL     OW21532   4.476   1.133  13.402  0.1504 -0.4033 -0.0385
 3299SOL    HW121533   4.403   1.099  13.350  0.0964  0.4508 -0.5208
 3299SOL    HW221534   4.430   1.143  13.485  0.0587  2.0054 -0.3807
 3300SOL     OW21535   1.776   0.485   9.695 -0.6147  0.3627 -0.2676
 3300SOL    HW121536   1.796   0.496   9.788  0.0071 -1.5738 -0.1870
 3300SOL    HW221537   1.778   0.578   9.671 -0.4845  0.6282  0.7550
 3301SOL     OW21538   1.637   3.912   5.142 -0.1421  0.1657  0.8504
 3301SOL    HW121539   1.631   3.817   5.128  2.3105 -0.3629  3.4616
 3301SOL    HW221540   1.603   3.925   5.231 -0.6981  2.5416  0.2776
 3302SOL     OW21541   2.437   0.395  13.015 -0.1012 -0.0993 -0.3475
 3302SOL    HW121542   2.468   0.444  13.091  0.3925 -0.1069 -0.5413
 3302SOL    HW221543   2.520   0.349  12.999 -0.4264 -0.3339 -1.4009
 3303SOL     OW21544   3.887   2.562   5.272 -0.2351  0.2805 -0.9766
 3303SOL    HW121545   3.873   2.617   5.349 -0.0669 -1.8793  0.5991
 3303SOL    HW221546   3.853   2.476   5.296 -2.1171  1.6072  1.1569
 3304SOL     OW21547   2.276   0.715  11.556  0.0628 -0.5443 -0.7567
 3304SOL    HW121548   2.362   0.706  11.515  0.0947 -1.6009 -0.4508
 3304SOL    HW221549   2.260   0.632  11.600 -0.6392  1.5181  2.8945
 3305SOL     OW21550   2.897   0.992   2.719 -0.2741 -0.7340 -0.9466
 3305SOL    HW121551   2.892   0.990   2.624 -4.0265 -1.3879 -0.7085
 3305SOL    HW221552   2.946   1.072   2.739 -0.9717 -0.4608 -0.3234
 3306SOL     OW21553   3.070   2.054  10.418 -0.0514 -0.4470  0.2598
 3306SOL    HW121554   3.054   2.116  10.489  0.9724 -0.0339  0.1309
 3306SOL    HW221555   3.044   1.968  10.451  1.5359 -0.1360  2.3337
 3307SOL     OW21556   2.216   1.574   8.401  0.4114  0.6451 -0.0367
 3307SOL    HW121557   2.231   1.654   8.452  0.2144  1.1758 -0.8124
 3307SOL    HW221558   2.121   1.580   8.395  0.4584  1.7875  0.2902
 3308SOL     OW21559   3.988   0.953   5.687 -0.0475  0.5395 -0.5837
 3308SOL    HW121560   4.049   0.921   5.620  0.6193  1.8382 -0.6018
 3308SOL    HW221561   4.041   0.948   5.766 -0.4844  0.9605 -0.2612
 3309SOL     OW21562   0.407   4.163   6.404 -0.1113  0.6565  0.5727
 3309SOL    HW121563   0.455   4.191   6.326  0.2976  1.4049  1.0854
 3309SOL    HW221564   0.373   4.246   6.438 -0.0000  1.3941 -1.1007
 3310SOL     OW21565   2.724   0.677   3.461 -0.3227  0.0996  0.0543
 3310SOL    HW121566   2.644   0.630   3.438 -0.2762  0.2070 -0.3232
 3310SOL    HW221567   2.718   0.661   3.555  0.2010 -0.5577 -0.0294
 3311SOL     OW21568   1.255   2.732   0.107 -0.1698  0.3931  0.1603
 3311SOL    HW121569   1.338   2.768   0.075 -0.5167  1.3319  0.3334
 3311SOL    HW221570   1.213   2.812   0.137 -0.1638 -0.1218  1.5270
 3312SOL     OW21571   3.201   0.267   3.402 -0.2928 -0.2576  0.4790
 3312SOL    HW121572   3.215   0.184   3.356  0.3546 -0.4890  1.0745
 3312SOL    HW221573   3.122   0.244   3.451 -0.8752 -0.9817 -0.8098
 3313SOL     OW21574   1.744   4.188   5.229  0.1529 -0.6573 -0.0011
 3313SOL    HW121575   1.721   4.103   5.192  1.6166 -2.3231  3.0216
 3313SOL    HW221576   1.826   4.212   5.186  0.0239 -0.8011 -0.3298
 3314SOL     OW21577   3.854   4.487   5.577 -0.0734 -0.2571 -0.5379
 3314SOL    HW121578   3.816   4.528   5.655 -0.0831 -1.2968  0.0123
 3314SOL    HW221579   3.909   4.551   5.531  0.2292  0.4990  0.8602
 3315SOL     OW21580   4.608   0.946   3.037  0.5910 -0.4555  0.5200
 3315SOL    HW121581   4.607   1.010   2.966 -2.9253 -1.1088 -0.0102
 3315SOL    HW221582   4.639   1.004   3.106 -0.2413  0.6119 -0.0030
 3316SOL     OW21583   2.346   2.591  17.702 -0.5107 -0.5365  0.3317
 3316SOL    HW121584   2.398   2.597  17.622 -0.9338  2.6623  0.2788
 3316SOL    HW221585   2.289   2.520  17.674  0.8569 -1.9101  1.0512
 3317SOL     OW21586   3.282   0.180  12.021  0.9576  0.2597 -0.6181
 3317SOL    HW121587   3.282   0.087  12.000  1.9056  0.0973  0.1090
 3317SOL    HW221588   3.313   0.224  11.942  2.4220  0.4856  0.0928
 3318SOL     OW21589   1.390   4.243   2.931 -0.5638  0.5995  0.0370
 3318SOL    HW121590   1.426   4.277   3.013 -0.3591  2.5932 -0.8812
 3318SOL    HW221591   1.451   4.273   2.865 -1.7387 -0.8648 -1.7001
 3319SOL     OW21592   0.358   4.453   1.412  0.7968 -0.1206 -0.3428
 3319SOL    HW121593   0.267   4.423   1.407  0.4938  0.9480 -1.2746
 3319SOL    HW221594   0.387   4.432   1.501  0.7910  2.6680  0.3155
 3320SOL     OW21595   4.506   2.135   9.673 -0.0276 -0.2108 -0.0532
 3320SOL    HW121596   4.553   2.081   9.609 -0.2448 -1.7432  1.0629
 3320SOL    HW221597   4.506   2.076   9.749  1.9327 -1.3615 -0.9366
 3321SOL     OW21598   0.969   1.524  15.214 -0.3860  0.1629 -0.4858
 3321SOL    HW121599   1.062   1.534  15.194 -0.6240  1.3125 -0.9942
 3321SOL    HW221600   0.938   1.614  15.207 -2.1219 -0.3202  1.0486
 3322SOL     OW21601   0.560   2.359   8.371 -0.1084  0.7527 -0.0357
 3322SOL    HW121602   0.637   2.397   8.327  0.1649  0.1271 -0.0903
 3322SOL    HW221603   0.516   2.319   8.296  1.1156 -0.1410 -0.2684
 3323SOL     OW21604   4.116   0.808  16.434  0.3778 -0.3656 -0.4547
 3323SOL    HW121605   4.032   0.764  16.421  1.2935 -1.6046 -2.3486
 3323SOL    HW221606   4.160   0.758  16.365  0.9667  0.6491 -0.8106
 3324SOL     OW21607   0.819   3.442  12.898 -0.2224  0.0076 -0.2818
 3324SOL    HW121608   0.805   3.464  12.806 -0.1602  0.5355 -0.1658
 3324SOL    HW221609   0.904   3.399  12.892  0.1658  1.3052 -3.9342
 3325SOL     OW21610   4.465   1.831   5.484 -0.6286 -0.2470  0.3035
 3325SOL    HW121611   4.486   1.862   5.396  2.2771 -0.9431  0.7316
 3325SOL    HW221612   4.511   1.898   5.535  0.8247 -1.6149  0.8158
 3326SOL     OW21613   2.117   3.107   4.789 -0.1713 -0.1632 -0.3707
 3326SOL    HW121614   2.206   3.116   4.823  0.1875 -1.3245 -1.0229
 3326SOL    HW221615   2.077   3.194   4.782  1.0597  0.2888 -1.8279
 3327SOL     OW21616   2.325   2.799   4.740  0.1643  0.0022  0.3290
 3327SOL    HW121617   2.368   2.719   4.768 -1.4670 -1.4539 -1.3688
 3327SOL    HW221618   2.283   2.829   4.821  2.3105  1.6404  0.8191
 3328SOL     OW21619   1.877   2.019  14.903  0.1423 -0.1524 -0.2528
 3328SOL    HW121620   1.911   2.061  14.824  0.7501 -1.6411 -0.7891
 3328SOL    HW221621   1.798   2.072  14.914  1.1523  1.1804  0.5122
 3329SOL     OW21622   4.130   4.240   7.495  0.3869  0.4921  0.1818
 3329SOL    HW121623   4.117   4.300   7.568 -0.5781  0.1707  0.2727
 3329SOL    HW221624   4.128   4.154   7.537  0.7865 -0.5332 -1.8829
 3330SOL     OW21625   2.209   1.599   6.089  0.2771 -0.2236 -0.3222
 3330SOL    HW121626   2.147   1.543   6.136  0.1490  0.2155  0.0382
 3330SOL    HW221627   2.184   1.686   6.122  0.5390 -0.2388 -0.0785
 3331SOL     OW21628   1.368   1.143   7.304 -0.3269 -0.0443  0.4785
 3331SOL    HW121629   1.301   1.074   7.301  2.1359 -2.3354 -1.3883
 3331SOL    HW221630   1.348   1.191   7.385  2.8859 -2.6175  2.7849
 3332SOL     OW21631   0.999   2.716  11.483  0.5897 -0.5046  0.3795
 3332SOL    HW121632   0.987   2.767  11.403  0.4664  0.3361  0.9380
 3332SOL    HW221633   0.962   2.770  11.553 -3.1125 -1.8011 -0.6225
 3333SOL     OW21634   0.771   3.790  17.371 -0.5672  0.1974 -0.4232
 3333SOL    HW121635   0.778   3.873  17.324  0.2093 -0.1115 -0.8562
 3333SOL    HW221636   0.762   3.828  17.458 -0.8751  2.5131 -1.4869
 3334SOL     OW21637   4.332   1.652   4.808  0.1032 -0.1799  0.5050
 3334SOL    HW121638   4.278   1.722   4.844 -1.8139 -0.4901 -1.7830
 3334SOL    HW221639   4.275   1.651   4.732  1.1043 -0.8578 -0.2334
 3335SOL     OW21640   2.677   0.885   3.064 -0.1043 -0.1341  0.3295
 3335SOL    HW121641   2.757   0.857   3.110  0.8894  1.6070 -0.3111
 3335SOL    HW221642   2.641   0.803   3.033  0.1091 -1.1638  2.8040
 3336SOL     OW21643   2.350   2.942  10.318 -0.3512 -0.0998 -0.0929
 3336SOL    HW121644   2.292   3.013  10.347  0.2534  0.3332  0.0566
 3336SOL    HW221645   2.411   2.943  10.391  0.9600 -1.5227 -1.1556
 3337SOL     OW21646   0.126   1.295   8.269 -0.1575 -0.7222 -0.2288
 3337SOL    HW121647   0.059   1.239   8.309 -0.7992 -0.5289 -1.0464
 3337SOL    HW221648   0.085   1.327   8.189  2.0445  0.5473 -0.8593
 3338SOL     OW21649   2.004   2.353   3.542 -0.1687  0.1534 -0.6311
 3338SOL    HW121650   1.960   2.268   3.537 -0.7223  0.4376 -0.6199
 3338SOL    HW221651   1.948   2.400   3.480 -0.8070  1.3226  0.8296
 3339SOL     OW21652   4.545   2.023   3.294  0.1203  0.0098 -0.6799
 3339SOL    HW121653   4.637   2.047   3.298  0.0747 -0.2374  1.7702
 3339SOL    HW221654   4.545   1.975   3.211  1.8398  0.3911 -0.8990
 3340SOL     OW21655   3.252   0.324   0.215  0.2778 -0.2242 -0.0741
 3340SOL    HW121656   3.252   0.328   0.119 -0.0973  0.6171 -0.0375
 3340SOL    HW221657   3.332   0.272   0.229  0.6355 -0.1599 -1.9031
 3341SOL     OW21658   0.097   1.025   4.376  0.3400 -0.8928  0.9288
 3341SOL    HW121659   0.065   0.945   4.335  0.1158  0.3548 -1.3389
 3341SOL    HW221660   0.015   1.072   4.383  0.7594  0.2120 -1.3369
 3342SOL     OW21661   0.965   3.029   5.488 -0.7015  0.1189  0.5786
 3342SOL    HW121662   0.945   3.114   5.449 -0.8996 -1.2276 -2.2945
 3342SOL    HW221663   0.921   2.982   5.417 -0.3334  0.7677 -0.0710
 3343SOL     OW21664   3.272   4.410   0.021  0.4993 -0.1292  0.2102
 3343SOL    HW121665   3.295   4.405  17.686  1.8829  0.0534  0.5501
 3343SOL    HW221666   3.358   4.415   0.061 -0.4094 -0.8228  2.2808
 3344SOL     OW21667   2.380   3.585   7.210 -0.0744  0.7464  0.5007
 3344SOL    HW121668   2.287   3.603   7.221  0.3423  2.7554  0.6628
 3344SOL    HW221669   2.406   3.618   7.124  2.5012 -1.7179  0.3262
 3345SOL     OW21670   1.184   0.625   8.365 -0.3931  0.4559 -0.2178
 3345SOL    HW121671   1.121   0.625   8.293  0.1329 -2.6098 -0.6789
 3345SOL    HW221672   1.244   0.563   8.324 -1.8374 -0.2038 -1.3393
 3346SOL     OW21673   4.506   2.346   2.160 -0.6111 -0.2233 -0.1964
 3346SOL    HW121674   4.569   2.277   2.141 -0.4213 -0.5905  1.7349
 3346SOL    HW221675   4.490   2.320   2.251 -0.7926  0.9674  0.1169
 3347SOL     OW21676   2.603   0.712   4.892  0.1251  0.7849 -0.3942
 3347SOL    HW121677   2.671   0.651   4.918 -1.2017  0.2504  1.8574
 3347SOL    HW221678   2.595   0.702   4.797 -0.4017  2.9225 -0.5841
 3348SOL     OW21679   2.525   2.409   1.072  0.0529  0.4459  0.3207
 3348SOL    HW121680   2.486   2.358   1.143  0.0205  1.6598  1.1766
 3348SOL    HW221681   2.603   2.356   1.056 -0.0018  0.2121  0.8350
 3349SOL     OW21682   1.492   1.179   6.140 -0.1030  0.3375  0.4546
 3349SOL    HW121683   1.555   1.204   6.208  1.5191 -0.6792 -0.6467
 3349SOL    HW221684   1.412   1.220   6.171  0.2304  0.5940  0.9798
 3350SOL     OW21685   4.624   0.339   7.717 -0.5259  0.6638  0.3209
 3350SOL    HW121686   4.651   0.248   7.722  0.0873  0.8597  0.5574
 3350SOL    HW221687   4.694   0.380   7.768 -0.0083  1.1542 -0.7948
 3351SOL     OW21688   2.556   4.022  13.016  0.2970  0.1356 -0.2027
 3351SOL    HW121689   2.564   3.951  12.952 -0.6234 -1.8364  1.8938
 3351SOL    HW221690   2.484   3.985  13.067 -1.2224  1.0293 -1.6553
 3352SOL     OW21691   3.498   1.359   5.624  0.0817  0.1575 -0.3796
 3352SOL    HW121692   3.501   1.454   5.635 -1.2642  0.2507 -0.8659
 3352SOL    HW221693   3.413   1.347   5.581  0.6493 -3.4641 -0.5066
 3353SOL     OW21694   0.504   4.326   3.384 -0.2830  0.0532 -0.2938
 3353SOL    HW121695   0.515   4.246   3.333 -0.6783  0.6208 -1.2782
 3353SOL    HW221696   0.525   4.291   3.470 -2.7270  0.4954  0.4656
 3354SOL     OW21697   4.372   3.864   1.994 -0.0352 -1.0855  0.4724
 3354SOL    HW121698   4.298   3.821   2.037  0.2869 -1.9377  0.1753
 3354SOL    HW221699   4.397   3.919   2.069  2.6193 -0.5855 -0.7761
 3355SOL     OW21700   0.109   1.467   6.342  0.1619 -0.1126 -0.1964
 3355SOL    HW121701   0.053   1.507   6.275  1.2261 -0.4820 -1.3019
 3355SOL    HW221702   0.105   1.533   6.412  1.1100 -2.4478  2.0280
 3356SOL     OW21703   2.265   4.053   9.015  0.1613 -0.2030 -0.2110
 3356SOL    HW121704   2.254   3.975   9.070 -0.6667 -0.6341 -0.9779
 3356SOL    HW221705   2.271   4.128   9.073 -1.0397 -0.0895 -0.2316
 3357SOL     OW21706   3.189   3.931  14.824 -0.7298 -0.0601 -0.0642
 3357SOL    HW121707   3.269   3.939  14.876 -0.8526 -2.9220  0.5300
 3357SOL    HW221708   3.141   3.880  14.889 -0.6285 -0.1353 -0.0505
 3358SOL     OW21709   2.711   0.116   8.181  0.6589  0.3666  0.3074
 3358SOL    HW121710   2.805   0.098   8.180  0.9188  1.7667 -0.5540
 3358SOL    HW221711   2.711   0.161   8.097 -1.3323  0.0582  0.1462
 3359SOL     OW21712   0.780   2.093   6.780 -0.6332 -0.4267 -0.6364
 3359SOL    HW121713   0.724   2.117   6.854  2.4504  2.2750  0.7677
 3359SOL    HW221714   0.752   2.002   6.765 -0.4468 -0.3287 -1.6017
 3360SOL     OW21715   1.055   0.723   2.690  0.1749  0.5594 -0.6297
 3360SOL    HW121716   0.960   0.717   2.692  0.2534 -0.4473  0.5365
 3360SOL    HW221717   1.074   0.637   2.729 -1.2987 -0.8666 -3.0798
 3361SOL     OW21718   4.059   4.295   5.622  0.3883 -0.4399 -0.2946
 3361SOL    HW121719   3.986   4.354   5.605  1.2913  0.1851 -1.9571
 3361SOL    HW221720   4.082   4.320   5.712 -0.3957  2.5326 -0.9373
 3362SOL     OW21721   4.455   1.753   4.371 -0.0337 -0.4604  0.7465
 3362SOL    HW121722   4.490   1.774   4.285 -0.1210  1.4991  1.1980
 3362SOL    HW221723   4.533   1.708   4.404 -0.3352 -1.4615  0.0986
 3363SOL     OW21724   2.905   4.068   9.764 -0.1232 -0.2041 -0.4626
 3363SOL    HW121725   2.909   3.977   9.795 -0.0662  0.5449  1.7205
 3363SOL    HW221726   2.978   4.073   9.703  1.0730  3.5147  1.2876
 3364SOL     OW21727   0.992   0.981   9.112 -0.2485 -0.2238  0.4439
 3364SOL    HW121728   0.959   0.923   9.043 -1.4596  0.2247  0.6347
 3364SOL    HW221729   0.937   0.947   9.183  1.4072 -1.1878  1.2625
 3365SOL     OW21730   2.839   2.184  15.683 -0.3054  0.2880 -0.0072
 3365SOL    HW121731   2.751   2.221  15.679 -0.8123 -1.0195 -0.9352
 3365SOL    HW221732   2.891   2.249  15.730 -0.8003 -0.5400  1.6572
 3366SOL     OW21733   1.990   1.495   9.172  0.5591  0.0393  0.0321
 3366SOL    HW121734   2.000   1.526   9.082  0.5649  0.9728  0.3573
 3366SOL    HW221735   2.033   1.559   9.228  0.8873 -0.8273  0.7753
 3367SOL     OW21736   3.374   0.509   2.871 -0.8311 -0.1920 -0.1222
 3367SOL    HW121737   3.369   0.568   2.946  0.4607  0.4324 -0.5205
 3367SOL    HW221738   3.469   0.508   2.860 -0.2613  3.6832  4.4683
 3368SOL     OW21739   4.018   2.306  12.113  0.4963 -0.2428 -0.3617
 3368SOL    HW121740   4.058   2.246  12.176  1.0414 -0.4523 -0.9062
 3368SOL    HW221741   4.088   2.366  12.088  0.1989  0.2562  0.0063
 3369SOL     OW21742   0.205   1.075   7.098 -0.1210 -0.0546  0.1338
 3369SOL    HW121743   0.294   1.064   7.064 -0.5278 -1.0791 -0.5994
 3369SOL    HW221744   0.154   1.072   7.017  0.1658 -4.6536  0.1313
 3370SOL     OW21745   3.536   1.273  10.808 -0.2677  0.2873  0.1888
 3370SOL    HW121746   3.534   1.351  10.752  0.7021  0.4392  0.3669
 3370SOL    HW221747   3.608   1.221  10.773  1.6981  3.0507  0.1657
 3371SOL     OW21748   2.090   4.593   3.555  0.4631 -0.9279 -0.3521
 3371SOL    HW121749   2.028   4.622   3.623 -1.1475 -1.3771 -1.6196
 3371SOL    HW221750   2.059   4.649   3.484  1.6875 -0.2053 -0.3074
 3372SOL     OW21751   2.494   3.241   0.490  0.2690  0.1965 -0.0015
 3372SOL    HW121752   2.530   3.324   0.460  0.1054 -0.5242 -2.1633
 3372SOL    HW221753   2.425   3.270   0.550  0.6552 -1.5895  1.3160
 3373SOL     OW21754   0.766   2.265   8.825  0.2472 -0.2421  0.8782
 3373SOL    HW121755   0.803   2.346   8.789 -3.2377 -0.6026 -3.4256
 3373SOL    HW221756   0.784   2.198   8.759 -0.1233 -1.9468  2.5272
 3374SOL     OW21757   3.183   1.537   6.389 -0.2559  0.0159 -0.1383
 3374SOL    HW121758   3.236   1.511   6.314  1.6800 -0.2962  1.3242
 3374SOL    HW221759   3.119   1.585   6.336 -0.9961 -0.4346  0.3566
 3375SOL     OW21760   0.512   0.296   3.958 -0.0528  0.2096 -0.2224
 3375SOL    HW121761   0.534   0.268   4.046 -1.1846 -2.0929 -0.6492
 3375SOL    HW221762   0.426   0.336   3.974  0.6752  0.8406  2.0692
 3376SOL     OW21763   0.105   1.921   5.731  1.0671  0.0455  0.6681
 3376SOL    HW121764   0.074   1.970   5.808 -2.1864 -1.3564  0.2505
 3376SOL    HW221765   0.057   1.973   5.666  2.3054  0.4327  0.0679
 3377SOL     OW21766   1.115   2.957   2.209 -0.4530  0.0438  0.6693
 3377SOL    HW121767   1.184   3.017   2.184  0.6018 -0.7628  1.6709
 3377SOL    HW221768   1.173   2.890   2.244  0.0047  0.0124 -0.1425
 3378SOL     OW21769   3.902   3.839   7.235 -0.1428  0.0383  0.3161
 3378SOL    HW121770   3.881   3.776   7.303  1.5971  1.7580  2.4446
 3378SOL    HW221771   3.831   3.820   7.174 -0.0028 -0.3754  0.2786
 3379SOL     OW21772   2.349   1.656  10.031  0.2899 -0.0271 -0.0956
 3379SOL    HW121773   2.265   1.679   9.991  1.3854  0.0332 -2.3305
 3379SOL    HW221774   2.310   1.615  10.108  1.5412 -2.0129 -0.5280
 3380SOL     OW21775   3.966   3.587  14.213 -0.2094 -0.1157 -0.4602
 3380SOL    HW121776   4.039   3.528  14.193  0.4003  0.7990 -0.9132
 3380SOL    HW221777   3.941   3.551  14.298  2.0554  4.1644  1.9681
 3381SOL     OW21778   3.000   0.459  10.331 -0.8612  0.4892 -0.0268
 3381SOL    HW121779   3.037   0.394  10.390 -0.3982  1.1361  0.3971
 3381SOL    HW221780   2.926   0.408  10.297 -0.2587 -0.4502  0.0823
 3382SOL     OW21781   4.416   4.698   1.484 -0.2282 -0.3034 -0.6034
 3382SOL    HW121782   4.397   0.004   1.566 -0.0252  0.1964 -0.8377
 3382SOL    HW221783   4.482   4.634   1.510 -1.1054 -0.4863  1.1382
 3383SOL     OW21784   4.166   3.674  11.977 -0.3735  0.2440  0.5014
 3383SOL    HW121785   4.107   3.675  12.053 -2.6700 -1.8099 -1.2716
 3383SOL    HW221786   4.121   3.616  11.916  0.4174  0.8993 -0.7042
 3384SOL     OW21787   3.011   2.399   6.525  0.8063 -0.2903 -0.2852
 3384SOL    HW121788   3.098   2.380   6.560 -0.2778 -3.6992  0.5928
 3384SOL    HW221789   2.971   2.453   6.592 -0.0941 -0.9214 -0.3017
 3385SOL     OW21790   1.866   1.908   9.367 -0.6146 -0.1546 -0.0034
 3385SOL    HW121791   1.924   1.833   9.354 -0.4116  0.0700 -0.3856
 3385SOL    HW221792   1.844   1.904   9.460 -0.3185 -0.1723  0.0654
 3386SOL     OW21793   2.614   4.270   1.439  0.1116 -0.0660  0.1447
 3386SOL    HW121794   2.707   4.276   1.461  0.5539  0.1260 -1.7745
 3386SOL    HW221795   2.609   4.326   1.362  1.8897 -1.7609 -1.2065
 3387SOL     OW21796   0.143   1.480  12.653 -0.1425 -0.2269 -0.3465
 3387SOL    HW121797   0.065   1.442  12.613  0.5860 -2.0162 -0.0977
 3387SOL    HW221798   0.132   1.464  12.747 -0.7229  3.2121  0.1597
 3388SOL     OW21799   1.980   4.043   8.251 -0.0167 -0.4754 -0.1047
 3388SOL    HW121800   1.987   4.092   8.333 -0.1779 -0.1956 -0.2577
 3388SOL    HW221801   2.037   4.092   8.192 -1.5098  0.5668 -0.6830
 3389SOL     OW21802   3.503   1.650   2.515  0.2319 -0.0963 -0.4405
 3389SOL    HW121803   3.493   1.576   2.574 -0.8877  0.2761 -0.1669
 3389SOL    HW221804   3.410   1.671   2.527  0.2251 -0.0880 -0.5053
 3390SOL     OW21805   2.286   0.969   3.624 -0.2131  0.1907 -0.1687
 3390SOL    HW121806   2.343   0.898   3.596  1.5400  0.9410  1.5346
 3390SOL    HW221807   2.294   0.970   3.719 -1.1061  1.8877 -0.1110
 3391SOL     OW21808   4.301   4.160   8.466 -0.3181 -0.2752  0.6429
 3391SOL    HW121809   4.348   4.217   8.527 -1.0565  0.1433  0.8278
 3391SOL    HW221810   4.368   4.155   8.398 -0.8062 -1.7903  0.2759
 3392SOL     OW21811   0.567   2.266   1.531  0.1390  0.5742  0.3206
 3392SOL    HW121812   0.613   2.338   1.487 -1.0370 -0.9735 -3.4217
 3392SOL    HW221813   0.597   2.292   1.619  0.3310 -1.1188  0.7588
 3393SOL     OW21814   0.747   0.355   2.820 -0.1571  0.5162 -0.1967
 3393SOL    HW121815   0.753   0.264   2.851 -0.4812  0.1805 -1.1228
 3393SOL    HW221816   0.802   0.350   2.742  0.5322  0.1907  0.3038
 3394SOL     OW21817   4.168   2.482  15.573  0.2296  0.2014  0.5354
 3394SOL    HW121818   4.073   2.490  15.583  0.4932  2.0110  1.6082
 3394SOL    HW221819   4.196   2.504  15.662  1.3195 -1.7325  0.6877
 3395SOL     OW21820   3.411   4.388   9.424 -0.1452  0.0716  0.1391
 3395SOL    HW121821   3.420   4.407   9.330  0.7719  0.5141  0.3088
 3395SOL    HW221822   3.399   4.479   9.452 -0.7784  0.2580 -0.7250
 3396SOL     OW21823   3.416   2.254  10.309  0.6513 -0.5152  0.0760
 3396SOL    HW121824   3.424   2.251  10.404 -0.2107 -1.7670  0.1059
 3396SOL    HW221825   3.380   2.167  10.291  1.3310 -1.1285  1.7211
 3397SOL     OW21826   0.561   0.114  10.630  0.3143  0.3096  0.2019
 3397SOL    HW121827   0.647   0.145  10.661 -0.9079  2.8614  1.0807
 3397SOL    HW221828   0.541   0.180  10.563 -2.6843  0.4012  1.2021
 3398SOL     OW21829   0.648   4.418  10.401  0.0405  0.5682  0.2884
 3398SOL    HW121830   0.665   4.369  10.481 -0.1232  0.7593  0.4381
 3398SOL    HW221831   0.723   4.477  10.404 -1.3136  2.3355 -0.4826
 3399SOL     OW21832   1.760   0.905   5.790  0.3241  0.6851  0.3657
 3399SOL    HW121833   1.855   0.906   5.781  0.2883  0.8770  0.0144
 3399SOL    HW221834   1.764   0.973   5.858  1.9777  1.4673 -0.5146
 3400SOL     OW21835   2.578   4.358  16.919  0.2606  0.2949  0.0364
 3400SOL    HW121836   2.649   4.394  16.866 -0.4206 -2.0198 -2.4215
 3400SOL    HW221837   2.589   4.264  16.904  0.6330  0.1806  1.0251
 3401SOL     OW21838   0.848   0.783   8.454 -0.1810 -0.5191 -0.2750
 3401SOL    HW121839   0.894   0.729   8.517 -0.8911 -0.3934  0.3473
 3401SOL    HW221840   0.922   0.832   8.416  0.6364 -1.7512 -0.2835
 3402SOL     OW21841   4.373   0.883   8.606  0.6284  0.1230  0.8590
 3402SOL    HW121842   4.453   0.850   8.645  0.5049 -0.6212  0.4759
 3402SOL    HW221843   4.342   0.922   8.688 -0.2763 -1.9999  1.5432
 3403SOL     OW21844   3.873   1.730   1.641 -0.1777 -0.2945 -0.1105
 3403SOL    HW121845   3.837   1.641   1.634  4.0983 -1.8390 -2.2917
 3403SOL    HW221846   3.886   1.753   1.550 -1.6571  1.5343  0.1496
 3404SOL     OW21847   0.917   1.858   5.409 -0.1722  0.0675 -0.0552
 3404SOL    HW121848   0.911   1.920   5.336 -1.5799 -0.3803 -0.3123
 3404SOL    HW221849   0.878   1.913   5.478 -0.2119 -0.9567  0.7282
 3405SOL     OW21850   2.760   4.327   3.832  0.2548 -0.0069  0.0687
 3405SOL    HW121851   2.695   4.329   3.762 -0.7908 -0.9716  1.0282
 3405SOL    HW221852   2.711   4.281   3.900  0.2837 -1.2749 -0.7739
 3406SOL     OW21853   2.295   3.534  10.502 -0.2274 -0.1229  0.1277
 3406SOL    HW121854   2.295   3.517  10.596 -0.7359  1.6699  0.4391
 3406SOL    HW221855   2.391   3.543  10.498 -0.1187 -0.0845  2.8914
 3407SOL     OW21856   0.933   3.990   6.767  0.1969 -0.2126  0.4973
 3407SOL    HW121857   0.886   4.061   6.723 -2.7735 -0.7515  2.7404
 3407SOL    HW221858   1.012   3.979   6.715  0.0533 -0.1304  0.2602
 3408SOL     OW21859   1.672   0.411   8.168 -0.2060  0.0910 -0.2348
 3408SOL    HW121860   1.759   0.406   8.128  0.1052 -0.5180  0.5048
 3408SOL    HW221861   1.639   0.322   8.178 -1.9865  0.9966  1.8596
 3409SOL     OW21862   4.324   2.782   8.878 -0.2236 -0.0844  0.1525
 3409SOL    HW121863   4.362   2.870   8.877 -0.1577 -0.1192 -0.4361
 3409SOL    HW221864   4.251   2.792   8.818 -0.9084  1.3886  1.2424
 3410SOL     OW21865   0.957   3.475  10.364  0.2938  0.3631  0.0440
 3410SOL    HW121866   0.896   3.445  10.432  0.3419 -0.7528 -0.3988
 3410SOL    HW221867   1.042   3.442  10.392  1.2953  0.5598 -2.8189
 3411SOL     OW21868   1.141   3.729   5.490  0.1591 -0.0345 -0.2087
 3411SOL    HW121869   1.088   3.786   5.546 -2.2437 -1.0348 -1.4573
 3411SOL    HW221870   1.146   3.782   5.411  0.7170  1.4352  0.8188
 3412SOL     OW21871   3.982   2.243  15.272  0.5351 -0.3706  0.1364
 3412SOL    HW121872   3.911   2.179  15.279 -0.1708  0.2359 -1.2975
 3412SOL    HW221873   4.003   2.226  15.180  1.0618 -0.4756  0.2791
 3413SOL     OW21874   0.074   3.362  11.686 -0.1927 -0.5857  0.1410
 3413SOL    HW121875   0.163   3.397  11.689  0.2030 -1.5003 -0.6774
 3413SOL    HW221876   0.027   3.396  11.762 -1.3208  0.1047 -0.8674
 3414SOL     OW21877   4.132   1.088  13.169 -0.0955 -0.1017 -0.2468
 3414SOL    HW121878   4.213   1.081  13.119  0.2237  1.1800  0.1002
 3414SOL    HW221879   4.151   1.166  13.222 -2.1679  0.8159 -0.8534
 3415SOL     OW21880   0.816   2.695   9.715 -1.0313 -0.5380 -0.2928
 3415SOL    HW121881   0.817   2.649   9.631  1.8220  1.0094 -1.1218
 3415SOL    HW221882   0.909   2.718   9.716 -0.7942 -1.6744  2.5106
 3416SOL     OW21883   0.500   0.110   7.682  0.1169  0.2051 -0.1986
 3416SOL    HW121884   0.549   0.151   7.753  0.2558 -1.3131  0.5983
 3416SOL    HW221885   0.413   0.147   7.700 -0.4464 -1.0045 -0.4155
 3417SOL     OW21886   1.306   4.051   6.965  0.2848  0.5255  0.4683
 3417SOL    HW121887   1.336   3.994   7.036  2.2826 -1.0019 -1.6077
 3417SOL    HW221888   1.249   4.096   7.027  0.0020 -0.2625  0.7824
 3418SOL     OW21889   1.240   3.959  17.295 -0.2176  0.1833 -0.0275
 3418SOL    HW121890   1.190   3.886  17.260  0.4707 -0.4728  0.3599
 3418SOL    HW221891   1.176   4.001  17.352  1.4922  2.8595 -0.0721
 3419SOL     OW21892   2.880   0.234   9.316  0.1631 -0.8986  0.2263
 3419SOL    HW121893   2.825   0.176   9.262 -0.6132 -0.3654  0.4367
 3419SOL    HW221894   2.825   0.283   9.377  1.7918 -1.3688  2.0581
 3420SOL     OW21895   3.352   4.614   0.237 -0.2176 -0.5029 -0.2179
 3420SOL    HW121896   3.346   4.575   0.150 -0.9604 -4.2776  1.5173
 3420SOL    HW221897   3.352   4.532   0.287 -0.1473  0.1094  0.7712
 3421SOL     OW21898   1.914   2.769   1.498 -0.0043  0.5595 -0.2746
 3421SOL    HW121899   1.873   2.690   1.535  1.7419 -0.0601  0.3383
 3421SOL    HW221900   1.947   2.732   1.416  0.2994 -0.9664  0.5230
 3422SOL     OW21901   4.200   3.657   8.316 -0.2659 -0.2774 -0.2407
 3422SOL    HW121902   4.167   3.745   8.294 -0.9242 -0.3672  0.4068
 3422SOL    HW221903   4.139   3.601   8.267 -3.0836  1.0073  1.8375
 3423SOL     OW21904   2.638   1.960   2.246  0.7255  0.0822 -0.0622
 3423SOL    HW121905   2.604   1.964   2.335  0.7320 -0.0175 -0.0550
 3423SOL    HW221906   2.565   1.989   2.192 -1.7169 -1.7472  2.2972
 3424SOL     OW21907   3.648   2.840   2.432 -0.3077  0.3993 -0.0831
 3424SOL    HW121908   3.592   2.765   2.452 -0.2245  0.2377 -0.4421
 3424SOL    HW221909   3.587   2.910   2.408 -0.3383  0.7911  1.1744
 3425SOL     OW21910   3.292   3.345   2.644  0.1528  0.0239 -0.0295
 3425SOL    HW121911   3.337   3.261   2.639  0.5633  0.1290  1.8209
 3425SOL    HW221912   3.288   3.366   2.738  0.5676  0.5343 -0.1251
 3426SOL     OW21913   0.656   4.401  16.351 -0.3599 -0.1529  0.0870
 3426SOL    HW121914   0.613   4.429  16.432  1.8317 -0.4272  1.3341
 3426SOL    HW221915   0.642   4.472  16.289  3.0216 -0.7134 -1.3370
 3427SOL     OW21916   0.838   0.555   3.273 -0.1130  0.1775  0.3174
 3427SOL    HW121917   0.763   0.537   3.329  0.9004 -2.1171  0.9126
 3427SOL    HW221918   0.799   0.548   3.186 -0.1583  0.0191  0.3513
 3428SOL     OW21919   0.692   3.795   6.517 -0.0600 -0.3567 -0.4794
 3428SOL    HW121920   0.610   3.772   6.473 -0.0777  0.4122 -0.8599
 3428SOL    HW221921   0.766   3.767   6.463  0.4272 -1.3872  0.7480
 3429SOL     OW21922   0.563   4.316   5.441 -0.4408 -0.5588  0.1215
 3429SOL    HW121923   0.562   4.221   5.434  0.0019 -0.7741  2.9524
 3429SOL    HW221924   0.470   4.337   5.450  0.1477  1.2306  2.0142
 3430SOL     OW21925   0.407   1.466   1.982  0.3676 -0.0247  0.1744
 3430SOL    HW121926   0.337   1.520   2.020 -0.0574 -0.8034  0.4856
 3430SOL    HW221927   0.353   1.418   1.919  0.2531  1.1655 -0.6363
 3431SOL     OW21928   3.847   3.855   6.870 -0.6549 -0.0594 -0.6006
 3431SOL    HW121929   3.908   3.788   6.900 -0.7883 -0.5118 -1.3518
 3431SOL    HW221930   3.785   3.792   6.834 -0.6631 -0.2735 -0.2212
 3432SOL     OW21931   3.280   0.004   5.144  0.2947 -0.4443  0.0640
 3432SOL    HW121932   3.364   4.716   5.108  0.2019 -0.8774  0.1788
 3432SOL    HW221933   3.254   4.673   5.203  0.4742  0.1107  0.8101
 3433SOL     OW21934   4.422   2.911   8.113  0.1638 -0.2800 -0.6688
 3433SOL    HW121935   4.359   2.912   8.041 -0.1511  0.2196 -0.3855
 3433SOL    HW221936   4.383   2.871   8.191  1.0786 -2.1610 -1.1805
 3434SOL     OW21937   4.155   2.574   9.155  0.1521  0.0136  0.7356
 3434SOL    HW121938   4.132   2.656   9.111 -2.5716  0.1958  2.4972
 3434SOL    HW221939   4.238   2.553   9.113 -0.4459 -0.0937 -0.3939
 3435SOL     OW21940   1.372   2.348  10.054 -0.2633  0.1729  0.0128
 3435SOL    HW121941   1.347   2.396  10.133  1.5573  1.7470 -0.3706
 3435SOL    HW221942   1.297   2.291  10.038 -0.7949 -0.0203  3.1574
 3436SOL     OW21943   3.064   3.403   4.566 -0.2937 -0.0410  0.2725
 3436SOL    HW121944   2.974   3.370   4.566  0.6704 -2.6903  0.4969
 3436SOL    HW221945   3.048   3.485   4.520 -0.4857 -0.4692 -0.4272
 3437SOL     OW21946   3.503   3.471  14.823 -0.0262  0.4256  0.0348
 3437SOL    HW121947   3.587   3.510  14.847 -1.5543  3.2703  0.7408
 3437SOL    HW221948   3.473   3.531  14.755  1.5089  0.3531 -0.7063
 3438SOL     OW21949   1.582   3.009  10.243  0.3377 -0.3629  0.2168
 3438SOL    HW121950   1.641   3.084  10.231 -0.9827  0.6630  0.1426
 3438SOL    HW221951   1.532   3.015  10.162  2.3749  0.0768 -1.0167
 3439SOL     OW21952   2.186   3.494   3.489 -0.0971  0.1749 -0.2556
 3439SOL    HW121953   2.157   3.412   3.529 -0.2634 -1.1735 -3.1184
 3439SOL    HW221954   2.125   3.552   3.534 -1.2244 -1.1283 -0.1007
 3440SOL     OW21955   1.687   1.663   3.412  0.3785  0.0064 -0.5995
 3440SOL    HW121956   1.641   1.639   3.332 -0.5567 -0.7841  0.1659
 3440SOL    HW221957   1.691   1.572   3.443 -1.8933  0.8569  2.2237
 3441SOL     OW21958   1.974   0.677   9.611  0.0602  0.2329  0.1894
 3441SOL    HW121959   2.031   0.754   9.605 -1.0413  1.1401  1.3211
 3441SOL    HW221960   2.039   0.611   9.633 -1.2602 -1.4831 -1.0713
 3442SOL     OW21961   4.137   3.464  17.172  0.5048  0.0636 -0.1950
 3442SOL    HW121962   4.164   3.458  17.264  2.9966 -1.3308 -1.0126
 3442SOL    HW221963   4.220   3.455  17.124  1.1670 -3.9901  1.7448
 3443SOL     OW21964   2.387   3.368   5.870  0.4164 -0.0701 -0.3639
 3443SOL    HW121965   2.410   3.460   5.855  0.4744 -0.2297 -1.2409
 3443SOL    HW221966   2.344   3.368   5.956  1.3778  2.0902  0.1135
 3444SOL     OW21967   0.540   2.908  10.299 -0.3862  0.2038  0.3015
 3444SOL    HW121968   0.535   2.957  10.217  2.3615  1.8562  1.1079
 3444SOL    HW221969   0.592   2.834  10.268 -0.7768  0.2518 -0.4484
 3445SOL     OW21970   4.495   4.335  10.259  0.1526 -0.4179  0.0126
 3445SOL    HW121971   4.501   4.241  10.280 -0.6776 -0.3418  0.5486
 3445SOL    HW221972   4.553   4.370  10.327  0.8672  0.1813 -0.9102
 3446SOL     OW21973   1.275   2.870   7.112  0.1915 -0.3565  0.2148
 3446SOL    HW121974   1.334   2.871   7.187  1.3315  0.3281 -0.6898
 3446SOL    HW221975   1.192   2.857   7.159  0.7110  2.5010  1.9305
 3447SOL     OW21976   3.081   3.267  14.379  0.7437 -0.4059 -0.0362
 3447SOL    HW121977   3.031   3.299  14.304  1.3731 -0.9964 -0.7065
 3447SOL    HW221978   3.029   3.301  14.451  1.4405  1.3471 -0.3586
 3448SOL     OW21979   3.556   2.485  12.157  0.3279 -0.0876  0.4147
 3448SOL    HW121980   3.511   2.401  12.164  0.3740 -0.1642 -0.2300
 3448SOL    HW221981   3.521   2.517  12.074 -1.9774 -0.1569  1.3599
 3449SOL     OW21982   3.908   1.612  13.311 -0.1169 -0.0782 -0.2447
 3449SOL    HW121983   3.970   1.679  13.341 -0.4254 -0.0303  0.2903
 3449SOL    HW221984   3.836   1.624  13.373  0.7214 -0.4885  0.8071
 3450SOL     OW21985   2.825   2.111   2.401  0.4351 -0.0937 -0.2692
 3450SOL    HW121986   2.755   2.100   2.464  0.9831  2.5994  0.8097
 3450SOL    HW221987   2.792   2.056   2.329  0.1404 -0.0806 -0.1428
 3451SOL     OW21988   2.165   0.378   4.295  0.0565 -0.2702 -0.1726
 3451SOL    HW121989   2.261   0.377   4.297  0.0636 -0.0829 -0.4782
 3451SOL    HW221990   2.144   0.368   4.203 -1.1948  1.1573 -0.0381
 3452SOL     OW21991   3.058   3.937   7.670  0.4917  0.3230 -0.2034
 3452SOL    HW121992   3.098   3.864   7.717 -0.0283  0.9624  1.2416
 3452SOL    HW221993   2.989   3.893   7.620  1.7461 -0.7879 -0.9635
 3453SOL     OW21994   3.834   1.026  13.033 -0.1540 -0.3091  0.0387
 3453SOL    HW121995   3.798   0.987  12.954 -0.1857 -1.4143  0.5962
 3453SOL    HW221996   3.890   1.097  13.001  1.8808 -3.1935 -2.8470
 3454SOL     OW21997   3.599   3.538   0.203  0.1719 -0.2358 -0.5354
 3454SOL    HW121998   3.574   3.488   0.281  4.7559 -0.8655  0.5614
 3454SOL    HW221999   3.686   3.503   0.183  0.3511  0.0618 -0.2694
 3455SOL     OW22000   0.963   2.019   4.831  0.1630  0.0760 -0.3866
 3455SOL    HW122001   1.016   1.958   4.883 -2.6542 -0.9084  1.3474
 3455SOL    HW222002   1.018   2.018   4.753 -1.0369  1.3374 -1.2448
 3456SOL     OW22003   3.179   2.914  16.575  0.5877  0.0532  0.2383
 3456SOL    HW122004   3.253   2.859  16.600  1.0617  1.0851  1.1236
 3456SOL    HW222005   3.201   2.934  16.484 -0.7032  4.5269  0.9108
 3457SOL     OW22006   2.959   4.239   5.909  0.3469 -0.5403 -0.0832
 3457SOL    HW122007   2.877   4.241   5.861 -1.0437 -1.6870  2.2170
 3457SOL    HW222008   2.980   4.332   5.900 -2.1368 -0.1907 -2.0706
 3458SOL     OW22009   2.664   2.464   5.391 -0.5036 -0.4990  0.2116
 3458SOL    HW122010   2.635   2.375   5.372 -0.7101 -0.3527 -0.1612
 3458SOL    HW222011   2.592   2.514   5.355  1.0743  1.2126 -0.5587
 3459SOL     OW22012   1.718   3.295   0.569  0.2005 -0.4004 -0.7597
 3459SOL    HW122013   1.651   3.327   0.508 -1.2362  0.4644  1.2612
 3459SOL    HW222014   1.784   3.363   0.557 -1.1471  0.7865 -1.5258
 3460SOL     OW22015   1.325   0.517   7.933  0.0859 -0.4745  0.4521
 3460SOL    HW122016   1.400   0.470   7.898 -0.0228  0.1824 -0.6737
 3460SOL    HW222017   1.334   0.498   8.026  2.7402 -2.6399 -0.2618
 3461SOL     OW22018   0.763   1.093   3.937 -0.2088 -0.6602 -0.3376
 3461SOL    HW122019   0.796   1.100   4.027 -2.2285 -0.0488  0.3549
 3461SOL    HW222020   0.836   1.063   3.883  0.1032 -0.5400  0.0134
 3462SOL     OW22021   3.789   4.469   8.985  0.2234 -0.2319 -0.3391
 3462SOL    HW122022   3.747   4.549   8.953  0.7737  1.4318  3.0433
 3462SOL    HW222023   3.866   4.506   9.029  0.7014 -1.5850 -0.0468
 3463SOL     OW22024   4.660   0.562   4.830 -0.1260 -0.1070 -0.3165
 3463SOL    HW122025   4.610   0.482   4.816 -1.2786  0.5056  0.2698
 3463SOL    HW222026   4.627   0.614   4.903 -1.3956 -1.7384  0.2735
 3464SOL     OW22027   2.288   3.592   2.201 -0.1387 -0.1361 -0.6697
 3464SOL    HW122028   2.314   3.641   2.123  2.7454  0.3616  0.5793
 3464SOL    HW222029   2.214   3.647   2.224  0.0460 -0.1688  0.0118
 3465SOL     OW22030   0.914   0.055   4.272  0.5315 -0.1000 -0.4197
 3465SOL    HW122031   0.949   0.052   4.361 -0.1702 -0.6203 -0.1652
 3465SOL    HW222032   0.864   4.714   4.280 -0.7470  0.5906 -1.4856
 3466SOL     OW22033   3.824   2.718   6.125 -0.1021 -0.2141 -0.2348
 3466SOL    HW122034   3.887   2.700   6.056 -0.4740 -2.1023 -0.0894
 3466SOL    HW222035   3.784   2.802   6.102  1.1017  0.1962 -0.7842
 3467SOL     OW22036   0.083   1.650   3.363 -0.3019  1.0570 -0.7749
 3467SOL    HW122037   0.043   1.620   3.444  3.2263 -1.7588 -0.0999
 3467SOL    HW222038   0.071   1.576   3.304  1.0541 -0.0836  0.3898
 3468SOL     OW22039   2.435   2.680   8.642 -0.2069  0.3193 -0.1930
 3468SOL    HW122040   2.446   2.773   8.623  0.2265  0.0693 -1.1351
 3468SOL    HW222041   2.373   2.647   8.577 -0.7541  1.2889 -0.1694
 3469SOL     OW22042   3.482   0.880  14.894  0.0806  0.3318  0.6151
 3469SOL    HW122043   3.535   0.914  14.821 -1.4924 -1.9580 -1.5971
 3469SOL    HW222044   3.404   0.934  14.884 -0.3737 -0.3113  0.7454
 3470SOL     OW22045   4.135   0.529  14.177  0.1742 -0.1007  0.3579
 3470SOL    HW122046   4.086   0.450  14.155  0.1451  0.2909 -0.9936
 3470SOL    HW222047   4.145   0.567  14.089  0.9752  2.3134  1.4890
 3471SOL     OW22048   3.107   2.683  10.003  0.1594 -0.1552  0.1421
 3471SOL    HW122049   3.192   2.641   9.989 -0.6478 -1.8382  0.2316
 3471SOL    HW222050   3.123   2.752   9.939  1.5178  0.4685  1.1660
 3472SOL     OW22051   1.461   0.696  16.913 -0.0090 -0.6961  0.1441
 3472SOL    HW122052   1.455   0.620  16.855  1.8000 -1.1656  0.5560
 3472SOL    HW222053   1.398   0.666  16.978 -0.1347 -0.3874  0.1644
 3473SOL     OW22054   3.290   3.250   9.127 -0.5501 -0.2296 -0.5370
 3473SOL    HW122055   3.234   3.197   9.070 -2.0708 -2.3575  2.9771
 3473SOL    HW222056   3.320   3.304   9.054  1.3407 -0.5839 -0.0385
 3474SOL     OW22057   4.303   1.882   3.433 -0.1453 -0.0199 -0.5018
 3474SOL    HW122058   4.351   1.958   3.402  0.6482 -0.0090  0.7653
 3474SOL    HW222059   4.355   1.812   3.393  0.0869 -0.4524  0.5597
 3475SOL     OW22060   0.200   2.112   4.729 -0.3116 -0.5240 -0.3050
 3475SOL    HW122061   0.186   2.070   4.814  0.3295 -1.3466 -0.6071
 3475SOL    HW222062   0.154   2.048   4.675  0.6810 -0.1356 -1.5932
 3476SOL     OW22063   4.048   1.845   0.841  0.0417 -0.4280  0.7255
 3476SOL    HW122064   4.016   1.756   0.825 -0.5594  0.3293 -2.1142
 3476SOL    HW222065   4.094   1.834   0.925  1.8456  0.5832 -0.1532
 3477SOL     OW22066   0.872   3.106   6.768 -0.3908  0.1793 -0.0292
 3477SOL    HW122067   0.879   3.099   6.672  1.0329 -2.1336  0.2392
 3477SOL    HW222068   0.792   3.158   6.774 -0.2245  0.6039 -1.4070
 3478SOL     OW22069   4.285   3.692   5.892 -0.3083 -0.5728 -0.0057
 3478SOL    HW122070   4.338   3.702   5.813 -1.3024 -0.9929 -0.7246
 3478SOL    HW222071   4.235   3.617   5.860 -0.2450 -0.2250 -0.9183
 3479SOL     OW22072   1.431   3.571   7.905  0.1880  0.0059 -0.2343
 3479SOL    HW122073   1.369   3.499   7.916  0.8359 -0.3968  0.7502
 3479SOL    HW222074   1.504   3.533   7.856  1.2399  1.9612 -0.1796
 3480SOL     OW22075   1.685   2.181   0.851 -0.0775  0.0674  0.0768
 3480SOL    HW122076   1.722   2.266   0.828 -1.9517  0.8828  0.0943
 3480SOL    HW222077   1.749   2.124   0.809 -1.4838 -3.8568  3.2956
 3481SOL     OW22078   3.621   2.595   6.298 -0.4129 -0.1456 -0.9180
 3481SOL    HW122079   3.584   2.675   6.259 -1.3824  0.5332  1.4277
 3481SOL    HW222080   3.705   2.604   6.252  0.4466 -0.0320  0.6940
 3482SOL     OW22081   2.701   0.557   6.923 -0.1281 -0.6719 -0.0388
 3482SOL    HW122082   2.690   0.472   6.966  0.2412 -0.4882  0.4039
 3482SOL    HW222083   2.774   0.592   6.973 -0.1364 -2.8258  1.4911
 3483SOL     OW22084   3.891   1.537   3.795 -0.6387  0.1146  0.9571
 3483SOL    HW122085   3.860   1.582   3.716  0.5653 -1.0859 -0.2022
 3483SOL    HW222086   3.919   1.614   3.845 -0.1741 -0.0751  0.9899
 3484SOL     OW22087   0.068   3.026   7.395  0.2412 -0.6338 -0.1796
 3484SOL    HW122088   0.113   2.950   7.359 -1.0643 -1.3941 -0.2040
 3484SOL    HW222089   0.080   3.023   7.490 -1.0552  0.3989  0.0313
 3485SOL     OW22090   3.875   2.761  15.711 -0.7315 -0.2815 -0.5010
 3485SOL    HW122091   3.821   2.722  15.780 -0.2244 -1.4791 -0.7785
 3485SOL    HW222092   3.809   2.794  15.651 -0.6241  0.7315 -0.0528
 3486SOL     OW22093   3.102   3.237   3.382  0.7417  0.1424  0.2080
 3486SOL    HW122094   3.043   3.286   3.439 -1.6459 -3.4485  0.8110
 3486SOL    HW222095   3.051   3.158   3.363  0.8387 -0.3795  2.1160
 3487SOL     OW22096   1.571   2.223   3.003 -0.0598 -0.5152 -0.1387
 3487SOL    HW122097   1.525   2.144   2.975 -0.9959 -0.7016  1.8771
 3487SOL    HW222098   1.511   2.260   3.068  3.1350 -0.5758  2.8684
 3488SOL     OW22099   0.123   4.437   5.831  0.1698  0.4886  0.4332
 3488SOL    HW122100   0.175   4.362   5.802 -1.2874 -0.2878 -0.1935
 3488SOL    HW222101   0.116   4.430   5.926  1.3612 -0.3599  0.4530
 3489SOL     OW22102   4.417   2.190  16.088 -0.2397  0.0799 -0.3945
 3489SOL    HW122103   4.395   2.107  16.129 -1.4710  0.5679 -0.0444
 3489SOL    HW222104   4.383   2.172  16.000  1.0738  2.4304 -1.3882
 3490SOL     OW22105   2.911   0.491  12.962 -0.4390  0.0022 -0.0212
 3490SOL    HW122106   2.949   0.404  12.974  0.5194  0.6645  1.5973
 3490SOL    HW222107   2.817   0.473  12.958 -0.1537 -1.2648 -1.2221
 3491SOL     OW22108   0.325   0.502  13.566 -0.6206  0.3532 -0.2371
 3491SOL    HW122109   0.300   0.585  13.525  0.8641  1.0788  0.3179
 3491SOL    HW222110   0.401   0.496  13.508 -0.2221  0.0435  0.3257
 3492SOL     OW22111   4.585   2.593   6.612  0.1822  0.1001 -0.1390
 3492SOL    HW122112   4.534   2.630   6.540 -0.9842 -0.8118  0.2167
 3492SOL    HW222113   4.637   2.535   6.557  0.5705 -1.2204  1.6540
 3493SOL     OW22114   2.913   2.340  15.909 -0.5049 -0.4505 -0.0540
 3493SOL    HW122115   2.910   2.435  15.925  0.0094  0.1111 -3.3946
 3493SOL    HW222116   2.825   2.313  15.935 -0.0633  1.6134  3.7011
 3494SOL     OW22117   0.319   3.806  14.416  0.3913 -0.0626 -0.0034
 3494SOL    HW122118   0.239   3.858  14.425  0.4977  0.3122 -1.1609
 3494SOL    HW222119   0.362   3.800  14.501 -2.0918  0.0342  1.2706
 3495SOL     OW22120   0.802   3.925   9.048  0.0511  0.3623 -0.0851
 3495SOL    HW122121   0.710   3.918   9.073  0.0075  2.4245  0.2987
 3495SOL    HW222122   0.821   3.834   9.071  0.8833  0.2505 -1.1666
 3496SOL     OW22123   2.180   3.195  13.821 -0.7276  0.0907  0.5182
 3496SOL    HW122124   2.201   3.200  13.914  0.1303 -2.0273  0.4483
 3496SOL    HW222125   2.267   3.194  13.782 -0.7037 -3.3516  0.6333
 3497SOL     OW22126   3.186   4.573   9.034  0.3641  0.3057  0.0503
 3497SOL    HW122127   3.167   4.480   9.038  1.0842  0.2208  1.3785
 3497SOL    HW222128   3.115   4.603   8.978  0.5118 -0.3581 -0.4839
 3498SOL     OW22129   0.530   1.144   5.125 -0.2186 -0.3207 -0.2373
 3498SOL    HW122130   0.455   1.103   5.169 -0.6456 -0.6416 -1.2727
 3498SOL    HW222131   0.594   1.147   5.196  0.3791  2.1715 -0.8819
 3499SOL     OW22132   2.956   0.409  16.883  0.8663 -0.5432  0.1906
 3499SOL    HW122133   2.967   0.319  16.916 -1.5524 -0.4118  1.3244
 3499SOL    HW222134   2.884   0.429  16.943  0.4120  1.4077 -1.0212
 3500SOL     OW22135   4.310   4.335   0.264 -0.1908 -0.1003 -0.0866
 3500SOL    HW122136   4.385   4.358   0.209  0.8831  1.3510  1.9655
 3500SOL    HW222137   4.346   4.263   0.317 -1.5128 -0.4367  0.3457
 3501SOL     OW22138   3.506   3.866   3.112  0.2957 -0.7047  0.3955
 3501SOL    HW122139   3.601   3.855   3.102  0.7304  2.0800  1.4015
 3501SOL    HW222140   3.505   3.959   3.136 -1.2318 -0.7385  0.4044
 3502SOL     OW22141   2.208   2.344   7.635  0.5485 -0.2522 -0.8801
 3502SOL    HW122142   2.124   2.389   7.640  0.9592  0.3683  0.5227
 3502SOL    HW222143   2.261   2.418   7.605 -1.6055  1.2236 -1.0502
 3503SOL     OW22144   1.584   4.540  14.873 -0.2333 -0.1543 -0.2164
 3503SOL    HW122145   1.674   4.572  14.876 -0.1565 -0.1647 -3.1852
 3503SOL    HW222146   1.574   4.460  14.924  0.2597  0.6602  1.1597
 3504SOL     OW22147   3.590   1.379   1.952  0.5388 -0.0521  0.2479
 3504SOL    HW122148   3.613   1.449   1.891 -2.0124  1.0396  0.5270
 3504SOL    HW222149   3.655   1.314   1.925  1.0325 -0.3847  2.2091
 3505SOL     OW22150   0.546   3.689   7.496  0.5238 -0.8214  0.6289
 3505SOL    HW122151   0.525   3.777   7.465  0.7090 -1.2046 -0.5738
 3505SOL    HW222152   0.497   3.699   7.577 -2.5219  1.5453 -1.5046
 3506SOL     OW22153   3.700   2.767   7.329 -0.2058  0.2469  0.2944
 3506SOL    HW122154   3.792   2.779   7.306 -0.7268 -1.3049 -2.6069
 3506SOL    HW222155   3.700   2.712   7.407  1.7907 -0.7887 -0.4479
 3507SOL     OW22156   4.426   3.640  15.196 -0.0340  0.2976  1.0510
 3507SOL    HW122157   4.379   3.644  15.113  1.4721 -1.9391  0.0920
 3507SOL    HW222158   4.361   3.612  15.262 -1.7441 -0.6803 -1.0456
 3508SOL     OW22159   1.478   0.282   4.466  0.1141 -0.2204 -0.3150
 3508SOL    HW122160   1.468   0.203   4.412  1.1212  0.1517 -1.0530
 3508SOL    HW222161   1.419   0.342   4.421  1.5408  1.0055 -0.5657
 3509SOL     OW22162   4.143   2.345   7.436  0.0534  0.0660 -0.5430
 3509SOL    HW122163   4.134   2.353   7.341 -1.8659  1.6200 -0.2403
 3509SOL    HW222164   4.228   2.304   7.451  0.4306  1.3799  0.9058
 3510SOL     OW22165   3.420   2.335   7.565  0.2303 -0.4002  0.0210
 3510SOL    HW122166   3.459   2.253   7.596  1.3832  0.1770  0.0922
 3510SOL    HW222167   3.365   2.309   7.491 -0.7931  0.7659  0.3601
 3511SOL     OW22168   0.619   0.665  12.677  0.1035  0.3170 -0.0025
 3511SOL    HW122169   0.712   0.662  12.696 -0.0305 -0.4153  0.5305
 3511SOL    HW222170   0.588   0.611  12.750 -0.3291  0.0178 -0.4119
 3512SOL     OW22171   0.644   3.753   4.256 -0.2063 -0.2248  0.4245
 3512SOL    HW122172   0.683   3.816   4.317 -0.5736 -1.2311  1.7012
 3512SOL    HW222173   0.586   3.807   4.203  1.9064 -0.0151 -1.6772
 3513SOL     OW22174   2.161   0.214   0.785  0.2879 -0.5464 -0.2568
 3513SOL    HW122175   2.242   0.248   0.823  0.6682  0.1448 -1.6610
 3513SOL    HW222176   2.167   0.119   0.784 -0.0761 -0.5686 -0.1050
 3514SOL     OW22177   1.170   4.000   7.482 -0.0041 -0.0430  0.5117
 3514SOL    HW122178   1.146   4.083   7.440  0.4783 -0.2739 -0.2173
 3514SOL    HW222179   1.263   4.005   7.462 -0.3306  0.8439 -0.8212
 3515SOL     OW22180   0.500   3.527  16.759  0.3204 -1.2132  0.0782
 3515SOL    HW122181   0.578   3.474  16.742  1.4429  0.7609 -0.9569
 3515SOL    HW222182   0.513   3.552  16.850 -0.1677 -0.2322 -0.1281
 3516SOL     OW22183   0.576   0.966   2.299 -0.1535 -0.0521 -0.1500
 3516SOL    HW122184   0.509   1.026   2.332  1.8233  2.1574 -0.1164
 3516SOL    HW222185   0.657   1.010   2.324  0.6238 -2.0442  0.7626
 3517SOL     OW22186   0.758   2.896  15.927  0.1327 -0.3732  0.1538
 3517SOL    HW122187   0.728   2.963  15.866 -1.3744 -0.6338  0.6053
 3517SOL    HW222188   0.708   2.821  15.896  2.6893 -2.6777  1.6733
 3518SOL     OW22189   1.885   3.910  10.037  0.9229 -0.0374  0.6109
 3518SOL    HW122190   1.971   3.886  10.071  0.2412 -1.0397  1.6298
 3518SOL    HW222191   1.845   3.834  10.079 -0.6128  0.4544  0.0369
 3519SOL     OW22192   1.811   2.319   0.294 -0.0745  0.5109 -0.2333
 3519SOL    HW122193   1.769   2.241   0.256  1.2091 -0.0196 -0.5533
 3519SOL    HW222194   1.784   2.311   0.386 -0.3814  3.1113 -0.0969
 3520SOL     OW22195   3.276   0.957  17.203  0.0347  0.0484 -0.0222
 3520SOL    HW122196   3.334   0.910  17.143  0.3973 -0.9214  1.0886
 3520SOL    HW222197   3.213   0.887  17.214  0.1497 -0.0763 -0.1600
 3521SOL     OW22198   3.877   1.318  11.620  0.6847  0.0700 -0.0989
 3521SOL    HW122199   3.820   1.265  11.565 -0.3668  1.7666 -0.6564
 3521SOL    HW222200   3.870   1.269  11.702  0.8896 -0.8027 -0.6087
 3522SOL     OW22201   0.609   1.216   3.339  0.7125  0.5372 -0.1131
 3522SOL    HW122202   0.547   1.218   3.266  0.2746  0.7254  0.2652
 3522SOL    HW222203   0.565   1.190   3.420 -3.0307  0.4435 -2.1990
 3523SOL     OW22204   1.827   1.740   8.614  0.3468  0.0411 -0.2617
 3523SOL    HW122205   1.834   1.672   8.681  1.4767 -0.3418 -0.7643
 3523SOL    HW222206   1.844   1.675   8.545  1.6548  0.9223 -0.7782
 3524SOL     OW22207   3.734   1.525   2.956 -0.0761 -0.1820  0.2959
 3524SOL    HW122208   3.740   1.511   3.050 -1.2513 -2.3705  0.0462
 3524SOL    HW222209   3.663   1.465   2.931  0.6685 -0.5171 -0.9996
 3525SOL     OW22210   1.918   4.171   8.481 -0.6538 -0.0667 -0.2486
 3525SOL    HW122211   1.949   4.245   8.534 -1.1645 -0.9879  1.3218
 3525SOL    HW222212   1.861   4.217   8.418 -3.5578 -2.4933  0.6414
 3526SOL     OW22213   0.595   2.376   9.943 -0.3634  0.3379  0.2359
 3526SOL    HW122214   0.566   2.400  10.031 -0.3843  0.7496  0.1166
 3526SOL    HW222215   0.638   2.457   9.918  1.4828 -0.1980  1.7057
 3527SOL     OW22216   1.327   0.320  11.349  0.1406  0.6799  0.0598
 3527SOL    HW122217   1.266   0.355  11.414 -0.8610 -1.3458  0.2279
 3527SOL    HW222218   1.266   0.258  11.308  1.5809 -1.1731  0.6966
 3528SOL     OW22219   3.062   1.356   2.334 -0.4282  0.1840  0.3034
 3528SOL    HW122220   3.091   1.422   2.397  1.0678  0.9089 -1.1300
 3528SOL    HW222221   3.144   1.308   2.319  0.5033  1.9434 -0.2847
 3529SOL     OW22222   1.062   0.597  13.271 -0.2803  0.2285 -0.3433
 3529SOL    HW122223   1.137   0.597  13.331 -1.3428  0.0742  0.9933
 3529SOL    HW222224   1.006   0.665  13.308  0.8829  0.1113  1.6324
 3530SOL     OW22225   4.065   3.434   5.560  0.9242 -0.2754  0.5107
 3530SOL    HW122226   3.985   3.419   5.510  2.8655 -0.4945 -2.4684
 3530SOL    HW222227   4.130   3.466   5.498  0.0460  0.7410  0.1239
 3531SOL     OW22228   4.105   2.621   6.294 -0.3176 -0.0308 -0.2878
 3531SOL    HW122229   4.083   2.703   6.250 -0.4468  0.1697  0.1508
 3531SOL    HW222230   4.081   2.642   6.384 -0.0282 -1.7946  0.1965
 3532SOL     OW22231   4.707   1.188   3.339  0.4541  0.5400 -0.1377
 3532SOL    HW122232   0.031   1.151   3.278 -0.6266  0.7274 -1.3962
 3532SOL    HW222233   0.021   1.180   3.418 -0.7691  1.8256  0.8197
 3533SOL     OW22234   0.822   4.298   2.226  0.3648 -0.2939 -0.2467
 3533SOL    HW122235   0.814   4.203   2.212 -1.6054 -0.3409  1.3735
 3533SOL    HW222236   0.880   4.295   2.302 -0.3024 -1.2093  0.2161
 3534SOL     OW22237   3.835   0.391   0.025 -0.2046 -0.0758  0.0595
 3534SOL    HW122238   3.912   0.337   0.008 -0.6385 -0.1609 -1.6844
 3534SOL    HW222239   3.865   0.450   0.094  0.4646 -0.5585  0.1756
 3535SOL     OW22240   0.850   1.882  16.577 -0.5453 -0.4937  0.1527
 3535SOL    HW122241   0.811   1.956  16.530  1.2812  0.6730  0.4731
 3535SOL    HW222242   0.793   1.813  16.542 -1.1464 -0.0033  0.1789
 3536SOL     OW22243   0.856   4.058   3.707 -0.5468 -0.5817  0.2019
 3536SOL    HW122244   0.938   4.084   3.666 -0.3127 -0.5135  0.7167
 3536SOL    HW222245   0.795   4.053   3.634 -1.6325  0.4230  1.0218
 3537SOL     OW22246   3.715   1.849  15.474  0.0774 -0.1168 -0.0777
 3537SOL    HW122247   3.770   1.927  15.478 -0.0206  0.0093 -1.2464
 3537SOL    HW222248   3.777   1.778  15.457 -0.4215  0.0532 -2.6197
 3538SOL     OW22249   2.778   2.222   7.398 -0.3675 -0.0902 -0.1147
 3538SOL    HW122250   2.822   2.305   7.384 -0.5404  0.5251  3.0465
 3538SOL    HW222251   2.752   2.223   7.490  1.1248 -0.6827  0.3192
 3539SOL     OW22252   3.966   1.693  15.008 -0.0371 -0.1984  0.3660
 3539SOL    HW122253   4.002   1.660  15.090  0.9847  0.2373  0.0897
 3539SOL    HW222254   3.913   1.622  14.971  1.5194 -1.5920  0.7793
 3540SOL     OW22255   3.511   1.965   2.311  0.8087  0.0696  0.8281
 3540SOL    HW122256   3.492   1.951   2.403  0.5990  1.0997  0.9338
 3540SOL    HW222257   3.517   2.060   2.303  0.6397  0.0605  0.6044
 3541SOL     OW22258   2.648   2.743   5.875  0.0141 -0.2462 -0.6221
 3541SOL    HW122259   2.622   2.835   5.885  1.6196 -0.0233  1.6197
 3541SOL    HW222260   2.568   2.691   5.886 -0.5400  0.3337 -1.8720
 3542SOL     OW22261   1.369   4.445   9.237  0.5918  0.2520  0.2092
 3542SOL    HW122262   1.391   4.463   9.145 -0.9252  0.3365 -0.1399
 3542SOL    HW222263   1.411   4.512   9.290  1.1363 -0.8423  1.1420
 3543SOL     OW22264   0.751   3.386  16.167  0.1553  0.5759 -0.2688
 3543SOL    HW122265   0.785   3.303  16.134  0.0452  0.2179  0.5241
 3543SOL    HW222266   0.812   3.444  16.122  1.1659 -0.0628  0.2690
 3544SOL     OW22267   1.861   2.206   8.571  0.1056  0.6233 -0.5698
 3544SOL    HW122268   1.926   2.270   8.542 -0.4167  0.6270 -1.7606
 3544SOL    HW222269   1.785   2.261   8.590  0.9330  2.3207 -2.1953
 3545SOL     OW22270   3.171   2.821   6.053 -0.3194  0.4171 -0.0146
 3545SOL    HW122271   3.211   2.907   6.059 -0.5813  0.6189 -1.2029
 3545SOL    HW222272   3.112   2.817   6.129  0.2974  0.1476  0.4482
 3546SOL     OW22273   0.988   3.836  11.018 -0.4144  0.7088 -0.5725
 3546SOL    HW122274   1.026   3.759  11.062  0.2380  1.5085  0.2574
 3546SOL    HW222275   0.898   3.804  11.014 -0.3232  0.0273  2.6027
 3547SOL     OW22276   4.356   1.158  10.639  0.3744 -0.2114 -0.1933
 3547SOL    HW122277   4.439   1.158  10.686 -1.5478 -0.8474  3.1451
 3547SOL    HW222278   4.391   1.133  10.553  0.0341 -1.4269  0.0294
 3548SOL     OW22279   2.497   2.181  16.420  0.2880  0.2705  0.2139
 3548SOL    HW122280   2.557   2.120  16.464  0.7306  0.3887 -0.2216
 3548SOL    HW222281   2.423   2.126  16.396  0.7254 -1.0955  2.0055
 3549SOL     OW22282   0.263   2.578   5.378 -0.0046 -0.1899 -0.0135
 3549SOL    HW122283   0.297   2.570   5.467  1.7450  1.7063 -0.5073
 3549SOL    HW222284   0.184   2.525   5.387  0.3142 -1.1721 -2.9307
 3550SOL     OW22285   2.337   0.213   2.989  0.0033  0.1750  0.5655
 3550SOL    HW122286   2.384   0.238   2.909 -1.7452  0.7146 -0.3021
 3550SOL    HW222287   2.263   0.181   2.937  0.4595  0.6077 -0.3394
 3551SOL     OW22288   1.001   3.752   4.803  1.2148  0.0060  0.4412
 3551SOL    HW122289   0.998   3.661   4.772  3.3554  0.3729 -0.8225
 3551SOL    HW222290   1.048   3.786   4.727 -0.9733 -1.0486 -1.3852
 3552SOL     OW22291   0.935   3.782   6.949  0.4496 -0.0053  0.3122
 3552SOL    HW122292   0.914   3.856   6.892  0.0193  1.1197  1.9451
 3552SOL    HW222293   0.853   3.733   6.947 -0.2628  1.1897  0.3363
 3553SOL     OW22294   4.372   4.454   8.033  0.1257 -0.0281 -0.1237
 3553SOL    HW122295   4.383   4.548   8.021  0.5185  0.3334  3.2884
 3553SOL    HW222296   4.282   4.457   8.064  0.2961  0.5161  0.3163
 3554SOL     OW22297   0.948   2.790   3.364  0.2978 -0.5441 -0.4556
 3554SOL    HW122298   0.964   2.875   3.325 -3.2867  1.5090  2.5332
 3554SOL    HW222299   0.920   2.752   3.281 -0.3599  0.2839 -0.6015
 3555SOL     OW22300   0.868   4.644   7.564 -0.4473 -0.7114  0.3696
 3555SOL    HW122301   0.936   4.686   7.617 -0.5812  0.7324 -0.5968
 3555SOL    HW222302   0.857   4.563   7.614 -2.1065 -1.7620 -1.7068
 3556SOL     OW22303   0.509   2.718   6.429 -0.1083 -0.2923  0.5197
 3556SOL    HW122304   0.589   2.744   6.383  0.5909 -1.0812  1.3009
 3556SOL    HW222305   0.532   2.633   6.465  1.6311  1.7955  4.3701
 3557SOL     OW22306   0.004   3.064  11.266 -0.0386 -1.1319 -1.0458
 3557SOL    HW122307   0.037   3.077  11.177 -0.6792 -0.4942 -1.1921
 3557SOL    HW222308   0.045   3.133  11.318 -3.8051  0.3607 -0.1101
 3558SOL     OW22309   3.491   4.105   7.511  0.2590 -0.9139 -0.2032
 3558SOL    HW122310   3.489   4.130   7.419  1.6423 -2.1180 -0.5759
 3558SOL    HW222311   3.403   4.130   7.538  0.5323 -1.5393  1.2781
 3559SOL     OW22312   3.218   4.133   7.575  0.4449  0.2437 -0.3944
 3559SOL    HW122313   3.141   4.165   7.528  0.2316  1.7669  0.9905
 3559SOL    HW222314   3.192   4.041   7.586  0.5532  0.3060  0.4030
 3560SOL     OW22315   1.296   2.349   9.535  0.4938 -0.5742  1.1201
 3560SOL    HW122316   1.350   2.393   9.470 -0.5173 -0.7691  0.1607
 3560SOL    HW222317   1.285   2.262   9.496  0.5174  0.8354 -1.9911
 3561SOL     OW22318   1.609   3.645   2.458  0.6353 -0.8205 -0.1988
 3561SOL    HW122319   1.543   3.648   2.526 -0.0673  1.2863 -0.9722
 3561SOL    HW222320   1.679   3.698   2.496 -0.1673  0.3535 -0.3671
 3562SOL     OW22321   1.895   0.588   7.572 -0.0995  0.3181 -0.0752
 3562SOL    HW122322   1.911   0.682   7.563 -1.5435  0.5628 -0.1629
 3562SOL    HW222323   1.801   0.594   7.589  0.0375 -0.6633  0.9975
 3563SOL     OW22324   1.681   3.832   2.723  0.4201 -0.3542 -0.0777
 3563SOL    HW122325   1.733   3.856   2.646 -0.1718  0.8168 -0.1227
 3563SOL    HW222326   1.694   3.903   2.786 -1.3057  0.0733 -0.2101
 3564SOL     OW22327   1.845   2.307   5.461  0.5218  0.7425 -0.3311
 3564SOL    HW122328   1.784   2.277   5.528 -0.2209  1.6079 -0.6298
 3564SOL    HW222329   1.796   2.373   5.413 -1.0487 -1.7963 -2.2054
 3565SOL     OW22330   2.456   0.175   8.988 -0.3630  0.0042  0.1994
 3565SOL    HW122331   2.382   0.164   9.048 -1.4565  2.1970 -0.7532
 3565SOL    HW222332   2.519   0.220   9.043 -0.3563  0.2735 -0.0292
 3566SOL     OW22333   0.280   0.132   4.314  0.0089 -0.4098 -0.3883
 3566SOL    HW122334   0.221   0.104   4.384  2.2133 -0.9115  1.2713
 3566SOL    HW222335   0.239   0.218   4.312 -1.1527 -0.9869 -1.0703
 3567SOL     OW22336   0.608   2.497   1.952 -0.0509 -0.0009  0.5216
 3567SOL    HW122337   0.529   2.460   1.913 -0.1141  0.8233 -0.1125
 3567SOL    HW222338   0.557   2.568   1.990 -3.2708 -1.8554 -0.3454
 3568SOL     OW22339   2.795   2.435  12.593  0.2853 -0.0037  0.8376
 3568SOL    HW122340   2.815   2.343  12.606 -1.3956 -0.6508 -1.1731
 3568SOL    HW222341   2.703   2.439  12.618  0.9214 -0.8833  3.3004
 3569SOL     OW22342   0.143   1.093   2.858 -0.0714 -0.2563 -0.0718
 3569SOL    HW122343   0.222   1.119   2.811  0.1745  0.4118  0.7126
 3569SOL    HW222344   0.098   1.059   2.781  0.9041 -0.9534 -0.3448
 3570SOL     OW22345   4.732   1.651   4.471 -0.1043  0.4797  0.3649
 3570SOL    HW122346   0.072   1.611   4.438 -0.1551 -0.2839  1.1653
 3570SOL    HW222347   4.712   1.592   4.544  2.1560  1.1038  1.4982
 3571SOL     OW22348   1.944   0.619   1.297 -0.1978 -0.2963 -0.8416
 3571SOL    HW122349   1.965   0.546   1.240  0.7131 -0.6961  0.0213
 3571SOL    HW222350   1.933   0.687   1.231 -1.5066 -0.0802 -0.4108
 3572SOL     OW22351   3.750   4.027  11.184 -0.5345 -0.2677  0.4728
 3572SOL    HW122352   3.752   4.123  11.184  0.6941 -0.2935  0.5717
 3572SOL    HW222353   3.679   4.012  11.246 -1.3160 -2.4226 -0.9648
 3573SOL     OW22354   0.735   3.540   6.207  0.6876 -0.0353  0.6623
 3573SOL    HW122355   0.645   3.546   6.239  1.2277 -0.6111  2.2537
 3573SOL    HW222356   0.728   3.522   6.113  0.8350 -0.4694  0.7323
 3574SOL     OW22357   2.038   0.897   5.728 -0.7488  0.2835 -0.9741
 3574SOL    HW122358   2.075   0.915   5.642  2.0069  1.1747  0.3988
 3574SOL    HW222359   2.059   0.976   5.778  0.9951 -0.3547 -0.7013
 3575SOL     OW22360   2.912   4.544   2.265  0.4763  0.4909 -0.0817
 3575SOL    HW122361   2.932   4.568   2.356  0.6210  3.0135 -0.7732
 3575SOL    HW222362   2.948   4.617   2.215  0.8354  0.2097 -0.2337
 3576SOL     OW22363   2.046   2.891   0.814 -0.3992 -0.5202  0.2147
 3576SOL    HW122364   2.099   2.970   0.825 -0.0298 -0.5086 -1.5878
 3576SOL    HW222365   2.001   2.878   0.897  2.6011  0.7665  2.0626
 3577SOL     OW22366   3.940   1.213  12.845  0.0457  0.5868  0.3205
 3577SOL    HW122367   3.868   1.271  12.871 -0.3817  0.9123 -1.6207
 3577SOL    HW222368   4.011   1.276  12.831 -0.2281  1.0669  1.0606
 3578SOL     OW22369   1.372   0.008   8.085 -0.0859  0.2953 -0.1159
 3578SOL    HW122370   1.344   0.023   7.995  1.0174 -2.2260 -0.8701
 3578SOL    HW222371   1.295   4.701   8.116  0.0652  0.8059  1.0597
 3579SOL     OW22372   4.617   3.773   5.683  0.2879 -0.7871 -0.1937
 3579SOL    HW122373   4.560   3.848   5.663  1.9332  0.3391 -0.6445
 3579SOL    HW222374   4.661   3.809   5.760 -0.1756 -0.0229 -0.2801
 3580SOL     OW22375   4.583   4.267   9.892  0.1119  0.2938  0.5104
 3580SOL    HW122376   4.612   4.256   9.802 -0.9046  2.0382 -0.0407
 3580SOL    HW222377   4.500   4.312   9.873  1.4239  1.5631 -2.2010
 3581SOL     OW22378   4.585   4.647   3.077 -0.5662  0.3494 -0.4372
 3581SOL    HW122379   4.554   4.559   3.098  2.9079 -0.6961  0.2567
 3581SOL    HW222380   4.674   4.623   3.054 -0.8073  1.4393 -2.5570
 3582SOL     OW22381   4.383   3.171  13.553  0.1341  0.0355  0.6299
 3582SOL    HW122382   4.319   3.167  13.624 -1.2351 -1.7438 -0.7069
 3582SOL    HW222383   4.441   3.100  13.582  0.2673 -0.5284 -1.0346
 3583SOL     OW22384   2.296   1.895   7.387 -0.0519  0.5934  0.3797
 3583SOL    HW122385   2.257   1.808   7.394  2.1947 -0.6151 -2.0991
 3583SOL    HW222386   2.345   1.895   7.469 -1.3835 -2.5494  1.1766
 3584SOL     OW22387   3.268   2.695  12.232  0.1788 -0.2409  0.4160
 3584SOL    HW122388   3.350   2.732  12.198 -0.4631  0.2124 -0.6267
 3584SOL    HW222389   3.227   2.782  12.242 -1.1118 -1.1522  3.1412
 3585SOL     OW22390   0.806   3.141  16.080  0.7171 -0.3392  0.0268
 3585SOL    HW122391   0.894   3.133  16.116  0.8477 -1.9681 -0.6761
 3585SOL    HW222392   0.783   3.049  16.092 -1.1009  0.4211  2.3306
 3586SOL     OW22393   1.458   3.797   1.969  0.1420  0.3247 -0.2391
 3586SOL    HW122394   1.382   3.821   1.915 -0.7516  0.2800  0.9905
 3586SOL    HW222395   1.429   3.836   2.052 -0.6547 -0.2750 -0.2334
 3587SOL     OW22396   4.267   1.765   2.987  0.5532  0.1968  0.2371
 3587SOL    HW122397   4.298   1.674   2.988 -1.4681 -0.5099 -0.6501
 3587SOL    HW222398   4.239   1.778   2.896 -1.8654  0.3712  1.0008
 3588SOL     OW22399   2.533   2.128  11.258  0.6603 -0.5151  0.6104
 3588SOL    HW122400   2.469   2.057  11.267  1.8551 -1.7370 -0.5075
 3588SOL    HW222401   2.601   2.075  11.218  1.2894  0.6368  0.1487
 3589SOL     OW22402   0.223   0.668   3.410  0.6887 -0.3194 -0.1933
 3589SOL    HW122403   0.263   0.629   3.332 -1.6299  0.0212 -1.5794
 3589SOL    HW222404   0.173   0.741   3.375 -0.2506 -1.0359 -0.3753
 3590SOL     OW22405   4.062   1.665   5.491 -0.0691 -0.3500 -0.2109
 3590SOL    HW122406   4.073   1.695   5.401  0.1776  2.9075  0.9102
 3590SOL    HW222407   4.118   1.721   5.545 -1.4972  1.2608 -0.4045
 3591SOL     OW22408   2.820   4.404   2.769 -0.0480  0.3038  0.6005
 3591SOL    HW122409   2.771   4.485   2.782  0.5287  1.0465 -1.8089
 3591SOL    HW222410   2.876   4.440   2.700  0.8747  2.8125  2.6937
 3592SOL     OW22411   0.035   3.270   8.076  0.4038  0.0321 -0.5680
 3592SOL    HW122412   0.113   3.265   8.131  1.1928  4.4570 -1.2311
 3592SOL    HW222413   0.075   3.248   7.992 -0.5167 -2.6866 -0.2890
 3593SOL     OW22414   0.929   0.088   8.995  0.1125 -0.0574  0.2108
 3593SOL    HW122415   0.924   0.050   8.907  1.0860  2.8124 -1.0729
 3593SOL    HW222416   1.004   0.044   9.034  1.3507  0.0887 -1.9975
 3594SOL     OW22417   3.862   0.865  14.416  0.0812  0.1022 -0.1844
 3594SOL    HW122418   3.804   0.818  14.356 -3.1125  1.9674  1.4379
 3594SOL    HW222419   3.927   0.797  14.437 -0.2914 -0.3101 -0.3656
 3595SOL     OW22420   2.963   0.891   3.158  0.7016  0.0432  0.5364
 3595SOL    HW122421   3.041   0.946   3.167  0.5618  0.4982 -0.9289
 3595SOL    HW222422   3.006   0.833   3.094 -2.0298  1.6206 -2.7244
 3596SOL     OW22423   0.668   0.418   9.488  0.0571 -0.1847 -0.6373
 3596SOL    HW122424   0.693   0.371   9.568  1.8867  1.6468 -0.1253
 3596SOL    HW222425   0.700   0.507   9.507 -1.2427  0.4866 -1.5749
 3597SOL     OW22426   3.010   0.943   3.950 -0.0892  0.5583  0.2858
 3597SOL    HW122427   2.954   0.980   4.019 -0.2373  0.6784  0.1015
 3597SOL    HW222428   3.085   0.909   3.999 -0.1000 -0.4273 -0.3903
 3598SOL     OW22429   3.786   0.852   1.984 -0.1145  0.1334 -0.0671
 3598SOL    HW122430   3.877   0.863   1.954  0.5520 -0.2812  1.8191
 3598SOL    HW222431   3.791   0.850   2.079  0.3418 -1.7172 -0.1286
 3599SOL     OW22432   1.647   2.879  11.510  1.0454 -0.0024 -0.0939
 3599SOL    HW122433   1.580   2.945  11.497  1.6962  0.6086 -0.3349
 3599SOL    HW222434   1.581   2.810  11.517  0.9557  0.0733 -0.1958
 3600SOL     OW22435   3.441   2.536   3.363 -0.0730  0.1428 -0.1874
 3600SOL    HW122436   3.531   2.561   3.384 -0.3267  0.2661  0.7398
 3600SOL    HW222437   3.452   2.450   3.323  1.4547 -0.3794  1.3891
 3601SOL     OW22438   2.294   3.719   6.224  0.8069 -0.0262  0.6589
 3601SOL    HW122439   2.212   3.680   6.255  1.2395  0.0768  1.9557
 3601SOL    HW222440   2.341   3.731   6.306 -0.7392 -1.3286  1.7503
 3602SOL     OW22441   4.504   3.679   1.170 -0.4121  0.1025 -0.5417
 3602SOL    HW122442   4.478   3.731   1.246  4.4160  1.5549  0.1355
 3602SOL    HW222443   4.596   3.666   1.195 -0.6337  1.7382  1.1672
 3603SOL     OW22444   4.093   1.783   6.740  0.5442 -0.1060 -0.4451
 3603SOL    HW122445   4.158   1.823   6.683  0.1953  1.1721  0.0597
 3603SOL    HW222446   4.126   1.813   6.825 -1.6725  0.2957  0.2739
 3604SOL     OW22447   0.533   3.203   4.086 -0.3489 -0.3367  0.1281
 3604SOL    HW122448   0.574   3.168   4.007 -0.4866  0.9824 -0.5192
 3604SOL    HW222449   0.593   3.268   4.123 -1.0063  0.5118 -0.2987
 3605SOL     OW22450   0.187   0.294   7.493  0.5229 -0.1352 -0.1407
 3605SOL    HW122451   0.129   0.345   7.436  0.4180 -0.6063 -0.4551
 3605SOL    HW222452   0.268   0.292   7.442  0.4187  2.0383 -0.3871
 3606SOL     OW22453   0.545   1.409  12.066 -0.0539 -0.1115  0.2653
 3606SOL    HW122454   0.519   1.317  12.063 -2.9887  0.6859  1.1509
 3606SOL    HW222455   0.530   1.444  11.978 -2.1235 -2.2148 -0.2238
 3607SOL     OW22456   0.621   4.163   5.185 -0.1341  0.2052  0.2261
 3607SOL    HW122457   0.670   4.239   5.154  1.1241 -1.1109 -1.0398
 3607SOL    HW222458   0.535   4.193   5.158 -0.2056 -1.3764 -1.2601
 3608SOL     OW22459   1.330   1.531  11.516  0.6929 -0.1756 -0.4743
 3608SOL    HW122460   1.293   1.443  11.509 -0.1950  0.0731  1.1417
 3608SOL    HW222461   1.422   1.511  11.497  1.5805  1.9864  1.5413
 3609SOL     OW22462   0.888   4.243   6.529  0.2481  0.5173 -0.3027
 3609SOL    HW122463   0.799   4.209   6.536  0.2867  0.6425  0.8035
 3609SOL    HW222464   0.886   4.299   6.451 -1.7933  1.4182  0.4189
 3610SOL     OW22465   1.849   3.282  11.560  0.2777 -0.2524  0.5904
 3610SOL    HW122466   1.941   3.264  11.540  0.2164  0.4625 -0.3570
 3610SOL    HW222467   1.803   3.279  11.477  3.2196 -1.7273 -0.9584
 3611SOL     OW22468   0.610   1.994   4.032  0.3510 -0.4461 -0.9949
 3611SOL    HW122469   0.596   1.919   3.974 -0.1365 -0.3805 -0.9614
 3611SOL    HW222470   0.519   2.022   4.044  0.6449 -0.5908  1.5881
 3612SOL     OW22471   1.408   2.941   5.408  0.7265 -0.0702  0.4080
 3612SOL    HW122472   1.356   2.876   5.361  2.1809 -1.2563  0.4146
 3612SOL    HW222473   1.364   3.016   5.369  1.2077  1.6225  3.1118
 3613SOL     OW22474   2.311   0.061   3.218  0.4645 -0.4272 -0.0321
 3613SOL    HW122475   2.298   0.137   3.162  2.2997  0.4072  0.6661
 3613SOL    HW222476   2.227   0.019   3.200  0.5828  0.1017 -1.8612
 3614SOL     OW22477   0.313   4.092   8.343 -0.2461 -0.2590  0.3857
 3614SOL    HW122478   0.331   4.037   8.266 -0.9585 -1.5209  1.1111
 3614SOL    HW222479   0.370   4.048   8.407 -0.9218 -0.6361  0.7344
 3615SOL     OW22480   2.675   1.646   8.786  0.3090  0.6689 -0.2211
 3615SOL    HW122481   2.613   1.616   8.720  1.2371 -1.7723  0.0312
 3615SOL    HW222482   2.685   1.569   8.843  2.0360  0.8853 -0.2267
 3616SOL     OW22483   0.875   2.406   7.506 -0.2032 -0.1248 -0.0953
 3616SOL    HW122484   0.928   2.327   7.494  0.8949  0.7457 -1.0190
 3616SOL    HW222485   0.841   2.395   7.595  1.7937  1.7456  0.8856
 3617SOL     OW22486   4.648   3.503   0.957 -0.1335  0.1439  0.1972
 3617SOL    HW122487   4.677   3.594   0.966  0.7004  0.0925 -2.0780
 3617SOL    HW222488   4.574   3.496   1.018 -0.5034  1.0250 -0.1391
 3618SOL     OW22489   1.515   1.960   2.811  0.6191 -0.2431  0.3065
 3618SOL    HW122490   1.463   1.885   2.781 -0.2129  0.4144  0.1205
 3618SOL    HW222491   1.446   2.015   2.849  2.4705  0.8577  2.0977
 3619SOL     OW22492   0.236   0.087   2.752  0.2671  0.2169  0.1850
 3619SOL    HW122493   0.307   0.126   2.701 -1.1054  1.0290 -1.0978
 3619SOL    HW222494   0.202   0.020   2.693  2.2300  0.3900 -1.1501
 3620SOL     OW22495   0.569   4.213  14.877 -0.1740  0.3165 -0.4662
 3620SOL    HW122496   0.502   4.200  14.944  3.4874  0.6281  3.2657
 3620SOL    HW222497   0.561   4.130  14.830 -2.1421  1.2587 -1.7731
 3621SOL     OW22498   2.617   1.443   1.908  0.1246  0.0136 -0.0063
 3621SOL    HW122499   2.549   1.503   1.880  1.5010  0.2208 -2.8918
 3621SOL    HW222500   2.682   1.498   1.952 -0.4049  1.0138 -0.4954
 3622SOL     OW22501   2.724   0.521   5.472  0.5215  0.3577 -0.1328
 3622SOL    HW122502   2.792   0.581   5.502 -0.2685 -0.1112  2.6035
 3622SOL    HW222503   2.780   0.473   5.410  1.0208  0.3233  0.3448
 3623SOL     OW22504   2.941   0.478   3.534  0.0386  0.4478 -0.5479
 3623SOL    HW122505   3.026   0.499   3.572 -0.2021  0.6089 -0.1000
 3623SOL    HW222506   2.900   0.565   3.536 -0.5837  0.1529 -0.2148
 3624SOL     OW22507   0.191   4.159   4.681  0.1444  0.0581  0.1439
 3624SOL    HW122508   0.212   4.134   4.591 -0.1818 -0.2769  0.1641
 3624SOL    HW222509   0.104   4.120   4.682  0.0508  0.2458 -0.4000
 3625SOL     OW22510   2.801   1.890  14.582 -0.1282 -0.5274  0.2291
 3625SOL    HW122511   2.705   1.891  14.579 -0.0516  0.4974 -2.7821
 3625SOL    HW222512   2.820   1.964  14.523  1.0970 -1.0246 -0.0026
 3626SOL     OW22513   3.420   1.454  11.123 -0.4827  0.3522  0.6067
 3626SOL    HW122514   3.391   1.450  11.032 -1.7195  1.0124  0.9653
 3626SOL    HW222515   3.451   1.544  11.134  0.0781  0.1078  0.9971
 3627SOL     OW22516   2.763   2.499  14.116 -0.2519  0.4421  0.5585
 3627SOL    HW122517   2.777   2.511  14.210 -0.8463 -1.8000  0.9377
 3627SOL    HW222518   2.715   2.416  14.114 -1.9731  1.5172 -2.7613
 3628SOL     OW22519   2.540   4.269   7.490  0.1815 -0.4406 -0.1220
 3628SOL    HW122520   2.626   4.300   7.460  0.1190  1.3287  1.4877
 3628SOL    HW222521   2.536   4.327   7.566 -0.6565 -0.3345 -0.2467
 3629SOL     OW22522   2.055   3.570   7.008  0.2916 -0.0055 -0.2610
 3629SOL    HW122523   1.996   3.614   6.947  0.4026 -1.5549 -1.4666
 3629SOL    HW222524   2.130   3.629   7.008  1.7353 -1.8485  0.3212
 3630SOL     OW22525   1.977   0.672  11.490 -0.0314 -0.1687 -0.1249
 3630SOL    HW122526   2.070   0.651  11.492  0.0769  0.2414 -0.7963
 3630SOL    HW222527   1.953   0.599  11.433 -0.0326 -0.0945 -0.2192
 3631SOL     OW22528   2.991   3.047   1.690 -0.6044 -0.5450  0.2212
 3631SOL    HW122529   3.032   3.076   1.609 -0.6430  1.7786  1.0243
 3631SOL    HW222530   2.919   3.110   1.697 -0.9733 -1.1656  1.9861
 3632SOL     OW22531   3.737   4.350   7.217 -0.4394  0.1449 -0.4903
 3632SOL    HW122532   3.787   4.396   7.284  1.2160 -0.4179 -1.3193
 3632SOL    HW222533   3.803   4.350   7.147 -0.4788  2.9933 -0.5202
 3633SOL     OW22534   3.993   4.738   7.294  0.2720 -0.1319  0.0262
 3633SOL    HW122535   4.014   0.088   7.318 -0.4083 -0.1724  0.7671
 3633SOL    HW222536   3.899   4.736   7.311 -0.1132 -0.1493 -2.1214
 3634SOL     OW22537   1.512   0.304   3.696 -0.4381  0.2701  0.0733
 3634SOL    HW122538   1.557   0.310   3.612 -2.9858  0.5682 -1.2455
 3634SOL    HW222539   1.558   0.369   3.750 -0.4287 -0.5888  1.1071
 3635SOL     OW22540   1.185   2.262   3.386 -0.7333 -0.1156 -0.3106
 3635SOL    HW122541   1.127   2.278   3.312 -2.4557 -2.4018  0.5288
 3635SOL    HW222542   1.208   2.169   3.391  0.7548  0.2090 -1.2609
 3636SOL     OW22543   3.888   3.350   5.361 -0.1780  0.1414  0.0022
 3636SOL    HW122544   3.931   3.323   5.280  1.5333 -0.4873  1.1431
 3636SOL    HW222545   3.816   3.399   5.320  1.3685  2.2202 -0.2334
 3637SOL     OW22546   1.077   2.463   9.155  0.0207  0.0245 -0.7348
 3637SOL    HW122547   1.055   2.523   9.227 -1.4910 -0.9058 -0.4061
 3637SOL    HW222548   0.999   2.408   9.147 -1.2409  1.4762  1.1866
 3638SOL     OW22549   2.579   4.074  16.024  0.1520 -1.1211  0.0228
 3638SOL    HW122550   2.644   4.122  16.076  1.4472 -0.4463 -2.1971
 3638SOL    HW222551   2.630   4.082  15.943 -1.1645  1.1224 -0.6139
 3639SOL     OW22552   0.732   0.988   2.746  0.2453 -0.3157  0.5441
 3639SOL    HW122553   0.801   0.981   2.680 -0.8628 -3.3661 -0.2913
 3639SOL    HW222554   0.719   1.082   2.759 -1.1288 -0.8402  2.8137
 3640SOL     OW22555   4.318   4.557   6.203  0.1172  0.0008  0.0899
 3640SOL    HW122556   4.302   4.544   6.109  1.1784 -1.9376  0.1799
 3640SOL    HW222557   4.328   4.652   6.196 -0.7600  0.1172  0.4085
 3641SOL     OW22558   4.369   0.859   6.795  0.1663 -0.8921 -0.1342
 3641SOL    HW122559   4.374   0.840   6.701  0.1577  0.5859 -0.4314
 3641SOL    HW222560   4.413   0.943   6.791 -1.8282  0.1943  0.9167
 3642SOL     OW22561   1.465   3.549   5.307 -0.1283 -0.4851  0.2829
 3642SOL    HW122562   1.443   3.593   5.389  2.7750  0.2096  0.6957
 3642SOL    HW222563   1.385   3.501   5.286 -0.5647  0.2837  0.1700
 3643SOL     OW22564   2.947   0.454   7.209  0.1177  0.5836  0.4535
 3643SOL    HW122565   3.003   0.404   7.150 -1.0277 -0.0687 -0.0809
 3643SOL    HW222566   2.887   0.392   7.251  0.3680  0.1609  0.1812
 3644SOL     OW22567   4.102   2.454  14.518 -0.7337  0.3182  0.2750
 3644SOL    HW122568   4.180   2.459  14.463  0.0671  0.7962  1.4504
 3644SOL    HW222569   4.038   2.496  14.461  0.5587  1.3753 -0.4029
 3645SOL     OW22570   3.785   1.181   7.908 -0.3239  0.5159 -0.3204
 3645SOL    HW122571   3.857   1.188   7.970 -0.1262  1.1835 -0.6271
 3645SOL    HW222572   3.788   1.090   7.881  1.1341  0.1730  1.0011
 3646SOL     OW22573   2.461   2.927   5.256  0.0465 -0.7019 -0.1743
 3646SOL    HW122574   2.506   2.996   5.305 -0.4971  0.3288 -1.1058
 3646SOL    HW222575   2.521   2.853   5.267 -0.4037 -1.7387 -4.7549
 3647SOL     OW22576   3.350   4.670   4.711 -0.3934 -0.5496 -0.2753
 3647SOL    HW122577   3.395   4.626   4.783  0.9697 -1.2466 -1.5354
 3647SOL    HW222578   3.258   4.665   4.736 -0.7308  0.7640 -1.2678
 3648SOL     OW22579   3.557   1.481  10.609  0.0779  0.5248  0.7412
 3648SOL    HW122580   3.545   1.558  10.665 -0.6373  1.2694 -0.4328
 3648SOL    HW222581   3.492   1.508  10.544  0.3432  0.5179  0.4688
 3649SOL     OW22582   1.091   4.180   5.012 -0.3090  0.2113  0.8398
 3649SOL    HW122583   1.128   4.237   5.079  2.1533  0.9669 -1.1791
 3649SOL    HW222584   1.167   4.132   4.980 -1.2470  0.0716 -1.1521
 3650SOL     OW22585   3.545   3.348   1.273 -0.1365 -0.0647 -0.1715
 3650SOL    HW122586   3.518   3.401   1.199  0.7354 -0.4410 -0.7511
 3650SOL    HW222587   3.472   3.361   1.334 -0.0348  0.9721 -0.2742
 3651SOL     OW22588   4.204   0.331  13.450  0.5274 -0.7123 -0.0317
 3651SOL    HW122589   4.229   0.280  13.527  0.3909  0.2174  0.6379
 3651SOL    HW222590   4.276   0.307  13.392  1.3983 -4.2130  2.4901
 3652SOL     OW22591   3.480   4.694   7.783 -0.1778  0.6414  0.5859
 3652SOL    HW122592   3.447   4.672   7.696  1.6757  1.2918 -0.2764
 3652SOL    HW222593   3.543   0.022   7.761  1.0575 -0.0241  2.1245
 3653SOL     OW22594   4.542   1.821  17.561  0.7534 -0.1730 -0.0929
 3653SOL    HW122595   4.508   1.773  17.485  1.2235  0.5559 -0.7633
 3653SOL    HW222596   4.462   1.827  17.612  1.3079  1.3674  0.5824
 3654SOL     OW22597   3.088   3.029   1.970 -0.1357  0.8608  0.1143
 3654SOL    HW122598   3.148   2.954   1.973 -0.7853  0.3308 -0.1377
 3654SOL    HW222599   3.064   3.013   1.879  0.7706 -1.3636  0.2498
 3655SOL     OW22600   4.635   4.557   6.141  0.2624  0.2325  0.1418
 3655SOL    HW122601   4.606   4.588   6.227  3.1901  1.7914  0.5630
 3655SOL    HW222602   4.618   4.626   6.077 -2.0930 -0.4494  0.0385
 3656SOL     OW22603   1.334   3.891   8.307  0.5567 -0.4098  0.3771
 3656SOL    HW122604   1.312   3.827   8.238 -0.6397  0.0392  0.3412
 3656SOL    HW222605   1.429   3.883   8.308  0.7174  0.8395 -3.1406
 3657SOL     OW22606   3.474   2.267   4.268 -0.1440 -0.4573  0.0639
 3657SOL    HW122607   3.481   2.215   4.348  1.1182  0.5092  0.5836
 3657SOL    HW222608   3.431   2.203   4.210 -0.8491  0.7107 -0.6943
 3658SOL     OW22609   3.134   3.574   1.937 -0.5166  0.6737  0.1383
 3658SOL    HW122610   3.079   3.623   1.875  1.2071 -0.5134 -2.2961
 3658SOL    HW222611   3.075   3.521   1.991 -0.1322 -0.0209 -0.1275
 3659SOL     OW22612   3.667   0.768  15.431 -0.2895 -0.1012 -0.1968
 3659SOL    HW122613   3.706   0.687  15.464  0.8076 -0.0268 -1.3041
 3659SOL    HW222614   3.642   0.750  15.341 -1.6486  1.3216 -0.1035
 3660SOL     OW22615   3.919   1.033   3.883 -0.0731  0.4953 -0.2488
 3660SOL    HW122616   3.828   1.055   3.861 -0.1574  1.0423  0.6318
 3660SOL    HW222617   3.921   1.102   3.949 -1.8669 -1.2367  1.6291
 3661SOL     OW22618   3.378   2.809   5.457  0.2730 -0.3095  0.3316
 3661SOL    HW122619   3.328   2.791   5.536 -1.1758 -0.7823 -0.6938
 3661SOL    HW222620   3.315   2.795   5.386 -0.9255 -1.6839  1.6600
 3662SOL     OW22621   2.888   1.151  11.590 -0.0266 -0.1229 -0.1787
 3662SOL    HW122622   2.833   1.195  11.656 -1.4377 -1.7699 -0.2548
 3662SOL    HW222623   2.819   1.109  11.538 -1.7918  1.1403  1.1289
 3663SOL     OW22624   4.166   2.046  16.449 -0.1349  0.0977 -0.0570
 3663SOL    HW122625   4.224   2.041  16.373  1.8019  2.3150  1.2868
 3663SOL    HW222626   4.152   1.954  16.467  0.1176 -0.1837 -1.2694
 3664SOL     OW22627   3.781   1.128  14.901 -0.2952 -0.2067 -0.0083
 3664SOL    HW122628   3.819   1.054  14.853  1.2231  0.3973  0.2437
 3664SOL    HW222629   3.767   1.191  14.830  4.5599  1.6279  0.6448
 3665SOL     OW22630   2.839   3.400  17.031 -0.1599 -0.4891 -0.0075
 3665SOL    HW122631   2.747   3.374  17.033 -0.3753  0.3160  0.2437
 3665SOL    HW222632   2.875   3.314  17.006  0.7455 -0.1463  0.1342
 3666SOL     OW22633   1.895   1.814  15.097  0.3114  0.5634  0.2904
 3666SOL    HW122634   1.968   1.756  15.117 -0.5500 -0.3869  0.6668
 3666SOL    HW222635   1.937   1.880  15.041  1.7533 -0.4442  0.1847
 3667SOL     OW22636   3.573   1.842   7.390  0.3340  0.1332  0.4014
 3667SOL    HW122637   3.560   1.757   7.431  1.6524  0.1139  0.8088
 3667SOL    HW222638   3.486   1.849   7.352  0.5595 -1.5711 -0.4067
 3668SOL     OW22639   0.451   2.976   5.245 -0.1332 -0.5166  0.4930
 3668SOL    HW122640   0.427   2.892   5.286  0.7019 -0.2287  1.5614
 3668SOL    HW222641   0.472   3.025   5.325 -1.0159  1.1125 -0.2727
 3669SOL     OW22642   0.828   3.065   2.757 -0.3777  0.0789 -0.6462
 3669SOL    HW122643   0.804   3.141   2.810  0.9075  1.1899 -1.6425
 3669SOL    HW222644   0.888   3.109   2.697 -1.5835  0.6431 -1.4455
 3670SOL     OW22645   1.019   1.589  15.896  0.1923 -0.0566 -0.3081
 3670SOL    HW122646   1.072   1.513  15.874  1.3998  0.5371  0.5433
 3670SOL    HW222647   0.930   1.554  15.897  0.4857 -0.8218 -1.5578
 3671SOL     OW22648   4.666   1.808   4.161 -0.6324  0.3378  0.1581
 3671SOL    HW122649   4.679   1.852   4.077 -1.3951  1.0407  0.4036
 3671SOL    HW222650   0.017   1.811   4.189 -0.5312  3.2973 -0.5342
 3672SOL     OW22651   1.687   4.067   6.824 -0.2415 -0.1143 -0.0033
 3672SOL    HW122652   1.666   4.035   6.912 -1.0077  0.8846  0.1738
 3672SOL    HW222653   1.658   3.995   6.767  0.5089 -0.8618  0.5534
 3673SOL     OW22654   0.777   3.451   9.388  0.7629 -0.0710 -0.2504
 3673SOL    HW122655   0.729   3.496   9.457  1.6593 -0.7653  0.8236
 3673SOL    HW222656   0.862   3.450   9.431  1.2345  2.7745 -1.1348
 3674SOL     OW22657   1.038   1.567   3.840  0.1989 -0.1025  0.0097
 3674SOL    HW122658   1.042   1.472   3.828  1.5869 -0.0508  0.1027
 3674SOL    HW222659   1.118   1.573   3.892 -0.0064  0.2787  0.2787
 3675SOL     OW22660   0.268   3.043  11.660 -0.0553 -0.1772 -0.0175
 3675SOL    HW122661   0.322   2.987  11.603  0.2145  0.9153 -0.8353
 3675SOL    HW222662   0.343   3.095  11.691 -2.0774  2.1309  0.9952
 3676SOL     OW22663   0.234   2.760   5.668 -0.2719  0.2457 -0.3556
 3676SOL    HW122664   0.144   2.749   5.700  0.1708  4.0739  2.3269
 3676SOL    HW222665   0.258   2.845   5.706 -0.9851  0.1105  0.3953
 3677SOL     OW22666   0.803   3.746   5.827 -0.1053  0.1063  0.2691
 3677SOL    HW122667   0.884   3.791   5.806 -0.0847 -0.8601 -1.7195
 3677SOL    HW222668   0.793   3.697   5.745 -1.5254 -0.2040  0.6236
 3678SOL     OW22669   4.572   4.127   5.598  0.2465 -0.3517  0.2810
 3678SOL    HW122670   4.502   4.063   5.585  0.9034 -1.1987  0.9756
 3678SOL    HW222671   4.597   4.110   5.689 -0.3598  2.0530  0.9243
 3679SOL     OW22672   0.221   3.162  12.374  0.2540  0.1939 -0.8316
 3679SOL    HW122673   0.137   3.206  12.386  0.3383 -0.1201  0.8456
 3679SOL    HW222674   0.238   3.117  12.457 -3.5691 -0.8828 -0.6239
 3680SOL     OW22675   3.594   4.449   4.679  0.5962 -0.3783 -0.3100
 3680SOL    HW122676   3.560   4.488   4.599  0.6539 -0.5970 -0.4397
 3680SOL    HW222677   3.677   4.496   4.685 -0.2393  1.1519 -0.7142
 3681SOL     OW22678   0.151   3.523   2.914  0.1828 -0.1803 -0.6538
 3681SOL    HW122679   0.077   3.499   2.969 -0.2719 -1.3355 -1.7725
 3681SOL    HW222680   0.124   3.615   2.914  1.9088  0.3069  2.5835
 3682SOL     OW22681   0.719   3.708   4.902  0.3211 -0.7307 -0.3240
 3682SOL    HW122682   0.723   3.629   4.955  1.6574 -0.6264 -0.2757
 3682SOL    HW222683   0.811   3.734   4.898 -0.0407  0.5596 -0.3739
 3683SOL     OW22684   0.062   3.713   5.161 -0.3201  0.3735 -0.2644
 3683SOL    HW122685   0.000   3.770   5.115 -2.1453 -0.1284  1.5417
 3683SOL    HW222686   0.137   3.744   5.111  1.2628 -1.2676  1.1047
 3684SOL     OW22687   3.986   1.945   2.657 -0.4440 -0.6536  0.3803
 3684SOL    HW122688   3.932   1.977   2.585 -1.3736  1.3044  1.9427
 3684SOL    HW222689   4.008   2.019   2.714 -1.3174 -0.5944  0.6553
 3685SOL     OW22690   2.519   1.836   6.612  0.1540  0.1969  0.6105
 3685SOL    HW122691   2.434   1.803   6.584 -0.1464  0.6622  0.9820
 3685SOL    HW222692   2.503   1.931   6.607 -0.3750  0.0675 -0.2358
 3686SOL     OW22693   3.412   3.659   5.610  0.0549 -0.0286 -0.1287
 3686SOL    HW122694   3.343   3.726   5.607  1.6586  1.6311  0.1582
 3686SOL    HW222695   3.394   3.600   5.537 -1.9422 -1.4175  1.4813
 3687SOL     OW22696   4.187   1.053   7.840  0.2584  0.0963  0.0900
 3687SOL    HW122697   4.147   0.968   7.860 -3.2970  2.2958  2.0894
 3687SOL    HW222698   4.147   1.064   7.754  0.2202 -2.5235 -0.2231
 3688SOL     OW22699   3.336   1.316  12.679  0.3418  0.5385 -0.2325
 3688SOL    HW122700   3.428   1.320  12.651  0.6716 -0.1596  0.7697
 3688SOL    HW222701   3.325   1.387  12.741  3.4669  0.3601  0.5441
 3689SOL     OW22702   2.132   3.118   1.366  0.5930  0.6053  0.2487
 3689SOL    HW122703   2.130   3.023   1.361  0.3720  0.5900  0.5976
 3689SOL    HW222704   2.108   3.131   1.274  2.7022  0.5329 -0.2994
 3690SOL     OW22705   1.166   0.515   7.535  0.2973 -0.0666  0.0991
 3690SOL    HW122706   1.220   0.486   7.609 -1.3685 -2.3659  0.4059
 3690SOL    HW222707   1.236   0.543   7.475  0.8157 -0.9157  0.2997
 3691SOL     OW22708   2.409   0.439   8.013 -0.2195 -0.0169 -0.2316
 3691SOL    HW122709   2.434   0.489   7.935 -1.2189  1.6748  0.5286
 3691SOL    HW222710   2.325   0.479   8.034 -0.0103  0.0435  0.4920
 3692SOL     OW22711   1.349   0.445   8.211 -0.4216 -0.0245  0.6021
 3692SOL    HW122712   1.383   0.355   8.218 -0.9378 -0.3699 -1.3944
 3692SOL    HW222713   1.431   0.494   8.216  0.4999 -1.6371  1.4357
 3693SOL     OW22714   2.392   4.399   3.966 -0.0459  0.6664 -0.3194
 3693SOL    HW122715   2.424   4.311   3.945 -0.8778 -0.5337  3.4104
 3693SOL    HW222716   2.443   4.414   4.046  0.4378 -1.1936 -0.2845
 3694SOL     OW22717   3.983   0.260   0.483  0.3532  0.3549 -0.4026
 3694SOL    HW122718   4.065   0.212   0.493  0.5146  0.8672  0.7741
 3694SOL    HW222719   3.924   0.188   0.461  2.3059 -1.0958 -0.8521
 3695SOL     OW22720   2.568   2.021   2.510 -0.2443  0.3664  0.6646
 3695SOL    HW122721   2.576   2.064   2.596 -2.2920  2.9636 -0.4316
 3695SOL    HW222722   2.481   2.059   2.496  0.3072  1.2998 -0.2212
 3696SOL     OW22723   4.294   4.093  15.931  0.0901  0.0908  0.1539
 3696SOL    HW122724   4.266   4.184  15.934 -1.8002 -0.4099 -2.3871
 3696SOL    HW222725   4.387   4.098  15.906 -0.6506  0.1257 -2.6024
 3697SOL     OW22726   2.480   1.446   2.264  0.3689  0.2216  0.5086
 3697SOL    HW122727   2.568   1.443   2.301  0.4143 -2.7229  0.1703
 3697SOL    HW222728   2.504   1.409   2.179 -2.1512 -0.4806  0.1147
 3698SOL     OW22729   4.671   4.325   9.415 -0.0138 -0.9492  0.2418
 3698SOL    HW122730   4.698   4.246   9.369  0.3863 -0.2602 -0.6844
 3698SOL    HW222731   4.690   4.399   9.358 -0.3037 -1.1671 -0.1351
 3699SOL     OW22732   1.069   2.670   1.857 -0.3794  0.3936 -0.6553
 3699SOL    HW122733   1.006   2.638   1.921  1.0902 -0.3154  0.4270
 3699SOL    HW222734   1.148   2.629   1.893 -0.8494 -0.7828 -0.9470
 3700SOL     OW22735   0.240   1.337   7.981 -0.3799  0.1708 -0.0585
 3700SOL    HW122736   0.205   1.270   7.922  1.5912 -0.8290 -0.0747
 3700SOL    HW222737   0.155   1.374   8.006  0.6791  1.7106  1.2310
 3701SOL     OW22738   4.485   0.477   7.522  0.3159  0.2061  0.1852
 3701SOL    HW122739   4.539   0.553   7.496 -2.2155  2.1269  0.5482
 3701SOL    HW222740   4.539   0.436   7.589  2.5830  2.9789  0.0994
 3702SOL     OW22741   4.060   2.073   9.305 -0.6641 -0.3244  0.0248
 3702SOL    HW122742   4.126   2.033   9.248 -0.9487  1.3925 -1.5062
 3702SOL    HW222743   4.083   2.031   9.388  0.0278 -1.0791 -0.5506
 3703SOL     OW22744   1.768   3.660   3.690 -0.1372 -0.7508  0.3698
 3703SOL    HW122745   1.701   3.718   3.654  0.3971  0.6625  1.6336
 3703SOL    HW222746   1.744   3.572   3.663 -0.5511 -0.4796 -0.1565
 3704SOL     OW22747   0.609   4.115   0.284 -0.4204  0.2296 -0.0788
 3704SOL    HW122748   0.569   4.033   0.312  0.4556 -0.2618 -0.2503
 3704SOL    HW222749   0.534   4.173   0.295 -0.6519 -0.5079  2.2390
 3705SOL     OW22750   3.798   3.616   0.702 -0.2671 -0.1011 -0.6827
 3705SOL    HW122751   3.715   3.647   0.666  0.1601 -1.0655 -2.4881
 3705SOL    HW222752   3.790   3.633   0.796  1.8941  1.1449 -0.7145
 3706SOL     OW22753   1.508   0.550   4.842 -0.1439 -0.4435  0.9520
 3706SOL    HW122754   1.539   0.639   4.860  1.6984 -1.2158  1.6622
 3706SOL    HW222755   1.471   0.578   4.758  1.9721  1.6789  0.7163
 3707SOL     OW22756   0.998   1.881  17.531 -0.2975 -0.1468  0.2580
 3707SOL    HW122757   0.938   1.878  17.605 -1.1019 -2.8967 -0.5042
 3707SOL    HW222758   1.080   1.873  17.580 -0.7887 -1.4497  0.8507
 3708SOL     OW22759   1.741   3.517   4.115  0.1804  0.7316  0.1089
 3708SOL    HW122760   1.713   3.543   4.203  3.3997 -2.2045  1.9963
 3708SOL    HW222761   1.773   3.602   4.086 -0.9648  1.5096  1.0989
 3709SOL     OW22762   1.515   1.083   8.504  0.1230 -0.3467 -0.6011
 3709SOL    HW122763   1.546   1.009   8.452  2.7439  0.8002 -0.6478
 3709SOL    HW222764   1.420   1.074   8.504  0.0565  0.3518 -0.1941
 3710SOL     OW22765   3.775   4.060  11.734 -0.5443 -0.4426 -0.2650
 3710SOL    HW122766   3.814   3.978  11.763 -1.5575 -0.1688  1.8851
 3710SOL    HW222767   3.852   4.112  11.709 -0.7601  0.0238  0.0415
 3711SOL     OW22768   2.408   4.165   3.253 -0.4075 -0.5418  0.4348
 3711SOL    HW122769   2.410   4.189   3.346 -1.2257 -0.0249  0.3109
 3711SOL    HW222770   2.477   4.225   3.222  0.5225 -1.5465  0.5523
 3712SOL     OW22771   1.212   1.740  14.849 -0.5750  0.2125  0.6807
 3712SOL    HW122772   1.284   1.702  14.797 -1.5319 -2.7728  1.5355
 3712SOL    HW222773   1.202   1.830  14.819  1.3682 -0.0832 -0.8576
 3713SOL     OW22774   2.693   2.659   4.472  0.0785  0.2208 -0.4589
 3713SOL    HW122775   2.685   2.646   4.566  0.2867  0.4352 -0.4111
 3713SOL    HW222776   2.628   2.728   4.460 -1.3209 -0.9668  0.3554
 3714SOL     OW22777   3.366   2.583   7.636  0.4270 -0.1608  0.0563
 3714SOL    HW122778   3.353   2.493   7.605 -0.1909 -0.8806  2.3543
 3714SOL    HW222779   3.462   2.583   7.637  0.4342 -0.1952 -0.9725
 3715SOL     OW22780   4.044   4.606   9.121 -0.2189 -0.1345  0.2900
 3715SOL    HW122781   4.076   4.688   9.084 -1.2695 -0.7117 -1.8673
 3715SOL    HW222782   4.059   4.548   9.046 -1.4560  0.6077 -0.5207
 3716SOL     OW22783   2.482   0.582   7.319  0.4344  0.4538  0.1083
 3716SOL    HW122784   2.467   0.567   7.225  0.9476  1.3256 -0.1071
 3716SOL    HW222785   2.404   0.544   7.359  1.3611 -1.2480  0.2995
 3717SOL     OW22786   2.067   1.194   5.460 -0.0688 -0.9855  0.4229
 3717SOL    HW122787   2.064   1.184   5.555  2.2668  0.7213  0.6602
 3717SOL    HW222788   1.974   1.204   5.439 -0.3083 -0.7935  1.6051
 3718SOL     OW22789   2.434   2.127   1.945 -0.1395  0.3377 -0.4844
 3718SOL    HW122790   2.394   2.041   1.957  0.3290  0.3525  1.2430
 3718SOL    HW222791   2.377   2.185   1.996 -1.1266 -0.2070 -0.9538
 3719SOL     OW22792   3.085   1.377  13.124 -0.0878 -0.2405  0.2977
 3719SOL    HW122793   3.014   1.332  13.170 -0.0793 -0.1176  0.4306
 3719SOL    HW222794   3.129   1.411  13.201  3.2228 -0.1326 -1.6431
 3720SOL     OW22795   3.226   3.887   5.633 -0.1568 -0.3982 -0.0622
 3720SOL    HW122796   3.237   3.979   5.607  1.0674 -0.6744 -0.5247
 3720SOL    HW222797   3.133   3.882   5.653  0.1874 -1.3244  1.2758
 3721SOL     OW22798   1.118   4.587   5.116  0.0679  0.0744 -0.0683
 3721SOL    HW122799   1.048   4.535   5.155  0.5000  1.6557  2.8225
 3721SOL    HW222800   1.077   4.664   5.078 -0.1105 -0.4448 -0.9299
 3722SOL     OW22801   2.135   2.700   5.648  0.0104  0.3891 -0.0155
 3722SOL    HW122802   2.151   2.663   5.561  1.1636  0.6223  0.1058
 3722SOL    HW222803   2.190   2.778   5.634 -0.7162  0.6571 -1.4141
 3723SOL     OW22804   4.711   3.318   9.152 -0.3392 -0.1892  0.0782
 3723SOL    HW122805   4.670   3.234   9.173 -0.5510 -0.0788  0.1048
 3723SOL    HW222806   4.721   3.351   9.242 -1.4972  0.3288  0.0257
 3724SOL     OW22807   2.641   3.302  15.428  0.5144 -0.5852  0.4800
 3724SOL    HW122808   2.599   3.316  15.513  2.1191 -1.6295  1.4393
 3724SOL    HW222809   2.726   3.346  15.438  2.1682 -3.7651  0.4599
 3725SOL     OW22810   1.529   0.785   3.026  0.3133  0.0065 -0.8358
 3725SOL    HW122811   1.442   0.747   3.035  0.2271  0.4675  0.4148
 3725SOL    HW222812   1.567   0.710   2.981  2.3629  0.2999  0.3934
 3726SOL     OW22813   4.432   0.534   2.493  0.0041  0.2930 -0.5094
 3726SOL    HW122814   4.433   0.444   2.525  1.4626  0.5406  0.1460
 3726SOL    HW222815   4.338   0.542   2.480 -0.1252 -1.9968 -0.9238
 3727SOL     OW22816   0.543   3.756   5.915  0.4714 -0.5881 -0.3587
 3727SOL    HW122817   0.528   3.846   5.944  0.7454 -0.6051 -0.1701
 3727SOL    HW222818   0.625   3.772   5.868 -1.0634 -4.7947 -4.5064
 3728SOL     OW22819   0.971   2.144   2.824 -0.3013  0.1104  0.1895
 3728SOL    HW122820   1.025   2.216   2.789  0.5350 -1.0502 -0.8966
 3728SOL    HW222821   0.887   2.180   2.795 -1.3708 -1.8008  0.9665
 3729SOL     OW22822   0.896   2.348   4.105 -0.1636  0.6576  0.1515
 3729SOL    HW122823   0.849   2.380   4.182 -2.1141  1.7611 -1.5006
 3729SOL    HW222824   0.822   2.329   4.047  0.0273  1.9464 -0.5075
 3730SOL     OW22825   3.456   1.178  11.034 -0.3383  0.1280  0.2785
 3730SOL    HW122826   3.478   1.218  10.950 -2.8020 -0.7298 -0.7607
 3730SOL    HW222827   3.444   1.257  11.088  0.2392  0.3678  0.0635
 3731SOL     OW22828   3.695   3.322  17.038 -0.7903  0.4460  0.3238
 3731SOL    HW122829   3.723   3.363  16.957 -1.1344  0.5746  0.2701
 3731SOL    HW222830   3.772   3.328  17.095 -0.2439 -1.3678 -0.2206
 3732SOL     OW22831   4.487   1.322  10.361 -0.4089  0.4839  0.6207
 3732SOL    HW122832   4.431   1.359  10.293  2.4215  3.2988 -0.1909
 3732SOL    HW222833   4.437   1.242  10.369 -2.2195  1.5106 -0.5576
 3733SOL     OW22834   3.105   0.477  10.697  0.3513  0.2673 -0.4133
 3733SOL    HW122835   3.113   0.381  10.695  3.3538  0.4927  1.5584
 3733SOL    HW222836   3.127   0.492  10.606 -0.6691  3.0791 -0.1879
 3734SOL     OW22837   4.739   0.149   2.866 -0.2715 -0.3060  0.1787
 3734SOL    HW122838   0.072   0.120   2.811 -1.8510 -0.7552 -1.6977
 3734SOL    HW222839   4.671   0.150   2.798  0.4232 -0.6757 -0.5270
 3735SOL     OW22840   1.831   1.935   5.767 -0.5155  0.6370 -0.0988
 3735SOL    HW122841   1.775   1.916   5.692 -0.9458  0.5471  0.2478
 3735SOL    HW222842   1.916   1.957   5.730 -0.5744 -0.1202 -0.6997
 3736SOL     OW22843   1.945   3.959  15.443 -0.4392 -0.3546  0.7832
 3736SOL    HW122844   1.916   3.885  15.390 -0.3915  0.1659  0.0329
 3736SOL    HW222845   2.040   3.948  15.444 -0.3506  0.3113 -0.1697
 3737SOL     OW22846   2.230   2.134   6.644 -0.1292 -0.4913  0.2206
 3737SOL    HW122847   2.324   2.119   6.635  0.0524  1.0947 -0.7124
 3737SOL    HW222848   2.229   2.171   6.732  0.6392 -0.2483  0.1341
 3738SOL     OW22849   1.664   4.608   1.685 -0.4659 -0.4283 -0.9470
 3738SOL    HW122850   1.706   4.651   1.760 -0.3843 -1.2603 -0.5131
 3738SOL    HW222851   1.688   4.667   1.613  1.8451 -0.3998 -0.1630
 3739SOL     OW22852   3.596   2.461   4.115 -0.0692 -0.3582 -0.5201
 3739SOL    HW122853   3.598   2.435   4.023 -1.2573 -1.5128 -0.2133
 3739SOL    HW222854   3.551   2.386   4.153 -0.0016 -0.0048  0.2697
 3740SOL     OW22855   1.043   3.084   7.466 -0.2053 -0.2022 -0.0056
 3740SOL    HW122856   1.029   3.165   7.515 -0.7170  0.3206 -1.0012
 3740SOL    HW222857   1.128   3.056   7.499 -0.0051  1.2662  0.6937
 3741SOL     OW22858   1.692   1.352   6.310 -0.0652 -0.2766 -0.2056
 3741SOL    HW122859   1.755   1.384   6.375 -2.9339  2.5456  1.1580
 3741SOL    HW222860   1.709   1.417   6.242 -1.3421  1.5328  1.2130
 3742SOL     OW22861   0.942   4.110   3.281 -0.1994  0.3663  0.0207
 3742SOL    HW122862   0.879   4.113   3.354 -0.5491  0.3999 -0.2825
 3742SOL    HW222863   0.983   4.194   3.300 -0.4084  0.0225  2.0514
 3743SOL     OW22864   0.612   1.272   9.138 -0.2566 -0.3199  0.2962
 3743SOL    HW122865   0.668   1.322   9.197 -2.0155  1.2634  0.6315
 3743SOL    HW222866   0.673   1.248   9.069  1.4938 -1.2245  2.1813
 3744SOL     OW22867   2.849   0.442   6.720  0.5805 -0.1176 -0.6280
 3744SOL    HW122868   2.885   0.456   6.633  2.3092  1.0698  0.2849
 3744SOL    HW222869   2.847   0.530   6.758  0.4585  0.7894 -2.7695
 3745SOL     OW22870   1.574   0.309  17.435  0.5038  0.3738 -0.5182
 3745SOL    HW122871   1.644   0.292  17.372  0.1792 -1.1208 -0.4585
 3745SOL    HW222872   1.633   0.327  17.508  0.6666 -0.8940 -0.3519
 3746SOL     OW22873   3.200   1.497  13.651 -0.3608  0.4576 -0.4796
 3746SOL    HW122874   3.208   1.448  13.568  1.8101  1.7329 -1.0106
 3746SOL    HW222875   3.293   1.504  13.668 -0.5068  0.9494  0.1041
 3747SOL     OW22876   1.007   4.443   5.949 -0.1609 -0.2120 -0.0613
 3747SOL    HW122877   1.022   4.437   5.855 -1.0667 -0.3719 -0.2023
 3747SOL    HW222878   1.046   4.524   5.982 -1.1561  1.2269 -2.4157
 3748SOL     OW22879   0.701   3.186   7.946  0.0024  0.1298  0.0301
 3748SOL    HW122880   0.700   3.214   7.855 -0.0277 -2.9031 -0.8826
 3748SOL    HW222881   0.677   3.094   7.938  1.6120 -0.2297 -0.6517
 3749SOL     OW22882   0.921   4.335   7.356  0.3755  0.1282  0.3447
 3749SOL    HW122883   0.906   4.246   7.388  1.9592  0.2790  1.4956
 3749SOL    HW222884   0.920   4.324   7.261 -1.7656 -0.3203  0.4224
 3750SOL     OW22885   0.426   2.897   3.550  0.0097 -0.5245  0.3842
 3750SOL    HW122886   0.497   2.949   3.513 -0.5341 -0.0872 -0.0422
 3750SOL    HW222887   0.374   2.956   3.606  0.8710  0.1798  0.4346
 3751SOL     OW22888   4.608   0.469  13.657 -0.1387  0.1554 -0.3563
 3751SOL    HW122889   4.609   0.374  13.649 -1.0368  0.1238 -0.0704
 3751SOL    HW222890   4.655   0.488  13.576  0.9446  0.5132  0.3529
 3752SOL     OW22891   0.334   1.014   8.665  0.4690  0.1274 -0.1250
 3752SOL    HW122892   0.409   1.060   8.626  1.4810 -0.3218  1.3041
 3752SOL    HW222893   0.364   0.936   8.619  1.5185  0.3160  0.2258
 3753SOL     OW22894   0.396   3.779   2.568 -0.3580  0.1798  0.7461
 3753SOL    HW122895   0.376   3.818   2.482  2.0961 -0.0761  0.0784
 3753SOL    HW222896   0.474   3.832   2.585 -0.6055  0.8522 -0.1620
 3754SOL     OW22897   0.020   0.138  16.980 -0.0326  0.3598  0.1589
 3754SOL    HW122898   0.075   0.100  17.048  0.1031  1.9545  0.9314
 3754SOL    HW222899   4.699   0.196  17.026  0.2359 -0.0552  1.0367
 3755SOL     OW22900   4.066   1.444   5.066  0.2371  0.0227  0.0485
 3755SOL    HW122901   4.103   1.525   5.101  3.0897 -0.7731 -1.1789
 3755SOL    HW222902   3.997   1.478   5.009  0.7214  1.8500  0.5419
 3756SOL     OW22903   2.868   3.217  14.734  0.0142  0.2153  0.3531
 3756SOL    HW122904   2.921   3.262  14.800  0.1644  3.4284 -1.9721
 3756SOL    HW222905   2.807   3.176  14.795  1.6682 -0.0816  1.8046
 3757SOL     OW22906   0.887   0.090   6.601  0.0316  0.0974 -0.0705
 3757SOL    HW122907   0.916   0.165   6.548  1.8314 -2.1655 -2.2776
 3757SOL    HW222908   0.868   0.133   6.685  2.1800  0.6611  0.1354
 3758SOL     OW22909   3.453   4.541   4.475  0.0222 -0.2610 -0.4878
 3758SOL    HW122910   3.375   4.556   4.421 -1.5282 -0.0334  1.7711
 3758SOL    HW222911   3.404   4.583   4.546  1.6333  0.6767  0.0678
 3759SOL     OW22912   2.974   2.726   2.414 -0.1327 -0.2255  0.0160
 3759SOL    HW122913   2.936   2.776   2.342 -1.5446 -0.7950  0.3572
 3759SOL    HW222914   2.901   2.690   2.465  0.1547  1.0527  1.3183
 3760SOL     OW22915   0.860   2.424   3.297  0.3305  0.5244 -0.0573
 3760SOL    HW122916   0.894   2.443   3.384  1.6282  1.6135 -0.8093
 3760SOL    HW222917   0.830   2.511   3.270  0.8566  0.9340  0.6900
 3761SOL     OW22918   1.105   2.829  13.015  0.2474 -0.6169  0.2077
 3761SOL    HW122919   1.043   2.826  12.942 -0.0536 -0.5277  0.4589
 3761SOL    HW222920   1.073   2.792  13.098  0.1506  2.4437  1.5274
 3762SOL     OW22921   0.391   2.867  12.096 -0.2263  0.1483 -0.2972
 3762SOL    HW122922   0.313   2.918  12.118  1.0577  2.2952 -0.6663
 3762SOL    HW222923   0.425   2.926  12.029  1.1473  0.8414  0.9830
 3763SOL     OW22924   4.408   2.042   4.122 -0.3840 -0.1860  0.1943
 3763SOL    HW122925   4.503   2.031   4.125 -0.6720 -2.8994 -0.1949
 3763SOL    HW222926   4.391   2.054   4.216 -0.7114  0.3555  0.0686
 3764SOL     OW22927   1.890   1.247   6.774  0.0041 -0.1892  0.0791
 3764SOL    HW122928   1.947   1.176   6.805  2.0337  1.3657 -0.0952
 3764SOL    HW222929   1.831   1.193   6.722 -0.6535  1.6748 -1.0905
 3765SOL     OW22930   2.182   4.290   7.064  0.5844  0.0324 -0.4047
 3765SOL    HW122931   2.137   4.374   7.078 -0.2150 -0.2233 -1.4824
 3765SOL    HW222932   2.158   4.262   6.976 -1.1724  0.1906  0.0069
 3766SOL     OW22933   4.514   3.104   3.711  0.0582 -0.3017 -0.5315
 3766SOL    HW122934   4.429   3.115   3.668 -0.1602  3.0383  0.7858
 3766SOL    HW222935   4.553   3.058   3.637 -1.7608  0.8424 -2.2141
 3767SOL     OW22936   1.412   0.008   2.806  0.5081 -0.3087  0.3413
 3767SOL    HW122937   1.387   4.730   2.716  0.8869 -2.4724  0.6730
 3767SOL    HW222938   1.424   0.103   2.799 -1.6032 -0.0065  0.7236
 3768SOL     OW22939   0.798   1.911   5.098 -0.4030 -0.1087 -0.3131
 3768SOL    HW122940   0.792   2.005   5.082  2.0414 -0.0042 -0.6022
 3768SOL    HW222941   0.819   1.882   5.009  0.8623 -1.6677  0.5118
 3769SOL     OW22942   1.509   3.652   6.207  0.1287 -0.3161  0.7584
 3769SOL    HW122943   1.506   3.659   6.112  1.6489 -2.2364  0.5535
 3769SOL    HW222944   1.420   3.623   6.225  0.1896  0.8819  3.0069
 3770SOL     OW22945   0.747   4.669  11.398  0.1354  0.3681  0.5803
 3770SOL    HW122946   0.741   4.729  11.472  2.3747 -0.2858  1.3032
 3770SOL    HW222947   0.835   4.688  11.365 -0.0685  0.6468  0.2064
 3771SOL     OW22948   3.036   4.028  17.184 -0.2948  0.4911 -0.2388
 3771SOL    HW122949   3.059   3.980  17.105 -1.0452  0.0732 -0.2107
 3771SOL    HW222950   3.110   4.004  17.239  0.2509  0.4795 -0.9832
 3772SOL     OW22951   1.415   3.177  10.404 -0.0301  0.4046  1.0477
 3772SOL    HW122952   1.442   3.133  10.486  2.1518  0.3515  0.2994
 3772SOL    HW222953   1.377   3.105  10.354  0.6958 -1.3793  3.0101
 3773SOL     OW22954   4.735   1.903   4.894 -0.2921 -0.3117 -0.2704
 3773SOL    HW122955   0.053   1.830   4.918  2.8662  1.6107 -2.0991
 3773SOL    HW222956   0.020   1.958   4.967 -0.3159  1.3727 -1.5304
 3774SOL     OW22957   2.656   1.462   6.077 -0.2560  0.2308 -0.2755
 3774SOL    HW122958   2.690   1.548   6.099  0.1797  0.3188 -1.3110
 3774SOL    HW222959   2.582   1.492   6.023 -0.6198  0.6647  0.4601
 3775SOL     OW22960   3.346   1.964  15.847 -0.3978  0.1423 -0.3847
 3775SOL    HW122961   3.282   2.032  15.828  0.8149  0.9755 -1.4887
 3775SOL    HW222962   3.430   1.993  15.810 -1.1611  0.3149 -1.9836
 3776SOL     OW22963   0.248   2.847   9.276 -0.2060 -0.0566 -0.7383
 3776SOL    HW122964   0.202   2.769   9.248  0.3642 -0.6031 -0.1571
 3776SOL    HW222965   0.278   2.820   9.363  1.0413  2.2686 -0.4192
 3777SOL     OW22966   1.968   2.181   5.172  0.4345 -0.1394 -0.5147
 3777SOL    HW122967   1.887   2.133   5.192 -0.9061  2.0541 -0.6480
 3777SOL    HW222968   1.929   2.268   5.164 -1.6328 -1.0645 -0.4342
 3778SOL     OW22969   0.907   3.601   2.068 -0.0630  0.2513 -0.1678
 3778SOL    HW122970   0.820   3.607   2.108 -0.9141 -1.8091 -1.7213
 3778SOL    HW222971   0.894   3.638   1.981 -1.5076  0.4555  0.1311
 3779SOL     OW22972   0.200   3.714   2.219  0.2127  0.0350 -0.4469
 3779SOL    HW122973   0.234   3.638   2.171  2.1730 -0.4648  1.7799
 3779SOL    HW222974   0.283   3.760   2.232 -0.8659  1.7045  0.4543
 3780SOL     OW22975   0.126   1.674   2.785 -0.4568  0.0062  0.4059
 3780SOL    HW122976   0.163   1.593   2.749  2.0489  0.6221  1.6086
 3780SOL    HW222977   0.176   1.737   2.735 -0.2398 -2.6915 -2.7547
 3781SOL     OW22978   0.594   3.700   9.806 -0.1381 -0.1055  0.2066
 3781SOL    HW122979   0.660   3.769   9.812  0.8436 -1.2847  2.6993
 3781SOL    HW222980   0.601   3.662   9.894 -1.0244 -1.5032 -0.3264
 3782SOL     OW22981   1.174   4.306   3.826 -0.4921 -0.1089 -0.1615
 3782SOL    HW122982   1.116   4.319   3.901  1.8008 -0.7935  1.7307
 3782SOL    HW222983   1.232   4.382   3.833 -0.6443  0.0112 -0.1924
 3783SOL     OW22984   1.528   0.938  13.661  0.7939  0.2874  0.2496
 3783SOL    HW122985   1.574   0.871  13.711 -0.2438 -0.6344 -0.0262
 3783SOL    HW222986   1.533   1.018  13.714  0.3632 -0.0739  0.8452
 3784SOL     OW22987   4.295   2.147   1.316 -0.1936 -0.3762 -0.3736
 3784SOL    HW122988   4.313   2.055   1.299  0.0036 -0.2957 -0.5911
 3784SOL    HW222989   4.202   2.155   1.338 -0.2202  0.7474 -0.8937
 3785SOL     OW22990   0.089   4.488  16.974 -0.0088 -0.3483 -0.8682
 3785SOL    HW122991   0.088   4.524  16.885 -1.0602  3.0024  0.5392
 3785SOL    HW222992   0.166   4.432  16.973 -0.6170 -1.2330  0.9547
 3786SOL     OW22993   1.034   0.277   2.914  0.3620  0.6506  0.3244
 3786SOL    HW122994   1.003   0.321   2.835 -0.4433 -0.6979 -0.1241
 3786SOL    HW222995   1.060   0.351   2.968 -1.0791  1.0776  0.4077
 3787SOL     OW22996   4.587   2.206   7.004  0.0456  0.5281 -0.3343
 3787SOL    HW122997   4.675   2.239   6.983 -0.0217  2.0421  1.6815
 3787SOL    HW222998   4.570   2.142   6.935  2.6368 -1.6837  1.0595
 3788SOL     OW22999   1.806   1.633  15.373  0.4648  1.0201  0.2349
 3788SOL    HW123000   1.899   1.617  15.359  0.2560  1.2491 -1.4184
 3788SOL    HW223001   1.779   1.622  15.282 -0.4384  1.7935  0.4035
 3789SOL     OW23002   4.480   2.872   6.164  0.1608 -0.2348  0.3198
 3789SOL    HW123003   4.500   2.818   6.088  2.1326  1.4469 -0.3558
 3789SOL    HW223004   4.441   2.943   6.112  2.4011  1.5771  1.1184
 3790SOL     OW23005   1.444   4.337   6.567 -0.2212 -1.2168  0.4125
 3790SOL    HW123006   1.384   4.285   6.620 -0.0746 -0.9898  0.8024
 3790SOL    HW223007   1.382   4.406   6.541 -1.1528 -1.9115  0.7956
 3791SOL     OW23008   0.770   0.198   7.578 -0.1734 -0.0691 -0.1762
 3791SOL    HW123009   0.700   0.217   7.641 -0.5497 -1.5967 -0.1494
 3791SOL    HW223010   0.744   0.127   7.520  1.5837 -1.6489  0.9933
 3792SOL     OW23011   4.104   0.552   8.137 -0.5812 -0.0674  0.1948
 3792SOL    HW123012   4.116   0.543   8.042 -1.8648 -1.7354  0.2009
 3792SOL    HW223013   4.023   0.601   8.150 -1.1826 -1.0788  0.2492
 3793SOL     OW23014   3.830   0.515   1.170  0.6493 -0.4962  0.1590
 3793SOL    HW123015   3.752   0.473   1.206 -0.5363 -0.1560 -1.9944
 3793SOL    HW223016   3.788   0.580   1.113 -0.0730 -2.9870 -2.1531
 3794SOL     OW23017   0.945   1.249  16.667 -0.4902 -0.0187 -0.7056
 3794SOL    HW123018   0.992   1.332  16.671 -0.3960 -0.0500 -1.1418
 3794SOL    HW223019   0.879   1.249  16.737  0.1450 -4.2418 -0.1093
 3795SOL     OW23020   0.069   3.141  11.839 -0.3766 -0.5394 -0.6116
 3795SOL    HW123021   0.095   3.073  11.777  1.0386  0.3304 -0.9529
 3795SOL    HW223022   0.054   3.214  11.780  0.4336  0.1467  0.0254
 3796SOL     OW23023   2.523   0.761   7.535  0.2703  0.0774 -0.3603
 3796SOL    HW123024   2.466   0.685   7.520  1.1844 -0.4947 -0.8941
 3796SOL    HW223025   2.564   0.769   7.450  0.6923 -1.2953 -0.2893
 3797SOL     OW23026   0.837   4.057  10.735  0.1221 -0.2745 -0.0186
 3797SOL    HW123027   0.759   4.007  10.713 -0.1519  0.5186 -0.8557
 3797SOL    HW223028   0.903   4.005  10.689 -0.5802  1.0807 -2.5679
 3798SOL     OW23029   1.953   0.303   3.582  0.0145 -0.2205  0.4547
 3798SOL    HW123030   1.896   0.230   3.609 -0.8118 -0.2662 -1.4163
 3798SOL    HW223031   1.889   0.359   3.539 -0.5013  1.1540  2.9666
 3799SOL     OW23032   2.149   4.184   8.025 -0.0713  0.2225  0.1162
 3799SOL    HW123033   2.100   4.135   7.959  0.1951 -1.1820  0.9630
 3799SOL    HW223034   2.227   4.210   7.976 -1.2861 -1.5396 -2.7882
 3800SOL     OW23035   0.765   3.182   8.371  0.3276  0.0208 -0.2309
 3800SOL    HW123036   0.800   3.173   8.282  1.6038  2.0730  0.0743
 3800SOL    HW223037   0.843   3.204   8.421  0.0738 -1.9633  1.0645
 3801SOL     OW23038   3.891   0.204  12.201 -0.3555 -0.1598  0.5620
 3801SOL    HW123039   3.969   0.193  12.146  1.0781  0.6649  2.4139
 3801SOL    HW223040   3.932   0.181  12.285  0.5342 -0.1404  0.1326
 3802SOL     OW23041   1.084   4.346   2.404 -0.3169  0.0942 -0.8192
 3802SOL    HW123042   1.023   4.340   2.477 -2.0727  0.6247 -2.2648
 3802SOL    HW223043   1.115   4.256   2.415 -1.8788 -0.0767  1.8783
 3803SOL     OW23044   1.406   2.184   2.351  0.0984  0.1672 -0.4918
 3803SOL    HW123045   1.464   2.234   2.294 -0.7101  0.3571 -1.1479
 3803SOL    HW223046   1.328   2.175   2.296  0.8947  1.5357 -1.8408
 3804SOL     OW23047   4.345   3.602  12.354  0.2581  0.4308  0.3592
 3804SOL    HW123048   4.411   3.668  12.374 -0.0644  1.2422 -1.2581
 3804SOL    HW223049   4.273   3.635  12.407  0.2116 -0.3395  0.7746
 3805SOL     OW23050   3.918   1.192   3.135 -0.1853 -0.2850 -0.0018
 3805SOL    HW123051   3.973   1.270   3.136 -1.8267  0.8911 -0.6299
 3805SOL    HW223052   3.951   1.146   3.058 -0.0099  0.8009 -0.5824
 3806SOL     OW23053   1.460   2.872   5.676 -0.5566  0.0365  0.2235
 3806SOL    HW123054   1.397   2.917   5.731 -1.7556  0.3158 -1.3594
 3806SOL    HW223055   1.439   2.900   5.587 -0.1937  0.1879  0.1862
 3807SOL     OW23056   4.729   3.378   9.423 -0.2032  0.0702 -0.1205
 3807SOL    HW123057   0.082   3.356   9.420 -0.0929  0.4947  0.1836
 3807SOL    HW223058   4.722   3.411   9.513 -1.4269 -1.5856  0.3877
 3808SOL     OW23059   3.817   3.448   0.060 -0.0501  0.7740  0.0751
 3808SOL    HW123060   3.843   3.418   0.147 -0.0691  1.8825  0.4580
 3808SOL    HW223061   3.892   3.499   0.030 -0.4360  1.0806 -0.3679
 3809SOL     OW23062   3.915   1.450   6.772 -0.5128  0.2010 -0.2077
 3809SOL    HW123063   3.932   1.448   6.866 -0.7941  0.0021 -0.1623
 3809SOL    HW223064   3.869   1.534   6.764  0.8220  1.1303  1.8549
 3810SOL     OW23065   2.520   0.777   5.846  0.0493  0.1524  0.5692
 3810SOL    HW123066   2.598   0.816   5.886 -1.3447  1.1366  2.3297
 3810SOL    HW223067   2.531   0.800   5.754 -2.2012 -0.5769  0.1106
 3811SOL     OW23068   3.210   1.232  10.461 -0.0501 -0.1924 -0.3549
 3811SOL    HW123069   3.215   1.325  10.441 -1.3901 -0.1615 -0.5688
 3811SOL    HW223070   3.217   1.186  10.377  2.1136  0.3052 -0.4336
 3812SOL     OW23071   1.398   3.335   5.520 -0.0010  0.4819 -0.0740
 3812SOL    HW123072   1.335   3.407   5.513  1.9518  2.2740  0.7148
 3812SOL    HW223073   1.340   3.260   5.535 -0.4947  0.3532 -2.5430
 3813SOL     OW23074   4.532   2.472   7.906 -0.2077 -0.3155  0.0507
 3813SOL    HW123075   4.533   2.559   7.867 -0.1351 -0.1846  0.3467
 3813SOL    HW223076   4.608   2.480   7.963 -0.1868 -1.1209  0.1338
 3814SOL     OW23077   2.439   2.965   7.846  0.2855  0.1781  0.1580
 3814SOL    HW123078   2.448   3.038   7.908  2.5775  0.0270  0.0075
 3814SOL    HW223079   2.529   2.941   7.825 -0.7158 -1.0059 -2.7127
 3815SOL     OW23080   1.255   2.118   9.354  0.8129  0.0115 -0.6362
 3815SOL    HW123081   1.276   2.025   9.365 -0.6694 -0.2345  0.0671
 3815SOL    HW223082   1.249   2.128   9.260 -0.8497  1.9671 -0.3176
 3816SOL     OW23083   3.981   0.801   8.087  0.2340  0.1258 -0.0209
 3816SOL    HW123084   3.952   0.882   8.046  1.7606  0.2075 -0.9079
 3816SOL    HW223085   3.895   0.763   8.109 -1.7425  4.1470 -0.8219
 3817SOL     OW23086   4.242   3.005  17.169 -0.4715  0.4811 -0.1519
 3817SOL    HW123087   4.261   2.914  17.189  1.1055  1.0377  0.9515
 3817SOL    HW223088   4.148   3.021  17.171 -0.6229 -0.3813 -0.5819
 3818SOL     OW23089   3.492   2.903   7.818  0.1910 -0.3938  0.4898
 3818SOL    HW123090   3.453   2.929   7.734  1.5282  1.8284  0.5717
 3818SOL    HW223091   3.583   2.896   7.791 -0.1753 -0.0731 -0.8519
 3819SOL     OW23092   2.374   4.001   9.456  0.0481 -0.1262  0.0709
 3819SOL    HW123093   2.452   4.040   9.495  0.4330 -1.1824  0.3793
 3819SOL    HW223094   2.414   3.939   9.394  1.1475 -1.8324  2.4654
 3820SOL     OW23095   3.252   2.899  12.727 -0.3948  0.0002 -0.2519
 3820SOL    HW123096   3.163   2.900  12.762  0.0306 -1.1755  0.8591
 3820SOL    HW223097   3.231   2.884  12.635  1.8708 -1.4680 -0.5379
 3821SOL     OW23098   1.112   1.252   4.422  0.4678  0.4613  0.4071
 3821SOL    HW123099   1.166   1.274   4.346 -0.2633 -0.1172 -0.2716
 3821SOL    HW223100   1.150   1.165   4.432  1.5609  0.9376  0.4741
 3822SOL     OW23101   1.592   3.998  15.756  0.1436 -0.2450  0.4234
 3822SOL    HW123102   1.591   4.091  15.736  0.9988 -0.4944 -0.7596
 3822SOL    HW223103   1.683   3.968  15.759  1.0954  2.3821 -2.7555
 3823SOL     OW23104   1.486   0.061   3.156 -0.1797  0.0534  0.0453
 3823SOL    HW123105   1.520   0.135   3.105 -2.6633  1.1248 -0.0195
 3823SOL    HW223106   1.398   0.057   3.118  0.3576 -1.1308 -1.0811
 3824SOL     OW23107   1.740   1.240   7.031  0.6197  0.0981 -0.3295
 3824SOL    HW123108   1.658   1.223   6.984  0.3112  2.9285 -0.8089
 3824SOL    HW223109   1.796   1.247   6.954  4.2530 -2.9929  2.0090
 3825SOL     OW23110   3.250   3.383   8.529  0.1192 -0.7895  0.0890
 3825SOL    HW123111   3.189   3.346   8.593  1.2875 -1.7262  0.6661
 3825SOL    HW223112   3.313   3.311   8.533 -1.3930 -2.1417 -0.4399
 3826SOL     OW23113   2.630   3.464   0.405  0.2785  0.3820  0.5890
 3826SOL    HW123114   2.691   3.459   0.479  1.2900  1.3689 -0.1881
 3826SOL    HW223115   2.683   3.470   0.326  2.3887 -2.6392  1.7548
 3827SOL     OW23116   4.730   3.011   8.931 -0.0969 -0.1170  0.2847
 3827SOL    HW123117   0.052   3.058   8.987 -1.3214  0.1666  1.4253
 3827SOL    HW223118   4.714   2.943   8.997 -0.8416 -0.2178 -0.0014
 3828SOL     OW23119   0.770   3.463   2.686 -0.1658 -0.4412  0.2757
 3828SOL    HW123120   0.683   3.426   2.671  0.7288 -2.3690 -0.1444
 3828SOL    HW223121   0.819   3.396   2.637 -0.8817  0.4121 -1.6141
 3829SOL     OW23122   0.337   2.235   3.326 -0.1667 -0.2837  0.2724
 3829SOL    HW123123   0.362   2.144   3.314  1.2593 -0.0330  1.2268
 3829SOL    HW223124   0.320   2.263   3.236 -0.8282 -1.5609  0.0021
 3830SOL     OW23125   1.362   0.006  14.245  0.1672  0.4548  0.0216
 3830SOL    HW123126   1.395   4.657  14.233  1.1632  0.7845  0.3187
 3830SOL    HW223127   1.267   0.002  14.236 -0.0483  0.5215  2.3128
 3831SOL     OW23128   1.836   4.409  12.328 -0.3501 -0.1492  0.4800
 3831SOL    HW123129   1.836   4.384  12.235 -1.4990  2.0817 -0.1270
 3831SOL    HW223130   1.787   4.491  12.322 -1.0089 -0.4268  1.9677
 3832SOL     OW23131   4.376   4.094   8.941 -0.6216 -0.2278  0.1824
 3832SOL    HW123132   4.377   4.176   8.989  1.3281  0.2152 -0.6263
 3832SOL    HW223133   4.291   4.093   8.896 -1.0972  0.9351  1.0728
 3833SOL     OW23134   0.094   3.671   2.530  0.0742  0.1995 -0.0893
 3833SOL    HW123135   0.183   3.679   2.565 -1.0788 -0.7245  3.0338
 3833SOL    HW223136   0.115   3.651   2.439  1.1944 -1.8652  0.6063
 3834SOL     OW23137   0.257   0.775   3.832  0.4862  1.0835 -0.2403
 3834SOL    HW123138   0.189   0.726   3.785  0.6786  0.9354 -0.3633
 3834SOL    HW223139   0.336   0.721   3.824  0.9756  1.8024 -0.1840
 3835SOL     OW23140   1.511   3.345   2.585 -0.3199 -0.5753  0.8890
 3835SOL    HW123141   1.478   3.261   2.619  0.5941 -2.4589 -2.9105
 3835SOL    HW223142   1.441   3.410   2.596 -0.1106 -0.2897  0.5367
 3836SOL     OW23143   3.700   2.349  15.041  0.6968  0.5126  0.1328
 3836SOL    HW123144   3.665   2.413  15.102 -1.0347  0.1015 -0.4506
 3836SOL    HW223145   3.707   2.271  15.097 -2.4176 -1.0590 -1.7263
 3837SOL     OW23146   2.306   2.824   6.087 -0.2336 -0.0598  0.3202
 3837SOL    HW123147   2.308   2.850   5.995  2.4941  0.9003  0.6718
 3837SOL    HW223148   2.254   2.893   6.129  2.4961  1.8155  0.5591
 3838SOL     OW23149   0.394   3.437   7.738 -0.2552 -0.1807  0.0784
 3838SOL    HW123150   0.464   3.392   7.691 -0.3446  0.4844 -0.6976
 3838SOL    HW223151   0.378   3.515   7.684  0.0710 -0.3465 -0.2606
 3839SOL     OW23152   2.898   0.822   4.676  0.8006  0.2967 -0.5893
 3839SOL    HW123153   2.824   0.850   4.622 -0.2929 -0.5640  0.4695
 3839SOL    HW223154   2.892   0.726   4.672  0.1685  0.4385 -2.8735
 3840SOL     OW23155   3.388   3.533   5.991  0.2207  0.1536 -0.4339
 3840SOL    HW123156   3.300   3.518   5.958 -0.0431 -1.1424  0.8177
 3840SOL    HW223157   3.426   3.612   5.953 -0.4441  1.0146  0.6985
 3841SOL     OW23158   4.543   0.738   7.133  0.4450  0.0206  0.6728
 3841SOL    HW123159   4.509   0.686   7.060 -0.8896  1.1408  0.4851
 3841SOL    HW223160   4.573   0.815   7.086 -5.1981  2.3087  0.8215
 3842SOL     OW23161   0.681   3.339   6.810  0.5614 -0.2561 -0.3391
 3842SOL    HW123162   0.754   3.359   6.752 -1.3211  0.9011 -2.2983
 3842SOL    HW223163   0.609   3.388   6.770 -0.3554  0.6219  2.4178
 3843SOL     OW23164   3.409   1.478   4.845 -0.0957 -0.0908 -0.2156
 3843SOL    HW123165   3.396   1.572   4.849  1.9845  0.2813 -2.1834
 3843SOL    HW223166   3.413   1.465   4.750 -0.6141  0.7794 -0.3547
 3844SOL     OW23167   0.038   1.577   1.311 -0.1114 -0.1007  0.2975
 3844SOL    HW123168   0.005   1.533   1.389  1.0992  0.8329  1.3446
 3844SOL    HW223169   0.015   1.669   1.326  3.1012  0.7576 -0.1598
 3845SOL     OW23170   0.930   0.843   9.555  0.3624 -0.0939 -0.1377
 3845SOL    HW123171   0.907   0.841   9.463  0.1719  0.2295 -0.0959
 3845SOL    HW223172   1.012   0.794   9.549  1.1219  1.2564 -0.8663
 3846SOL     OW23173   2.565   2.389   7.046 -0.2538 -0.1156  0.3407
 3846SOL    HW123174   2.472   2.390   7.024  0.2934 -2.1547 -2.0185
 3846SOL    HW223175   2.590   2.303   7.012 -3.6441 -0.1796 -1.9730
 3847SOL     OW23176   0.783   2.603   5.366 -0.4410 -0.1519 -0.0631
 3847SOL    HW123177   0.708   2.607   5.426 -0.5857 -1.8202 -0.1320
 3847SOL    HW223178   0.768   2.676   5.306 -1.4252 -1.0415 -0.8888
 3848SOL     OW23179   1.472   0.374  12.298 -0.2453 -0.0810 -0.5162
 3848SOL    HW123180   1.448   0.361  12.389  1.5998 -0.0868 -0.0286
 3848SOL    HW223181   1.448   0.462  12.268 -1.1105 -0.4573 -0.9284
 3849SOL     OW23182   1.702   2.920   2.190 -0.0579  0.2373  0.4090
 3849SOL    HW123183   1.794   2.946   2.179 -0.1466  0.1498 -0.4895
 3849SOL    HW223184   1.654   2.994   2.227 -2.9289 -1.4209  0.0369
 3850SOL     OW23185   2.900   1.395   4.948  0.0143  0.3633 -0.4360
 3850SOL    HW123186   2.848   1.411   4.869 -0.8663  0.3304  0.1368
 3850SOL    HW223187   2.938   1.480   4.969 -1.8114  0.9978  0.3114
 3851SOL     OW23188   4.147   3.343   4.525  0.0660 -0.0919 -0.1719
 3851SOL    HW123189   4.115   3.392   4.601 -0.5529 -0.7008 -0.0481
 3851SOL    HW223190   4.106   3.388   4.451  3.1116  1.7332 -0.7577
 3852SOL     OW23191   4.407   3.583   7.828  0.4569 -0.0183 -0.0649
 3852SOL    HW123192   4.405   3.561   7.921 -1.9461  1.3720  0.1954
 3852SOL    HW223193   4.399   3.495   7.793 -2.0926  1.5921 -3.4864
 3853SOL     OW23194   4.653   0.401   7.019 -0.1579  0.3394 -0.0052
 3853SOL    HW123195   4.622   0.311   7.011 -0.0207  0.2161  0.8695
 3853SOL    HW223196   4.595   0.450   6.961 -0.0599  0.9822  0.4374
 3854SOL     OW23197   3.609   4.719   4.211  0.3246  0.0568 -0.2379
 3854SOL    HW123198   3.616   0.031   4.292  1.1514  0.6123 -0.6670
 3854SOL    HW223199   3.617   4.633   4.252  1.2860 -0.1106 -0.7737
 3855SOL     OW23200   0.962   1.690   3.615  0.1327 -0.5173 -0.0751
 3855SOL    HW123201   0.952   1.619   3.552 -1.4996 -0.9557  0.6815
 3855SOL    HW223202   1.015   1.650   3.684 -2.9514 -1.2256  1.8818
 3856SOL     OW23203   4.580   0.806  15.240 -0.3223 -0.1552  0.5308
 3856SOL    HW123204   4.502   0.852  15.271  1.1982  0.7004  3.0613
 3856SOL    HW223205   4.549   0.726  15.199  0.3414 -0.5548  0.8170
 3857SOL     OW23206   2.606   1.364   6.361  0.5689 -0.5395  0.2656
 3857SOL    HW123207   2.700   1.356   6.346  0.3843  0.5414 -1.5039
 3857SOL    HW223208   2.583   1.420   6.287 -0.7146  0.3189  1.3154
 3858SOL     OW23209   4.697   2.489   2.390  0.0491  0.5303 -0.1477
 3858SOL    HW123210   0.015   2.457   2.320 -0.3055  1.1692 -0.7362
 3858SOL    HW223211   4.637   2.416   2.403  0.8633 -0.2553 -0.7267
 3859SOL     OW23212   2.201   0.811   7.183  0.3300 -0.2741 -0.4564
 3859SOL    HW123213   2.118   0.809   7.136  0.0334  0.9031 -0.0013
 3859SOL    HW223214   2.196   0.885   7.244 -1.5809  0.1229 -1.1049
 3860SOL     OW23215   1.000   2.000  15.539 -0.0231  0.1658  0.4125
 3860SOL    HW123216   0.913   2.038  15.542  0.3569  1.0192  0.6857
 3860SOL    HW223217   1.046   2.038  15.464  0.3943 -2.1214 -0.5081
 3861SOL     OW23218   0.787   3.602   5.617 -0.2956 -0.2127 -0.1533
 3861SOL    HW123219   0.772   3.669   5.551 -1.3494 -0.2984  0.0045
 3861SOL    HW223220   0.708   3.548   5.622  0.4252 -1.4181 -1.9061
 3862SOL     OW23221   3.312   0.919   7.793  0.6087  0.3097  0.5655
 3862SOL    HW123222   3.264   1.001   7.806  0.0496 -0.0957  1.0233
 3862SOL    HW223223   3.244   0.853   7.807 -1.7249  2.6785  0.4142
 3863SOL     OW23224   2.079   1.211   9.225  0.3821 -0.0909  0.1603
 3863SOL    HW123225   2.141   1.213   9.298 -0.2709  1.6025  0.6725
 3863SOL    HW223226   2.083   1.303   9.200 -0.5814 -0.5028 -1.5223
 3864SOL     OW23227   1.830   3.924   4.253  0.2017 -0.3014 -0.6833
 3864SOL    HW123228   1.868   3.988   4.192 -0.9462 -0.9189 -2.0309
 3864SOL    HW223229   1.906   3.866   4.255  1.1185  0.8555 -1.9404
 3865SOL     OW23230   2.022   4.495   1.625 -0.3510  0.1871  0.2320
 3865SOL    HW123231   2.003   4.474   1.717 -1.0623 -1.0532 -0.1972
 3865SOL    HW223232   1.997   4.416   1.577 -0.0027  0.4225 -0.3346
 3866SOL     OW23233   0.452   3.299   5.599  0.1459  0.1922  0.2955
 3866SOL    HW123234   0.357   3.302   5.586  0.6630 -0.2477 -3.4845
 3866SOL    HW223235   0.468   3.392   5.582  0.7352  0.3306  1.6002
 3867SOL     OW23236   4.585   0.073  17.599  0.1336  0.1222  0.7642
 3867SOL    HW123237   4.511   0.018  17.573  2.0998 -1.9628 -0.4067
 3867SOL    HW223238   4.669   0.032  17.578 -0.7146 -1.7615  1.0362
 3868SOL     OW23239   2.728   2.171  14.687 -0.4972  0.8962 -0.3539
 3868SOL    HW123240   2.804   2.215  14.648 -0.2299  1.2324  0.5349
 3868SOL    HW223241   2.770   2.093  14.725 -0.2540  1.1059 -0.1910
 3869SOL     OW23242   3.510   0.252   3.899  0.0025 -0.7854 -0.4900
 3869SOL    HW123243   3.567   0.208   3.836  0.6266 -2.2776  1.1169
 3869SOL    HW223244   3.438   0.278   3.842 -1.1717 -1.9356  0.4604
 3870SOL     OW23245   0.092   0.586   5.263  0.1737  0.7415  0.3343
 3870SOL    HW123246   0.172   0.585   5.317 -1.0312  1.1947  2.1155
 3870SOL    HW223247   0.130   0.583   5.175  1.9025  3.2113  1.0031
 3871SOL     OW23248   1.090   3.806   5.225 -0.1339  0.2730 -0.1217
 3871SOL    HW123249   1.123   3.762   5.147 -1.1070 -1.7700  0.6241
 3871SOL    HW223250   1.148   3.881   5.238 -0.0719  0.0480  0.9541
 3872SOL     OW23251   0.621   2.135   4.534  0.9009 -0.7240  0.4366
 3872SOL    HW123252   0.549   2.081   4.503  0.4207  0.2726 -0.1798
 3872SOL    HW223253   0.684   2.064   4.549 -0.7470 -2.1665  0.4475
 3873SOL     OW23254   1.413   0.713   0.377 -0.0725 -0.1591  0.1641
 3873SOL    HW123255   1.506   0.692   0.366 -0.6734 -2.1439 -1.1207
 3873SOL    HW223256   1.384   0.659   0.450 -1.2002 -2.0918 -1.7198
 3874SOL     OW23257   0.139   1.178   9.719  0.1988 -0.2820 -0.2068
 3874SOL    HW123258   0.125   1.198   9.626 -2.1138 -0.3082  0.1411
 3874SOL    HW223259   0.073   1.110   9.732  1.5568 -1.7894 -1.2952
 3875SOL     OW23260   2.163   0.429   1.608  0.9669 -0.0944 -0.4078
 3875SOL    HW123261   2.156   0.418   1.703  1.6634 -0.5712 -0.4121
 3875SOL    HW223262   2.079   0.390   1.583  1.7368 -2.4241  0.6612
 3876SOL     OW23263   3.354   3.569   4.401 -0.2881  0.1171  0.1304
 3876SOL    HW123264   3.317   3.482   4.419  0.0984 -0.0364  0.1882
 3876SOL    HW223265   3.391   3.550   4.314 -0.9135 -0.3117 -0.0413
 3877SOL     OW23266   2.298   1.800   8.560  0.8344 -0.1958 -0.0212
 3877SOL    HW123267   2.304   1.893   8.537  1.0969 -0.3910 -0.7277
 3877SOL    HW223268   2.381   1.769   8.524  0.4340  1.2640 -2.1755
 3878SOL     OW23269   0.221   2.316  13.957  0.3485  0.4780  0.5353
 3878SOL    HW123270   0.141   2.307  14.008  1.6332 -0.7721  2.3241
 3878SOL    HW223271   0.202   2.401  13.917  2.0591  0.9873  0.8079
 3879SOL     OW23272   2.036   1.812   3.316  0.6966 -0.5691 -0.2426
 3879SOL    HW123273   2.051   1.853   3.401 -0.6077 -3.7700  1.5313
 3879SOL    HW223274   1.943   1.829   3.299  0.1773 -1.1698  2.0758
 3880SOL     OW23275   3.761   3.016  12.722  0.7007  0.0129  0.4978
 3880SOL    HW123276   3.758   2.921  12.731  0.3917 -0.0435 -0.1987
 3880SOL    HW223277   3.720   3.013  12.635  3.6497  3.3672 -1.0341
 3881SOL     OW23278   2.362   4.554   3.716  0.2254 -0.3258  0.1091
 3881SOL    HW123279   2.407   4.531   3.798  2.0639 -1.4579 -1.2260
 3881SOL    HW223280   2.288   4.494   3.728 -1.3135  1.0000 -2.7594
 3882SOL     OW23281   2.761   2.428   6.779  0.0470 -0.8724 -0.2427
 3882SOL    HW123282   2.806   2.419   6.863  0.6349  1.1821 -0.3341
 3882SOL    HW223283   2.761   2.335   6.755 -0.2617 -0.5110 -1.6495
 3883SOL     OW23284   4.429   1.104   3.776 -0.0400  0.3193 -0.1045
 3883SOL    HW123285   4.394   1.157   3.703 -0.0688  2.3461  1.3655
 3883SOL    HW223286   4.388   1.021   3.753 -1.2937  0.8376  0.2217
 3884SOL     OW23287   3.838   0.005   1.857 -0.0285 -0.4871 -0.4273
 3884SOL    HW123288   3.858   0.077   1.918  0.6236 -0.0111 -1.2000
 3884SOL    HW223289   3.926   4.731   1.823 -0.4247 -0.2165 -1.5453
 3885SOL     OW23290   1.382   1.003   2.095 -0.0242 -0.1952  0.2177
 3885SOL    HW123291   1.351   1.044   2.176 -0.5179  0.3309 -0.2350
 3885SOL    HW223292   1.299   1.002   2.047 -0.7287 -2.0018  1.4591
 3886SOL     OW23293   3.051   4.406   3.443  0.0597 -0.4899 -0.0921
 3886SOL    HW123294   2.999   4.452   3.509 -0.4019 -0.9206 -0.1544
 3886SOL    HW223295   3.023   4.452   3.364 -1.6725 -1.6813 -0.1584
 3887SOL     OW23296   0.377   1.116   2.394 -0.2030 -0.4532 -0.1375
 3887SOL    HW123297   0.372   1.210   2.413 -2.0113 -0.2106 -1.8777
 3887SOL    HW223298   0.289   1.084   2.412  0.3323 -1.4829  0.6816
 3888SOL     OW23299   3.094   2.221   8.306 -0.2875 -0.5074 -0.0291
 3888SOL    HW123300   3.116   2.268   8.226 -0.2033  2.5334  1.7715
 3888SOL    HW223301   3.155   2.254   8.372 -0.0910  0.1943 -0.5629
 3889SOL     OW23302   1.247   3.516   2.606 -0.0218 -0.4626 -0.9941
 3889SOL    HW123303   1.220   3.455   2.674 -1.0220  0.6330 -0.4038
 3889SOL    HW223304   1.315   3.568   2.649  0.2549 -1.8674  0.2736
 3890SOL     OW23305   0.360   1.408   6.679  0.2148  0.3530  0.1448
 3890SOL    HW123306   0.333   1.497   6.701 -1.5036 -0.1179 -0.0386
 3890SOL    HW223307   0.428   1.412   6.612  0.5553  0.8042  0.5136
 3891SOL     OW23308   2.870   1.414  10.067 -0.4270  0.1390  0.7985
 3891SOL    HW123309   2.848   1.363  10.145 -2.4020  0.7086  0.6198
 3891SOL    HW223310   2.790   1.463  10.045 -1.8039 -1.8218  1.4321
 3892SOL     OW23311   2.371   0.602   3.821 -0.1332  0.2350 -0.3735
 3892SOL    HW123312   2.342   0.512   3.805  2.1328 -0.4067 -0.7997
 3892SOL    HW223313   2.368   0.605   3.917  3.7876  1.3780 -0.3122
 3893SOL     OW23314   2.534   1.639   5.689  0.2852  0.0081  0.3843
 3893SOL    HW123315   2.608   1.579   5.679  0.7254  0.9309 -1.8976
 3893SOL    HW223316   2.495   1.612   5.772  0.6679  1.5684  1.0712
 3894SOL     OW23317   1.782   0.356   1.885 -0.7087  0.0862 -0.1234
 3894SOL    HW123318   1.784   0.405   1.967 -1.8462  2.0399 -1.2810
 3894SOL    HW223319   1.856   0.391   1.835 -0.7250  0.3443  0.0328
 3895SOL     OW23320   4.730   0.178   2.146  0.4192 -0.9167  0.1608
 3895SOL    HW123321   0.000   0.268   2.114 -1.5494 -1.1031 -1.0309
 3895SOL    HW223322   0.080   0.153   2.165  0.7981  1.6312  1.6880
 3896SOL     OW23323   1.657   4.432   5.343  0.3792 -0.5356  0.4896
 3896SOL    HW123324   1.655   4.343   5.309  2.6632 -1.0433  1.7078
 3896SOL    HW223325   1.750   4.450   5.335  0.3791 -0.0397  1.5726
 3897SOL     OW23326   1.748   4.367   8.325 -0.1689 -0.0210 -0.8481
 3897SOL    HW123327   1.780   4.409   8.245 -0.7951 -0.6959 -1.4444
 3897SOL    HW223328   1.654   4.357   8.313 -0.0834  1.3169 -2.6239
 3898SOL     OW23329   0.332   4.081  15.355 -0.1750  0.8703 -0.3526
 3898SOL    HW123330   0.257   4.092  15.414  0.6211 -0.3350  0.8553
 3898SOL    HW223331   0.401   4.066  15.420 -2.1887 -2.0434  1.1293
 3899SOL     OW23332   0.941   1.327   7.118 -0.4047 -0.3346 -0.4871
 3899SOL    HW123333   0.994   1.367   7.187 -0.6524  0.2639 -0.6389
 3899SOL    HW223334   1.007   1.272   7.077  1.0822  0.9702  0.1543
 3900SOL     OW23335   2.784   0.799  11.354 -0.1710  0.1661  0.2924
 3900SOL    HW123336   2.878   0.796  11.372 -0.5209 -0.8483  1.8999
 3900SOL    HW223337   2.765   0.719  11.403 -2.1410  1.0801  0.9891
 3901SOL     OW23338   0.961   0.622   7.717 -0.0175  0.0587  0.8338
 3901SOL    HW123339   1.043   0.667   7.736 -1.4727  3.6664 -1.4667
 3901SOL    HW223340   0.936   0.663   7.634 -0.6033  0.2604  1.1109
 3902SOL     OW23341   1.459   0.359   6.298 -0.4481  0.1748  0.7963
 3902SOL    HW123342   1.419   0.445   6.288 -0.3785  0.2210  0.9180
 3902SOL    HW223343   1.413   0.309   6.231 -0.8733  4.1628 -1.8504
 3903SOL     OW23344   2.703   4.247  13.106  0.4815  0.2347 -0.1864
 3903SOL    HW123345   2.656   4.186  13.050 -2.4388  2.0352  0.2792
 3903SOL    HW223346   2.785   4.254  13.058  0.3584 -1.6317 -0.6528
 3904SOL     OW23347   3.453   4.364   2.144  0.2037 -0.2668 -0.5529
 3904SOL    HW123348   3.421   4.454   2.155 -0.1931 -0.3880 -0.7093
 3904SOL    HW223349   3.384   4.318   2.095  0.5094 -0.7237 -0.5524
 3905SOL     OW23350   3.130   4.342   3.129 -0.1441 -0.2252 -0.0534
 3905SOL    HW123351   3.094   4.422   3.167  1.4863 -0.8578  2.7961
 3905SOL    HW223352   3.117   4.362   3.037  0.1801  3.2559  0.6738
 3906SOL     OW23353   4.652   2.983  10.547 -0.3482  0.0877  0.0279
 3906SOL    HW123354   4.600   3.018  10.475 -1.2414 -0.6345  0.3355
 3906SOL    HW223355   4.693   2.907  10.505  1.9811  0.2873  1.9554
 3907SOL     OW23356   0.741   3.957  17.591  0.2609  0.2644 -0.2278
 3907SOL    HW123357   0.830   3.977  17.562  0.8793 -0.5161  1.1165
 3907SOL    HW223358   0.711   4.039  17.631  2.4023  0.7245  0.4154
 3908SOL     OW23359   3.325   4.036   8.205  0.5124  0.4852 -0.5217
 3908SOL    HW123360   3.329   3.988   8.123 -1.3336  3.0611 -2.1284
 3908SOL    HW223361   3.234   4.050   8.233  0.4398 -0.6346 -0.2161
 3909SOL     OW23362   3.705   3.769  12.052  0.2795  0.0714  0.5804
 3909SOL    HW123363   3.708   3.831  12.126  0.1089 -1.4377  1.8420
 3909SOL    HW223364   3.725   3.693  12.106 -2.0277 -1.2771 -0.4510
 3910SOL     OW23365   4.548   4.143   3.433  0.5515  0.4179  0.1602
 3910SOL    HW123366   4.525   4.122   3.524 -0.3695  0.8336  0.0272
 3910SOL    HW223367   4.516   4.063   3.390  0.4094  0.6745 -0.2103
 3911SOL     OW23368   0.369   1.384   8.355 -0.0106  0.2360  0.3839
 3911SOL    HW123369   0.290   1.369   8.303  0.4055 -1.5498  0.2819
 3911SOL    HW223370   0.422   1.306   8.342  1.6031  1.5237 -0.7169
 3912SOL     OW23371   3.099   0.483   2.854 -0.2916  0.5562  0.2769
 3912SOL    HW123372   3.085   0.464   2.947 -0.2415  1.6492  0.5127
 3912SOL    HW223373   3.194   0.481   2.845 -0.4107 -1.1112 -0.4695
 3913SOL     OW23374   3.982   0.081   2.820 -0.0846 -0.1502  0.0835
 3913SOL    HW123375   3.931   0.057   2.898  2.0357 -0.8129  1.2635
 3913SOL    HW223376   3.962   0.008   2.762 -0.4482 -0.1769  0.2418
 3914SOL     OW23377   1.477   0.935   4.147 -0.2908 -0.4750 -0.4388
 3914SOL    HW123378   1.555   0.921   4.093 -0.9083  3.1324 -2.2625
 3914SOL    HW223379   1.482   0.865   4.212 -1.6566  0.6733  0.8979
 3915SOL     OW23380   1.502   1.421   1.294  0.1250  0.2262  0.0048
 3915SOL    HW123381   1.429   1.360   1.285 -1.6528  1.9596  2.7823
 3915SOL    HW223382   1.585   1.376   1.276  0.0978  1.3685 -2.9684
 3916SOL     OW23383   4.533   3.193   8.138  0.2300  0.7311 -0.0698
 3916SOL    HW123384   4.542   3.137   8.215  0.4436  1.0821  0.1596
 3916SOL    HW223385   4.626   3.212   8.129  0.7429 -2.4616 -1.7128
 3917SOL     OW23386   1.754   2.169   7.609 -0.3055 -0.2300 -0.4307
 3917SOL    HW123387   1.845   2.167   7.580 -0.3554  1.7697 -0.7119
 3917SOL    HW223388   1.713   2.134   7.529  1.5294 -0.2426 -1.3559
 3918SOL     OW23389   2.182   4.538  15.363  0.0387 -0.6583 -0.5274
 3918SOL    HW123390   2.139   4.618  15.393  0.9635 -0.7665  1.1167
 3918SOL    HW223391   2.152   4.463  15.414 -1.1739  0.0851 -0.1468
 3919SOL     OW23392   3.287   3.918   6.671  0.0727  0.3991  0.5445
 3919SOL    HW123393   3.338   3.862   6.729 -0.0710  0.1895  0.4684
 3919SOL    HW223394   3.209   3.867   6.649  0.3227  0.0560  0.4755
 3920SOL     OW23395   0.841   1.174   5.991  0.8246 -0.5514  0.0985
 3920SOL    HW123396   0.865   1.089   5.956  2.0847 -0.2497  0.2296
 3920SOL    HW223397   0.855   1.171   6.086 -1.5712 -0.7030  0.4637
 3921SOL     OW23398   1.423   0.973   4.976  0.1928  0.2646  0.2278
 3921SOL    HW123399   1.519   0.974   4.969  0.0688 -0.2371 -1.6845
 3921SOL    HW223400   1.403   1.066   4.987  3.4132  0.9294  0.6541
 3922SOL     OW23401   0.989   4.060   9.267  0.0225 -0.1469  0.2409
 3922SOL    HW123402   1.056   4.127   9.251 -1.4889  1.4378  0.5492
 3922SOL    HW223403   0.935   4.075   9.189 -0.3911 -0.4849  0.4653
 3923SOL     OW23404   2.206   4.207   5.710  0.3290 -0.8160 -0.6213
 3923SOL    HW123405   2.166   4.294   5.710 -0.2208 -1.0776  1.6532
 3923SOL    HW223406   2.259   4.218   5.789 -1.1426 -2.0684  0.5368
 3924SOL     OW23407   2.941   0.655   5.825  0.0809  0.1927 -0.8004
 3924SOL    HW123408   2.924   0.656   5.731 -1.0115  0.2344 -0.6070
 3924SOL    HW223409   2.889   0.727   5.862  1.0851  0.7808 -0.5468
 3925SOL     OW23410   3.595   3.708  12.363  0.3540 -0.3179 -0.2760
 3925SOL    HW123411   3.655   3.783  12.359  1.4318 -1.2892 -2.1743
 3925SOL    HW223412   3.538   3.719  12.287 -2.6920 -0.4744  1.9922
 3926SOL     OW23413   4.186   1.579   8.725 -0.0067  0.0975  0.3440
 3926SOL    HW123414   4.257   1.516   8.734 -1.5963 -1.5798  1.1578
 3926SOL    HW223415   4.230   1.639   8.665  2.6464 -1.3076  0.8714
 3927SOL     OW23416   4.359   0.598  13.662 -0.6117  0.4283 -0.2309
 3927SOL    HW123417   4.320   0.528  13.609  0.2839 -1.3343  1.4331
 3927SOL    HW223418   4.445   0.557  13.671 -0.3897  0.9542  0.0260
 3928SOL     OW23419   3.899   1.556  15.419  0.2454  0.2597  0.1960
 3928SOL    HW123420   3.954   1.533  15.494  2.1821 -0.2480 -1.3782
 3928SOL    HW223421   3.954   1.630  15.394 -1.6104  0.9268 -1.8079
 3929SOL     OW23422   3.398   0.416   6.071 -0.4010 -0.0987 -0.4167
 3929SOL    HW123423   3.364   0.467   6.144 -0.2669  0.7656 -0.9671
 3929SOL    HW223424   3.424   0.486   6.012 -1.0452  0.7698  0.3425
 3930SOL     OW23425   1.354   0.157   5.743  0.1207 -0.0755  0.0326
 3930SOL    HW123426   1.446   0.181   5.756  0.0622 -0.6255  1.5165
 3930SOL    HW223427   1.337   0.138   5.835 -0.1990 -0.6322 -0.1426
 3931SOL     OW23428   0.165   4.406   5.131  0.1724 -0.2553 -0.5120
 3931SOL    HW123429   0.133   4.496   5.122 -1.2788 -0.5065  2.0533
 3931SOL    HW223430   0.112   4.365   5.064 -0.7065  0.5473 -0.3057
 3932SOL     OW23431   0.977   2.273  15.801  0.0303  0.2843 -0.4594
 3932SOL    HW123432   0.916   2.247  15.870  1.1469 -0.2706  0.3279
 3932SOL    HW223433   0.921   2.322  15.740  1.9728  2.6070 -0.3569
 3933SOL     OW23434   1.852   2.000   8.729 -0.0325  0.4798 -0.6030
 3933SOL    HW123435   1.825   2.071   8.671 -3.4389 -1.0296 -0.8508
 3933SOL    HW223436   1.847   1.929   8.664 -0.6642 -0.4199  0.4190
 3934SOL     OW23437   4.580   3.320   1.324 -0.4135  0.1987  0.1330
 3934SOL    HW123438   4.567   3.295   1.232  0.9723 -2.9745  0.7965
 3934SOL    HW223439   4.653   3.262   1.347  0.0304  0.0170 -1.7354
 3935SOL     OW23440   3.450   4.058   8.587 -0.0692  0.3514 -0.6218
 3935SOL    HW123441   3.364   4.021   8.608  1.0652 -1.7220  0.3016
 3935SOL    HW223442   3.415   4.143   8.559  1.1229  0.4536 -1.8245
 3936SOL     OW23443   0.704   0.302   4.896 -0.0640  0.0791 -0.1863
 3936SOL    HW123444   0.701   0.398   4.902 -1.4573 -0.0234  0.6992
 3936SOL    HW223445   0.757   0.291   4.817  1.3815 -0.2044  0.8221
 3937SOL     OW23446   2.126   0.897  15.831 -0.4043 -0.0896  0.0272
 3937SOL    HW123447   2.206   0.933  15.870  0.1985 -1.2339 -0.1381
 3937SOL    HW223448   2.063   0.904  15.903  1.4528  0.6411  1.5940
 3938SOL     OW23449   2.996   3.550  17.747 -0.3773  0.5178 -0.0985
 3938SOL    HW123450   2.955   3.608  17.683  0.2838  1.0988  0.0051
 3938SOL    HW223451   3.009   3.479  17.685 -2.4754 -0.1863  0.2780
 3939SOL     OW23452   3.491   4.303   3.005  0.4699 -0.1608 -0.3332
 3939SOL    HW123453   3.470   4.244   3.077  1.3322 -2.0764 -1.6735
 3939SOL    HW223454   3.453   4.259   2.930 -0.6864 -0.8683  0.6811
 3940SOL     OW23455   2.474   3.855   6.412  0.6167  0.4240  0.6660
 3940SOL    HW123456   2.503   3.764   6.423  0.4186  0.1298 -1.2757
 3940SOL    HW223457   2.490   3.879   6.504 -0.0560 -0.9203  1.1428
 3941SOL     OW23458   0.671   4.096   6.535 -0.4322 -0.9574  0.4114
 3941SOL    HW123459   0.590   4.100   6.483  1.7337  0.6680 -2.8501
 3941SOL    HW223460   0.688   4.003   6.520  1.8843 -0.6838  1.3107
 3942SOL     OW23461   4.690   1.170  15.211  0.0371  0.2749  0.0021
 3942SOL    HW123462   4.686   1.249  15.158  0.6863 -0.7940 -1.6663
 3942SOL    HW223463   4.665   1.104  15.146 -2.3287  0.8928  0.2579
 3943SOL     OW23464   4.105   0.404   2.197 -0.2756  0.1740 -0.0695
 3943SOL    HW123465   4.085   0.405   2.104  0.5129  0.3470 -0.2410
 3943SOL    HW223466   4.151   0.321   2.208 -0.1811  0.2727  0.3096
 3944SOL     OW23467   2.272   1.601   2.181 -0.4729 -0.1936  0.1547
 3944SOL    HW123468   2.254   1.562   2.095  0.6211 -2.0253  0.7516
 3944SOL    HW223469   2.347   1.554   2.219  0.0464  0.7126  0.2487
 3945SOL     OW23470   0.446   2.015   8.772  0.0954 -0.1579  0.4537
 3945SOL    HW123471   0.416   2.072   8.844  0.2095 -1.7438  1.7609
 3945SOL    HW223472   0.484   2.078   8.711  2.1514 -2.2266 -0.3836
 3946SOL     OW23473   0.538   3.931   8.765 -0.1771 -0.1765  0.1230
 3946SOL    HW123474   0.449   3.906   8.789  0.6684 -1.5034  1.8765
 3946SOL    HW223475   0.586   3.875   8.826 -0.7447 -0.4353  0.3289
 3947SOL     OW23476   0.404   1.773   8.618 -0.1731  0.4825 -0.3771
 3947SOL    HW123477   0.411   1.852   8.672  0.9029 -0.2074  0.4830
 3947SOL    HW223478   0.484   1.784   8.567 -0.6362 -0.8176 -1.3564
 3948SOL     OW23479   1.016   4.502   3.636  0.1846  0.1401 -0.0025
 3948SOL    HW123480   1.108   4.520   3.618 -0.3580 -0.0397 -2.9441
 3948SOL    HW223481   0.985   4.420   3.597 -1.3046  0.3915  0.6482
 3949SOL     OW23482   3.453   3.550   3.722 -0.3691  0.3012  0.1571
 3949SOL    HW123483   3.478   3.467   3.764  0.6872  0.6196  0.1513
 3949SOL    HW223484   3.359   3.547   3.735  0.0771 -0.6370  3.1782
 3950SOL     OW23485   0.809   1.625   7.267  0.2703  0.2403  0.0454
 3950SOL    HW123486   0.741   1.581   7.318 -0.9126  1.8168 -0.1729
 3950SOL    HW223487   0.867   1.659   7.335 -0.2542  0.0641  0.5807
 3951SOL     OW23488   2.804   0.349   9.740  0.3570  0.0523  0.2757
 3951SOL    HW123489   2.790   0.434   9.697  1.9237  0.0319 -0.2820
 3951SOL    HW223490   2.795   0.294   9.662  3.0716  0.6341 -0.4480
 3952SOL     OW23491   3.957   1.007   1.742  0.0583  0.4829 -0.5100
 3952SOL    HW123492   3.972   0.998   1.836 -0.2525 -1.7587 -0.6738
 3952SOL    HW223493   4.044   0.983   1.712  0.1216  0.3253 -0.1979
 3953SOL     OW23494   4.421   1.856   5.153  0.2011 -0.0694 -0.0799
 3953SOL    HW123495   4.420   1.881   5.060 -2.3686  1.0098  0.2447
 3953SOL    HW223496   4.429   1.761   5.139  1.3725  0.1678 -1.0723
 3954SOL     OW23497   4.070   2.273   2.522 -0.2118  0.0333 -0.1559
 3954SOL    HW123498   3.994   2.224   2.490  0.2982 -1.6469  1.1812
 3954SOL    HW223499   4.057   2.363   2.495  1.2497  0.1115 -0.5787
 3955SOL     OW23500   0.911   4.488  10.119 -0.3760 -0.6146  0.4370
 3955SOL    HW123501   0.881   4.511  10.208 -0.3529 -2.5498  0.9416
 3955SOL    HW223502   0.967   4.413  10.139  0.4279  0.3696  1.9145
 3956SOL     OW23503   4.686   0.268   4.305  0.0042  0.5179  0.1336
 3956SOL    HW123504   4.639   0.222   4.235  0.4101 -0.2793  0.3881
 3956SOL    HW223505   4.694   0.190   4.361  0.3268 -0.6191 -1.4725
 3957SOL     OW23506   0.560   3.339  15.964 -0.6331 -0.9491 -0.4108
 3957SOL    HW123507   0.491   3.338  16.029 -1.0621 -0.2437 -0.8612
 3957SOL    HW223508   0.627   3.376  16.022  0.3904 -0.3109 -1.9779
 3958SOL     OW23509   3.433   2.855   6.764  0.2565 -0.0908 -0.2482
 3958SOL    HW123510   3.426   2.760   6.755 -1.0583  0.0941 -1.2772
 3958SOL    HW223511   3.501   2.871   6.829 -0.7489 -0.7653  1.0020
 3959SOL     OW23512   1.649   2.143   5.613  0.3588  0.0409  0.5197
 3959SOL    HW123513   1.598   2.174   5.539  1.0722 -0.4808 -0.1904
 3959SOL    HW223514   1.688   2.068   5.568 -2.2414 -0.2589 -1.2052
 3960SOL     OW23515   1.768   1.880   3.234  0.3338 -0.1086  0.0409
 3960SOL    HW123516   1.694   1.850   3.287 -0.5765 -1.2374 -1.8524
 3960SOL    HW223517   1.736   1.850   3.149 -1.5339  0.4796  0.5364
 3961SOL     OW23518   0.514   3.916   6.751 -0.0191 -0.2005 -0.0228
 3961SOL    HW123519   0.534   3.829   6.785 -0.8137 -1.2698 -2.3330
 3961SOL    HW223520   0.536   3.903   6.659 -3.1845  0.9298 -0.9539
 3962SOL     OW23521   1.877   2.630   5.283  0.3217 -0.0508 -0.3857
 3962SOL    HW123522   1.813   2.665   5.345 -0.6983  0.5083 -1.7763
 3962SOL    HW223523   1.864   2.699   5.218 -1.1188 -1.5029 -1.6158
 3963SOL     OW23524   3.291   2.735  17.453 -0.0747 -0.4379  0.7208
 3963SOL    HW123525   3.200   2.710  17.440 -0.4581  0.5118  1.6216
 3963SOL    HW223526   3.291   2.826  17.423  0.1590 -0.1749  1.5104
 3964SOL     OW23527   0.438   1.237   5.614  0.1103  0.4294 -0.3596
 3964SOL    HW123528   0.505   1.203   5.672 -0.6885  0.0505  0.3363
 3964SOL    HW223529   0.472   1.208   5.529  0.0815 -0.1261 -0.1791
 3965SOL     OW23530   0.792   2.321   8.221  0.2459  0.4910  0.3901
 3965SOL    HW123531   0.725   2.267   8.178 -0.9673  0.3161  2.5253
 3965SOL    HW223532   0.845   2.333   8.142 -0.3026 -0.4093 -0.1121
 3966SOL     OW23533   3.500   4.211   7.229 -0.2790 -0.8861  0.6063
 3966SOL    HW123534   3.488   4.219   7.135 -1.8777  1.2929  1.0053
 3966SOL    HW223535   3.588   4.248   7.240 -0.6264 -0.4683  2.0228
 3967SOL     OW23536   0.028   0.307   3.865 -0.4192 -0.4745  0.2845
 3967SOL    HW123537   0.032   0.387   3.917 -0.6032 -1.2862  1.5413
 3967SOL    HW223538   0.108   0.309   3.812  0.8910 -0.2446  2.2864
 3968SOL     OW23539   0.363   0.250   5.927  0.1448  0.4276 -0.3922
 3968SOL    HW123540   0.310   0.264   5.848 -1.5922 -0.0335  0.6851
 3968SOL    HW223541   0.439   0.306   5.910 -1.9084  3.1648 -0.5722
 3969SOL     OW23542   3.604   1.553   3.776 -0.0078 -0.6547 -0.1888
 3969SOL    HW123543   3.552   1.481   3.813 -1.2568  0.1503 -0.3840
 3969SOL    HW223544   3.689   1.511   3.790  1.0781  0.3382 -3.7405
 3970SOL     OW23545   4.079   1.448  13.198  0.6117 -0.0694 -0.2307
 3970SOL    HW123546   4.006   1.497  13.235 -0.6074 -2.1266  0.1175
 3970SOL    HW223547   4.044   1.360  13.181 -0.6770  0.1849  1.0841
 3971SOL     OW23548   3.677   4.074   5.149 -0.0144 -0.0420  0.5098
 3971SOL    HW123549   3.643   4.057   5.061  1.7643  0.7078 -0.3092
 3971SOL    HW223550   3.672   3.992   5.198 -1.0806 -0.5015 -0.3428
 3972SOL     OW23551   2.320   1.447   6.645  0.1228  0.4723  0.3605
 3972SOL    HW123552   2.394   1.397   6.680 -2.0686 -2.7145  0.3489
 3972SOL    HW223553   2.311   1.417   6.555  1.0030 -1.8469  1.0637
 3973SOL     OW23554   1.760   2.996   1.406 -0.2650 -0.2447  0.5254
 3973SOL    HW123555   1.702   2.940   1.355  0.9303 -0.6614 -0.3690
 3973SOL    HW223556   1.772   2.939   1.483 -0.6400 -2.5893 -1.1625
 3974SOL     OW23557   1.066   1.832   8.285 -0.4577  0.0360  0.2966
 3974SOL    HW123558   1.153   1.846   8.248 -0.9822  3.4799  0.4198
 3974SOL    HW223559   1.023   1.815   8.201  0.6744 -1.3726 -0.0079
 3975SOL     OW23560   2.861   2.890   8.306  0.1023 -0.1502  0.4498
 3975SOL    HW123561   2.788   2.843   8.346  1.5394 -1.4958  1.4680
 3975SOL    HW223562   2.892   2.937   8.383  0.4981  0.9143 -0.3585
 3976SOL     OW23563   4.383   3.394  14.507  0.3194  0.4521  0.4775
 3976SOL    HW123564   4.423   3.336  14.572  1.1397 -0.0058 -0.4459
 3976SOL    HW223565   4.317   3.340  14.464 -0.1716  0.1082  1.6534
 3977SOL     OW23566   2.516   3.916   3.730  0.1539  0.1908 -0.3891
 3977SOL    HW123567   2.542   3.848   3.667  0.8685 -1.2054  1.4376
 3977SOL    HW223568   2.424   3.899   3.749 -0.2908 -1.1436 -3.5931
 3978SOL     OW23569   1.340   4.173  15.361 -0.1922 -0.3728  0.3038
 3978SOL    HW123570   1.306   4.085  15.379 -1.2218  0.0414  0.3917
 3978SOL    HW223571   1.289   4.193  15.282  0.6632 -2.3664 -0.7619
 3979SOL     OW23572   1.450   4.538  17.482  0.1111 -0.5846 -0.5934
 3979SOL    HW123573   1.428   4.630  17.492  0.2126 -0.5285 -0.9226
 3979SOL    HW223574   1.456   4.534  17.387  1.2617 -1.3074 -0.4972
 3980SOL     OW23575   2.232   2.787   3.577  0.4220 -0.2676 -0.1037
 3980SOL    HW123576   2.294   2.813   3.509  2.9361  0.7598  2.6088
 3980SOL    HW223577   2.268   2.699   3.585 -1.8970 -1.1859  0.1416
 3981SOL     OW23578   1.044   0.738   1.907 -0.0876 -0.4013  1.0805
 3981SOL    HW123579   1.129   0.703   1.881  0.4574  1.0721  0.8771
 3981SOL    HW223580   1.066   0.831   1.902  0.5587 -0.6059  0.0029
 3982SOL     OW23581   1.362   4.459   0.118 -0.1326 -0.6761  0.4655
 3982SOL    HW123582   1.283   4.420   0.156 -0.2208 -0.0805  0.8828
 3982SOL    HW223583   1.417   4.430   0.190  3.8142  5.0569 -0.3116
 3983SOL     OW23584   3.740   0.794   5.406 -0.8114  0.1435 -0.3462
 3983SOL    HW123585   3.775   0.720   5.455  0.0533 -0.2442 -1.5354
 3983SOL    HW223586   3.651   0.762   5.396  0.6170 -3.6565 -0.9055
 3984SOL     OW23587   3.904   3.381   6.141 -0.1609 -0.5965 -0.2690
 3984SOL    HW123588   3.810   3.385   6.125 -0.0935 -1.1785 -0.8052
 3984SOL    HW223589   3.915   3.430   6.222 -2.1725  1.1587 -1.0596
 3985SOL     OW23590   0.037   0.826   5.485  0.0865 -0.3457  0.8518
 3985SOL    HW123591   0.023   0.785   5.400 -0.1745  0.0456  0.7053
 3985SOL    HW223592   0.026   0.919   5.461 -0.2223 -0.5684  0.1248
 3986SOL     OW23593   2.023   0.184  13.465  0.3144 -0.1373  0.2475
 3986SOL    HW123594   2.105   0.146  13.499  2.2775  3.1461 -0.8164
 3986SOL    HW223595   2.011   0.138  13.382 -0.9382  0.7718 -0.0715
 3987SOL     OW23596   2.861   2.311  14.368  0.1351  0.6390  0.4004
 3987SOL    HW123597   2.901   2.397  14.382  0.4821  0.4704  0.4359
 3987SOL    HW223598   2.842   2.303  14.275  2.4560  2.1050 -0.1945
 3988SOL     OW23599   4.445   3.725  17.668  0.9589 -0.8038  0.5983
 3988SOL    HW123600   4.399   3.772  17.737  0.3671  1.4857 -1.3741
 3988SOL    HW223601   4.399   3.747  17.588  3.0261 -2.1356 -0.9773
 3989SOL     OW23602   2.735   3.492  12.614  0.5623 -0.3267 -0.5880
 3989SOL    HW123603   2.688   3.535  12.542  0.9937 -1.0202 -1.2788
 3989SOL    HW223604   2.713   3.401  12.594  0.9883 -0.1735 -1.7013
 3990SOL     OW23605   2.305   2.072   8.464  0.0019  0.8290  0.1691
 3990SOL    HW123606   2.362   2.148   8.472  0.3015  0.4720  1.4138
 3990SOL    HW223607   2.223   2.122   8.462 -0.4814  0.0796  1.0519
 3991SOL     OW23608   3.528   1.098   5.414 -0.1974 -0.4018  0.5929
 3991SOL    HW123609   3.490   1.020   5.453  0.4366 -0.9890  0.0287
 3991SOL    HW223610   3.599   1.116   5.475 -0.8345  0.7711  0.9996
 3992SOL     OW23611   2.562   0.468  16.257  0.8314 -0.1141  0.5315
 3992SOL    HW123612   2.613   0.478  16.177  1.5007 -3.4230  0.5282
 3992SOL    HW223613   2.621   0.405  16.299  1.2227 -0.1323 -0.0445
 3993SOL     OW23614   2.742   0.790   9.116  0.6477 -1.0775  0.1638
 3993SOL    HW123615   2.721   0.708   9.161 -1.2097 -0.9505 -0.4600
 3993SOL    HW223616   2.661   0.836   9.138  1.9588  1.2881  0.0265
 3994SOL     OW23617   2.764   0.525   8.443 -0.1779  0.4127 -0.7020
 3994SOL    HW123618   2.792   0.593   8.381 -0.5766  2.3434  1.2491
 3994SOL    HW223619   2.705   0.472   8.389 -1.9009  0.7153  0.9083
 3995SOL     OW23620   1.448   1.878   3.363  0.4111 -0.3582 -0.0692
 3995SOL    HW123621   1.428   1.851   3.273  2.2564 -2.2772  0.0927
 3995SOL    HW223622   1.461   1.794   3.407  2.2390 -0.0919 -0.1310
 3996SOL     OW23623   2.157   1.789   8.050 -0.1198  0.3391 -0.0863
 3996SOL    HW123624   2.071   1.749   8.059  0.8022 -1.5740  0.1578
 3996SOL    HW223625   2.140   1.875   8.087 -1.3309 -0.3310  0.8980
 3997SOL     OW23626   3.958   1.720   3.280  0.3727  0.1902  0.5252
 3997SOL    HW123627   3.957   1.714   3.184 -2.1618 -0.3640  0.5897
 3997SOL    HW223628   3.947   1.812   3.304  2.2564  0.7675 -0.8467
 3998SOL     OW23629   2.336   0.251  12.165  0.4434  0.5933 -0.2215
 3998SOL    HW123630   2.319   0.282  12.254 -2.7298  1.4418 -1.1101
 3998SOL    HW223631   2.420   0.209  12.184  1.5882  2.6454 -0.7541
 3999SOL     OW23632   2.947   2.422   0.702  0.0907 -0.1679  0.3460
 3999SOL    HW123633   2.991   2.485   0.760 -0.6937 -2.3018  3.2814
 3999SOL    HW223634   2.925   2.478   0.627 -0.0287  0.1398  0.6101
 4000SOL     OW23635   3.829   1.579   2.652 -0.1647  0.7342  0.4307
 4000SOL    HW123636   3.777   1.612   2.725  0.1752  1.2950  0.4284
 4000SOL    HW223637   3.788   1.494   2.636 -0.9767  1.4318 -1.1740
 4001SOL     OW23638   0.164   2.331   4.923 -0.0421  0.0653  0.0460
 4001SOL    HW123639   0.212   2.303   5.001 -0.6392  0.5606  0.5829
 4001SOL    HW223640   0.240   2.372   4.881 -0.7788  0.1386 -1.2187
 4002SOL     OW23641   4.458   0.108   4.742 -0.2092 -0.3458  0.1690
 4002SOL    HW123642   4.391   0.173   4.720  0.2326 -0.0313 -0.2385
 4002SOL    HW223643   4.540   0.156   4.731  0.5370 -1.3028  1.6146
 4003SOL     OW23644   2.333   4.205  15.987  0.0882 -0.3306 -0.4863
 4003SOL    HW123645   2.414   4.159  16.011  0.2737  0.2611  0.0204
 4003SOL    HW223646   2.361   4.246  15.905  0.5890  0.3414  0.0157
 4004SOL     OW23647   0.942   1.975   3.233 -0.6512 -0.3266 -0.4542
 4004SOL    HW123648   0.850   1.979   3.209 -0.6424  1.4447 -0.1491
 4004SOL    HW223649   0.965   2.062   3.202 -1.0313 -0.4698 -1.1466
 4005SOL     OW23650   2.243   1.564   7.218 -0.0918 -0.1744 -0.4530
 4005SOL    HW123651   2.202   1.528   7.139 -0.2826 -2.4325  0.6700
 4005SOL    HW223652   2.330   1.539   7.188  0.3322  1.4206 -0.5727
 4006SOL     OW23653   3.065   4.168  16.708 -0.1253 -0.6425 -0.1208
 4006SOL    HW123654   3.073   4.262  16.726 -1.1742 -0.8475  1.4897
 4006SOL    HW223655   3.052   4.134  16.797  0.5177 -0.6274 -0.0252
 4007SOL     OW23656   1.324   2.572   4.171 -0.9513 -0.3637  0.5176
 4007SOL    HW123657   1.275   2.581   4.089  1.5365  1.9174 -0.7018
 4007SOL    HW223658   1.265   2.619   4.231  0.1967 -1.9560  2.8754
 4008SOL     OW23659   0.892   1.961   7.515 -0.4851 -0.7837 -0.8168
 4008SOL    HW123660   0.864   1.973   7.424  0.9790  1.8950 -0.9137
 4008SOL    HW223661   0.951   2.032   7.538  0.8649 -2.1846 -0.0304
 4009SOL     OW23662   0.986   3.767   9.690  0.0585 -0.2836  0.2486
 4009SOL    HW123663   0.993   3.711   9.767  2.4016 -0.1046  0.1697
 4009SOL    HW223664   0.953   3.702   9.627  0.6073 -0.0917 -0.2353
 4010SOL     OW23665   2.666   3.039  10.416  0.2273  0.5642 -0.3838
 4010SOL    HW123666   2.622   2.957  10.439 -1.4149  2.2967  2.6567
 4010SOL    HW223667   2.744   3.036  10.470  0.5412 -0.6764 -0.9146
 4011SOL     OW23668   3.318   0.325   5.350  0.2761  0.3070 -0.3321
 4011SOL    HW123669   3.316   0.230   5.362  2.5962  0.3908  0.8447
 4011SOL    HW223670   3.363   0.341   5.267  3.3171  1.5768  1.5388
 4012SOL     OW23671   1.701   3.624   1.486 -0.1362 -0.4122  0.2058
 4012SOL    HW123672   1.720   3.606   1.394 -1.4005  0.5227 -0.2349
 4012SOL    HW223673   1.607   3.607   1.493 -0.2479  0.2264  0.2815
 4013SOL     OW23674   0.863   4.006  12.852  0.5708 -0.5524  0.1663
 4013SOL    HW123675   0.783   3.993  12.803  1.0951  1.5654 -1.2604
 4013SOL    HW223676   0.924   4.036  12.785  0.4786  1.2572  0.8903
 4014SOL     OW23677   4.292   1.782   3.949 -0.0877  0.0128 -0.6693
 4014SOL    HW123678   4.281   1.691   3.977 -0.0525  0.5163  0.9662
 4014SOL    HW223679   4.257   1.835   4.020  0.6556  0.1922 -0.4302
 4015SOL     OW23680   1.138   0.139   2.622  0.0408  0.0016  0.1283
 4015SOL    HW123681   1.198   0.069   2.596  0.6188  0.2470  0.7949
 4015SOL    HW223682   1.182   0.219   2.593  0.1181  1.0774  3.1268
 4016SOL     OW23683   0.203   3.265   7.864  0.3284  0.3649  0.3942
 4016SOL    HW123684   0.269   3.204   7.896 -0.2202 -0.7491 -0.6065
 4016SOL    HW223685   0.263   3.331   7.827 -0.8016  0.9358 -0.4055
 4017SOL     OW23686   4.729   3.286  12.438 -0.2569 -0.0107 -0.1010
 4017SOL    HW123687   4.684   3.206  12.465  0.6012 -0.3288  0.3699
 4017SOL    HW223688   4.660   3.337  12.395 -1.3488 -1.2952  0.1488
 4018SOL     OW23689   1.911   0.874   2.701  0.0878  0.4213 -0.0682
 4018SOL    HW123690   1.865   0.958   2.698  1.1298  1.0005  0.5037
 4018SOL    HW223691   1.973   0.897   2.769 -0.2251 -0.8152  0.6339
 4019SOL     OW23692   1.628   3.587  16.679  0.9823 -0.0834 -0.6844
 4019SOL    HW123693   1.663   3.626  16.760  2.5779 -1.5080 -0.6929
 4019SOL    HW223694   1.584   3.664  16.642 -0.3059 -0.5345 -0.0744
 4020SOL     OW23695   0.941   1.000   7.051 -0.1789 -0.2605 -0.1385
 4020SOL    HW123696   0.906   1.013   7.138  0.3857 -0.4109  0.1115
 4020SOL    HW223697   0.996   0.924   7.072 -0.5488 -0.7310 -0.8687
 4021SOL     OW23698   3.494   0.138   3.053 -0.6917 -0.0760  0.3913
 4021SOL    HW123699   3.558   0.197   3.091 -0.7846 -1.4498  2.7038
 4021SOL    HW223700   3.557   0.067   3.040  0.0407  0.7846 -0.7757
 4022SOL     OW23701   0.978   1.534   6.071  0.2648 -0.5106 -0.5081
 4022SOL    HW123702   0.969   1.486   5.989 -1.2455  1.4401 -1.5082
 4022SOL    HW223703   0.905   1.498   6.122 -1.7603  0.8503 -2.4690
 4023SOL     OW23704   2.411   3.718   9.693  0.1556  0.1318 -0.3255
 4023SOL    HW123705   2.506   3.732   9.697  0.3449 -1.1989 -0.1453
 4023SOL    HW223706   2.391   3.694   9.784  0.4432  0.6972 -0.1153
 4024SOL     OW23707   3.903   0.064   6.922  0.4988 -0.3035  0.8707
 4024SOL    HW123708   3.915   0.140   6.979 -0.3092  0.4987 -0.0099
 4024SOL    HW223709   3.993   0.036   6.903  0.2382 -1.8261  1.8929
 4025SOL     OW23710   4.283   3.546   3.308 -0.3540 -0.0773 -0.2900
 4025SOL    HW123711   4.246   3.487   3.242 -0.9492  0.1343 -0.1491
 4025SOL    HW223712   4.375   3.548   3.282  0.4957 -1.0335  2.6601
 4026SOL     OW23713   2.072   1.285   1.755 -0.2528  0.0584  0.4137
 4026SOL    HW123714   2.087   1.191   1.750 -0.7350  0.0417 -0.6411
 4026SOL    HW223715   2.001   1.286   1.819 -1.1612  0.8576 -0.5978
 4027SOL     OW23716   4.164   1.383  10.909 -0.5986 -0.7322 -1.1094
 4027SOL    HW123717   4.237   1.428  10.865  0.8403 -1.9572  0.0222
 4027SOL    HW223718   4.176   1.292  10.883  1.4762 -0.8292  0.2212
 4028SOL     OW23719   2.995   4.528   6.884 -0.4065  0.2762 -0.4898
 4028SOL    HW123720   3.010   4.441   6.920  1.3737  0.8305  0.1023
 4028SOL    HW223721   3.086   4.553   6.870 -0.0761 -0.7704 -0.2012
 4029SOL     OW23722   4.248   2.577  14.853 -0.3625 -0.1582  0.3533
 4029SOL    HW123723   4.284   2.664  14.869 -0.1119 -0.3275  0.7079
 4029SOL    HW223724   4.176   2.578  14.916  0.2040 -0.9382  1.0135
 4030SOL     OW23725   4.664   1.052   4.860  0.0117 -0.1963  0.5905
 4030SOL    HW123726   4.594   1.097   4.906  0.4003  0.1562  0.8397
 4030SOL    HW223727   4.733   1.057   4.927  0.3678  1.2763  0.1012
 4031SOL     OW23728   1.770   1.827   7.146 -0.4349  0.6226 -0.6447
 4031SOL    HW123729   1.706   1.756   7.148 -1.6180  1.6700 -0.9060
 4031SOL    HW223730   1.809   1.834   7.233 -1.1730 -0.0111 -0.2665
 4032SOL     OW23731   3.830   1.597  15.984  0.4925 -0.4193 -0.5130
 4032SOL    HW123732   3.765   1.662  15.956 -1.8073 -1.1817  3.0496
 4032SOL    HW223733   3.782   1.514  15.980  1.3902 -0.9796  0.4690
 4033SOL     OW23734   1.535   1.100  13.021 -0.2392  0.5010 -0.1638
 4033SOL    HW123735   1.567   1.070  12.936 -1.2695 -2.0298  0.3256
 4033SOL    HW223736   1.441   1.082  13.027  0.1880 -1.5790  0.3710
 4034SOL     OW23737   2.292   4.512   3.150  0.6145 -0.3105  0.3782
 4034SOL    HW123738   2.305   4.451   3.078 -1.9689 -0.8492  0.3693
 4034SOL    HW223739   2.322   4.597   3.117 -1.3893  0.2405 -0.0624
 4035SOL     OW23740   0.595   4.534  11.226 -0.0355 -0.3639  0.3142
 4035SOL    HW123741   0.662   4.540  11.158  1.0363 -0.7602  1.3169
 4035SOL    HW223742   0.644   4.565  11.303 -1.4169 -3.6512  2.4941
 4036SOL     OW23743   1.397   1.430   4.898 -0.0578  0.0473  0.4405
 4036SOL    HW123744   1.323   1.418   4.838  0.2528 -2.1484  0.4780
 4036SOL    HW223745   1.462   1.365   4.873  0.3468  0.8174 -0.5089
 4037SOL     OW23746   1.530   0.520   5.145  0.9886  0.0451 -0.8653
 4037SOL    HW123747   1.523   0.493   5.053  1.8338  1.3674 -1.3275
 4037SOL    HW223748   1.584   0.599   5.133 -0.2832  1.1320  0.5878
 4038SOL     OW23749   0.632   2.479  13.276 -0.0002  0.2443  0.1473
 4038SOL    HW123750   0.648   2.483  13.370 -0.2980 -0.9820  0.2475
 4038SOL    HW223751   0.721   2.484  13.242  0.1690 -1.9626  0.2977
 4039SOL     OW23752   4.309   2.904  10.141  0.3271  0.6351  0.3532
 4039SOL    HW123753   4.303   2.991  10.103 -1.5207  1.5577  2.7694
 4039SOL    HW223754   4.371   2.868  10.078 -1.1131 -0.5900 -0.3709
 4040SOL     OW23755   1.221   4.505   2.641  0.0116  0.1762  0.1098
 4040SOL    HW123756   1.151   4.515   2.705 -0.1720  1.0295 -0.2214
 4040SOL    HW223757   1.212   4.411   2.626 -0.3605 -0.0010  1.4846
 4041SOL     OW23758   4.216   1.341   7.463 -0.4747  0.1108  0.4281
 4041SOL    HW123759   4.121   1.326   7.455 -0.4552  0.0956  0.2414
 4041SOL    HW223760   4.244   1.305   7.380  0.6465 -0.6695  1.1493
 4042SOL     OW23761   0.021   1.202   4.148  0.6663 -0.3901  0.4360
 4042SOL    HW123762   0.012   1.297   4.145 -0.2254 -0.5894 -2.4869
 4042SOL    HW223763   4.717   1.179   4.230 -0.7202  0.6714 -0.0097
 4043SOL     OW23764   0.900   0.273  15.350  0.1502 -0.0846  0.7924
 4043SOL    HW123765   0.804   0.271  15.354  0.1684  0.4456  1.4746
 4043SOL    HW223766   0.911   0.349  15.293  1.1340  0.2249  1.4002
 4044SOL     OW23767   3.109   0.218   7.316  0.1846 -0.3522 -0.3333
 4044SOL    HW123768   3.079   0.164   7.242  0.9782 -1.3577  0.0701
 4044SOL    HW223769   3.031   0.239   7.366 -1.2403 -1.8215 -1.9564
 4045SOL     OW23770   2.893   3.700   5.160  0.2514 -0.1115 -0.5370
 4045SOL    HW123771   2.881   3.622   5.216 -0.4868 -0.1740 -0.7927
 4045SOL    HW223772   2.801   3.720   5.145  0.4521 -0.5468 -2.2912
 4046SOL     OW23773   0.451   0.859   3.472  0.0203  0.4068 -0.3536
 4046SOL    HW123774   0.475   0.884   3.383 -1.1760  0.2958 -0.6994
 4046SOL    HW223775   0.371   0.808   3.460  0.9376 -1.9166  3.2625
 4047SOL     OW23776   1.545   1.285   5.599  0.3875 -0.1239  0.0889
 4047SOL    HW123777   1.484   1.221   5.636 -0.7422  0.6277 -0.4934
 4047SOL    HW223778   1.500   1.313   5.520  0.6180 -0.6040 -0.2103
 4048SOL     OW23779   0.359   4.449   2.660  0.2540 -0.5041 -0.1507
 4048SOL    HW123780   0.330   4.438   2.751 -1.3563  1.2407 -0.4332
 4048SOL    HW223781   0.291   4.395   2.618  0.3446  0.9252 -2.1311
 4049SOL     OW23782   2.665   3.386   3.456  0.2072  0.2205 -0.1593
 4049SOL    HW123783   2.582   3.413   3.494  0.8746  0.0178  1.4207
 4049SOL    HW223784   2.649   3.417   3.367  0.5817  0.6486 -0.0822
 4050SOL     OW23785   0.438   4.274   3.904  0.0403 -0.0825 -0.7464
 4050SOL    HW123786   0.443   4.361   3.944 -0.4398  0.4585 -1.8531
 4050SOL    HW223787   0.486   4.222   3.968  0.0092  1.1994  0.3154
 4051SOL     OW23788   3.713   3.659  14.882  0.6437  0.3137 -0.8338
 4051SOL    HW123789   3.756   3.724  14.938  1.3871 -1.3319  0.5174
 4051SOL    HW223790   3.653   3.716  14.834 -1.9930  1.1403  3.4380
 4052SOL     OW23791   0.809   4.277   9.717 -0.2602  0.2618  0.0781
 4052SOL    HW123792   0.811   4.281   9.813  1.8943  2.1751 -0.0449
 4052SOL    HW223793   0.862   4.199   9.703 -1.0795 -0.7375  2.5866
 4053SOL     OW23794   2.643   1.876  13.809  0.1410  0.1159 -0.2575
 4053SOL    HW123795   2.674   1.799  13.761 -2.6017 -0.2234 -1.5225
 4053SOL    HW223796   2.724   1.912  13.844  0.3239  0.4227 -0.9995
 4054SOL     OW23797   1.929   4.036   8.732 -0.0386 -0.9655  0.1024
 4054SOL    HW123798   1.925   4.047   8.637  0.0846  2.0408  0.4453
 4054SOL    HW223799   1.977   3.954   8.740  1.1852  0.0003  2.4368
 4055SOL     OW23800   4.276   4.398  12.037  0.5383  0.3501 -0.1935
 4055SOL    HW123801   4.292   4.468  12.100  1.2412  0.5554 -0.5957
 4055SOL    HW223802   4.196   4.429  11.995  0.8988  0.4166 -0.8291
 4056SOL     OW23803   2.822   1.210   0.434  0.0598 -0.0855 -0.5412
 4056SOL    HW123804   2.830   1.273   0.362  0.3143  0.7785  0.2507
 4056SOL    HW223805   2.773   1.139   0.393  1.1071 -1.6021  0.8728
 4057SOL     OW23806   1.374   2.728   8.839 -0.5277 -0.1841  0.5614
 4057SOL    HW123807   1.294   2.711   8.889 -0.6828 -0.2741  0.2836
 4057SOL    HW223808   1.434   2.731   8.914 -2.0734  2.8566  1.6797
 4058SOL     OW23809   0.472   4.305   9.851 -0.2825  0.1898 -0.4230
 4058SOL    HW123810   0.446   4.219   9.818  1.7761 -0.9067  0.8301
 4058SOL    HW223811   0.427   4.301   9.935  0.1254  1.1175 -0.1647
 4059SOL     OW23812   0.275   2.410   5.899 -0.1456 -0.0506  0.5318
 4059SOL    HW123813   0.272   2.315   5.885  0.5648  0.4725 -3.0033
 4059SOL    HW223814   0.193   2.438   5.941 -0.0372  0.4971  0.3713
 4060SOL     OW23815   2.999   1.584   6.703  0.3537 -0.6060 -0.2032
 4060SOL    HW123816   2.926   1.631   6.662  0.4606  1.1656  1.6151
 4060SOL    HW223817   3.071   1.612   6.647 -0.9679  0.3741 -1.4344
 4061SOL     OW23818   0.840   4.408   8.436 -0.1994 -0.1337  0.5151
 4061SOL    HW123819   0.876   4.385   8.350 -0.6810 -1.0695  0.5693
 4061SOL    HW223820   0.746   4.401   8.427  0.0206  0.3145 -2.1317
 4062SOL     OW23821   1.237   1.238   6.229 -0.0851 -0.1852 -0.0459
 4062SOL    HW123822   1.178   1.274   6.295 -0.0041  0.2072 -0.1918
 4062SOL    HW223823   1.234   1.312   6.169  3.4139  1.3918  1.6932
 4063SOL     OW23824   0.002   2.808   1.282 -0.5972 -0.3564  0.2200
 4063SOL    HW123825   4.652   2.802   1.250 -0.4813  0.3788 -0.2516
 4063SOL    HW223826   4.719   2.795   1.374 -2.6268  2.1978  0.0485
 4064SOL     OW23827   0.867   0.562   4.403  0.4327 -0.5198  0.4012
 4064SOL    HW123828   0.790   0.594   4.450  1.1822  1.2950  0.4049
 4064SOL    HW223829   0.831   0.578   4.315 -0.1247 -1.6637  0.4214
 4065SOL     OW23830   1.500   2.013   5.339  0.3335 -0.2357 -0.6846
 4065SOL    HW123831   1.492   1.935   5.393 -1.0896 -0.3076 -0.9995
 4065SOL    HW223832   1.456   2.074   5.398 -2.6059 -2.8520 -0.1644
 4066SOL     OW23833   1.573   2.173   9.947  0.1551  0.3676  0.0643
 4066SOL    HW123834   1.507   2.217   9.893 -0.9399  0.1348  1.2232
 4066SOL    HW223835   1.567   2.219  10.031  0.6253 -2.2029  1.5020
 4067SOL     OW23836   4.474   2.459   0.339 -0.4278  0.0383 -0.3743
 4067SOL    HW123837   4.406   2.526   0.348 -0.0264  0.6947 -2.2133
 4067SOL    HW223838   4.505   2.439   0.428  0.7754 -2.0520 -1.2750
 4068SOL     OW23839   2.588   0.461   5.143 -0.4687 -0.3858 -0.0175
 4068SOL    HW123840   2.663   0.430   5.092 -1.8709 -2.5413 -0.7712
 4068SOL    HW223841   2.627   0.447   5.230  2.6075  1.9226 -0.9925
 4069SOL     OW23842   4.144   3.484   5.806  0.2573 -0.2543 -0.0672
 4069SOL    HW123843   4.068   3.517   5.855  0.2007 -1.1406  0.4387
 4069SOL    HW223844   4.096   3.480   5.723 -1.7470 -0.8581  1.1166
 4070SOL     OW23845   3.627   1.689  15.058  0.0912  0.2665  0.8246
 4070SOL    HW123846   3.539   1.651  15.069  0.1704  0.8224  3.2912
 4070SOL    HW223847   3.672   1.605  15.064  0.7747  0.5675 -0.1290
 4071SOL     OW23848   1.819   0.428  11.609  0.0218 -0.3205 -0.0504
 4071SOL    HW123849   1.879   0.493  11.646 -0.2985 -1.7993  3.0700
 4071SOL    HW223850   1.834   0.361  11.675  1.1215  0.5120  0.5426
 4072SOL     OW23851   1.177   3.253   5.068 -0.5650  0.3495 -0.1752
 4072SOL    HW123852   1.247   3.276   5.007  2.1635 -0.4855  2.6282
 4072SOL    HW223853   1.145   3.177   5.020 -1.2330 -0.1052  0.9952
 4073SOL     OW23854   2.040   2.186  12.191 -0.0247  0.3828  0.2655
 4073SOL    HW123855   1.989   2.146  12.261  0.0640 -2.5076 -1.3482
 4073SOL    HW223856   2.112   2.224  12.241  0.5298 -0.9909  0.4860
 4074SOL     OW23857   1.362   4.387   2.299 -0.7172  0.3307 -0.0999
 4074SOL    HW123858   1.353   4.318   2.365 -2.1512  1.9394  1.3972
 4074SOL    HW223859   1.426   4.353   2.237 -1.0146  0.5595 -0.5302
 4075SOL     OW23860   4.410   0.529   5.454  0.6826 -0.6268 -0.3363
 4075SOL    HW123861   4.343   0.519   5.522  0.8730 -2.2595 -0.3949
 4075SOL    HW223862   4.350   0.498   5.385  0.2750 -0.6139  0.0087
 4076SOL     OW23863   3.809   0.599   4.932 -0.3164 -0.2114  0.1010
 4076SOL    HW123864   3.846   0.630   5.014  0.0486 -0.5512  0.0668
 4076SOL    HW223865   3.889   0.590   4.880 -1.0233  0.7117 -1.1575
 4077SOL     OW23866   3.385   3.403   8.919  0.2912  0.0976  0.2894
 4077SOL    HW123867   3.461   3.371   8.870 -0.4486 -0.8065 -0.2616
 4077SOL    HW223868   3.324   3.433   8.852  1.1979  0.4591 -0.3629
 4078SOL     OW23869   1.963   1.094   4.977 -0.6000  0.2843 -0.7601
 4078SOL    HW123870   2.019   1.025   4.941  0.2664 -0.0384  1.2246
 4078SOL    HW223871   1.998   1.109   5.065  0.2229 -0.1372 -1.0147
 4079SOL     OW23872   3.659   2.266  17.115  0.2846  0.4128  0.0118
 4079SOL    HW123873   3.722   2.227  17.055 -0.9374 -2.6900  0.7277
 4079SOL    HW223874   3.625   2.338  17.061  0.2231 -0.1315 -0.6695
 4080SOL     OW23875   0.468   0.399  13.760  0.1318 -0.1251 -0.2182
 4080SOL    HW123876   0.404   0.418  13.829  0.2133  0.9572 -0.4437
 4080SOL    HW223877   0.410   0.433  13.692 -0.1958  1.5976  0.9063
 4081SOL     OW23878   0.235   2.910  11.344 -0.2164  0.0908 -0.5720
 4081SOL    HW123879   0.167   2.967  11.309 -1.2990 -1.2066 -0.5868
 4081SOL    HW223880   0.308   2.971  11.342  0.5920 -0.8768 -0.8751
 4082SOL     OW23881   3.242   0.241   8.180  0.0110 -0.6109  0.0778
 4082SOL    HW123882   3.209   0.250   8.270  0.6404  0.1466  0.2248
 4082SOL    HW223883   3.204   0.161   8.144  0.4341  0.2290 -2.2198
 4083SOL     OW23884   4.160   3.352  10.761 -0.7134 -0.3588 -0.7891
 4083SOL    HW123885   4.077   3.352  10.809 -0.8069 -0.6521 -0.9512
 4083SOL    HW223886   4.174   3.259  10.742  0.8171 -0.2968  0.0437
 4084SOL     OW23887   2.060   4.608  17.279  0.2630  0.1669 -0.7351
 4084SOL    HW123888   2.058   4.521  17.238  0.9392  0.9179 -2.3707
 4084SOL    HW223889   1.969   4.604  17.307  0.8451 -1.1849  0.9803
 4085SOL     OW23890   3.361   1.688  17.309  0.0576 -0.2791 -0.5483
 4085SOL    HW123891   3.342   1.595  17.307  2.1769 -0.7208  0.1798
 4085SOL    HW223892   3.440   1.686  17.363  0.2035 -0.3476 -0.7669
 4086SOL     OW23893   3.974   2.815  17.503  0.2251 -1.0671 -0.1807
 4086SOL    HW123894   3.988   2.720  17.512  1.2170 -0.9026 -0.0004
 4086SOL    HW223895   4.014   2.848  17.584 -0.6897 -0.2925 -0.0560
 4087SOL     OW23896   4.209   0.271   2.876 -0.1385 -0.7464 -0.0667
 4087SOL    HW123897   4.136   0.219   2.841  1.4485 -1.2920 -2.5350
 4087SOL    HW223898   4.173   0.307   2.957 -2.4647  0.4304 -1.6288
 4088SOL     OW23899   3.576   3.196   2.543 -0.1867  0.0271 -0.2434
 4088SOL    HW123900   3.508   3.162   2.602 -1.0957  0.8231 -0.8314
 4088SOL    HW223901   3.558   3.152   2.460 -1.0995 -2.2694  1.1911
 4089SOL     OW23902   3.236   3.927   4.041 -0.1918 -0.4262 -0.0775
 4089SOL    HW123903   3.155   3.978   4.050 -0.7048 -1.0319 -1.2426
 4089SOL    HW223904   3.291   3.993   3.998  0.5976 -0.5436  0.7415
 4090SOL     OW23905   2.477   1.648   4.692  0.2279  0.0311 -0.1504
 4090SOL    HW123906   2.429   1.730   4.704  1.2983  0.2038  2.9399
 4090SOL    HW223907   2.416   1.589   4.736  1.6360 -0.9525  0.4964
 4091SOL     OW23908   3.296   1.127  17.433 -0.0077  0.7044 -0.0686
 4091SOL    HW123909   3.388   1.122  17.460  0.0317  2.7317  0.1195
 4091SOL    HW223910   3.290   1.072  17.354  0.5257  3.9513 -2.3786
 4092SOL     OW23911   0.274   3.724   9.294  0.6300 -0.5658 -0.1269
 4092SOL    HW123912   0.289   3.631   9.310  0.1666 -0.5189  0.6099
 4092SOL    HW223913   0.181   3.718   9.273  1.1540 -2.3480 -1.8465
 4093SOL     OW23914   4.604   3.943  11.948 -0.3021 -0.3008  0.4209
 4093SOL    HW123915   4.578   4.027  11.986  1.4855 -0.3088  1.6465
 4093SOL    HW223916   4.517   3.910  11.922  0.7801 -2.2729 -0.6884
 4094SOL     OW23917   2.062   3.681   3.622  0.3174  0.2316 -0.2636
 4094SOL    HW123918   1.985   3.713   3.669 -0.0057 -0.7880 -0.1023
 4094SOL    HW223919   2.062   3.733   3.542 -1.0981 -0.0009 -0.4111
 4095SOL     OW23920   3.465   0.740   4.046  0.4855  0.3456  0.2250
 4095SOL    HW123921   3.514   0.659   4.038 -0.5067 -0.4286  2.0929
 4095SOL    HW223922   3.487   0.771   4.134  3.2325 -2.3311  0.4499
 4096SOL     OW23923   4.076   2.075  10.960  0.5612 -0.3845 -0.2240
 4096SOL    HW123924   4.083   2.170  10.971  2.8108 -0.5257 -0.4132
 4096SOL    HW223925   3.990   2.076  10.920  1.1450 -0.4424 -1.4906
 4097SOL     OW23926   4.103   2.157  16.027 -0.2247 -0.1613  0.9512
 4097SOL    HW123927   4.160   2.115  15.962  1.1596  3.3500 -0.1306
 4097SOL    HW223928   4.026   2.111  15.995  0.6124 -0.5801 -0.4682
 4098SOL     OW23929   2.867   3.989   8.182  0.6820 -0.0252  0.3812
 4098SOL    HW123930   2.856   3.946   8.097 -1.3932 -1.0810  1.1878
 4098SOL    HW223931   2.776   4.015   8.199  0.6309  0.9811 -1.3373
 4099SOL     OW23932   3.345   2.256   4.571  0.3046  0.4537 -0.3045
 4099SOL    HW123933   3.413   2.201   4.531  0.0211 -1.7998  2.2575
 4099SOL    HW223934   3.356   2.337   4.522 -1.0977 -1.0478 -3.1044
 4100SOL     OW23935   1.221   0.172   6.969 -0.1452 -0.0967 -0.0577
 4100SOL    HW123936   1.156   0.105   6.991  0.6075 -0.5306  0.8825
 4100SOL    HW223937   1.282   0.107   6.934 -1.6081 -2.5558  1.9733
 4101SOL     OW23938   4.657   1.908   3.594 -0.2559 -0.1770 -0.5079
 4101SOL    HW123939   4.630   1.977   3.534 -0.4276  0.3097  0.1210
 4101SOL    HW223940   4.578   1.897   3.648 -0.4450 -0.3067 -0.8118
 4102SOL     OW23941   1.076   3.001   7.852 -0.4336  1.0204 -0.2423
 4102SOL    HW123942   1.071   2.912   7.887 -1.6998  0.6232 -1.4164
 4102SOL    HW223943   0.983   3.020   7.837 -0.7070 -0.0991 -0.0480
 4103SOL     OW23944   2.088   2.373   6.626 -0.0222  0.4174 -0.0614
 4103SOL    HW123945   2.004   2.333   6.651 -0.0180 -0.2685 -1.1609
 4103SOL    HW223946   2.136   2.292   6.613  0.5950  0.7772 -0.0357
 4104SOL     OW23947   1.605   0.093   0.297 -0.2749  0.3967 -0.6806
 4104SOL    HW123948   1.605   0.009   0.251 -0.1332 -0.7585  1.4387
 4104SOL    HW223949   1.587   0.058   0.385 -1.2787  0.0334 -1.0323
 4105SOL     OW23950   0.442   2.461   8.597  0.2073 -0.3571 -0.1551
 4105SOL    HW123951   0.462   2.421   8.512  1.0555  1.1434 -0.6649
 4105SOL    HW223952   0.492   2.542   8.588  0.8622 -0.7519 -0.0624
 4106SOL     OW23953   3.865   4.608   7.757 -0.6006  0.1003  0.0458
 4106SOL    HW123954   3.862   4.539   7.823 -1.0985 -2.1977 -2.3868
 4106SOL    HW223955   3.779   4.600   7.718  0.1449  0.8426 -1.7525
 4107SOL     OW23956   4.639   1.917   9.523 -0.2841 -0.2606 -0.0834
 4107SOL    HW123957   4.665   1.843   9.578  0.9237  0.0241 -0.2783
 4107SOL    HW223958   4.706   1.926   9.455 -1.2087 -1.0725 -1.1134
 4108SOL     OW23959   0.529   3.438   4.818  0.0496 -0.0233  0.1451
 4108SOL    HW123960   0.477   3.400   4.747 -0.7841 -0.0753  0.7940
 4108SOL    HW223961   0.490   3.521   4.845  0.1919  0.3994 -0.9427
 4109SOL     OW23962   4.056   1.798  10.157  0.1397 -0.0588  0.1521
 4109SOL    HW123963   4.089   1.791  10.068  0.1678  3.0371 -0.1013
 4109SOL    HW223964   4.030   1.709  10.178 -0.2723 -0.0018 -0.1096
 4110SOL     OW23965   3.769   2.383  12.281  0.0034 -0.0486  0.3516
 4110SOL    HW123966   3.840   2.390  12.218 -0.0449 -0.2432  0.2755
 4110SOL    HW223967   3.704   2.445  12.248 -1.4748 -1.6348  0.2469
 4111SOL     OW23968   1.129   0.528   7.205  0.4498  0.3474 -0.1454
 4111SOL    HW123969   1.098   0.450   7.252 -1.0374  1.0389 -0.0100
 4111SOL    HW223970   1.181   0.493   7.132 -1.3138 -0.4630 -1.0047
 4112SOL     OW23971   3.617   3.129  12.989 -0.3998  0.1556 -0.0990
 4112SOL    HW123972   3.531   3.153  12.955 -0.4168  2.3380  1.4407
 4112SOL    HW223973   3.673   3.149  12.914  0.5330 -2.2312 -0.0646
 4113SOL     OW23974   1.582   4.295   2.725 -0.8077 -0.2254 -0.4940
 4113SOL    HW123975   1.568   4.288   2.631 -0.8326 -1.9861 -0.3555
 4113SOL    HW223976   1.650   4.362   2.728 -0.5040 -0.5430 -0.3817
 4114SOL     OW23977   2.317   1.538  10.268 -0.3037  0.2707 -1.2073
 4114SOL    HW123978   2.264   1.560  10.345  0.9423 -0.4559 -0.1396
 4114SOL    HW223979   2.348   1.452  10.295 -3.3635 -0.2115  0.7531
 4115SOL     OW23980   3.718   1.225   3.887  0.6814 -0.3404 -0.2617
 4115SOL    HW123981   3.624   1.240   3.875  0.4583 -1.5577 -0.0389
 4115SOL    HW223982   3.720   1.237   3.982  1.0704 -0.7739 -0.2188
 4116SOL     OW23983   2.512   1.471   7.182 -0.2722  0.1829 -0.8002
 4116SOL    HW123984   2.514   1.466   7.277 -2.3748 -1.5839 -0.8612
 4116SOL    HW223985   2.520   1.379   7.155  1.4411  0.5443 -1.5139
 4117SOL     OW23986   2.934   3.517   3.045  0.1385  0.6641 -0.1161
 4117SOL    HW123987   2.878   3.563   3.108  0.7443  3.4770 -1.6097
 4117SOL    HW223988   2.992   3.467   3.102 -0.7701 -0.1201  0.1246
 4118SOL     OW23989   1.503   1.895   2.389  0.0204 -0.2711  0.1274
 4118SOL    HW123990   1.414   1.931   2.392  0.5943  1.1031  0.8490
 4118SOL    HW223991   1.553   1.962   2.342 -0.4482 -0.9370 -1.3217
 4119SOL     OW23992   0.218   3.586   5.943 -0.3264 -0.1304  0.3367
 4119SOL    HW123993   0.158   3.603   5.870 -0.8272  0.4826  0.9038
 4119SOL    HW223994   0.172   3.513   5.983 -0.4375 -0.5484 -0.5593
 4120SOL     OW23995   1.857   0.431  12.464 -0.4041  0.0235  0.5920
 4120SOL    HW123996   1.897   0.430  12.377  0.1176  0.6468  0.8339
 4120SOL    HW223997   1.776   0.482  12.454  0.4978  0.8921 -2.2391
 4121SOL     OW23998   1.940   2.691   8.089 -0.2663 -0.1255  0.3144
 4121SOL    HW123999   1.887   2.754   8.138 -0.0258  0.2132  0.1386
 4121SOL    HW224000   1.947   2.744   8.009 -0.0376  0.8892  1.0040
 4122SOL     OW24001   3.474   2.581  17.311 -0.3467 -0.1821 -0.3366
 4122SOL    HW124002   3.401   2.529  17.277 -1.5409  0.2356  1.6116
 4122SOL    HW224003   3.430   2.629  17.381 -0.4089 -0.9587  0.1486
 4123SOL     OW24004   0.552   0.554   4.142 -0.0575 -0.4923 -0.2334
 4123SOL    HW124005   0.600   0.479   4.178 -0.0668  0.3541  1.5540
 4123SOL    HW224006   0.470   0.509   4.122 -0.6485  0.3220  0.3625
 4124SOL     OW24007   0.633   1.490  10.136 -0.2089  0.5061  0.2533
 4124SOL    HW124008   0.725   1.464  10.131 -0.4306 -0.0885 -0.7248
 4124SOL    HW224009   0.604   1.470  10.047  1.2272  0.1581 -0.1210
 4125SOL     OW24010   1.658   2.668   4.336  0.1302 -0.3666 -0.9357
 4125SOL    HW124011   1.630   2.596   4.279 -1.9963 -0.7896  0.6392
 4125SOL    HW224012   1.576   2.713   4.357  0.1562 -0.1634 -1.2603
 4126SOL     OW24013   4.060   0.360  10.413 -0.0201  0.2842  0.1757
 4126SOL    HW124014   4.103   0.275  10.414 -1.5782 -0.4566  2.3696
 4126SOL    HW224015   3.988   0.345  10.352  1.1805  0.9092 -1.4118
 4127SOL     OW24016   2.756   1.581   3.325 -0.0744  0.5545  0.2845
 4127SOL    HW124017   2.727   1.584   3.416  1.2992 -0.1311  0.7346
 4127SOL    HW224018   2.690   1.528   3.282 -1.7331  2.2181  0.7713
 4128SOL     OW24019   1.523   2.479   9.020 -0.0623 -0.0094  0.7319
 4128SOL    HW124020   1.453   2.420   9.045 -0.4208  1.0683  2.2176
 4128SOL    HW224021   1.606   2.434   9.037 -0.0606 -0.9130 -1.6108
 4129SOL     OW24022   1.505   4.311  15.714 -0.2367  0.2637 -0.6477
 4129SOL    HW124023   1.594   4.341  15.728  1.4140 -4.3785 -1.2696
 4129SOL    HW224024   1.531   4.256  15.639 -0.7061  0.1848 -0.7579
 4130SOL     OW24025   2.690   0.622   6.283  0.4945 -0.7200  0.1462
 4130SOL    HW124026   2.619   0.614   6.348  1.1312 -1.2502  0.7799
 4130SOL    HW224027   2.733   0.703   6.310 -0.4383  0.3575 -1.6026
 4131SOL     OW24028   2.043   3.629   8.253  0.1752  0.0793  0.2375
 4131SOL    HW124029   2.014   3.613   8.343  0.0331  0.4236  0.2536
 4131SOL    HW224030   1.989   3.705   8.232  2.9833  1.4245 -2.0826
 4132SOL     OW24031   3.003   2.892  12.851  0.1517  0.0434  0.2126
 4132SOL    HW124032   2.935   2.853  12.797  0.9963 -0.3839 -0.5555
 4132SOL    HW224033   2.960   2.916  12.933 -0.2570 -0.6547  0.1986
 4133SOL     OW24034   4.400   1.302   9.055 -0.3256 -0.0858  0.0281
 4133SOL    HW124035   4.446   1.380   9.085 -0.9258  0.2994 -0.0485
 4133SOL    HW224036   4.465   1.235   9.078 -0.3166 -0.3845 -0.8617
 4134SOL     OW24037   2.698   4.135  12.715 -0.0946 -0.2158 -0.0598
 4134SOL    HW124038   2.700   4.071  12.643  1.9342  1.5531 -1.5677
 4134SOL    HW224039   2.623   4.189  12.688  0.4239  0.4536 -0.1582
 4135SOL     OW24040   0.406   3.583  11.128  0.3663  0.6306  0.5583
 4135SOL    HW124041   0.407   3.679  11.124 -1.5925  0.7228  2.2993
 4135SOL    HW224042   0.314   3.557  11.116  0.9967 -2.3672  2.2815
 4136SOL     OW24043   2.621   4.402  10.480  0.3123 -0.0448  0.2794
 4136SOL    HW124044   2.560   4.435  10.546 -1.1763 -2.7107  0.2334
 4136SOL    HW224045   2.695   4.385  10.539 -0.4913 -2.0184  0.7105
 4137SOL     OW24046   3.180   1.344  13.400 -0.3294  0.0155  0.0394
 4137SOL    HW124047   3.085   1.335  13.392 -0.1859  1.6658 -3.2372
 4137SOL    HW224048   3.193   1.254  13.431 -0.3238 -0.2040 -0.5935
 4138SOL     OW24049   3.886   0.826  13.805  0.2294  0.0337 -0.3634
 4138SOL    HW124050   3.854   0.874  13.728  0.5577  0.6719 -0.1071
 4138SOL    HW224051   3.839   0.744  13.794  0.6354 -0.4219  1.2857
 4139SOL     OW24052   3.448   4.361  13.273 -0.0436  0.0279  0.3992
 4139SOL    HW124053   3.504   4.419  13.222 -1.6316 -0.4629 -1.9146
 4139SOL    HW224054   3.408   4.313  13.201 -0.7189  0.6584  0.3571
 4140SOL     OW24055   1.878   4.486   2.435  0.5113 -0.2268 -0.4970
 4140SOL    HW124056   1.964   4.445   2.434  0.7084  0.1802  0.1247
 4140SOL    HW224057   1.854   4.496   2.343  2.3596 -0.9042 -1.0525
 4141SOL     OW24058   3.437   0.821   4.972  0.5385 -0.5745 -0.5305
 4141SOL    HW124059   3.412   0.905   5.010  0.3386 -0.5644 -0.6829
 4141SOL    HW224060   3.504   0.843   4.908 -1.0835 -0.5633 -2.2437
 4142SOL     OW24061   1.196   1.022   4.237  0.4195  0.1756 -0.0265
 4142SOL    HW124062   1.277   1.064   4.266  0.5958 -0.3995  0.3070
 4142SOL    HW224063   1.183   0.958   4.307 -3.1277  0.3847 -0.4942
 4143SOL     OW24064   0.912   0.233   9.522  0.0122 -0.3437 -0.1043
 4143SOL    HW124065   0.974   0.302   9.546 -0.1646 -1.2196  2.8345
 4143SOL    HW224066   0.955   0.164   9.572 -2.5450  0.1431  2.7663
 4144SOL     OW24067   1.954   2.642  15.621 -0.1661  0.2977 -0.6541
 4144SOL    HW124068   1.955   2.725  15.573 -0.5966  0.8491  0.2626
 4144SOL    HW224069   1.960   2.581  15.548 -0.6145  0.9369 -1.2283
 4145SOL     OW24070   1.801   3.679   5.790  0.5155 -0.2724 -0.1166
 4145SOL    HW124071   1.885   3.671   5.834  0.8372  2.4917 -0.2634
 4145SOL    HW224072   1.752   3.727   5.856  2.1943  2.2699 -0.7419
 4146SOL     OW24073   1.126   4.278   4.311 -0.0762  0.4726  0.2424
 4146SOL    HW124074   1.082   4.315   4.234 -0.5410 -1.1726 -0.2744
 4146SOL    HW224075   1.124   4.344   4.380  0.6918  0.0632  0.6515
 4147SOL     OW24076   2.141   2.068   3.452 -0.2164  0.2810  0.2894
 4147SOL    HW124077   2.154   2.163   3.451 -0.8248  0.3570 -0.4141
 4147SOL    HW224078   2.067   2.061   3.511 -1.2657 -1.3482 -1.2094
 4148SOL     OW24079   4.707   0.335   5.621 -0.0432  0.4608 -0.6825
 4148SOL    HW124080   4.712   0.426   5.593  1.5432  0.2187 -1.1723
 4148SOL    HW224081   4.632   0.342   5.680 -0.8727  0.0317 -1.6866
 4149SOL     OW24082   3.576   2.278  14.594 -0.0154 -0.4563  0.5008
 4149SOL    HW124083   3.535   2.341  14.654  2.5380  1.1057  0.6067
 4149SOL    HW224084   3.583   2.208  14.658  0.5687 -1.7926 -1.0406
 4150SOL     OW24085   1.628   2.651   6.790  0.0674 -0.2432  0.1103
 4150SOL    HW124086   1.555   2.667   6.851  2.8838  0.6267  3.2536
 4150SOL    HW224087   1.639   2.556   6.799 -0.3632 -0.4986 -2.0030
 4151SOL     OW24088   2.348   4.726   2.356  0.2341 -0.4065  0.0904
 4151SOL    HW124089   2.357   4.722   2.261  2.9888 -4.9586  0.5695
 4151SOL    HW224090   2.438   4.713   2.387  0.5572  1.8893  0.1705
 4152SOL     OW24091   0.092   1.945   7.169 -0.4236 -0.6501 -0.1999
 4152SOL    HW124092   0.012   1.992   7.193  0.1344  1.1139 -1.8007
 4152SOL    HW224093   0.060   1.876   7.110  0.9211 -2.6153  1.3637
 4153SOL     OW24094   0.966   1.374  16.181  0.3659 -0.3657  0.5043
 4153SOL    HW124095   1.014   1.323  16.247 -1.4114 -1.1824  1.1776
 4153SOL    HW224096   0.996   1.463  16.199  0.2958 -0.3769  0.6831
 4154SOL     OW24097   3.985   2.982   1.997  0.4687  0.0741  0.3216
 4154SOL    HW124098   4.024   2.947   1.917 -0.1479  0.9965 -0.3849
 4154SOL    HW224099   4.049   2.952   2.062  0.8602 -2.6720 -1.3603
 4155SOL     OW24100   2.590   2.844   7.454  0.0863  0.5376  0.6826
 4155SOL    HW124101   2.605   2.749   7.447 -1.7149  0.2841  0.2320
 4155SOL    HW224102   2.521   2.844   7.520 -0.1063 -0.4499  0.4823
 4156SOL     OW24103   4.399   0.791  10.438 -0.3171  0.5104  0.2261
 4156SOL    HW124104   4.382   0.792  10.532  0.5289  1.1580  0.3734
 4156SOL    HW224105   4.328   0.733  10.414 -0.6459  0.3031  1.6762
 4157SOL     OW24106   2.967   2.806   0.304  0.0564 -0.0744 -0.2234
 4157SOL    HW124107   2.876   2.824   0.328  0.6866  2.3443  0.3303
 4157SOL    HW224108   2.984   2.732   0.362  1.1466  0.3058 -0.0549
 4158SOL     OW24109   4.316   2.820   3.531 -0.0180  0.0156  0.0150
 4158SOL    HW124110   4.310   2.796   3.439  0.8505 -0.0743 -0.0242
 4158SOL    HW224111   4.334   2.737   3.575  0.8389  0.0068 -0.3493
 4159SOL     OW24112   0.310   1.054   5.274 -0.1980 -0.5005  0.2628
 4159SOL    HW124113   0.269   1.126   5.323  2.3129 -0.9675  3.0961
 4159SOL    HW224114   0.306   0.987   5.342 -0.5961 -1.1687 -0.4219
 4160SOL     OW24115   4.593   2.354   6.112 -0.7403  0.3000 -0.1794
 4160SOL    HW124116   4.517   2.412   6.114 -1.3094 -0.3991 -1.3046
 4160SOL    HW224117   4.660   2.410   6.073 -0.6990  2.3556  2.9084
 4161SOL     OW24118   0.720   2.454   1.407  0.1381  0.5132  0.4719
 4161SOL    HW124119   0.777   2.528   1.430 -0.1689  1.7394 -2.7177
 4161SOL    HW224120   0.647   2.491   1.357 -0.8732  1.0017  2.3129
 4162SOL     OW24121   2.491   3.831  12.809 -0.0405  0.5984 -0.1436
 4162SOL    HW124122   2.427   3.821  12.880  1.8488  4.9994  2.1629
 4162SOL    HW224123   2.439   3.823  12.728  0.3877  1.6212 -0.5157
 4163SOL     OW24124   3.632   4.325   5.436  0.6419 -0.2750  0.0067
 4163SOL    HW124125   3.637   4.271   5.516 -1.6402  0.2205  0.4638
 4163SOL    HW224126   3.723   4.356   5.437 -0.0130  1.5948 -0.2514
 4164SOL     OW24127   3.696   1.499  17.162  0.0638  0.5081  0.3982
 4164SOL    HW124128   3.626   1.435  17.172 -1.0479  1.2763 -2.4823
 4164SOL    HW224129   3.739   1.486  17.077 -1.1762  1.1733 -0.3340
 4165SOL     OW24130   3.721   1.890  14.873  0.3700 -0.1573 -0.6970
 4165SOL    HW124131   3.680   1.812  14.909 -0.8067  1.3112  1.1422
 4165SOL    HW224132   3.772   1.851  14.801  0.9131  1.8516 -1.3980
 4166SOL     OW24133   4.428   3.936  11.386 -0.0518  0.0893 -0.0095
 4166SOL    HW124134   4.515   3.959  11.354 -0.5372  2.0723  0.0967
 4166SOL    HW224135   4.378   3.943  11.305 -1.0750  0.1330  0.6222
 4167SOL     OW24136   0.016   1.388   6.887  0.1191 -0.1060 -0.5274
 4167SOL    HW124137   0.039   1.342   6.806 -0.5313 -1.4937  0.0691
 4167SOL    HW224138   0.092   1.446   6.896  0.5476 -0.5363 -1.3428
 4168SOL     OW24139   0.559   1.339   5.879  0.0723  0.1553 -0.1369
 4168SOL    HW124140   0.525   1.294   5.956 -1.7899 -0.2041 -1.1537
 4168SOL    HW224141   0.504   1.304   5.809  0.6342  0.7765 -0.8925
 4169SOL     OW24142   4.595   3.526  12.328  0.5547 -0.1471 -0.2927
 4169SOL    HW124143   4.586   3.611  12.371  1.0874 -0.3972  0.3007
 4169SOL    HW224144   4.511   3.505  12.287 -0.3879 -0.4991  1.8787
 4170SOL     OW24145   3.952   0.115   7.661 -0.4922  0.1259  0.2041
 4170SOL    HW124146   3.886   0.049   7.685 -1.3697  1.0913  0.4462
 4170SOL    HW224147   4.023   0.053   7.647 -0.3241 -0.1287  2.1384
 4171SOL     OW24148   1.886   4.427   4.121 -0.5076 -0.5291  0.0538
 4171SOL    HW124149   1.835   4.399   4.045 -1.8231  1.5393  0.1687
 4171SOL    HW224150   1.968   4.444   4.074 -0.6018  0.5503  0.2748
 4172SOL     OW24151   1.686   3.029   5.357  0.0049 -0.2191 -0.2817
 4172SOL    HW124152   1.648   3.090   5.419 -1.5127 -1.3150 -0.1372
 4172SOL    HW224153   1.605   2.984   5.335 -0.5592  0.0136  1.3050
 4173SOL     OW24154   1.134   0.513   5.596  0.2432  0.8011  0.0365
 4173SOL    HW124155   1.148   0.426   5.632  2.6938  1.2903  0.2742
 4173SOL    HW224156   1.165   0.509   5.505 -1.0675  0.5342 -0.3989
 4174SOL     OW24157   2.326   4.360  17.043  0.2033 -0.2939 -0.6370
 4174SOL    HW124158   2.359   4.338  17.131 -0.7660 -0.0690 -0.2216
 4174SOL    HW224159   2.405   4.374  16.992  0.0641  0.1383 -0.7297
 4175SOL     OW24160   4.220   3.955   6.654 -0.0770 -0.3484 -0.0116
 4175SOL    HW124161   4.230   4.025   6.589 -0.7277 -0.5462 -0.3291
 4175SOL    HW224162   4.145   3.982   6.708 -0.0781  0.0761 -0.2257
 4176SOL     OW24163   3.361   1.784   4.095 -0.4494  0.2765 -0.2692
 4176SOL    HW124164   3.291   1.745   4.043 -0.4394  0.6240 -0.5409
 4176SOL    HW224165   3.344   1.875   4.073  0.8275  0.7388  0.6668
 4177SOL     OW24166   0.840   0.906   4.375  0.1182  0.1824 -0.3323
 4177SOL    HW124167   0.790   0.966   4.321 -1.4603  0.7113  1.7345
 4177SOL    HW224168   0.773   0.839   4.385 -1.1825  1.3940 -0.9778
 4178SOL     OW24169   1.941   2.635   0.738 -0.1865  0.5863 -0.1225
 4178SOL    HW124170   1.896   2.719   0.738  1.6133  1.5339 -1.6192
 4178SOL    HW224171   2.027   2.659   0.771 -0.0885 -0.4579  0.3878
 4179SOL     OW24172   1.060   3.077   3.490 -0.1542 -0.0690  0.3532
 4179SOL    HW124173   1.054   3.042   3.401  1.3259  0.6366 -0.0308
 4179SOL    HW224174   1.073   3.170   3.474 -1.8768 -0.0216 -0.7720
 4180SOL     OW24175   1.415   1.601  15.527  0.6350  0.7415 -0.5111
 4180SOL    HW124176   1.467   1.667  15.573  0.8202 -0.0682  0.4293
 4180SOL    HW224177   1.354   1.564  15.590 -2.2785 -0.0716 -3.8028
 4181SOL     OW24178   1.511   0.770  17.557  0.3431 -0.4448 -0.0295
 4181SOL    HW124179   1.439   0.815  17.601  0.8179 -0.3151  0.6035
 4181SOL    HW224180   1.465   0.690  17.531 -0.1640  0.1492 -0.9775
 4182SOL     OW24181   4.387   1.759   5.957 -0.5531  0.4409 -0.1913
 4182SOL    HW124182   4.397   1.835   5.900  0.8393  1.9112  1.9988
 4182SOL    HW224183   4.430   1.787   6.038 -2.1239  2.2408  0.0044
 4183SOL     OW24184   2.930   3.079   4.402  0.1601  0.1519  0.2035
 4183SOL    HW124185   2.908   2.994   4.439 -1.0787 -0.6024 -2.2596
 4183SOL    HW224186   2.842   3.115   4.391  1.1374  2.6912  0.7592
 4184SOL     OW24187   2.372   4.095   4.853  0.2184 -0.0856 -0.1297
 4184SOL    HW124188   2.390   4.126   4.942 -0.2732 -2.3337  0.7596
 4184SOL    HW224189   2.283   4.064   4.869  0.1803 -0.5852 -1.2732
 4185SOL     OW24190   3.742   4.259  13.226 -0.6405  0.3497 -0.4623
 4185SOL    HW124191   3.762   4.352  13.226  0.5429  0.1100 -0.8509
 4185SOL    HW224192   3.689   4.256  13.306  1.3338 -1.7600  0.7786
 4186SOL     OW24193   4.105   4.435   7.690  0.1309 -0.5917 -0.3321
 4186SOL    HW124194   4.128   4.526   7.675 -0.5996 -0.1778  1.0905
 4186SOL    HW224195   4.055   4.445   7.771  0.2632  2.9510 -0.7165
 4187SOL     OW24196   1.391   2.623  14.919  0.0365 -0.1655  0.2854
 4187SOL    HW124197   1.426   2.550  14.869  4.4218 -1.7813  5.7100
 4187SOL    HW224198   1.302   2.601  14.945 -0.3587  0.0204 -0.9107
 4188SOL     OW24199   2.198   1.167   3.469 -0.4210  0.3125 -0.2499
 4188SOL    HW124200   2.244   1.099   3.518 -1.8761 -0.1486  0.4810
 4188SOL    HW224201   2.135   1.205   3.530 -2.5119 -4.3831  0.5407
 4189SOL     OW24202   4.629   2.425   3.353 -0.3037  0.1964  0.2408
 4189SOL    HW124203   4.703   2.461   3.402 -0.8405  1.2892  0.2483
 4189SOL    HW224204   4.630   2.468   3.267 -1.3515 -1.3540 -0.5409
 4190SOL     OW24205   4.652   2.749   2.283  0.6817  0.7978 -0.4145
 4190SOL    HW124206   4.677   2.670   2.330 -0.7262  1.7706  1.9576
 4190SOL    HW224207   4.556   2.751   2.284  0.7009  0.4182  1.1077
 4191SOL     OW24208   0.080   1.942   9.304 -0.0462 -0.0534  0.1424
 4191SOL    HW124209   0.154   2.001   9.293  0.0568 -0.3298 -0.6386
 4191SOL    HW224210   0.026   1.957   9.227  1.3156  2.4686 -0.3055
 4192SOL     OW24211   0.100   1.457  15.330 -0.0396  0.0199 -0.2132
 4192SOL    HW124212   0.163   1.385  15.333  0.4005  0.3111 -2.4867
 4192SOL    HW224213   0.075   1.449  15.238 -0.9097  1.7770 -0.1322
 4193SOL     OW24214   3.946   0.585   8.626  0.3933  0.0850 -0.3892
 4193SOL    HW124215   4.030   0.625   8.603 -0.6290  1.0584 -2.3779
 4193SOL    HW224216   3.936   0.616   8.716  0.2163 -1.9058  0.2677
 4194SOL     OW24217   2.986   1.502   5.868 -0.1530 -0.5829  0.2993
 4194SOL    HW124218   3.031   1.561   5.808 -0.0913 -1.3144 -0.3677
 4194SOL    HW224219   2.913   1.480   5.810 -0.7004 -0.4848  0.9514
 4195SOL     OW24220   2.667   1.289  13.531  0.1288 -0.5244  0.0878
 4195SOL    HW124221   2.690   1.278  13.439 -1.2878  2.9541 -0.6811
 4195SOL    HW224222   2.748   1.266  13.575  0.3274  1.4477  0.7336
 4196SOL     OW24223   3.039   4.276   6.996 -0.1965  0.0791 -0.4122
 4196SOL    HW124224   3.065   4.222   6.921 -2.1308 -0.8383 -0.4277
 4196SOL    HW224225   3.031   4.205   7.059 -0.8634  1.0933  0.6470
 4197SOL     OW24226   3.189   3.748   5.887 -0.6420 -0.1686  0.2508
 4197SOL    HW124227   3.206   3.821   5.828 -0.3780 -0.9209 -0.5930
 4197SOL    HW224228   3.219   3.781   5.972 -1.6434 -1.4583  1.1035
 4198SOL     OW24229   1.720   0.133   7.527 -0.2839 -0.1681  0.1656
 4198SOL    HW124230   1.678   0.217   7.512 -0.9466 -0.6373 -0.6125
 4198SOL    HW224231   1.665   0.101   7.599 -0.4425  0.4468  0.3153
 4199SOL     OW24232   0.444   2.607  10.584 -0.0741 -0.6345  0.6309
 4199SOL    HW124233   0.532   2.606  10.621  0.2539 -0.0314 -0.1446
 4199SOL    HW224234   0.392   2.640  10.658  1.7021  2.1089  0.6638
 4200SOL     OW24235   0.859   1.510  15.551 -0.3988  0.5568  0.0146
 4200SOL    HW124236   0.922   1.579  15.528 -0.8882  1.1274  0.3755
 4200SOL    HW224237   0.889   1.441  15.492 -0.1150  0.1846  0.6005
 4201SOL     OW24238   1.202   1.022  12.769 -0.0832  0.1358  0.1654
 4201SOL    HW124239   1.288   1.005  12.730 -2.1376  0.2555 -4.3960
 4201SOL    HW224240   1.145   0.982  12.704 -1.7554 -0.4598  2.0072
 4202SOL     OW24241   3.847   0.327  10.223  0.2546 -0.0888  0.6102
 4202SOL    HW124242   3.816   0.336  10.313 -2.9077 -0.9562 -0.4033
 4202SOL    HW224243   3.820   0.236  10.211 -0.1860  0.1934 -0.4864
 4203SOL     OW24244   3.231   1.945   4.649 -0.3084  0.9343 -0.3698
 4203SOL    HW124245   3.202   2.028   4.688 -1.1620 -1.0033  3.0989
 4203SOL    HW224246   3.165   1.880   4.672 -0.6091  1.3264 -0.1162
 4204SOL     OW24247   2.188   4.638   5.816  0.2124 -0.7776  0.4061
 4204SOL    HW124248   2.142   4.555   5.802 -1.3880  0.8380 -3.9376
 4204SOL    HW224249   2.217   4.637   5.907 -0.2055 -0.1337  0.5492
 4205SOL     OW24250   0.514   4.277  14.604 -0.0386  0.0905 -0.0597
 4205SOL    HW124251   0.513   4.226  14.523 -0.5911  2.5686 -1.5835
 4205SOL    HW224252   0.524   4.209  14.672 -0.7610  1.5905  1.5338
 4206SOL     OW24253   3.633   0.760  13.566 -0.5723 -0.4815 -0.3152
 4206SOL    HW124254   3.607   0.735  13.477  0.1213 -1.6604 -0.1845
 4206SOL    HW224255   3.583   0.692  13.611  0.1135 -0.5571  0.3205
 4207SOL     OW24256   3.187   4.070   7.172 -0.1381 -0.0691  0.0449
 4207SOL    HW124257   3.196   4.111   7.258 -1.4100  1.4517 -0.5467
 4207SOL    HW224258   3.128   3.997   7.191 -0.9525  0.6607  0.3260
 4208SOL     OW24259   2.485   4.124   2.896  0.0375  0.8525 -0.3982
 4208SOL    HW124260   2.454   4.201   2.943 -0.2910  0.1989  0.4487
 4208SOL    HW224261   2.565   4.105   2.946 -1.0507 -2.1557  0.1844
 4209SOL     OW24262   4.451   1.869   6.985 -0.4369 -0.0459 -0.0139
 4209SOL    HW124263   4.384   1.888   6.919  0.4804 -0.3984 -1.0499
 4209SOL    HW224264   4.521   1.838   6.928 -1.1500 -0.9569 -0.4086
 4210SOL     OW24265   0.258   2.386   3.054  0.0467 -0.3182  0.3559
 4210SOL    HW124266   0.196   2.459   3.060 -0.3340 -0.7011  1.1554
 4210SOL    HW224267   0.342   2.417   3.088  0.3499 -0.5673 -0.1678
 4211SOL     OW24268   4.220   3.776  13.502  0.3623  0.3160  0.2985
 4211SOL    HW124269   4.240   3.868  13.490 -3.8345  1.1461 -0.3391
 4211SOL    HW224270   4.292   3.751  13.559  1.6605 -1.2745 -2.0118
 4212SOL     OW24271   3.780   3.993   2.731 -0.2573  0.2433  0.0873
 4212SOL    HW124272   3.770   4.086   2.750 -0.8803  0.0418  0.7484
 4212SOL    HW224273   3.795   3.958   2.819 -1.1455  0.1417  0.1919
 4213SOL     OW24274   2.154   3.800   0.010  0.0950  0.2086 -0.5027
 4213SOL    HW124275   2.126   3.847  17.689  1.9158  1.1407 -0.5821
 4213SOL    HW224276   2.219   3.846   0.062 -0.6536  1.5156 -0.7158
 4214SOL     OW24277   2.765   1.429  14.439  0.3869  0.2328  0.7994
 4214SOL    HW124278   2.726   1.375  14.508  1.6410 -1.0162  0.5122
 4214SOL    HW224279   2.775   1.518  14.473  0.8459  1.0710 -1.4912
 4215SOL     OW24280   4.310   2.697   7.393  0.3082 -0.4238  0.3468
 4215SOL    HW124281   4.363   2.618   7.384  0.8944 -0.0248  0.2982
 4215SOL    HW224282   4.233   2.681   7.337 -0.4598  0.1267  1.2439
 4216SOL     OW24283   0.148   0.080   6.329 -0.4455 -0.6045 -0.2560
 4216SOL    HW124284   0.208   0.126   6.271  2.2851 -0.8924  2.3523
 4216SOL    HW224285   0.201   0.045   6.400 -1.8569  1.5905  1.8726
 4217SOL     OW24286   0.776   3.293   1.560 -0.1684  0.1728 -0.0814
 4217SOL    HW124287   0.754   3.260   1.474 -1.3263  1.8052 -0.4215
 4217SOL    HW224288   0.832   3.220   1.587 -2.5170 -1.4847  0.2499
 4218SOL     OW24289   4.719   3.562  10.352  0.2571  0.8499 -0.5688
 4218SOL    HW124290   4.722   3.570  10.257  0.4220  2.2609 -0.4363
 4218SOL    HW224291   4.668   3.481  10.356  1.9190 -0.2133 -0.9696
 4219SOL     OW24292   1.878   1.209   8.723  0.2065 -0.2966  0.9501
 4219SOL    HW124293   1.893   1.199   8.817  0.0005 -1.7985  0.8179
 4219SOL    HW224294   1.918   1.129   8.689 -0.4454  0.3525 -1.3533
 4220SOL     OW24295   0.225   4.097  14.620 -0.0842 -0.4218 -0.3294
 4220SOL    HW124296   0.312   4.065  14.645 -0.2019 -1.3672 -1.1403
 4220SOL    HW224297   0.177   4.016  14.602  0.6088 -0.7677 -0.6313
 4221SOL     OW24298   0.770   1.268   1.062  0.0667 -0.1334 -0.0075
 4221SOL    HW124299   0.724   1.324   1.000 -1.2746 -0.9185  0.2743
 4221SOL    HW224300   0.697   1.248   1.120 -0.9267  0.9740 -0.8920
 4222SOL     OW24301   0.454   2.881  17.338  0.6559 -0.3036  0.2943
 4222SOL    HW124302   0.493   2.958  17.378  0.2328  0.4580 -0.7753
 4222SOL    HW224303   0.366   2.910  17.315 -0.0493  0.1685  3.6253
 4223SOL     OW24304   2.781   2.243   7.672 -0.2041  0.3974  0.2817
 4223SOL    HW124305   2.811   2.282   7.754  2.2491  1.9983 -1.3861
 4223SOL    HW224306   2.694   2.214   7.700  0.6524 -1.3243  1.1810
 4224SOL     OW24307   0.241   0.139   8.272  0.3464  0.2535  0.0922
 4224SOL    HW124308   0.238   0.183   8.357  0.9529  0.1968  0.1462
 4224SOL    HW224309   0.298   0.064   8.292  0.1732  0.7777  2.5796
 4225SOL     OW24310   2.468   0.510   6.510 -0.9653 -0.3587  0.3231
 4225SOL    HW124311   2.478   0.604   6.519  2.1298 -0.6486 -0.1831
 4225SOL    HW224312   2.436   0.504   6.420  0.8136 -2.0286 -0.1892
 4226SOL     OW24313   4.415   2.228   8.220  0.3201 -0.1923  0.2047
 4226SOL    HW124314   4.338   2.283   8.210  0.9481  0.7925  0.7103
 4226SOL    HW224315   4.396   2.167   8.291  0.5331 -1.3397 -0.7269
 4227SOL     OW24316   1.373   2.661   6.945 -0.1246 -0.0811 -0.4252
 4227SOL    HW124317   1.294   2.627   6.902 -0.9395  2.1030 -0.6469
 4227SOL    HW224318   1.330   2.738   6.983 -0.3630  0.5304 -1.9318
 4228SOL     OW24319   1.160   1.498   3.147  0.2772  0.3344 -0.4944
 4228SOL    HW124320   1.109   1.503   3.227 -1.1796 -2.1101 -1.2760
 4228SOL    HW224321   1.142   1.590   3.129  0.4789  0.2149 -1.3172
 4229SOL     OW24322   0.596   2.933   8.772  0.3263 -0.2206 -0.0352
 4229SOL    HW124323   0.636   3.004   8.723 -0.0916 -2.3232 -3.4344
 4229SOL    HW224324   0.543   2.990   8.828 -0.0976 -0.9563  0.3135
 4230SOL     OW24325   1.878   3.956   9.014  0.1870  0.1281  0.0575
 4230SOL    HW124326   1.866   3.990   8.925 -2.4729 -0.7864  0.0621
 4230SOL    HW224327   1.914   4.038   9.048  0.3826  0.8676 -1.9101
 4231SOL     OW24328   3.235   2.113   3.206 -0.2015 -0.3756 -0.2654
 4231SOL    HW124329   3.319   2.095   3.249 -0.3742  1.7850  0.9662
 4231SOL    HW224330   3.174   2.059   3.257 -1.3098  2.0286  0.9786
 4232SOL     OW24331   1.942   3.075   4.380  0.6566  0.9886  0.3414
 4232SOL    HW124332   1.950   3.135   4.306  0.0784 -0.2480 -0.7112
 4232SOL    HW224333   1.933   2.991   4.336  0.5660  0.7620  0.7871
 4233SOL     OW24334   1.851   1.578   3.014 -0.6462 -0.3182  0.4081
 4233SOL    HW124335   1.792   1.652   3.001  0.1991 -0.0461 -1.8326
 4233SOL    HW224336   1.793   1.510   2.979  0.1926  0.4892 -2.5571
 4234SOL     OW24337   4.232   2.040   3.774 -0.2471  0.1427 -1.0564
 4234SOL    HW124338   4.323   2.023   3.798 -0.6079  0.4379  0.4751
 4234SOL    HW224339   4.202   2.078   3.856 -0.2713 -1.5030 -0.2863
 4235SOL     OW24340   3.690   3.601   8.600 -0.3450  0.2794 -0.0186
 4235SOL    HW124341   3.767   3.582   8.654  0.7270  3.0998 -0.5230
 4235SOL    HW224342   3.707   3.695   8.595  0.1196  0.1303 -1.3031
 4236SOL     OW24343   0.254   4.473   9.130  0.5014 -0.3365  0.0093
 4236SOL    HW124344   0.333   4.483   9.077  0.7118 -1.4938  0.0951
 4236SOL    HW224345   0.294   4.495   9.214  1.0234  0.5955 -0.4865
 4237SOL     OW24346   3.391   0.407   3.240  0.6438  0.3535  0.3088
 4237SOL    HW124347   3.327   0.429   3.171  0.8474  1.6030  0.5325
 4237SOL    HW224348   3.327   0.368   3.299  1.3183  1.3692  1.7083
 4238SOL     OW24349   0.624   4.184   3.089  0.2648  0.0927 -0.4132
 4238SOL    HW124350   0.695   4.130   3.053  0.8355  0.9103 -0.5233
 4238SOL    HW224351   0.665   4.271   3.087  0.8352 -0.2117 -2.3385
 4239SOL     OW24352   3.569   0.360   8.899  0.0052  0.2712  0.0076
 4239SOL    HW124353   3.535   0.286   8.949 -0.6032 -0.5087 -1.5447
 4239SOL    HW224354   3.644   0.374   8.956 -0.4045  1.0492  0.3622
 4240SOL     OW24355   3.797   3.642   0.969 -0.0701  0.1419 -0.0604
 4240SOL    HW124356   3.773   3.629   1.061 -1.6801 -0.4006 -0.5672
 4240SOL    HW224357   3.868   3.706   0.971  0.0308  0.0001  1.0646
 4241SOL     OW24358   2.403   4.332   9.122 -0.0765  0.2162 -0.0147
 4241SOL    HW124359   2.441   4.406   9.073 -0.6355  0.4432 -0.1063
 4241SOL    HW224360   2.471   4.318   9.188  0.2427  0.6242 -0.2551
 4242SOL     OW24361   0.471   4.704   3.646  0.2847 -0.3646 -0.2773
 4242SOL    HW124362   0.458   0.026   3.574  1.6578  2.0348  1.5388
 4242SOL    HW224363   0.521   4.637   3.599 -0.5644 -0.1382 -1.5016
 4243SOL     OW24364   3.329   0.995  12.058 -0.2837  0.5683 -0.8533
 4243SOL    HW124365   3.322   1.047  12.138 -0.2814  0.9918 -1.1282
 4243SOL    HW224366   3.421   0.970  12.072 -0.3601  2.3205  2.9435
 4244SOL     OW24367   2.771   4.365   1.218  0.3661 -0.3845 -0.0934
 4244SOL    HW124368   2.866   4.362   1.225  0.4564 -1.2843 -1.5935
 4244SOL    HW224369   2.755   4.386   1.125 -0.2160 -0.5289 -0.0285
 4245SOL     OW24370   3.573   1.282   7.281  0.7760 -0.2545 -0.6883
 4245SOL    HW124371   3.574   1.193   7.317  1.8063 -0.2549 -0.7182
 4245SOL    HW224372   3.612   1.328   7.355  0.4504  0.1569 -0.7744
 4246SOL     OW24373   0.778   0.212   5.261  0.0185 -0.1405 -0.2758
 4246SOL    HW124374   0.773   0.167   5.177 -0.5044 -1.4267  0.4557
 4246SOL    HW224375   0.858   0.178   5.300  0.5878 -0.3124 -1.6201
 4247SOL     OW24376   2.562   0.541  17.298  0.0507  0.2647 -0.0240
 4247SOL    HW124377   2.647   0.581  17.315  1.2598 -2.3812  0.1656
 4247SOL    HW224378   2.540   0.598  17.224  2.4100 -0.5007 -1.3101
 4248SOL     OW24379   1.059   3.517  11.075 -0.3631  0.1840  0.0441
 4248SOL    HW124380   1.074   3.566  11.156 -0.4752  0.8068 -0.3146
 4248SOL    HW224381   1.074   3.431  11.114 -0.8633 -0.3411 -0.9302
 4249SOL     OW24382   3.620   0.157   7.601  0.2677 -0.1193  0.5061
 4249SOL    HW124383   3.693   0.189   7.547 -1.2433  0.6405 -1.0795
 4249SOL    HW224384   3.564   0.234   7.591  1.4871  0.5654 -1.0354
 4250SOL     OW24385   2.038   0.835   2.954  0.1638  0.5242 -0.1434
 4250SOL    HW124386   1.984   0.906   2.990 -0.3126  0.4688 -0.7573
 4250SOL    HW224387   2.112   0.845   3.013  1.3539 -1.0209 -1.4012
 4251SOL     OW24388   1.311   1.574   7.576 -0.7165 -0.1385  0.0157
 4251SOL    HW124389   1.240   1.617   7.622  0.1668  0.6008  0.6849
 4251SOL    HW224390   1.327   1.615   7.491 -1.1151 -1.0438 -0.4972
 4252SOL     OW24391   0.200   2.403   8.960 -0.1183 -0.7394  0.0785
 4252SOL    HW124392   0.218   2.404   8.866  1.3148 -0.1581  0.3534
 4252SOL    HW224393   0.284   2.437   8.991 -0.1755 -0.0614 -0.5017
 4253SOL     OW24394   3.531   2.139  15.467 -0.0525  0.5313  0.4662
 4253SOL    HW124395   3.462   2.108  15.407  1.4175  0.5185 -1.2220
 4253SOL    HW224396   3.534   2.234  15.464  1.1202  0.4447 -0.9753
 4254SOL     OW24397   3.690   2.209  14.008  0.1498 -0.1262  0.2296
 4254SOL    HW124398   3.637   2.150  13.954  1.6027 -2.6321  1.5707
 4254SOL    HW224399   3.767   2.153  14.013  0.1313 -0.0409  1.3611
 4255SOL     OW24400   2.891   4.241   9.095  0.0387 -0.5614  0.3250
 4255SOL    HW124401   2.845   4.320   9.071  0.2899  0.0562  1.8447
 4255SOL    HW224402   2.825   4.174   9.078 -1.4473  0.4125  2.2121
 4256SOL     OW24403   3.413   3.637   7.106 -0.6264 -0.1106 -0.3575
 4256SOL    HW124404   3.351   3.595   7.166 -1.1390  1.5089  0.2509
 4256SOL    HW224405   3.389   3.726   7.130 -2.0448 -1.2902  2.6634
 4257SOL     OW24406   3.444   0.734   4.576 -0.4242 -0.6245  0.2640
 4257SOL    HW124407   3.519   0.720   4.634 -0.5745 -0.0739  0.5880
 4257SOL    HW224408   3.393   0.795   4.629 -0.9734  0.2559 -1.2726
 4258SOL     OW24409   0.115   1.918   6.756 -0.3022 -0.3440 -0.0595
 4258SOL    HW124410   0.163   1.981   6.809  0.6303  1.2533 -2.7594
 4258SOL    HW224411   0.063   1.980   6.704  2.2198  2.4512  0.7397
 4259SOL     OW24412   0.291   3.560  13.433  0.2363 -0.6341 -0.2566
 4259SOL    HW124413   0.237   3.485  13.459  1.6926 -2.1029 -1.4853
 4259SOL    HW224414   0.378   3.527  13.456 -0.1781 -1.1897  0.5239
 4260SOL     OW24415   0.193   3.313   5.638 -1.0577 -0.4518 -0.2624
 4260SOL    HW124416   0.177   3.392   5.690 -0.1642 -0.8791  0.6535
 4260SOL    HW224417   0.127   3.327   5.570 -1.5805  1.0164  0.5474
 4261SOL     OW24418   1.959   1.261  15.379  0.4880 -0.4087  0.9982
 4261SOL    HW124419   1.941   1.269  15.473  0.4313  3.1239  0.6907
 4261SOL    HW224420   1.875   1.294  15.346  1.1533  3.0426  2.7186
 4262SOL     OW24421   0.480   0.643   3.837 -0.5930 -0.0246 -0.2418
 4262SOL    HW124422   0.570   0.659   3.808 -0.9837  0.2571 -1.3176
 4262SOL    HW224423   0.477   0.567   3.895  0.6688  0.8060  0.9043
 4263SOL     OW24424   1.674   0.268  12.141  0.2876 -0.3862  0.0777
 4263SOL    HW124425   1.603   0.236  12.086 -0.6911 -1.0297  1.7179
 4263SOL    HW224426   1.625   0.311  12.211 -0.7256 -0.0981 -0.8220
 4264SOL     OW24427   3.654   2.886   1.528 -0.2275  0.2442  0.0732
 4264SOL    HW124428   3.700   2.964   1.496 -1.5479  0.3738 -1.5279
 4264SOL    HW224429   3.692   2.818   1.473 -1.1944  1.1394 -1.7105
 4265SOL     OW24430   0.325   3.078   0.834  0.6142 -0.4282  0.0815
 4265SOL    HW124431   0.337   3.172   0.819 -0.1084 -0.0602  1.8266
 4265SOL    HW224432   0.246   3.077   0.888  1.4051  3.5959  1.3262
 4266SOL     OW24433   4.126   2.984   6.125  0.2283 -0.1416  0.1774
 4266SOL    HW124434   4.078   3.060   6.090 -0.6886 -2.0503 -2.7471
 4266SOL    HW224435   4.084   2.981   6.210 -0.3637 -0.2614 -0.1184
 4267SOL     OW24436   4.085   3.721   6.943 -0.0557 -0.0559 -0.1227
 4267SOL    HW124437   4.105   3.711   6.850  0.5214 -0.4834  0.0435
 4267SOL    HW224438   4.136   3.654   6.988  1.4272  1.3810  0.3252
 4268SOL     OW24439   3.589   3.871   7.604  0.1371 -0.2726 -0.4904
 4268SOL    HW124440   3.684   3.869   7.589  0.2013  0.5486 -0.1959
 4268SOL    HW224441   3.582   3.964   7.582 -3.1493 -0.5395 -0.5052
 4269SOL     OW24442   1.228   3.898  11.360 -0.1860  0.2334  0.1806
 4269SOL    HW124443   1.190   3.986  11.350  0.5892  0.5690  0.1985
 4269SOL    HW224444   1.304   3.912  11.303 -0.7664 -0.4371 -0.7669
 4270SOL     OW24445   1.173   0.708   9.594 -0.1640 -0.3446  0.5300
 4270SOL    HW124446   1.222   0.689   9.674 -2.4172  0.0489  1.9938
 4270SOL    HW224447   1.192   0.800   9.577  1.5425 -1.0010 -1.1404
 4271SOL     OW24448   0.377   2.418  13.645 -0.4091 -0.2683 -0.2217
 4271SOL    HW124449   0.361   2.472  13.723  1.2384 -0.5360  0.3094
 4271SOL    HW224450   0.470   2.433  13.627 -0.6931  1.4009 -0.3131
 4272SOL     OW24451   2.085   1.533   5.834 -0.1007  0.4396 -0.0508
 4272SOL    HW124452   2.111   1.600   5.770 -0.9807  0.5949 -0.2367
 4272SOL    HW224453   2.153   1.556   5.897 -1.0882  1.2977  0.6808
 4273SOL     OW24454   3.273   0.374  17.718  0.6855 -0.4725 -0.4210
 4273SOL    HW124455   3.237   0.334  17.639 -0.3306 -1.3960  0.5247
 4273SOL    HW224456   3.362   0.374  17.681  0.8526  1.7867  0.0070
 4274SOL     OW24457   1.985   2.937   6.623  0.1869 -0.2680 -0.2268
 4274SOL    HW124458   1.900   2.927   6.666  0.1043  0.3462 -0.2525
 4274SOL    HW224459   2.047   2.978   6.683  0.4977 -0.0644 -0.6819
 4275SOL     OW24460   2.763   4.104   3.220 -0.3005 -0.1848  0.4351
 4275SOL    HW124461   2.854   4.080   3.201  0.1862  1.0926  1.2531
 4275SOL    HW224462   2.778   4.113   3.314 -0.1780 -1.4730  0.5484
 4276SOL     OW24463   3.963   0.798   3.180  0.1740  0.2945 -0.2319
 4276SOL    HW124464   4.026   0.788   3.108  0.0105 -0.6556 -0.2445
 4276SOL    HW224465   4.025   0.823   3.249  0.3729  0.0758 -0.3267
 4277SOL     OW24466   4.177   1.437   6.653  0.2860  0.5866  0.2332
 4277SOL    HW124467   4.180   1.348   6.618 -2.6952  1.0297 -1.1242
 4277SOL    HW224468   4.102   1.453   6.709 -1.3419 -2.2706 -1.1342
 4278SOL     OW24469   1.981   3.173   7.542 -0.6032  0.6017  0.4709
 4278SOL    HW124470   1.971   3.233   7.467 -1.9464 -1.5518 -1.0811
 4278SOL    HW224471   2.075   3.157   7.535 -0.8613 -1.0524  0.8788
 4279SOL     OW24472   2.502   1.071  16.121  0.5077 -0.4211 -0.3466
 4279SOL    HW124473   2.570   1.069  16.054 -0.5656  0.1942 -1.4672
 4279SOL    HW224474   2.538   1.013  16.188  0.9634 -0.1547 -0.3612
 4280SOL     OW24475   2.840   3.098   4.774  0.1934 -0.1083  0.0810
 4280SOL    HW124476   2.932   3.101   4.800 -0.4572  1.1312  2.1804
 4280SOL    HW224477   2.816   3.185   4.744 -0.0690  0.2842  1.4316
 4281SOL     OW24478   2.439   0.334   2.760 -0.7256  0.3329  0.0705
 4281SOL    HW124479   2.451   0.427   2.779 -1.1157  0.5709 -0.8453
 4281SOL    HW224480   2.407   0.325   2.670  0.5816 -1.9367 -0.1589
 4282SOL     OW24481   0.614   2.642  14.587 -0.3642  0.5089 -0.1930
 4282SOL    HW124482   0.615   2.617  14.679  1.2309  0.6686 -0.1625
 4282SOL    HW224483   0.527   2.617  14.557 -0.6666 -0.1908  1.2556
 4283SOL     OW24484   3.721   2.655   2.155  0.7676 -0.0517  0.1344
 4283SOL    HW124485   3.645   2.599   2.168 -1.1575  2.7659  0.8635
 4283SOL    HW224486   3.772   2.643   2.235  0.2924 -1.7759  0.1689
 4284SOL     OW24487   3.736   4.696   5.131  0.6047  0.7418  0.5094
 4284SOL    HW124488   3.660   4.687   5.189 -0.3928  1.4088 -0.7187
 4284SOL    HW224489   3.784   4.616   5.156 -1.7162 -0.9987 -0.6583
 4285SOL     OW24490   1.126   2.580  10.708 -0.2003  0.4524  0.0242
 4285SOL    HW124491   1.199   2.629  10.745 -0.5408  0.0812  1.1700
 4285SOL    HW224492   1.070   2.563  10.784  0.8983 -1.5916  0.3744
 4286SOL     OW24493   2.945   0.949   9.061 -0.0560  0.2233  0.1276
 4286SOL    HW124494   2.873   0.886   9.055  1.1182 -1.2264  1.1900
 4286SOL    HW224495   2.931   1.005   8.985  0.0804 -1.0023 -0.8068
 4287SOL     OW24496   3.700   0.363   6.014  0.4778  0.5236  0.3595
 4287SOL    HW124497   3.753   0.410   6.078  1.1575  1.4448 -0.8649
 4287SOL    HW224498   3.611   0.381   6.044 -0.5946 -2.1068 -1.1896
 4288SOL     OW24499   2.008   0.243   4.929  0.4682  0.0140 -0.2446
 4288SOL    HW124500   1.952   0.172   4.961 -0.0081  0.3244 -0.3923
 4288SOL    HW224501   1.980   0.314   4.987 -0.6144  0.0920 -0.8728
 4289SOL     OW24502   1.907   3.623   8.487  0.3339  0.1408 -0.6326
 4289SOL    HW124503   1.957   3.555   8.532 -1.7907  0.3340  1.9517
 4289SOL    HW224504   1.892   3.684   8.558 -0.5200 -0.1370 -0.5750
 4290SOL     OW24505   1.375   3.544   4.424 -0.3041  0.1006  0.0085
 4290SOL    HW124506   1.345   3.629   4.393  0.2107 -0.2798 -1.4906
 4290SOL    HW224507   1.344   3.501   4.345 -0.1042  0.6550 -0.3638
 4291SOL     OW24508   4.646   3.970   4.323 -0.1216  0.0738 -0.2212
 4291SOL    HW124509   4.628   3.950   4.231  2.7740 -3.2369 -0.0462
 4291SOL    HW224510   4.663   3.881   4.353 -2.5380  0.1089  1.2993
 4292SOL     OW24511   3.115   2.608   5.878  0.0830 -0.4766  0.0104
 4292SOL    HW124512   3.143   2.677   5.938 -2.7667  1.6329 -1.0503
 4292SOL    HW224513   3.020   2.615   5.886  0.1546  0.3275  0.1711
 4293SOL     OW24514   4.206   1.769   2.724  0.7964 -1.0702  0.1888
 4293SOL    HW124515   4.136   1.823   2.686  1.7810 -0.0356 -0.1484
 4293SOL    HW224516   4.195   1.690   2.671  1.4815 -0.0660 -1.4643
 4294SOL     OW24517   2.349   2.605   0.968 -0.2600 -0.3864  0.0554
 4294SOL    HW124518   2.392   2.636   0.888 -0.4646  0.6400  0.3458
 4294SOL    HW224519   2.409   2.539   1.005  0.6720 -0.4999 -1.6337
 4295SOL     OW24520   0.597   3.303   5.250  0.0935  0.0237 -0.4460
 4295SOL    HW124521   0.510   3.339   5.265  0.7681  1.2057  0.5856
 4295SOL    HW224522   0.602   3.243   5.325 -0.5353 -0.0033 -0.4286
 4296SOL     OW24523   4.686   2.081   2.810 -0.4886 -0.0865 -0.3246
 4296SOL    HW124524   4.712   2.086   2.902 -1.4436  1.3237 -0.1296
 4296SOL    HW224525   4.660   1.991   2.795  1.1187 -0.4387 -1.0183
 4297SOL     OW24526   1.976   1.672   2.571  0.1910  0.1004 -0.5558
 4297SOL    HW124527   2.055   1.722   2.592  0.5495 -1.0506  0.8600
 4297SOL    HW224528   2.012   1.613   2.505  0.3411 -0.5902  0.1387
 4298SOL     OW24529   3.783   1.736   2.399 -0.1159  0.4736 -0.3305
 4298SOL    HW124530   3.692   1.707   2.403  0.3036 -0.6238  1.1045
 4298SOL    HW224531   3.804   1.738   2.492  0.4242  1.0020 -0.4670
 4299SOL     OW24532   3.861   3.523  10.671  0.0017  0.1104 -0.2663
 4299SOL    HW124533   3.867   3.432  10.640 -1.4961  0.3957 -1.3550
 4299SOL    HW224534   3.879   3.517  10.765 -1.9577  0.9348  0.1536
 4300SOL     OW24535   1.456   1.081   7.034  0.1941 -0.6865 -0.3946
 4300SOL    HW124536   1.385   1.073   7.098  0.5475  0.2743  0.1252
 4300SOL    HW224537   1.463   1.173   7.006 -1.9889 -0.9245 -1.6886
 4301SOL     OW24538   4.033   1.147   9.517  0.0324  0.3402 -0.1488
 4301SOL    HW124539   3.948   1.103   9.518 -0.0485  0.5349  2.0882
 4301SOL    HW224540   4.016   1.207   9.444  1.0374  1.0902  0.2394
 4302SOL     OW24541   1.602   2.904   7.457 -0.1812 -0.6989 -0.3667
 4302SOL    HW124542   1.697   2.911   7.465  0.0751 -1.0365 -3.1874
 4302SOL    HW224543   1.586   2.848   7.533 -2.3536 -0.3879 -0.5953
 4303SOL     OW24544   4.154   3.006  12.604  0.0453  0.9668  0.5405
 4303SOL    HW124545   4.092   2.939  12.633 -3.5847  2.8524 -2.7763
 4303SOL    HW224546   4.230   2.984  12.657  0.2795  2.4272  0.8046
 4304SOL     OW24547   2.202   4.112   9.641 -0.0885  0.0216  0.5674
 4304SOL    HW124548   2.238   4.043   9.584 -2.2120 -0.9275  0.3820
 4304SOL    HW224549   2.188   4.046   9.710 -0.5510 -0.3757  0.0958
 4305SOL     OW24550   4.071   4.686   5.704 -0.4043  0.0898  0.4823
 4305SOL    HW124551   3.988   4.732   5.691  0.3400  1.1754 -0.4054
 4305SOL    HW224552   4.072   4.649   5.616  0.6838  2.4289 -0.4721
 4306SOL     OW24553   1.590   2.316   8.585  0.6647  0.3077  0.5013
 4306SOL    HW124554   1.528   2.254   8.546  0.5257  0.5005  0.4146
 4306SOL    HW224555   1.532   2.357   8.650  2.4786  2.9581  0.4438
 4307SOL     OW24556   0.427   1.436   3.494 -0.4941 -0.0382  0.0796
 4307SOL    HW124557   0.510   1.464   3.532  0.0788 -0.8390 -0.5976
 4307SOL    HW224558   0.416   1.346   3.524 -1.4603 -0.1715 -0.6674
 4308SOL     OW24559   1.144   1.736   7.749  0.1148 -0.4249 -0.0861
 4308SOL    HW124560   1.164   1.695   7.834  1.3788 -0.9317 -0.6334
 4308SOL    HW224561   1.133   1.829   7.770  1.2995 -0.5076  0.9216
 4309SOL     OW24562   1.226   4.063   4.474  0.1760  0.3239 -0.2833
 4309SOL    HW124563   1.224   4.104   4.561 -0.1464 -1.0851  0.3643
 4309SOL    HW224564   1.236   4.137   4.414  1.5093  0.7618  0.4777
 4310SOL     OW24565   3.522   0.537   7.222 -0.4899  0.0910 -0.1370
 4310SOL    HW124566   3.559   0.465   7.172 -0.4647  1.4544 -2.0545
 4310SOL    HW224567   3.428   0.535   7.209 -0.2998  1.0754 -1.5905
 4311SOL     OW24568   3.071   4.420   4.406  0.7096  0.8756 -0.1878
 4311SOL    HW124569   2.983   4.385   4.394  0.7749  0.8725 -0.6326
 4311SOL    HW224570   3.073   4.488   4.474  2.7581  0.3686  0.2422
 4312SOL     OW24571   0.939   0.915   8.046  0.4035  0.7194 -0.0487
 4312SOL    HW124572   0.861   0.944   7.999 -0.2023 -0.0861  0.4696
 4312SOL    HW224573   1.014   0.945   7.994  0.6606 -0.3020 -0.2640
 4313SOL     OW24574   4.103   4.712  10.334  0.0411 -0.0219 -0.7239
 4313SOL    HW124575   4.075   4.625  10.363  1.1429 -0.1256  0.0057
 4313SOL    HW224576   4.031   4.728  10.273  0.6574  3.9674 -0.3986
 4314SOL     OW24577   2.514   0.938   4.015  0.2488  0.3093 -0.6186
 4314SOL    HW124578   2.435   0.964   3.967 -1.6715 -2.3480  1.0648
 4314SOL    HW224579   2.576   1.001   3.978  0.3043  1.5593  1.5917
 4315SOL     OW24580   2.141   3.900   0.395 -0.1966  0.1152  0.1570
 4315SOL    HW124581   2.223   3.915   0.347 -0.5780  0.4410 -0.3828
 4315SOL    HW224582   2.081   3.941   0.334  2.2251  1.8408 -1.0822
 4316SOL     OW24583   0.790   2.225   0.661 -0.3459 -0.1151  0.1558
 4316SOL    HW124584   0.876   2.192   0.636 -0.6911 -0.3841 -0.6966
 4316SOL    HW224585   0.753   2.146   0.701 -1.8719  0.4987 -0.0322
 4317SOL     OW24586   1.453   3.597   6.632 -0.2478 -0.0379  0.5175
 4317SOL    HW124587   1.381   3.658   6.621 -1.5398 -1.8014 -0.6875
 4317SOL    HW224588   1.517   3.627   6.567 -0.4795 -0.8393 -0.0704
 4318SOL     OW24589   0.685   4.008   3.475  0.1515 -0.2660  0.0277
 4318SOL    HW124590   0.623   4.043   3.411  1.5019  2.0906  0.0265
 4318SOL    HW224591   0.625   3.973   3.541 -1.2881  2.7094  0.2819
 4319SOL     OW24592   0.913   2.601   7.103 -0.0387  0.1475  0.2894
 4319SOL    HW124593   0.870   2.686   7.096 -0.1508  0.0663  0.0013
 4319SOL    HW224594   0.828   2.557   7.111 -0.9980  1.8470 -0.6078
 4320SOL     OW24595   1.107   3.763   2.141 -0.0846  0.7803 -0.5375
 4320SOL    HW124596   1.089   3.762   2.235 -0.7837  1.5018 -0.6597
 4320SOL    HW224597   1.036   3.701   2.124  0.2297  0.8141 -1.9671
 4321SOL     OW24598   3.142   4.088   9.433 -0.2642  0.6693  0.3958
 4321SOL    HW124599   3.156   4.119   9.343 -0.9212  0.1422  0.1030
 4321SOL    HW224600   3.135   4.170   9.481  0.8860  1.5118 -0.8635
 4322SOL     OW24601   3.159   2.859   1.435 -0.5679 -0.2364  0.7257
 4322SOL    HW124602   3.083   2.876   1.380 -0.3037 -0.7702  0.1989
 4322SOL    HW224603   3.178   2.949   1.463 -0.9701 -0.1944  0.8670
 4323SOL     OW24604   2.872   4.102   3.718 -1.2447 -0.4685 -0.5381
 4323SOL    HW124605   2.855   4.180   3.772  1.9378 -0.3217  0.2813
 4323SOL    HW224606   2.961   4.115   3.684 -0.6820  0.8754  1.4440
 4324SOL     OW24607   0.573   4.654   5.905  0.1853 -0.1971 -0.4904
 4324SOL    HW124608   0.533   4.654   5.818  0.2946 -0.8989 -0.5379
 4324SOL    HW224609   0.661   4.673   5.870  0.1709  1.3658  0.3085
 4325SOL     OW24610   3.737   3.061  17.253 -0.6546  0.1805 -0.4094
 4325SOL    HW124611   3.708   3.045  17.163  2.3123 -1.2829 -1.1010
 4325SOL    HW224612   3.747   3.156  17.260  0.6511 -0.0024  0.1965
 4326SOL     OW24613   2.006   1.668   3.925  0.1742  0.5905 -0.1114
 4326SOL    HW124614   1.973   1.758   3.928  1.0494  0.8669  1.2837
 4326SOL    HW224615   1.966   1.635   4.005 -0.0425  0.1685 -0.3973
 4327SOL     OW24616   0.182   2.575  13.855 -0.1839 -0.1702 -0.0759
 4327SOL    HW124617   0.139   2.559  13.771  1.0348  1.1601 -0.9626
 4327SOL    HW224618   0.212   2.664  13.833 -0.1033 -0.1545  0.0957
 4328SOL     OW24619   3.108   0.678   6.934  0.8223  0.0582  0.5131
 4328SOL    HW124620   3.058   0.671   6.852  0.2270 -0.2392  0.9008
 4328SOL    HW224621   3.042   0.668   7.003 -0.4054  1.7428 -0.4158
 4329SOL     OW24622   1.951   2.921   0.515 -0.1228 -0.3906 -0.0986
 4329SOL    HW124623   2.003   2.975   0.456  0.7873  1.1068  2.0580
 4329SOL    HW224624   1.964   2.963   0.601  3.3510 -0.0419 -0.7843
 4330SOL     OW24625   3.994   2.054  17.601 -0.0719  0.2379 -0.3423
 4330SOL    HW124626   3.958   1.991  17.664 -0.1105  1.0919  0.4887
 4330SOL    HW224627   4.015   2.128  17.657  0.7398 -0.4212  0.2105
 4331SOL     OW24628   1.603   3.605  14.339  0.3591 -0.1978  0.5362
 4331SOL    HW124629   1.593   3.518  14.300 -0.4241  0.4881 -0.8129
 4331SOL    HW224630   1.605   3.571  14.428  1.2073  1.1337  1.0214
 4332SOL     OW24631   0.452   0.505   7.948  1.0990 -0.0276 -0.1240
 4332SOL    HW124632   0.420   0.593   7.966 -0.6700 -0.3210 -1.8702
 4332SOL    HW224633   0.498   0.522   7.866 -1.7984 -0.7933 -1.9072
 4333SOL     OW24634   2.820   1.092   8.401 -0.0791  0.3052  0.0425
 4333SOL    HW124635   2.884   1.067   8.334  0.6158 -0.9118  1.1710
 4333SOL    HW224636   2.837   1.025   8.468 -0.9547  1.2040  1.1614
 4334SOL     OW24637   4.735   1.147   5.968 -0.2133  0.0462 -0.5747
 4334SOL    HW124638   0.029   1.138   6.057 -0.3418  0.4211 -0.4884
 4334SOL    HW224639   4.661   1.207   5.975  1.1692  1.6526  0.2991
 4335SOL     OW24640   3.285   0.867   9.426  0.6851  0.6005  0.1611
 4335SOL    HW124641   3.360   0.816   9.397 -0.1727 -0.7474  0.2817
 4335SOL    HW224642   3.218   0.850   9.358  2.5571  0.2589 -1.5912
 4336SOL     OW24643   2.743   4.117   5.829 -0.0267  0.3453  0.2079
 4336SOL    HW124644   2.735   4.130   5.923 -0.3717 -1.6646  0.4686
 4336SOL    HW224645   2.725   4.023   5.825  0.3516  0.2251  1.2079
 4337SOL     OW24646   3.673   0.316  13.899 -0.1717  0.1565 -0.0945
 4337SOL    HW124647   3.729   0.330  13.822  1.3581 -0.8510  0.8335
 4337SOL    HW224648   3.594   0.366  13.878 -0.4525  0.1149  0.9065
 4338SOL     OW24649   4.378   0.481   7.255 -0.2840  0.5434 -0.6128
 4338SOL    HW124650   4.376   0.492   7.350 -1.5388 -0.0124 -0.5636
 4338SOL    HW224651   4.465   0.515   7.235  0.1946 -0.7412 -0.7440
 4339SOL     OW24652   0.357   0.511   6.008  0.7379 -0.0574  0.8364
 4339SOL    HW124653   0.323   0.422   6.000 -2.2591  1.0501  1.3160
 4339SOL    HW224654   0.450   0.498   5.988  0.8069 -0.6951  1.5284
 4340SOL     OW24655   1.269   1.845   7.362  0.3816  0.4770 -0.1726
 4340SOL    HW124656   1.238   1.925   7.320 -0.0290  0.1504 -0.4814
 4340SOL    HW224657   1.312   1.869   7.445  2.9530  0.5984 -1.5342
 4341SOL     OW24658   1.536   1.520   3.241 -0.3825  0.2218 -0.2160
 4341SOL    HW124659   1.444   1.506   3.218 -0.9013 -0.1105  2.1151
 4341SOL    HW224660   1.578   1.436   3.255  1.2556  1.2867  1.1979
 4342SOL     OW24661   2.127   0.275   7.227 -0.0447  0.1994 -0.0190
 4342SOL    HW124662   2.050   0.294   7.281  0.2424 -0.1037  0.4959
 4342SOL    HW224663   2.133   0.359   7.181 -0.7687 -0.3582 -1.1205
 4343SOL     OW24664   3.629   3.144   6.136  0.0910 -0.1076  0.4470
 4343SOL    HW124665   3.659   3.166   6.224  1.3126 -0.6516  0.1685
 4343SOL    HW224666   3.600   3.230   6.102  1.9661  0.0379 -0.7883
 4344SOL     OW24667   1.382   2.085   0.871  0.0077  0.4834  0.0938
 4344SOL    HW124668   1.430   2.077   0.788  0.4358 -1.7410  0.5651
 4344SOL    HW224669   1.377   2.179   0.884  2.2399  0.8214 -1.5379
 4345SOL     OW24670   0.366   2.320  12.873  0.5240 -0.4691  0.0220
 4345SOL    HW124671   0.395   2.367  12.952  0.2023 -2.1282  1.1313
 4345SOL    HW224672   0.296   2.272  12.918 -0.3812  0.6606 -0.1696
 4346SOL     OW24673   3.218   3.096   9.563 -0.0384 -0.2495  0.4088
 4346SOL    HW124674   3.267   3.119   9.484  2.4321  2.1098  2.6057
 4346SOL    HW224675   3.158   3.032   9.523 -0.4165  0.9131 -0.8628
 4347SOL     OW24676   2.649   3.682   4.394  0.3595 -0.3963 -0.9327
 4347SOL    HW124677   2.590   3.695   4.320  1.9417 -0.8961 -2.2699
 4347SOL    HW224678   2.659   3.770   4.431  1.8803 -1.4111  1.0468
 4348SOL     OW24679   3.910   1.507   5.656  0.4024 -0.0887 -0.2737
 4348SOL    HW124680   3.961   1.577   5.616 -0.0812  0.3802 -0.0805
 4348SOL    HW224681   3.884   1.447   5.585 -0.2936  0.0655 -0.1568
 4349SOL     OW24682   1.813   2.639   0.300  0.1737 -0.2550  0.5265
 4349SOL    HW124683   1.766   2.646   0.383  0.2324 -1.8749  0.7070
 4349SOL    HW224684   1.798   2.546   0.283 -1.6779  0.3652 -1.1888
 4350SOL     OW24685   2.671   2.974   4.604  0.3697  0.2989 -0.2477
 4350SOL    HW124686   2.740   3.010   4.660  0.5932  0.0810 -0.3815
 4350SOL    HW224687   2.642   3.051   4.555 -1.1947 -0.3520 -0.3315
 4351SOL     OW24688   3.795   1.844   4.937 -0.3095 -0.2876  0.3554
 4351SOL    HW124689   3.752   1.926   4.910 -0.6501  0.0930  2.0804
 4351SOL    HW224690   3.710   1.802   4.951  1.0323 -2.4558  1.7812
 4352SOL     OW24691   0.317   3.857   5.063 -0.1417  0.0784 -0.2150
 4352SOL    HW124692   0.400   3.825   5.099  0.3337  0.8946 -0.5952
 4352SOL    HW224693   0.353   3.933   5.019 -0.1960  0.8788  1.1357
 4353SOL     OW24694   2.801   2.341  12.238 -0.1115 -0.4461 -0.4547
 4353SOL    HW124695   2.857   2.413  12.265  0.6257 -1.1001 -0.2602
 4353SOL    HW224696   2.752   2.387  12.169 -2.7943 -0.8985  1.1324
 4354SOL     OW24697   3.466   1.614  10.346 -0.7407 -1.2733  0.1928
 4354SOL    HW124698   3.376   1.585  10.357 -1.0760 -0.6112 -0.8469
 4354SOL    HW224699   3.460   1.687  10.408  0.0136 -2.6415  1.8979
 4355SOL     OW24700   3.771   0.578   2.423 -0.3095  0.0821  0.0928
 4355SOL    HW124701   3.690   0.592   2.472 -0.0143  0.6661  0.4126
 4355SOL    HW224702   3.813   0.520   2.487  0.7611 -0.8668 -1.4534
 4356SOL     OW24703   3.874   3.440   3.647  0.3930 -0.1747  0.0826
 4356SOL    HW124704   3.949   3.488   3.612  0.0865  1.5121  1.7015
 4356SOL    HW224705   3.914   3.354   3.661  1.1120  0.2096  0.4317
 4357SOL     OW24706   1.370   4.554   6.171  0.5535 -0.3812  0.4111
 4357SOL    HW124707   1.419   4.572   6.251  2.0811 -0.9422 -0.3935
 4357SOL    HW224708   1.441   4.514   6.120  1.0189  1.9750 -0.8023
 4358SOL     OW24709   0.126   0.320   8.081  0.0296  0.3340 -0.4787
 4358SOL    HW124710   0.169   0.285   8.159 -0.2428  2.1429  0.4721
 4358SOL    HW224711   0.100   0.405   8.117 -0.1240  0.3560 -0.6424
 4359SOL     OW24712   4.039   1.315   8.798  0.1855  0.6370  0.7691
 4359SOL    HW124713   4.101   1.277   8.861  1.5982 -0.5673 -1.3572
 4359SOL    HW224714   4.029   1.408   8.818 -0.2405  0.4632  1.3570
 4360SOL     OW24715   2.450   3.249   0.195  0.4250  0.7028  0.0072
 4360SOL    HW124716   2.413   3.335   0.172  0.1597 -0.1875 -2.9104
 4360SOL    HW224717   2.455   3.245   0.291  2.3157 -0.6818 -0.1397
 4361SOL     OW24718   2.608   0.058  11.908  0.0219  0.1807 -0.7394
 4361SOL    HW124719   2.601   4.704  11.895  1.0098  0.0844 -0.5786
 4361SOL    HW224720   2.602   0.070  12.003  0.7376  0.3966 -0.7202
 4362SOL     OW24721   0.009   2.606   8.344  0.4721  0.1873 -0.2334
 4362SOL    HW124722   4.730   2.683   8.397  0.5495  0.3036 -0.3760
 4362SOL    HW224723   4.728   2.541   8.411  0.8451  0.4974  0.1836
 4363SOL     OW24724   3.297   0.075   2.277 -0.0584 -0.0025  0.0854
 4363SOL    HW124725   3.378   0.104   2.235 -1.4028  0.9550 -1.8668
 4363SOL    HW224726   3.296   0.143   2.345 -1.4423  1.1986 -1.1461
 4364SOL     OW24727   3.477   1.448   6.973  0.0122  0.1019 -0.3766
 4364SOL    HW124728   3.540   1.478   7.038 -1.2788 -0.2865  1.0664
 4364SOL    HW224729   3.428   1.525   6.942  1.7410  1.0319 -0.7811
 4365SOL     OW24730   4.097   4.449   2.788  0.0545 -0.3268  0.0190
 4365SOL    HW124731   4.158   4.509   2.745 -1.1593 -0.0381 -1.3035
 4365SOL    HW224732   4.008   4.481   2.777  0.6905  0.9178 -1.5127
 4366SOL     OW24733   1.697   3.602  10.500  0.3704  0.1356  0.3753
 4366SOL    HW124734   1.742   3.644  10.573  3.7782 -3.7320  0.4913
 4366SOL    HW224735   1.772   3.547  10.476  0.9224  0.7878  0.5887
 4367SOL     OW24736   1.405   3.327  16.458 -0.1859  0.1395 -0.3503
 4367SOL    HW124737   1.429   3.397  16.398 -0.6523  1.4001  0.9185
 4367SOL    HW224738   1.412   3.251  16.400  0.7313  2.0756 -2.7581
 4368SOL     OW24739   1.821   1.429   2.229 -0.9292  0.3328  0.1173
 4368SOL    HW124740   1.758   1.466   2.291 -1.2203  0.3087 -0.1654
 4368SOL    HW224741   1.788   1.458   2.144  0.5909  1.2505 -0.1620
 4369SOL     OW24742   2.646   1.973   4.294  0.4278 -0.0527 -0.2940
 4369SOL    HW124743   2.596   1.956   4.214 -0.4198  0.7921  0.0495
 4369SOL    HW224744   2.626   1.893   4.341 -1.4089  0.6778  0.1615
 4370SOL     OW24745   4.126   3.946  12.759  0.0967  0.4296  0.0979
 4370SOL    HW124746   4.188   3.893  12.810 -1.0091 -0.4386  0.5294
 4370SOL    HW224747   4.150   4.038  12.771 -0.6234  0.9009 -2.0755
 4371SOL     OW24748   3.850   0.261   5.097  0.3246  0.5760 -0.0134
 4371SOL    HW124749   3.842   0.174   5.135  1.3659  0.9648  1.1432
 4371SOL    HW224750   3.804   0.318   5.159  1.5998  2.0999 -0.4583
 4372SOL     OW24751   2.634   0.398   3.461 -0.1608 -0.1971 -0.0736
 4372SOL    HW124752   2.566   0.339   3.427  0.0757 -0.2922 -0.3837
 4372SOL    HW224753   2.713   0.344   3.459 -0.9546 -1.3611  0.1664
 4373SOL     OW24754   2.865   0.734   2.852  0.3071 -0.3142 -0.7364
 4373SOL    HW124755   2.853   0.824   2.823 -0.9534 -0.3190 -0.2214
 4373SOL    HW224756   2.954   0.740   2.885  0.2421  2.3185 -1.0277
 4374SOL     OW24757   1.399   4.705   6.811  0.0954 -0.6035 -0.5023
 4374SOL    HW124758   1.474   0.014   6.847 -0.5789  1.2970 -1.6921
 4374SOL    HW224759   1.435   4.617   6.823  2.0956  0.2739 -0.0371
 4375SOL     OW24760   3.190   0.506  16.959 -0.4800 -0.2431  0.1295
 4375SOL    HW124761   3.178   0.586  17.010 -0.5513  0.0366 -0.3256
 4375SOL    HW224762   3.104   0.463  16.957  0.2449 -1.6348 -1.5581
 4376SOL     OW24763   1.066   4.260  10.149  0.0550 -0.1054  0.0393
 4376SOL    HW124764   1.076   4.217  10.234 -0.2456 -0.0170  0.1193
 4376SOL    HW224765   1.113   4.205  10.085 -1.0332 -0.3893 -0.5213
 4377SOL     OW24766   3.009   2.694  16.780 -0.0329 -0.5929  0.3448
 4377SOL    HW124767   2.946   2.716  16.849  0.5933 -0.4997  0.8911
 4377SOL    HW224768   3.062   2.627  16.823 -0.4766  0.6674  2.8486
 4378SOL     OW24769   2.964   1.751   2.471 -0.1442 -0.5359  0.1425
 4378SOL    HW124770   2.888   1.785   2.518  0.3626 -0.1773  0.7094
 4378SOL    HW224771   2.975   1.804   2.392  0.1304  0.0140  0.5436
 4379SOL     OW24772   1.190   3.709  17.500  0.1065  0.1724  0.2112
 4379SOL    HW124773   1.141   3.792  17.496 -1.1137 -0.4827  1.5022
 4379SOL    HW224774   1.119   3.645  17.504 -0.3183  0.7642  2.6321
 4380SOL     OW24775   1.064   1.159   2.776 -0.1420 -0.3835  0.0543
 4380SOL    HW124776   0.973   1.135   2.761 -0.7769  2.8098 -1.4405
 4380SOL    HW224777   1.097   1.078   2.814 -2.0244 -2.4524 -2.7360
 4381SOL     OW24778   0.442   0.094  16.518  0.1654 -0.1105 -0.2428
 4381SOL    HW124779   0.508   0.053  16.574  0.6714 -2.0917 -2.2879
 4381SOL    HW224780   0.494   0.106  16.439  0.5534 -1.2088 -0.1574
 4382SOL     OW24781   0.036   3.560   7.281 -0.3796  0.7333  0.2942
 4382SOL    HW124782   0.082   3.588   7.201 -0.3537 -0.5889 -0.1481
 4382SOL    HW224783   4.735   3.480   7.248 -0.8735 -0.0481  2.8436
 4383SOL     OW24784   2.844   4.400  12.577  0.0201 -0.3909  0.1415
 4383SOL    HW124785   2.883   4.313  12.585 -1.4978 -1.1281 -0.4246
 4383SOL    HW224786   2.826   4.426  12.667  0.0250 -1.4758  0.4555
 4384SOL     OW24787   4.162   0.472   7.876  0.4200  0.2608  0.0627
 4384SOL    HW124788   4.199   0.386   7.856  0.1905  0.3538 -0.7655
 4384SOL    HW224789   4.239   0.528   7.862  0.7239 -0.7801 -2.4061
 4385SOL     OW24790   2.368   3.728   5.610  0.3515  0.5707 -0.2147
 4385SOL    HW124791   2.313   3.740   5.532 -2.2451 -0.1588  1.5166
 4385SOL    HW224792   2.390   3.819   5.630 -0.4103  0.8961 -0.8595
 4386SOL     OW24793   1.701   1.760   4.686  0.0320 -0.6637 -0.5640
 4386SOL    HW124794   1.781   1.769   4.634  2.3904 -2.8914  2.6332
 4386SOL    HW224795   1.680   1.667   4.686  1.9223 -1.1037 -0.8851
 4387SOL     OW24796   3.726   4.082  10.844 -0.5230 -0.4368  0.6067
 4387SOL    HW124797   3.810   4.063  10.886  1.0633  0.1609 -2.2735
 4387SOL    HW224798   3.683   3.999  10.864 -0.6710  0.2259  2.9889
 4388SOL     OW24799   1.024   2.917   4.284  0.6145  0.1084 -0.8905
 4388SOL    HW124800   0.971   2.969   4.225  2.4977 -0.1673 -2.8488
 4388SOL    HW224801   0.965   2.888   4.353  0.6312  2.4022  0.0616
 4389SOL     OW24802   4.720   2.870   4.403 -0.2894 -0.5142  0.3916
 4389SOL    HW124803   0.074   2.887   4.409 -0.4295 -0.1205  1.4525
 4389SOL    HW224804   4.716   2.784   4.446 -2.0619 -0.1648  0.9123
 4390SOL     OW24805   2.632   3.441   7.145 -0.1357 -0.5181 -0.3009
 4390SOL    HW124806   2.665   3.352   7.156 -1.0710 -0.7059  1.0068
 4390SOL    HW224807   2.542   3.441   7.179 -0.0937 -0.7436 -0.1927
 4391SOL     OW24808   0.242   1.604   1.133  0.5361  0.0152  0.3927
 4391SOL    HW124809   0.200   1.660   1.067  0.0725 -0.2482  0.4665
 4391SOL    HW224810   0.179   1.614   1.205 -1.5634  4.2232 -1.9835
 4392SOL     OW24811   3.278   1.261   8.696  0.8052  0.2545 -0.3786
 4392SOL    HW124812   3.215   1.227   8.632  0.7572  0.2647 -0.3373
 4392SOL    HW224813   3.310   1.184   8.744 -1.8428 -0.4505  0.2689
 4393SOL     OW24814   3.285   0.079   5.456 -0.8562 -0.5968  0.7918
 4393SOL    HW124815   3.197   0.112   5.473  0.1309  1.4989  1.8650
 4393SOL    HW224816   3.273   4.725   5.469 -0.2921 -0.9185 -0.9671
 4394SOL     OW24817   3.580   4.130   6.256 -0.5734  0.2468 -0.1495
 4394SOL    HW124818   3.549   4.127   6.347  2.1048  1.5976  0.8306
 4394SOL    HW224819   3.648   4.198   6.264  1.0891 -1.1342 -2.6529
 4395SOL     OW24820   3.491   0.482  16.649 -0.0764 -0.6404  0.3677
 4395SOL    HW124821   3.509   0.482  16.555  2.1430 -2.6266  0.7775
 4395SOL    HW224822   3.560   0.422  16.681 -0.1034 -0.9631 -0.1848
 4396SOL     OW24823   2.825   1.239  10.275  0.0864 -0.8077 -0.0669
 4396SOL    HW124824   2.738   1.279  10.275  0.5945  0.2702 -2.5633
 4396SOL    HW224825   2.835   1.226  10.369 -2.5233 -0.2398  0.2999
 4397SOL     OW24826   1.469   0.177   4.720 -0.6433 -0.7356 -0.1613
 4397SOL    HW124827   1.559   0.210   4.721 -0.3220 -1.5908 -0.6180
 4397SOL    HW224828   1.452   0.213   4.633  0.8749  0.5372  0.0716
 4398SOL     OW24829   3.257   1.030   9.108  0.1199 -0.5758  0.0401
 4398SOL    HW124830   3.183   1.017   9.168  1.8427  0.8062  2.4452
 4398SOL    HW224831   3.210   1.082   9.043  0.0629  2.0684  2.1557
 4399SOL     OW24832   1.307   0.130   1.515 -0.1347 -0.1728  0.0066
 4399SOL    HW124833   1.261   0.171   1.441  1.9381  1.0111 -0.6376
 4399SOL    HW224834   1.357   0.064   1.467  0.6684  1.4482 -1.4060
 4400SOL     OW24835   4.052   2.950   8.127  0.6916  0.3335 -0.2445
 4400SOL    HW124836   4.088   3.019   8.184 -1.2560  0.7236  0.5187
 4400SOL    HW224837   4.091   2.977   8.044  1.1698 -0.6103 -0.3240
 4401SOL     OW24838   4.540   0.071   6.995  0.0478  0.1746  0.4809
 4401SOL    HW124839   4.476   0.139   7.015  0.1902 -0.2068  2.1852
 4401SOL    HW224840   4.557   0.102   6.906 -0.4175  1.4083  0.8253
 4402SOL     OW24841   0.076   3.521   9.661  0.2209 -0.2291  0.4622
 4402SOL    HW124842   0.027   3.591   9.617 -1.2619 -0.6048  1.4883
 4402SOL    HW224843   0.160   3.527   9.617 -0.7736 -1.5834 -1.6678
 4403SOL     OW24844   1.522   0.874   5.704 -0.3456 -0.4938  0.3648
 4403SOL    HW124845   1.507   0.779   5.704 -0.6779 -0.4322  1.7050
 4403SOL    HW224846   1.610   0.876   5.739  0.2680 -0.2892 -1.1772
 4404SOL     OW24847   3.071   0.566  12.732 -0.0096 -0.5969  0.5396
 4404SOL    HW124848   3.097   0.656  12.712 -0.1329 -1.0056 -1.4481
 4404SOL    HW224849   3.048   0.572  12.825 -0.2353 -1.8616  0.5610
 4405SOL     OW24850   2.058   4.681   4.330  0.0782  0.2826  0.5944
 4405SOL    HW124851   2.050   4.702   4.237  0.1623  2.4869  1.1003
 4405SOL    HW224852   2.002   0.008   4.367 -2.0368 -1.8825  1.3062
 4406SOL     OW24853   2.831   3.377   7.908 -0.4289  0.0819 -0.7178
 4406SOL    HW124854   2.796   3.378   7.818  0.3414 -0.5300 -1.0256
 4406SOL    HW224855   2.762   3.421   7.958 -0.3931  0.7275 -1.2328
 4407SOL     OW24856   2.621   0.614   1.861 -0.5413  0.0226  0.0579
 4407SOL    HW124857   2.650   0.691   1.909 -0.4954 -0.3818  0.6753
 4407SOL    HW224858   2.621   0.641   1.769  0.6644 -0.4904 -0.0871
 4408SOL     OW24859   4.557   3.410   6.194  0.3098 -0.6154 -0.2162
 4408SOL    HW124860   4.540   3.324   6.232  0.0663 -0.2810  0.4206
 4408SOL    HW224861   4.473   3.450   6.174 -0.1563 -2.4127 -1.8631
 4409SOL     OW24862   3.250   1.154  17.724  0.2247  0.1986 -0.6142
 4409SOL    HW124863   3.245   1.112  17.639 -1.1426  0.9843 -0.9281
 4409SOL    HW224864   3.246   1.077   0.023 -0.1667 -1.2338 -2.6105
 4410SOL     OW24865   0.192   1.209  15.333 -0.1914  0.0570  0.0256
 4410SOL    HW124866   0.120   1.173  15.281 -0.4917 -0.2717  0.6770
 4410SOL    HW224867   0.186   1.161  15.416  0.7438 -2.2164 -1.2074
 4411SOL     OW24868   3.679   3.119   4.508 -0.5551 -0.1827  0.5076
 4411SOL    HW124869   3.647   3.035   4.474 -3.0496 -0.3360  3.1511
 4411SOL    HW224870   3.606   3.144   4.566  0.5338 -0.0421  1.8126
 4412SOL     OW24871   3.088   2.142   2.460 -0.3417  0.0410  1.0160
 4412SOL    HW124872   3.087   2.157   2.365 -0.9020 -1.8454  0.7197
 4412SOL    HW224873   2.998   2.118   2.482 -0.4862 -1.9004 -1.7194
 4413SOL     OW24874   1.486   3.445  10.566 -0.3631 -0.2256 -0.5686
 4413SOL    HW124875   1.542   3.369  10.585 -0.8002 -0.0738  1.3284
 4413SOL    HW224876   1.555   3.509  10.548 -0.7534  0.7005  1.1996
 4414SOL     OW24877   4.391   3.493   6.763 -0.2353  0.2649  0.3118
 4414SOL    HW124878   4.467   3.533   6.804  0.2823 -0.5136  0.1302
 4414SOL    HW224879   4.350   3.445   6.835 -1.3446 -0.6712 -0.9395
 4415SOL     OW24880   0.474   2.338   8.868 -0.0775 -0.3905  0.6865
 4415SOL    HW124881   0.465   2.397   8.793 -4.8775  0.7931  2.1903
 4415SOL    HW224882   0.562   2.300   8.858  0.1684 -0.2404  2.2453
 4416SOL     OW24883   0.828   0.070   8.741 -0.4661  0.0044 -0.2828
 4416SOL    HW124884   0.804   0.012   8.669 -0.5822  0.5443 -0.6807
 4416SOL    HW224885   0.755   0.054   8.801 -0.1809  2.5827  0.7574
 4417SOL     OW24886   0.263   2.698  16.154 -0.2432  0.4729  0.0876
 4417SOL    HW124887   0.356   2.693  16.177 -0.3117 -0.7506  0.1205
 4417SOL    HW224888   0.249   2.607  16.128 -0.6032  0.0445  1.7743
 4418SOL     OW24889   1.041   3.595   8.648 -0.2995 -0.0996  0.5233
 4418SOL    HW124890   1.030   3.582   8.554 -0.6517  0.3290  0.5042
 4418SOL    HW224891   1.094   3.675   8.642 -0.0979 -0.1230  1.9421
 4419SOL     OW24892   3.032   2.326   1.823  0.2963  0.2390 -0.3627
 4419SOL    HW124893   2.952   2.337   1.770  0.5745 -1.0524 -1.0444
 4419SOL    HW224894   3.025   2.232   1.836  1.7150 -0.3138 -3.5332
 4420SOL     OW24895   2.935   2.073   6.065  0.0454  0.4407 -0.3768
 4420SOL    HW124896   2.993   2.084   5.990  0.7825 -2.5177 -0.2354
 4420SOL    HW224897   2.908   2.164   6.080  1.5830  0.6210  1.2202
 4421SOL     OW24898   2.476   1.884  16.793 -0.1476  0.3287  0.7165
 4421SOL    HW124899   2.542   1.949  16.770 -0.5263 -0.1489 -1.7424
 4421SOL    HW224900   2.409   1.945  16.825 -0.1180 -0.4194  2.1930
 4422SOL     OW24901   2.054   2.938   3.437 -0.1716  0.6793  0.2298
 4422SOL    HW124902   2.080   2.869   3.499 -0.9823  0.2542  0.0876
 4422SOL    HW224903   2.094   3.019   3.471 -0.3003  1.2069 -0.8739
 4423SOL     OW24904   4.725   2.293   4.398 -0.2570 -0.3976 -0.0984
 4423SOL    HW124905   0.046   2.332   4.460  2.3158 -2.5449 -1.2472
 4423SOL    HW224906   4.653   2.356   4.393  0.5984  0.5406 -0.5373
 4424SOL     OW24907   0.857   2.071   8.664  0.2590  0.1104  0.1965
 4424SOL    HW124908   0.838   2.000   8.727 -0.8346 -1.3721 -1.8090
 4424SOL    HW224909   0.872   2.021   8.584  1.4723 -1.3188  1.2856
 4425SOL     OW24910   1.620   3.804   8.307  0.6718  0.0854 -0.5971
 4425SOL    HW124911   1.573   3.732   8.265  0.4822  0.4401 -0.9937
 4425SOL    HW224912   1.689   3.811   8.241 -0.5184 -0.2926 -1.8662
 4426SOL     OW24913   1.703   3.631   8.732  0.3764  0.5362 -0.3504
 4426SOL    HW124914   1.728   3.688   8.659 -0.3416  1.9396  0.4921
 4426SOL    HW224915   1.613   3.606   8.712  0.1056  0.5465  0.9047
 4427SOL     OW24916   1.629   3.388   9.237  0.6283 -0.3142  0.5253
 4427SOL    HW124917   1.631   3.404   9.143 -0.6199 -2.3773  0.1575
 4427SOL    HW224918   1.595   3.299   9.249  0.6258 -0.4189 -0.2413
 4428SOL     OW24919   0.240   3.982   7.562 -0.4180  0.3130 -0.5054
 4428SOL    HW124920   0.150   4.000   7.534 -0.1558  2.9249  0.2867
 4428SOL    HW224921   0.239   4.028   7.646  1.7129  0.6233 -0.6407
 4429SOL     OW24922   4.121   0.894   6.540 -0.6114  0.5473  0.4170
 4429SOL    HW124923   4.069   0.824   6.503  1.7754 -0.4246 -1.1192
 4429SOL    HW224924   4.213   0.865   6.544 -1.1634 -1.2549 -0.0817
 4430SOL     OW24925   3.101   3.906  15.204 -0.1606 -0.7163 -0.0636
 4430SOL    HW124926   3.074   3.866  15.287  0.9531 -0.1995  0.5403
 4430SOL    HW224927   3.196   3.907  15.215 -0.1641 -0.5005 -0.0518
 4431SOL     OW24928   3.632   0.171   3.636 -0.4463  0.0253 -0.1116
 4431SOL    HW124929   3.691   0.239   3.666 -1.8767  1.3089 -0.1877
 4431SOL    HW224930   3.631   0.194   3.543  0.9292 -0.8091 -0.3218
 4432SOL     OW24931   0.232   0.221   2.444 -0.0412 -0.5456  0.4870
 4432SOL    HW124932   0.213   0.154   2.379 -0.1891  0.3980 -0.4403
 4432SOL    HW224933   0.319   0.197   2.476  1.3355 -0.3912 -3.1901
 4433SOL     OW24934   0.440   2.870   5.503 -0.0505 -0.0519  0.6134
 4433SOL    HW124935   0.360   2.877   5.555 -0.8682 -1.0215 -0.5101
 4433SOL    HW224936   0.482   2.792   5.539  0.4874 -0.1155 -0.1467
 4434SOL     OW24937   4.322   2.464  15.806  0.1459  0.3923 -0.3462
 4434SOL    HW124938   4.280   2.469  15.892  2.2992  0.6195  0.6693
 4434SOL    HW224939   4.414   2.485  15.821  0.1853 -0.5787  0.7045
 4435SOL     OW24940   0.809   3.666   9.201 -0.0466 -0.4215 -0.8879
 4435SOL    HW124941   0.891   3.694   9.243 -0.4846 -0.9160  0.3061
 4435SOL    HW224942   0.803   3.578   9.239 -1.5942 -0.0366 -0.2727
 4436SOL     OW24943   3.282   1.301   7.141  0.2631  0.0201  0.1095
 4436SOL    HW124944   3.345   1.372   7.125 -1.0799  0.5723 -2.6995
 4436SOL    HW224945   3.330   1.226   7.105 -1.5067 -1.5804  1.1159
 4437SOL     OW24946   1.826   0.255  17.317 -0.3093  0.2315  0.1021
 4437SOL    HW124947   1.804   0.218  17.231  0.4044  1.8216 -0.7801
 4437SOL    HW224948   1.845   0.347  17.294 -0.8508 -0.2212 -2.2198
 4438SOL     OW24949   1.185   0.791   8.558  0.6104 -0.4112 -0.3978
 4438SOL    HW124950   1.169   0.727   8.488 -1.0605 -1.0624  0.5857
 4438SOL    HW224951   1.240   0.740   8.617  0.1739 -0.1293  0.2595
 4439SOL     OW24952   2.048   4.529   7.082 -0.3798 -0.4793 -0.1049
 4439SOL    HW124953   2.073   4.622   7.080 -0.8953 -0.3001  2.0355
 4439SOL    HW224954   1.960   4.535   7.045  0.0062 -0.4811 -1.0329
 4440SOL     OW24955   0.960   0.334   3.411  0.2664  0.0615  0.0481
 4440SOL    HW124956   0.942   0.407   3.353 -1.8680  1.1684  2.1375
 4440SOL    HW224957   1.030   0.381   3.456 -1.1305  1.5128  0.6790
 4441SOL     OW24958   1.874   3.066   3.242  1.2368 -0.1829 -0.7392
 4441SOL    HW124959   1.937   3.002   3.276  0.4106  0.0385  1.1861
 4441SOL    HW224960   1.918   3.105   3.166 -1.7094  1.7489 -1.4351
 4442SOL     OW24961   1.831   2.416   5.137 -0.3387 -0.1294  0.1065
 4442SOL    HW124962   1.843   2.498   5.186 -2.4206 -0.3325  0.9693
 4442SOL    HW224963   1.743   2.423   5.099 -0.8424 -1.0871  1.0833
 4443SOL     OW24964   3.813   1.619   9.547 -0.0749  0.3028  0.4286
 4443SOL    HW124965   3.901   1.653   9.527  0.2655 -0.5954  0.3795
 4443SOL    HW224966   3.770   1.696   9.510 -0.1119 -0.8238 -1.9327
 4444SOL     OW24967   3.211   0.984  14.824  0.0190 -0.2762 -0.5428
 4444SOL    HW124968   3.233   1.077  14.829  0.3569 -0.4815  2.0493
 4444SOL    HW224969   3.133   0.973  14.878 -0.4613 -1.0003 -1.4099
 4445SOL     OW24970   3.557   2.768   8.258  0.2972 -0.0604 -0.5911
 4445SOL    HW124971   3.554   2.859   8.228 -0.6900 -0.9244 -3.0722
 4445SOL    HW224972   3.620   2.731   8.196 -0.2893 -2.3952  0.2182
 4446SOL     OW24973   4.461   0.017   7.653  0.3622  0.5056 -0.0105
 4446SOL    HW124974   4.552   0.031   7.630 -0.1323  0.7422 -1.7827
 4446SOL    HW224975   4.488   4.675   7.696 -1.9015 -0.1564  0.1696
 4447SOL     OW24976   1.988   0.340  13.699 -0.1713  0.0977 -0.3082
 4447SOL    HW124977   2.028   0.292  13.627 -2.1212  0.6676 -1.7573
 4447SOL    HW224978   1.936   0.274  13.745  0.9924  0.0412  0.9554
 4448SOL     OW24979   2.309   0.229   6.552  0.3922 -0.5539 -0.1854
 4448SOL    HW124980   2.355   0.313   6.541 -0.6430  0.2443  1.4881
 4448SOL    HW224981   2.342   0.199   6.637  2.0188 -0.4762 -0.7916
 4449SOL     OW24982   1.678   3.862   8.575 -0.7638 -0.1150  0.0922
 4449SOL    HW124983   1.644   3.820   8.495  1.1797 -2.4367  0.4710
 4449SOL    HW224984   1.734   3.931   8.538 -0.3827  1.0355  2.8556
 4450SOL     OW24985   1.821   1.672   5.865  1.0268  0.4144 -0.6519
 4450SOL    HW124986   1.903   1.665   5.817  0.8130 -4.5960 -0.3222
 4450SOL    HW224987   1.848   1.750   5.912 -1.8628  1.2421 -0.3592
 4451SOL     OW24988   0.062   3.849   8.865  0.2910  0.5701  0.4337
 4451SOL    HW124989   0.032   3.760   8.847 -0.1712  0.8700 -0.2671
 4451SOL    HW224990   4.717   3.889   8.848  1.2426  1.3173 -2.5311
 4452SOL     OW24991   2.386   3.805  11.209 -0.0220  0.4687  0.0581
 4452SOL    HW124992   2.445   3.874  11.178 -0.6090  0.3625 -1.3276
 4452SOL    HW224993   2.392   3.812  11.304  0.5485 -5.3514  0.4286
 4453SOL     OW24994   4.553   1.910   6.130 -0.0520 -0.3878  0.3985
 4453SOL    HW124995   4.488   1.972   6.164 -1.4928 -1.7669  0.1753
 4453SOL    HW224996   4.581   1.866   6.211 -1.1984  2.1946  2.2300
 4454SOL     OW24997   3.057   0.604   7.470 -0.5326 -0.5624  0.1566
 4454SOL    HW124998   3.078   0.605   7.377  0.8895 -0.8948  0.4639
 4454SOL    HW224999   3.148   0.618   7.497 -0.9813  3.2743 -0.2640
 4455SOL     OW25000   0.062   3.585   8.757  0.1660 -0.5234 -0.1387
 4455SOL    HW125001   0.130   3.552   8.698 -0.8697  0.1391 -1.7035
 4455SOL    HW225002   4.733   3.613   8.698 -0.3437  2.1189  1.7039
 4456SOL     OW25003   3.334   1.440   4.592 -0.2464 -0.2750  0.1797
 4456SOL    HW125004   3.347   1.533   4.573 -0.4221 -0.4873 -0.9540
 4456SOL    HW225005   3.238   1.434   4.590 -0.1853 -0.7086 -1.8042
 4457SOL     OW25006   3.746   0.821   6.036 -0.6749 -0.1189  0.1533
 4457SOL    HW125007   3.761   0.911   6.063  0.4254 -0.1920 -0.2393
 4457SOL    HW225008   3.793   0.761   6.095 -1.5328 -2.0156 -1.0774
 4458SOL     OW25009   0.596   0.796  11.093 -0.1488  0.0223 -0.4558
 4458SOL    HW125010   0.634   0.709  11.085  1.5621  0.7653 -0.5022
 4458SOL    HW225011   0.618   0.830  11.006  0.3443  0.5857 -0.1169
 4459SOL     OW25012   1.913   2.936  11.524  0.8676 -0.1649  0.2791
 4459SOL    HW125013   1.818   2.927  11.534  0.4277  1.6382 -2.0708
 4459SOL    HW225014   1.920   2.939  11.428  2.2031  2.0270  0.4403
 4460SOL     OW25015   0.872   2.145   7.854  0.7678  0.2965  0.1514
 4460SOL    HW125016   0.796   2.202   7.846  0.2947 -0.7921 -3.1702
 4460SOL    HW225017   0.830   2.068   7.816  1.1518 -0.7424  1.8360
 4461SOL     OW25018   2.785   0.463   0.996 -0.0983  0.7295  0.6828
 4461SOL    HW125019   2.800   0.552   1.028 -2.2675  1.2810  0.1716
 4461SOL    HW225020   2.731   0.478   0.918  2.0965  0.4749 -0.8788
 4462SOL     OW25021   1.766   1.499   4.718  0.5834 -0.1060 -0.2196
 4462SOL    HW125022   1.826   1.446   4.770  1.1973 -1.6452 -2.5568
 4462SOL    HW225023   1.829   1.567   4.696 -0.5025  1.0295  0.1393
 4463SOL     OW25024   1.707   1.180   5.077  0.9313 -0.0422  0.0845
 4463SOL    HW125025   1.675   1.108   5.132  1.9547 -1.5026 -1.2335
 4463SOL    HW225026   1.786   1.145   5.037 -0.2213 -1.5946 -0.8370
 4464SOL     OW25027   3.061   3.271   2.836 -0.4907 -0.0876  0.1034
 4464SOL    HW125028   3.057   3.193   2.781 -1.0889  1.7476 -2.4468
 4464SOL    HW225029   3.079   3.237   2.924 -0.4639  2.9987  1.3093
 4465SOL     OW25030   4.575   1.684   8.957  0.6185 -0.1800  0.2046
 4465SOL    HW125031   4.656   1.667   8.909  1.8538  1.2891  1.7717
 4465SOL    HW225032   4.572   1.612   9.020 -0.1365 -0.9113 -0.6743
 4466SOL     OW25033   2.636   1.233   0.674 -0.3001  0.8036 -0.0245
 4466SOL    HW125034   2.662   1.176   0.601  0.1603  1.5145 -0.4164
 4466SOL    HW225035   2.696   1.308   0.677  1.4840 -0.7326  2.1484
 4467SOL     OW25036   3.662   0.845   7.185 -0.4316 -0.3298  0.7773
 4467SOL    HW125037   3.653   0.930   7.227 -2.2368  0.9921 -2.3535
 4467SOL    HW225038   3.598   0.789   7.229 -1.1728  0.3372  0.5440
 4468SOL     OW25039   3.057   3.699   1.691  0.1092 -0.2047 -0.4959
 4468SOL    HW125040   3.002   3.670   1.618 -0.4211 -1.8746  0.5847
 4468SOL    HW225041   3.097   3.778   1.654  0.9311  0.0641  0.9569
 4469SOL     OW25042   4.054   2.061  10.176 -0.5287  0.6608  0.9515
 4469SOL    HW125043   4.049   1.968  10.197  0.4900  0.5216  0.5735
 4469SOL    HW225044   4.039   2.047  10.082 -2.0590  0.4410  1.2314
 4470SOL     OW25045   1.966   3.479   6.653  0.4818  0.1952  0.2940
 4470SOL    HW125046   2.001   3.565   6.679 -0.0328  0.1125  1.2916
 4470SOL    HW225047   1.949   3.435   6.736  0.4625  0.0465  0.2099
 4471SOL     OW25048   3.599   2.474  10.288 -0.3270  0.0810  0.8032
 4471SOL    HW125049   3.555   2.397  10.251  0.4332 -1.2502  2.6937
 4471SOL    HW225050   3.531   2.532  10.324 -1.6201  0.2550 -1.9258
 4472SOL     OW25051   3.187   3.416   1.603 -0.3000 -0.1163  1.3594
 4472SOL    HW125052   3.183   3.480   1.674 -3.4944  0.9365  0.2294
 4472SOL    HW225053   3.176   3.336   1.655  1.9829 -2.6776 -2.0923
 4473SOL     OW25054   3.384   4.026   7.855  0.0497  0.6563  0.0564
 4473SOL    HW125055   3.450   4.065   7.912 -0.5812  2.5357 -0.4938
 4473SOL    HW225056   3.422   4.056   7.772 -1.6395 -0.1369 -1.0155
 4474SOL     OW25057   1.336   1.087   4.718  0.0360  0.1076 -0.4236
 4474SOL    HW125058   1.415   1.038   4.695 -2.0909 -3.2559 -0.6477
 4474SOL    HW225059   1.385   1.155   4.763 -1.4820  0.0063  1.3725
 4475SOL     OW25060   1.992   4.327   9.585  0.2168  0.2535 -0.0205
 4475SOL    HW125061   1.934   4.271   9.534  0.9576  0.0296 -0.6386
 4475SOL    HW225062   2.068   4.270   9.595  0.6131  0.7788  0.0249
 4476SOL     OW25063   4.334   2.283  16.433  0.3687 -0.3179 -0.0308
 4476SOL    HW125064   4.307   2.307  16.522  0.2336 -1.6601  0.2872
 4476SOL    HW225065   4.266   2.226  16.397  1.0204  0.6430 -2.7851
 4477SOL     OW25066   1.284   1.366   8.424 -0.0662 -0.4842 -0.1475
 4477SOL    HW125067   1.336   1.398   8.499 -1.3847 -0.6279  0.8327
 4477SOL    HW225068   1.239   1.293   8.465  0.8746 -0.7477  0.4189
 4478SOL     OW25069   2.360   2.889   7.603  0.0794  0.2567 -0.6016
 4478SOL    HW125070   2.374   2.795   7.620  2.9664  0.8212  0.1651
 4478SOL    HW225071   2.383   2.925   7.688  0.1503 -1.7235  0.2303
 4479SOL     OW25072   4.079   0.595  17.326  0.3583 -0.6930  0.1281
 4479SOL    HW125073   4.046   0.548  17.403 -1.4279 -1.1503 -0.9123
 4479SOL    HW225074   4.172   0.576  17.325  0.6376  0.6625  0.4226
 4480SOL     OW25075   1.690   1.370   8.881 -0.0871 -0.1748 -0.1027
 4480SOL    HW125076   1.743   1.335   8.953 -0.9606 -0.5676  0.3564
 4480SOL    HW225077   1.638   1.294   8.856 -1.7327  0.9856 -0.2435
 4481SOL     OW25078   4.730   4.208   3.010  0.3717 -0.7844  0.5190
 4481SOL    HW125079   0.073   4.196   3.056  1.7003  1.0685 -1.3782
 4481SOL    HW225080   4.683   4.253   3.080  1.2161  2.0280 -0.7353
 4482SOL     OW25081   3.079   2.868   7.813 -0.1824  0.1108  0.5585
 4482SOL    HW125082   3.124   2.896   7.893  0.2395  0.1325  0.3175
 4482SOL    HW225083   3.081   2.949   7.762 -1.7307  0.2659  0.7519
 4483SOL     OW25084   1.491   2.712   6.552 -0.0592 -0.3760 -0.4779
 4483SOL    HW125085   1.424   2.767   6.594  0.9364  0.8885 -0.5495
 4483SOL    HW225086   1.544   2.685   6.628 -2.2205 -1.1824  0.7530
 4484SOL     OW25087   2.762   3.885  14.549  0.0432  0.4120  0.6058
 4484SOL    HW125088   2.682   3.863  14.501 -0.1009  1.1942  0.4890
 4484SOL    HW225089   2.818   3.933  14.488  1.6286 -0.4578  1.3947
 4485SOL     OW25090   3.460   4.394   6.785 -0.6653  0.3628 -0.2691
 4485SOL    HW125091   3.477   4.488   6.783 -0.9456  0.3965 -1.0524
 4485SOL    HW225092   3.396   4.389   6.714 -0.9849  1.5969 -0.0527
 4486SOL     OW25093   0.582   4.302   0.684  0.0237  0.4576  0.6716
 4486SOL    HW125094   0.512   4.244   0.714 -0.2901 -1.1809 -3.0899
 4486SOL    HW225095   0.663   4.257   0.709  0.0326  1.0764  1.7582
 4487SOL     OW25096   4.438   1.316  12.854 -0.4228 -0.1515 -0.3639
 4487SOL    HW125097   4.525   1.354  12.860 -0.8763  0.8934 -0.4188
 4487SOL    HW225098   4.411   1.316  12.762 -0.1530 -1.7751 -0.4339
 4488SOL     OW25099   2.487   1.449   1.557  0.0519 -0.3938 -0.0200
 4488SOL    HW125100   2.392   1.433   1.556 -0.1112  0.6468 -0.6326
 4488SOL    HW225101   2.503   1.411   1.471  0.8528 -0.9411  0.3751
 4489SOL     OW25102   0.778   3.094  10.426  0.5690  0.5446 -0.4721
 4489SOL    HW125103   0.780   3.148  10.505  4.1821 -1.2393  0.6779
 4489SOL    HW225104   0.720   3.027  10.462 -0.7268  1.2027 -1.3419
 4490SOL     OW25105   0.777   3.768   2.373 -0.4940  0.1371  0.5861
 4490SOL    HW125106   0.729   3.694   2.335  2.3571 -1.5580  0.3081
 4490SOL    HW225107   0.857   3.731   2.410 -1.2237 -1.1045  0.9045
 4491SOL     OW25108   4.639   3.359   7.090  0.3992  0.2526 -0.7718
 4491SOL    HW125109   4.591   3.278   7.071 -1.6283  1.0214  1.0904
 4491SOL    HW225110   4.697   3.323   7.158 -0.2529 -0.0105 -0.3524
 4492SOL     OW25111   3.956   2.387   8.699 -0.1357  0.4958  0.3917
 4492SOL    HW125112   3.985   2.402   8.789  0.0838 -0.5576  0.4922
 4492SOL    HW225113   3.877   2.336   8.711 -0.6629  0.9338 -1.1416
 4493SOL     OW25114   0.556   2.763   5.883  0.1525 -0.2122  0.0687
 4493SOL    HW125115   0.610   2.835   5.915 -0.0577 -0.5194  1.0970
 4493SOL    HW225116   0.469   2.801   5.866 -0.0248 -0.6856 -0.0769
 4494SOL     OW25117   3.602   4.115   3.683 -0.0603 -0.2687  0.5895
 4494SOL    HW125118   3.592   4.044   3.745 -0.8736  0.7790  1.6612
 4494SOL    HW225119   3.530   4.100   3.621  1.8673 -1.8420 -1.2453
 4495SOL     OW25120   3.790   1.270   2.334 -0.1307 -0.3173  0.2111
 4495SOL    HW125121   3.814   1.228   2.251  2.1070 -1.8239  1.6341
 4495SOL    HW225122   3.826   1.216   2.404 -0.8542  1.2778  1.8132
 4496SOL     OW25123   4.636   1.376  15.551 -0.1084 -0.0382 -0.6964
 4496SOL    HW125124   4.670   1.424  15.475 -2.0911  1.9431 -0.3310
 4496SOL    HW225125   4.629   1.288  15.514 -1.2007  0.1431 -0.9054
 4497SOL     OW25126   0.900   1.664   4.387  0.2505 -0.2927  0.0513
 4497SOL    HW125127   0.841   1.726   4.345  0.9244  0.8814  0.8523
 4497SOL    HW225128   0.962   1.626   4.324 -0.9756 -0.5117 -1.0040
 4498SOL     OW25129   1.592   0.342   0.201  0.3091  0.9263 -0.4660
 4498SOL    HW125130   1.571   0.254   0.233  0.9348  0.9616  0.0148
 4498SOL    HW225131   1.685   0.348   0.218  0.2819 -0.9009  0.3366
 4499SOL     OW25132   1.719   3.070   1.141  0.3964  0.0730 -0.0712
 4499SOL    HW125133   1.767   3.070   1.224  0.1873 -0.6089  0.0500
 4499SOL    HW225134   1.627   3.082   1.167  0.2915 -1.8434  0.4364
 4500SOL     OW25135   2.405   3.655  14.905  0.2467 -0.1396  0.0313
 4500SOL    HW125136   2.350   3.723  14.866  1.3910  0.4353 -0.5898
 4500SOL    HW225137   2.369   3.642  14.993 -0.4612  1.5728 -0.0205
 4501SOL     OW25138   1.923   0.160   6.866 -0.0165  0.0494  0.0732
 4501SOL    HW125139   1.927   0.129   6.775 -1.3573 -1.1003  0.4069
 4501SOL    HW225140   1.992   0.108   6.909  0.2667  0.2470 -0.1423
 4502SOL     OW25141   2.527   3.664   0.958 -0.3110  0.5215  0.5379
 4502SOL    HW125142   2.516   3.603   1.031  1.2895 -1.3901 -0.8130
 4502SOL    HW225143   2.619   3.684   0.976 -0.5313  0.2891  1.9378
 4503SOL     OW25144   0.109   2.947  16.121  0.2770  0.4238  0.4128
 4503SOL    HW125145   0.112   3.002  16.199  3.8447  0.6822  0.0638
 4503SOL    HW225146   0.177   2.883  16.141  2.4272  2.0309 -1.7851
 4504SOL     OW25147   2.513   1.276  14.180  0.1676  0.3501 -0.1765
 4504SOL    HW125148   2.459   1.348  14.214 -1.5819 -1.3193  0.5910
 4504SOL    HW225149   2.482   1.195  14.221  0.0673 -0.1112 -1.1665
 4505SOL     OW25150   0.683   3.021   3.289 -0.4515  0.1480  0.1294
 4505SOL    HW125151   0.768   3.060   3.270 -0.9470  1.4868  0.5972
 4505SOL    HW225152   0.641   3.100   3.324 -0.2546 -0.3842  1.5569
 4506SOL     OW25153   0.310   1.029   4.521 -0.3064  0.6644  0.1735
 4506SOL    HW125154   0.225   1.046   4.480  0.5444  2.2240 -0.9149
 4506SOL    HW225155   0.378   1.035   4.455  0.8567  2.0504  1.4876
 4507SOL     OW25156   1.901   4.314  17.600  0.1391  0.2041  0.3413
 4507SOL    HW125157   1.938   4.344  17.683 -1.4327  1.9038  0.4423
 4507SOL    HW225158   1.881   4.396  17.554 -1.3844  0.1440  0.8922
 4508SOL     OW25159   1.722   4.350   7.190  0.7246 -0.1177  0.4404
 4508SOL    HW125160   1.804   4.303   7.174  0.3587 -1.2103  1.7684
 4508SOL    HW225161   1.714   4.359   7.285  3.3155 -0.4382  0.6918
 4509SOL     OW25162   1.144   3.189   1.945 -0.2348 -0.2073  0.2387
 4509SOL    HW125163   1.093   3.253   1.995 -0.4960  0.7166 -1.2171
 4509SOL    HW225164   1.076   3.123   1.932  0.7990 -1.1858 -0.2098
 4510SOL     OW25165   1.991   4.501   1.157 -0.2321 -0.1427  0.3289
 4510SOL    HW125166   1.936   4.429   1.188 -2.2931  0.9496 -0.7947
 4510SOL    HW225167   1.929   4.573   1.168  0.6385  0.8807 -1.3863
 4511SOL     OW25168   3.953   3.314   7.547 -0.3014 -0.3019  0.3843
 4511SOL    HW125169   3.973   3.407   7.554  1.1766 -0.4318 -2.2101
 4511SOL    HW225170   4.016   3.271   7.605  0.6231 -2.3628 -2.1779
 4512SOL     OW25171   2.388   2.095   8.823 -0.0023 -0.4379 -0.0957
 4512SOL    HW125172   2.388   2.149   8.745 -0.0624 -0.9644 -0.4591
 4512SOL    HW225173   2.296   2.070   8.827  0.3644 -1.6598  0.7370
 4513SOL     OW25174   4.596   4.438  17.619 -0.5310  0.1440 -0.1285
 4513SOL    HW125175   4.662   4.482  17.565 -0.9454  1.4511  0.4345
 4513SOL    HW225176   4.519   4.493  17.606  0.4537  1.0803 -2.0063
 4514SOL     OW25177   4.132   3.919  15.002  0.3436  0.6658  0.2946
 4514SOL    HW125178   4.137   3.838  15.052  2.7175  0.7770  0.1935
 4514SOL    HW225179   4.039   3.926  14.980  0.5171  0.1716 -0.5966
 4515SOL     OW25180   3.065   2.311   1.013 -0.1530  0.7797 -0.1026
 4515SOL    HW125181   3.021   2.396   1.016  0.8251  1.3078 -0.9666
 4515SOL    HW225182   3.155   2.342   1.025 -0.7373  2.1136  0.8141
 4516SOL     OW25183   1.571   2.075   1.054  0.2506 -0.1907  0.2141
 4516SOL    HW125184   1.484   2.090   1.017  0.8907  3.5116  0.2277
 4516SOL    HW225185   1.617   2.122   0.984  2.4351 -2.3777  0.2171
 4517SOL     OW25186   1.263   0.678   3.916  0.5638  0.1466  0.0608
 4517SOL    HW125187   1.209   0.628   3.855  1.5099  0.6012 -1.1433
 4517SOL    HW225188   1.295   0.756   3.869 -0.8378  1.1635  0.8001
 4518SOL     OW25189   3.223   0.871   5.952 -0.1358 -0.6190 -0.0308
 4518SOL    HW125190   3.230   0.828   5.867  0.0417  0.5779 -0.6316
 4518SOL    HW225191   3.286   0.942   5.936 -1.2303  0.6026  1.0616
 4519SOL     OW25192   3.257   1.127  15.117  0.7956 -0.2439  0.1640
 4519SOL    HW125193   3.328   1.189  15.104 -0.6381  1.4125  0.2966
 4519SOL    HW225194   3.178   1.171  15.089 -0.6692 -0.1068  4.5426
 4520SOL     OW25195   2.443   2.658   6.287  0.0842 -0.7642  0.3539
 4520SOL    HW125196   2.389   2.700   6.220  1.7060  1.0902  0.1930
 4520SOL    HW225197   2.463   2.717   6.360  1.0971  1.0028 -1.3675
 4521SOL     OW25198   3.866   3.789  10.655 -0.6180  0.4815 -0.3483
 4521SOL    HW125199   3.797   3.821  10.713 -0.9370  0.7419 -0.8729
 4521SOL    HW225200   3.855   3.694  10.658  2.6754  0.0111 -4.1124
 4522SOL     OW25201   0.893   0.472   7.433  0.0726 -0.0725 -0.4974
 4522SOL    HW125202   0.982   0.476   7.470 -0.7507 -0.8593  1.5848
 4522SOL    HW225203   0.888   0.565   7.413 -1.7449 -0.3316 -1.1823
 4523SOL     OW25204   1.580   0.705   3.794 -0.1491 -0.8384  0.6557
 4523SOL    HW125205   1.495   0.746   3.776  0.3291  0.4459  1.3521
 4523SOL    HW225206   1.554   0.618   3.825  1.3383 -1.2533  0.7080
 4524SOL     OW25207   1.239   1.548   6.177  0.0246 -0.7477 -0.6075
 4524SOL    HW125208   1.150   1.536   6.145  0.7631 -0.2117 -2.7946
 4524SOL    HW225209   1.273   1.603   6.108 -2.2991  1.4990  0.0567
 4525SOL     OW25210   2.410   2.934   3.956 -0.5142 -0.0441 -0.7251
 4525SOL    HW125211   2.424   2.948   3.862 -1.6248  1.2386 -0.6903
 4525SOL    HW225212   2.472   2.992   3.999  0.4634  0.0975 -2.3281
 4526SOL     OW25213   2.664   4.009   8.745  0.0585  0.5137  0.4906
 4526SOL    HW125214   2.758   4.027   8.755 -0.0373  2.5627 -2.4665
 4526SOL    HW225215   2.642   4.041   8.657  3.1235 -1.3179 -0.9613
 4527SOL     OW25216   1.453   0.015   9.110 -0.1268 -0.5152  0.4389
 4527SOL    HW125217   1.400   4.734   9.187 -2.9748  1.9512 -0.8807
 4527SOL    HW225218   1.446   4.673   9.060  3.6949 -1.3303  1.1984
 4528SOL     OW25219   1.836   3.202   6.320 -0.2016 -0.0343  0.1356
 4528SOL    HW125220   1.846   3.199   6.225 -2.4536 -0.1279 -0.1067
 4528SOL    HW225221   1.923   3.177   6.350  0.1455 -0.1720 -0.9980
 4529SOL     OW25222   1.187   4.237   9.501 -0.2798 -0.0421  0.2342
 4529SOL    HW125223   1.133   4.271   9.430 -0.7972  0.5450  0.9085
 4529SOL    HW225224   1.253   4.190   9.450  0.1488  0.8544 -0.0485
 4530SOL     OW25225   3.962   3.855  12.536  0.2352  0.1547 -0.2038
 4530SOL    HW125226   3.991   3.882  12.623  0.2015  0.0491 -0.1596
 4530SOL    HW225227   3.924   3.774  12.570  1.5062 -0.4410 -0.2382
 4531SOL     OW25228   0.978   0.167   1.904  0.4394  0.4746  0.3324
 4531SOL    HW125229   0.986   0.203   1.816 -3.1669  0.8766  0.1867
 4531SOL    HW225230   0.953   0.247   1.951  0.5694 -0.1161  1.4014
 4532SOL     OW25231   4.666   3.548  17.465 -0.3743  0.3242 -0.1381
 4532SOL    HW125232   4.612   3.621  17.432  0.3890  0.4959 -1.0126
 4532SOL    HW225233   4.601   3.479  17.478 -1.3142  1.2413  0.0642
 4533SOL     OW25234   1.478   3.517   1.977  1.1735  0.0024 -0.5435
 4533SOL    HW125235   1.481   3.612   1.971 -2.4883  0.1614  0.2320
 4533SOL    HW225236   1.446   3.498   1.889  0.2687  0.0512 -0.2221
 4534SOL     OW25237   1.874   1.149   9.401 -0.5920 -0.2893  0.0110
 4534SOL    HW125238   1.826   1.198   9.335 -2.4389  1.2514  2.5032
 4534SOL    HW225239   1.952   1.118   9.355 -0.9797 -0.6125 -0.4370
 4535SOL     OW25240   4.655   2.303  15.150  0.0908 -0.1700 -0.2087
 4535SOL    HW125241   4.610   2.315  15.234 -0.1774  2.6885 -0.7732
 4535SOL    HW225242   4.623   2.385  15.113 -2.1836 -0.0913  1.8757
 4536SOL     OW25243   3.951   0.817   0.352 -0.2526 -0.1365 -0.2203
 4536SOL    HW125244   3.915   0.898   0.389  0.5825 -0.4964  1.3760
 4536SOL    HW225245   3.925   0.834   0.261  3.1314  0.4853 -1.0497
 4537SOL     OW25246   2.624   4.721   4.986 -0.2517 -0.2697 -0.0261
 4537SOL    HW125247   2.579   4.641   4.960  0.8456 -0.5910 -0.9897
 4537SOL    HW225248   2.716   4.702   4.967  0.3846  0.5144  2.2579
 4538SOL     OW25249   0.832   1.663   8.474  0.3318  0.1144  0.3087
 4538SOL    HW125250   0.809   1.630   8.387 -1.2126 -1.1286  1.1738
 4538SOL    HW225251   0.758   1.723   8.485  1.6131  1.6308  0.7150
 4539SOL     OW25252   3.350   1.692   7.127  0.2468 -0.2315 -0.0773
 4539SOL    HW125253   3.345   1.737   7.211 -0.8243 -1.1956  0.3840
 4539SOL    HW225254   3.299   1.757   7.079 -0.4779 -1.2970 -0.7521
 4540SOL     OW25255   1.231   0.933   7.152  0.1614  0.2836  0.5892
 4540SOL    HW125256   1.214   0.864   7.217 -0.8922  0.4554  0.4858
 4540SOL    HW225257   1.268   0.877   7.084 -0.4055 -0.5901  0.9986
 4541SOL     OW25258   3.151   1.100  11.867  0.3620  0.0679 -0.0463
 4541SOL    HW125259   3.167   1.010  11.838 -0.1525 -0.0571  0.0525
 4541SOL    HW225260   3.214   1.105  11.939 -0.2543 -1.7869  0.6124
 4542SOL     OW25261   1.078   2.948   1.781 -0.1121  1.0117  0.0771
 4542SOL    HW125262   1.079   2.853   1.771  0.8950  0.9095  1.1900
 4542SOL    HW225263   1.164   2.969   1.745  0.5823  0.1729  1.2483
 4543SOL     OW25264   1.569   1.146  14.163  0.5570 -0.8597  0.4163
 4543SOL    HW125265   1.489   1.145  14.110  1.4644 -0.3438 -0.9359
 4543SOL    HW225266   1.539   1.216  14.221  1.1169 -2.3080  2.4659
 4544SOL     OW25267   2.774   1.900   6.841  0.1018 -0.3161 -0.0728
 4544SOL    HW125268   2.735   1.813   6.849 -0.7077  0.0834  0.2929
 4544SOL    HW225269   2.852   1.884   6.894 -1.4363  1.8800  2.8314
 4545SOL     OW25270   3.872   2.011  10.382 -0.2952  0.5661  0.0081
 4545SOL    HW125271   3.924   2.047  10.310 -0.2541 -0.0640 -0.2738
 4545SOL    HW225272   3.895   2.070  10.454  0.1376 -1.3626  1.4528
 4546SOL     OW25273   1.977   0.951   8.851  0.1524  0.0741 -0.1314
 4546SOL    HW125274   1.998   0.981   8.763  0.0649  0.3246 -0.0688
 4546SOL    HW225275   1.961   0.858   8.835 -0.2924  0.1717 -0.2529
 4547SOL     OW25276   0.481   3.417  11.459  0.1529  0.4377 -0.0204
 4547SOL    HW125277   0.449   3.451  11.376 -0.4901 -0.1339 -0.0105
 4547SOL    HW225278   0.562   3.468  11.463  0.0503  0.5757  0.3836
 4548SOL     OW25279   1.388   2.898  14.864 -0.1603  0.6315 -0.2448
 4548SOL    HW125280   1.439   2.909  14.784 -3.3696  0.6825 -2.3094
 4548SOL    HW225281   1.361   2.808  14.879  2.3272 -0.7660 -4.2160
 4549SOL     OW25282   1.827   0.416   5.410  0.1586  0.2838  0.2258
 4549SOL    HW125283   1.911   0.378   5.384  0.8596  0.5576  2.0672
 4549SOL    HW225284   1.828   0.507   5.383 -0.0234  0.4053  0.6299
 4550SOL     OW25285   0.675   4.451  16.764 -0.7806 -0.6166  0.6123
 4550SOL    HW125286   0.736   4.379  16.781 -0.5411 -0.0226  2.2026
 4550SOL    HW225287   0.627   4.422  16.686  0.8426 -1.3329 -0.1138
 4551SOL     OW25288   0.144   2.951   5.088  0.0038  0.1466  0.4720
 4551SOL    HW125289   0.188   2.918   5.009  0.7876  1.9909  0.1392
 4551SOL    HW225290   0.179   3.040   5.098  0.1758  0.2150 -0.6820
 4552SOL     OW25291   3.216   0.156   3.707  0.0089 -0.3799 -0.2281
 4552SOL    HW125292   3.147   0.090   3.711 -2.0347  1.6965 -1.0606
 4552SOL    HW225293   3.283   0.112   3.655  2.3021  0.3975  2.0622
 4553SOL     OW25294   4.470   0.794   9.295  0.1294  0.0543  0.2122
 4553SOL    HW125295   4.548   0.769   9.344 -0.2264  1.0996  1.2932
 4553SOL    HW225296   4.435   0.871   9.340  0.3295 -0.4817  1.2629
 4554SOL     OW25297   3.798   1.552   4.956 -0.1881 -0.3013  0.4656
 4554SOL    HW125298   3.748   1.608   5.014 -0.2011  1.0341 -0.8436
 4554SOL    HW225299   3.788   1.594   4.871 -2.5238  0.1800  0.9876
 4555SOL     OW25300   2.480   2.882   3.453 -0.6504  0.2235  0.6198
 4555SOL    HW125301   2.468   2.972   3.420  1.8911 -0.1582 -1.3138
 4555SOL    HW225302   2.493   2.829   3.374  1.0332 -0.9778  1.7119
 4556SOL     OW25303   4.172   2.242  17.165  0.1340 -0.3170 -0.1098
 4556SOL    HW125304   4.194   2.150  17.175 -1.2168 -0.4241  1.9410
 4556SOL    HW225305   4.092   2.248  17.217  0.4905 -3.2216  0.7391
 4557SOL     OW25306   0.233   3.905   6.779 -0.4188 -0.3633  0.4054
 4557SOL    HW125307   0.230   3.810   6.790  1.8410 -0.4387  0.2284
 4557SOL    HW225308   0.324   3.912   6.752 -0.3428 -0.3006  0.6778
 4558SOL     OW25309   3.264   4.377  11.713 -0.1012  0.3067  0.2791
 4558SOL    HW125310   3.357   4.382  11.735 -0.1430  0.7767  0.3365
 4558SOL    HW225311   3.265   4.437  11.638  0.6776 -1.2545 -0.9610
 4559SOL     OW25312   2.588   4.661   7.872  0.0210  0.1932 -0.3098
 4559SOL    HW125313   2.653   4.729   7.883 -0.5489  0.3572  1.9611
 4559SOL    HW225314   2.545   4.662   7.958 -1.2479  1.8768 -0.9710
 4560SOL     OW25315   0.806   2.530   7.751 -0.7365 -0.0844  0.4562
 4560SOL    HW125316   0.723   2.569   7.778  0.2921  0.2792  3.0783
 4560SOL    HW225317   0.859   2.609   7.745  1.4558 -1.6656 -1.0341
 4561SOL     OW25318   2.697   0.288  12.962 -0.0893 -0.0406  0.6888
 4561SOL    HW125319   2.726   0.232  12.890  0.3412  1.5796 -0.3994
 4561SOL    HW225320   2.693   0.236  13.043 -0.0978  2.0139  2.0210
 4562SOL     OW25321   2.570   3.938   4.022  0.1632 -0.6560  0.2919
 4562SOL    HW125322   2.597   3.855   4.059 -1.7386 -1.2613  0.3435
 4562SOL    HW225323   2.569   3.927   3.927  1.0562 -4.0315  0.6885
 4563SOL     OW25324   2.142   3.936   5.723 -0.6238 -0.1066  0.5150
 4563SOL    HW125325   2.191   4.019   5.719  0.2482 -0.7034 -0.9044
 4563SOL    HW225326   2.081   3.941   5.649  1.2068  0.2117 -0.9686
 4564SOL     OW25327   0.306   2.707  10.294 -0.6519 -0.2058  0.1615
 4564SOL    HW125328   0.325   2.628  10.344 -1.6159  0.3961  1.4824
 4564SOL    HW225329   0.357   2.777  10.333 -0.7404  0.3811 -0.7907
 4565SOL     OW25330   2.468   2.987   9.887  0.3103  0.3546  0.1927
 4565SOL    HW125331   2.474   3.034   9.804 -0.3268 -0.0949 -0.1123
 4565SOL    HW225332   2.442   3.067   9.931 -0.9341  1.3791 -2.3886
 4566SOL     OW25333   2.127   3.259   3.638 -0.2176 -0.5120  0.2298
 4566SOL    HW125334   2.053   3.241   3.696 -1.6606  0.6778 -1.2493
 4566SOL    HW225335   2.197   3.256   3.704  0.9119  1.4819 -0.8818
 4567SOL     OW25336   0.558   0.819   4.075  0.3687  0.1691 -0.1141
 4567SOL    HW125337   0.608   0.738   4.071 -0.2199 -0.2964  2.2096
 4567SOL    HW225338   0.472   0.790   4.106  0.8019 -1.3312 -0.3603
 4568SOL     OW25339   1.149   3.180  15.805 -0.2381  0.2207 -0.4703
 4568SOL    HW125340   1.108   3.214  15.725  0.6978  0.7213 -0.7424
 4568SOL    HW225341   1.112   3.093  15.821  3.2859 -0.8326  1.8606
 4569SOL     OW25342   4.106   3.700   6.677 -0.3172 -0.1938 -0.0276
 4569SOL    HW125343   4.164   3.629   6.652  0.1024  0.4244 -0.8074
 4569SOL    HW225344   4.163   3.774   6.658 -0.7628  0.1121 -0.1749
 4570SOL     OW25345   0.693   2.086   0.866  0.0445 -0.2399 -0.6885
 4570SOL    HW125346   0.624   2.153   0.868 -2.0702 -2.4780  0.5658
 4570SOL    HW225347   0.742   2.098   0.947  0.4346 -0.4660 -0.8905
 4571SOL     OW25348   4.022   0.274   7.065 -0.1077  0.4843  0.1616
 4571SOL    HW125349   4.006   0.368   7.078 -3.1182  0.2790 -2.1196
 4571SOL    HW225350   4.058   0.252   7.151 -3.6109  0.1882  1.5336
 4572SOL     OW25351   4.527   3.089   4.359 -0.4141  0.2276  0.5158
 4572SOL    HW125352   4.607   3.040   4.378 -1.3733 -0.6335  2.3505
 4572SOL    HW225353   4.486   3.081   4.445 -0.6288 -2.2266  0.1981
 4573SOL     OW25354   4.094   3.017  17.722 -0.6409  0.1449 -0.0301
 4573SOL    HW125355   4.014   3.065  17.699  0.9025  2.6097 -0.2722
 4573SOL    HW225356   4.087   3.025   0.059  0.7583  0.2184  0.0605
 4574SOL     OW25357   1.649   0.547  16.379  0.0851 -0.0844  0.5023
 4574SOL    HW125358   1.591   0.575  16.450  0.8719  0.5529  0.9007
 4574SOL    HW225359   1.592   0.482  16.338 -0.3479  0.3767  0.3720
 4575SOL     OW25360   4.725   3.118   6.258  0.3882  0.1442  0.3517
 4575SOL    HW125361   0.004   3.039   6.309  1.6321  1.7110  2.2959
 4575SOL    HW225362   4.635   3.135   6.287  0.0696 -1.8835  0.5712
 4576SOL     OW25363   1.122   4.426   1.928 -0.1001 -0.1097  0.0361
 4576SOL    HW125364   1.081   4.511   1.947  1.1928  0.1886  1.4192
 4576SOL    HW225365   1.039   4.382   1.909 -0.7765  0.8821  0.6522
 4577SOL     OW25366   3.705   4.166   5.672  0.1160 -0.2584  0.0759
 4577SOL    HW125367   3.670   4.192   5.758  2.3739 -0.4963  1.0618
 4577SOL    HW225368   3.790   4.138   5.706 -0.7682 -3.7789 -0.6133
 4578SOL     OW25369   1.553   4.050   5.861  0.2779 -0.2567 -0.2678
 4578SOL    HW125370   1.525   4.103   5.935  0.1366 -1.3092  0.4278
 4578SOL    HW225371   1.494   4.081   5.792 -0.5892 -0.3350  0.4336
 4579SOL     OW25372   0.577   3.162  12.131 -0.1689 -0.1894  0.1484
 4579SOL    HW125373   0.571   3.239  12.075 -1.4832  0.4200  1.1094
 4579SOL    HW225374   0.547   3.199  12.214  0.1124 -2.3140  1.1957
 4580SOL     OW25375   4.675   3.616   5.979  0.5289 -0.0439  0.0594
 4580SOL    HW125376   4.581   3.611   5.996  0.6536 -1.2420  0.4262
 4580SOL    HW225377   4.713   3.549   6.036  0.6427 -0.2308 -0.2388
 4581SOL     OW25378   1.735   4.390   3.894 -0.1791 -0.1684 -0.5310
 4581SOL    HW125379   1.679   4.353   3.825  1.9816 -0.3846 -2.1670
 4581SOL    HW225380   1.702   4.479   3.906 -1.6891 -0.6913 -0.7801
 4582SOL     OW25381   1.342   2.152  15.941  0.4226  0.0095  0.2306
 4582SOL    HW125382   1.428   2.156  15.900  0.7698 -0.4215  0.9240
 4582SOL    HW225383   1.285   2.124  15.869 -0.3884 -0.7424  1.1607
 4583SOL     OW25384   3.596   2.076   3.082  0.5431 -0.1096 -0.2089
 4583SOL    HW125385   3.670   2.052   3.026  0.3108  0.7778 -0.8874
 4583SOL    HW225386   3.639   2.048   3.162  1.2184 -2.4554 -1.3739
 4584SOL     OW25387   3.211   3.795   4.543 -0.0197  0.3408 -0.4444
 4584SOL    HW125388   3.127   3.755   4.519  0.9385  0.0470 -3.2741
 4584SOL    HW225389   3.267   3.753   4.479 -0.1739 -0.8522  0.2029
 4585SOL     OW25390   4.192   3.663   8.627  0.4047  0.1177 -0.3692
 4585SOL    HW125391   4.200   3.758   8.633  2.8678 -0.2171  1.5933
 4585SOL    HW225392   4.172   3.638   8.718  2.0446 -2.2319 -0.6351
 4586SOL     OW25393   0.243   0.729   9.234 -0.3112 -0.0207  0.3890
 4586SOL    HW125394   0.165   0.675   9.245 -1.0731  0.9932  0.0353
 4586SOL    HW225395   0.262   0.755   9.324 -0.8855 -0.6899  0.6969
 4587SOL     OW25396   1.809   0.242  12.652  0.1573  0.7659  0.5562
 4587SOL    HW125397   1.779   0.321  12.696  0.1984 -0.1379  2.1975
 4587SOL    HW225398   1.823   0.288  12.569 -1.6862  3.1619  1.6069
 4588SOL     OW25399   3.752   0.010   8.569  0.3845  0.2069  0.3460
 4588SOL    HW125400   3.819   0.015   8.501  0.3783  1.4958  0.4302
 4588SOL    HW225401   3.722   0.101   8.574  1.1826  0.5724 -1.5534
 4589SOL     OW25402   1.300   2.173   6.059 -0.3998 -0.4265 -0.2998
 4589SOL    HW125403   1.384   2.154   6.100 -1.3238  3.3279  3.2992
 4589SOL    HW225404   1.315   2.209   5.972  0.9119  1.2476  0.6261
 4590SOL     OW25405   3.572   2.828   3.813  0.1000  0.1743 -0.5832
 4590SOL    HW125406   3.629   2.864   3.881  1.6647  0.0098 -1.7902
 4590SOL    HW225407   3.608   2.740   3.824  0.1910  0.3221  0.2782
 4591SOL     OW25408   1.029   2.448  16.729 -0.3317 -0.3390 -0.6992
 4591SOL    HW125409   1.124   2.455  16.728 -0.0421 -3.7507  3.0941
 4591SOL    HW225410   1.003   2.466  16.639 -0.6839  4.0216  0.2568
 4592SOL     OW25411   1.404   3.959  11.845 -0.5098 -0.4701 -0.1106
 4592SOL    HW125412   1.376   3.983  11.757  1.5463  1.1748 -0.3381
 4592SOL    HW225413   1.491   4.000  11.854 -1.7942  2.1564  0.3639
 4593SOL     OW25414   3.614   0.817   8.853  0.5076 -0.3239 -0.6534
 4593SOL    HW125415   3.608   0.850   8.943 -2.5724  0.7998 -1.2531
 4593SOL    HW225416   3.705   0.790   8.853  0.7657  0.5241  1.3475
 4594SOL     OW25417   2.595   4.666   2.929 -0.0701  0.2361 -0.2989
 4594SOL    HW125418   2.600   0.021   2.938 -1.3981  0.1815  1.0432
 4594SOL    HW225419   2.546   4.650   2.848  1.1150 -0.4617 -0.8780
 4595SOL     OW25420   4.231   0.651   2.741  0.2669  0.2374 -0.1521
 4595SOL    HW125421   4.238   0.569   2.692 -1.0974  0.2467 -0.3816
 4595SOL    HW225422   4.215   0.709   2.666 -1.7083  1.5882  1.2982
 4596SOL     OW25423   3.504   0.416   7.874  0.1193 -0.0838 -0.2405
 4596SOL    HW125424   3.592   0.385   7.896  1.3937  2.6027 -1.4909
 4596SOL    HW225425   3.499   0.378   7.787  0.8356 -0.2576 -0.2068
 4597SOL     OW25426   4.573   4.091  12.810  0.1014  0.0506  0.5218
 4597SOL    HW125427   4.569   4.027  12.881 -1.1833 -0.9404 -0.4525
 4597SOL    HW225428   4.639   4.152  12.842 -1.5802  1.5565  1.1623
 4598SOL     OW25429   2.480   0.960   7.097 -0.4977 -0.1910  0.1716
 4598SOL    HW125430   2.494   0.890   7.033 -0.1238  0.4457 -0.4367
 4598SOL    HW225431   2.397   0.937   7.138 -0.7138 -0.4811 -0.4360
 4599SOL     OW25432   0.774   3.744   2.767  0.2823 -0.4197 -0.4128
 4599SOL    HW125433   0.826   3.757   2.847 -3.0202 -2.5306  2.0448
 4599SOL    HW225434   0.770   3.651   2.748 -0.4403 -0.3965 -0.3541
 4600SOL     OW25435   3.546   2.069   6.940  0.1008 -0.1434  0.7168
 4600SOL    HW125436   3.487   2.144   6.952  0.2581  0.3059 -1.3677
 4600SOL    HW225437   3.578   2.091   6.853  1.5455 -0.9716  1.0339
 4601SOL     OW25438   1.338   1.526   2.527  0.4705  0.0070  0.3058
 4601SOL    HW125439   1.275   1.467   2.568  0.7548 -0.3300  0.2525
 4601SOL    HW225440   1.280   1.569   2.465  1.4336 -0.1026 -0.6576
 4602SOL     OW25441   2.565   0.969   5.000  0.1078  0.0226  0.1069
 4602SOL    HW125442   2.600   0.884   4.974 -2.5638 -0.9425 -0.3377
 4602SOL    HW225443   2.628   1.033   4.967  1.3968 -2.7372 -2.8032
 4603SOL     OW25444   1.425   2.503   6.341 -0.5389 -1.0628  0.1846
 4603SOL    HW125445   1.496   2.553   6.380 -0.6077 -0.6648 -0.2015
 4603SOL    HW225446   1.431   2.542   6.254 -1.2902 -0.4513  0.4026
 4604SOL     OW25447   1.089   1.676   6.525  0.6711 -0.1562  0.1494
 4604SOL    HW125448   1.132   1.708   6.605 -1.2432 -0.2343  1.2097
 4604SOL    HW225449   1.003   1.718   6.524 -1.1182 -3.7596  1.4984
 4605SOL     OW25450   3.974   0.836   5.287 -0.7620  0.2017  0.5302
 4605SOL    HW125451   3.944   0.851   5.197  0.6235 -1.3553 -0.1957
 4605SOL    HW225452   3.888   0.826   5.327  0.8491 -2.5724  3.3228
 4606SOL     OW25453   1.188   1.351   8.176  0.0657 -0.1882  0.0900
 4606SOL    HW125454   1.227   1.374   8.261  0.4342 -1.2414  0.2106
 4606SOL    HW225455   1.252   1.295   8.131 -1.6751 -1.8637 -0.2862
 4607SOL     OW25456   4.735   1.487   4.768 -0.5818  0.3444  0.1265
 4607SOL    HW125457   0.003   1.434   4.847  0.5782 -1.1887 -1.0186
 4607SOL    HW225458   0.050   1.560   4.798 -1.2126  0.5791  0.7246
 4608SOL     OW25459   2.503   3.695   1.964  0.1350  0.0708 -0.0021
 4608SOL    HW125460   2.461   3.615   1.932  0.0236  0.5006 -0.8992
 4608SOL    HW225461   2.590   3.670   1.996 -0.0836 -0.5294  0.1166
 4609SOL     OW25462   3.899   0.311   4.416  0.2060 -0.7020 -0.2525
 4609SOL    HW125463   3.914   0.366   4.492  1.4376  0.7647 -1.5640
 4609SOL    HW225464   3.941   0.225   4.429 -0.8705 -1.1703  0.1349
 4610SOL     OW25465   1.458   2.209  10.590  0.2563  0.4337 -0.0929
 4610SOL    HW125466   1.504   2.130  10.563  0.4642  0.0718  1.3478
 4610SOL    HW225467   1.506   2.241  10.666 -2.8246  0.1159  1.9791
 4611SOL     OW25468   3.957   0.839  11.846 -0.8469 -0.1226  0.1276
 4611SOL    HW125469   3.957   0.774  11.916  0.0522 -0.2062  0.0466
 4611SOL    HW225470   3.876   0.884  11.872 -1.1268  0.3650 -1.5779
 4612SOL     OW25471   3.887   1.865   7.922  0.3211  0.3013 -0.7278
 4612SOL    HW125472   3.826   1.937   7.937 -1.5934 -1.4615 -0.0679
 4612SOL    HW225473   3.964   1.909   7.959  0.4758  0.0524 -0.7577
 4613SOL     OW25474   4.536   4.013   2.601  0.1305  0.3038 -0.0712
 4613SOL    HW125475   4.537   3.918   2.589  2.7226  0.3861 -0.7078
 4613SOL    HW225476   4.606   4.023   2.666  0.6227  0.6360 -0.6440
 4614SOL     OW25477   0.322   3.806   8.865 -0.2424  0.0956  0.1572
 4614SOL    HW125478   0.327   3.713   8.886 -2.7149 -0.0079  0.2774
 4614SOL    HW225479   0.227   3.814   8.861 -0.3953 -1.6258  0.4133
 4615SOL     OW25480   3.640   1.680   5.138 -0.0832 -0.4085  0.1001
 4615SOL    HW125481   3.622   1.768   5.171  1.1846 -0.0763 -0.0784
 4615SOL    HW225482   3.681   1.634   5.212 -1.5516  0.4041  1.4111
 4616SOL     OW25483   1.163   4.698   3.220  0.8474 -0.6578 -0.4143
 4616SOL    HW125484   1.180   0.025   3.154  0.9006  0.7873  1.0709
 4616SOL    HW225485   1.068   4.696   3.236  0.7684  1.0963 -0.6997
 4617SOL     OW25486   3.325   2.960   8.247  0.3374 -0.5692 -0.6719
 4617SOL    HW125487   3.240   2.959   8.202 -0.9047 -0.0184  1.6599
 4617SOL    HW225488   3.379   3.003   8.181 -1.2595  2.4029 -0.0831
 4618SOL     OW25489   4.612   0.354  17.630 -0.1537  0.0089  0.0162
 4618SOL    HW125490   4.603   0.259  17.641 -2.6135  0.2722  0.2110
 4618SOL    HW225491   4.705   0.367  17.649 -0.5018  0.6373  1.2233
 4619SOL     OW25492   0.467   2.951   4.166 -0.1156  0.0797  0.7090
 4619SOL    HW125493   0.490   3.042   4.146  0.1612 -0.1902 -0.1981
 4619SOL    HW225494   0.527   2.927   4.236  1.1665 -0.1183 -0.4667
 4620SOL     OW25495   0.224   0.744   7.861  0.0522  0.4051  0.1724
 4620SOL    HW125496   0.185   0.779   7.780  0.5025 -0.6171 -0.4873
 4620SOL    HW225497   0.290   0.809   7.884 -1.4419  1.4427  1.6007
 4621SOL     OW25498   0.101   0.569   0.391 -0.3740 -0.2094  0.3031
 4621SOL    HW125499   0.072   0.614   0.311  1.0826 -0.7137 -0.5134
 4621SOL    HW225500   0.030   0.576   0.454 -0.7317  0.0171 -0.1255
 4622SOL     OW25501   2.346   3.856   8.790  0.4587  0.8779 -0.0898
 4622SOL    HW125502   2.431   3.853   8.744  0.4631  2.2817 -0.1758
 4622SOL    HW225503   2.336   3.949   8.808 -1.8239  0.4968  0.5130
 4623SOL     OW25504   0.786   4.561   4.290 -0.0250 -0.1818  0.3912
 4623SOL    HW125505   0.775   4.530   4.200  0.0485 -0.2616  0.4085
 4623SOL    HW225506   0.796   4.479   4.339 -1.1584  0.7756  2.2355
 4624SOL     OW25507   2.514   2.764  10.109  0.3173  0.6345 -0.1000
 4624SOL    HW125508   2.454   2.788  10.180  0.5625 -0.2902  0.4252
 4624SOL    HW225509   2.552   2.851  10.096  1.6577  0.1623  0.7107
 4625SOL     OW25510   2.449   3.510   1.170  0.7052 -0.0279 -0.3334
 4625SOL    HW125511   2.434   3.578   1.235 -0.9655  1.3558 -2.1445
 4625SOL    HW225512   2.365   3.494   1.127 -0.2776  1.1707  1.1622
 4626SOL     OW25513   3.567   3.176  13.596  0.2676  0.0891 -0.6804
 4626SOL    HW125514   3.531   3.089  13.577 -0.6177 -0.1577  2.2258
 4626SOL    HW225515   3.509   3.203  13.666 -2.1369  0.4452 -2.7872
 4627SOL     OW25516   3.415   2.844   7.102  0.0655 -0.2100 -0.1371
 4627SOL    HW125517   3.490   2.893   7.069  0.2418  1.4928  2.7312
 4627SOL    HW225518   3.340   2.883   7.057 -0.6058  0.7335  1.7806
 4628SOL     OW25519   4.071   0.293   4.924  0.2036 -0.3210  0.3153
 4628SOL    HW125520   3.982   0.283   4.958  1.1847 -0.4288  2.8460
 4628SOL    HW225521   4.059   0.381   4.888 -1.1665 -1.7556 -2.7417
 4629SOL     OW25522   3.654   1.439   4.625 -0.0322 -0.0519  0.3609
 4629SOL    HW125523   3.683   1.398   4.707 -0.0282 -0.2692  0.2516
 4629SOL    HW225524   3.561   1.422   4.641 -0.4610  0.4693 -1.6168
 4630SOL     OW25525   3.891   3.008   6.966  0.4664  0.0504 -0.6471
 4630SOL    HW125526   3.946   3.074   6.923 -1.3547  1.9058 -0.0683
 4630SOL    HW225527   3.951   2.982   7.036  1.3369 -1.0606 -1.7887
 4631SOL     OW25528   0.234   2.614   0.648  0.0133 -0.0015 -0.2286
 4631SOL    HW125529   0.200   2.628   0.560 -1.4105  0.2602  0.3652
 4631SOL    HW225530   0.238   2.701   0.687  1.9511 -0.0642 -0.2863
 4632SOL     OW25531   0.597   0.084  10.028 -0.0524 -0.0320 -0.3370
 4632SOL    HW125532   0.511   0.086   9.986  0.9725 -1.2096 -2.4630
 4632SOL    HW225533   0.613   4.731  10.011 -2.6743 -0.7399  1.0134
 4633SOL     OW25534   2.543   4.356   5.780 -0.4631 -0.3559  0.1017
 4633SOL    HW125535   2.520   4.280   5.834 -0.0676 -0.7693 -0.3108
 4633SOL    HW225536   2.535   4.321   5.691 -0.7179 -1.0169  0.3877
 4634SOL     OW25537   4.224   1.940  11.558 -0.3032  0.6191  0.0685
 4634SOL    HW125538   4.271   1.889  11.493  2.3176  1.2149  1.4878
 4634SOL    HW225539   4.186   2.017  11.514 -1.0291  1.7035  2.5706
 4635SOL     OW25540   0.815   3.373  13.247  0.1609  0.0055 -0.2884
 4635SOL    HW125541   0.806   3.468  13.252 -1.2895 -0.1914  1.1394
 4635SOL    HW225542   0.746   3.349  13.185 -1.1048 -0.1569  1.1592
 4636SOL     OW25543   1.421   2.293  14.170  0.3283  0.2795  0.1757
 4636SOL    HW125544   1.370   2.288  14.250  1.2842 -1.0363  0.7000
 4636SOL    HW225545   1.509   2.282  14.204  1.6337  0.4326 -3.1401
 4637SOL     OW25546   3.269   0.044   3.205 -0.5413  0.3725  0.1151
 4637SOL    HW125547   3.333   0.103   3.166 -0.4511 -0.2777 -0.7311
 4637SOL    HW225548   3.313   4.699   3.198 -0.4676  0.3631  0.7269
 4638SOL     OW25549   3.048   0.823   5.380  0.6568 -0.0478  0.0805
 4638SOL    HW125550   2.966   0.808   5.333  0.6836  1.8050 -0.5706
 4638SOL    HW225551   3.099   0.856   5.306  1.1388 -0.5695  0.1830
 4639SOL     OW25552   3.891   3.771   7.825 -0.5321  0.3448  0.1545
 4639SOL    HW125553   3.872   3.861   7.800  0.9583  0.5907 -0.0691
 4639SOL    HW225554   3.943   3.750   7.747 -1.3531  0.0131 -0.3110
 4640SOL     OW25555   2.184   3.530  12.139 -0.3565 -0.8800 -0.3838
 4640SOL    HW125556   2.122   3.457  12.135 -1.6458  0.3010 -1.6671
 4640SOL    HW225557   2.264   3.477  12.141  0.9267  1.1420  0.8583
 4641SOL     OW25558   4.407   2.182   4.708 -0.2159 -0.2026 -0.0993
 4641SOL    HW125559   4.467   2.252   4.734  0.2632 -0.0694 -1.5990
 4641SOL    HW225560   4.457   2.138   4.640 -0.1660 -2.0432  1.1451
 4642SOL     OW25561   1.254   3.839  13.258  0.0358 -0.5682 -0.4107
 4642SOL    HW125562   1.223   3.911  13.204 -1.6053 -2.9903 -2.7193
 4642SOL    HW225563   1.197   3.766  13.231  0.1804 -1.4075  1.4954
 4643SOL     OW25564   3.793   3.777   2.313  0.0023  0.0635  0.4346
 4643SOL    HW125565   3.716   3.731   2.279  0.3996  1.4904 -2.3510
 4643SOL    HW225566   3.824   3.814   2.231  1.0373 -1.5823  0.0666
 4644SOL     OW25567   1.649   3.618   5.139  0.2222 -0.4126  0.4918
 4644SOL    HW125568   1.565   3.608   5.185 -1.8109  1.8297 -2.6902
 4644SOL    HW225569   1.700   3.591   5.216 -1.8479  1.1453  2.4444
 4645SOL     OW25570   1.693   2.128   1.312  0.4694 -0.1235 -0.4409
 4645SOL    HW125571   1.643   2.134   1.230  1.1593  0.7521 -0.8005
 4645SOL    HW225572   1.704   2.034   1.325 -0.4785  0.0531  1.6787
 4646SOL     OW25573   2.023   2.675   8.585  0.0265  0.5615 -0.2057
 4646SOL    HW125574   2.110   2.652   8.552 -1.4102 -1.9555 -2.2284
 4646SOL    HW225575   2.048   2.764   8.613  2.1719 -0.5708  1.5044
 4647SOL     OW25576   3.238   2.819   1.980  0.7378  0.1796  0.2694
 4647SOL    HW125577   3.221   2.732   1.944 -0.6806  0.2408  0.7801
 4647SOL    HW225578   3.333   2.829   1.979  0.8032 -0.4271  0.7166
 4648SOL     OW25579   3.777   4.044   1.914  0.4364  0.2113  0.1965
 4648SOL    HW125580   3.756   4.090   1.996  2.7841 -2.7557  2.4305
 4648SOL    HW225581   3.825   3.965   1.937  1.2061  0.7075  0.2773
 4649SOL     OW25582   0.244   2.662   8.205 -0.4813 -0.0790 -0.3857
 4649SOL    HW125583   0.305   2.676   8.277  0.0759  1.7016 -1.2037
 4649SOL    HW225584   0.159   2.664   8.247 -0.7911  0.8601 -1.0480
 4650SOL     OW25585   1.252   1.507   3.577  0.0029 -0.0114 -0.5956
 4650SOL    HW125586   1.297   1.507   3.662 -0.9193 -0.7477 -0.1084
 4650SOL    HW225587   1.293   1.588   3.548  0.6280 -0.3596 -0.6890
 4651SOL     OW25588   4.210   1.522   4.000  0.3262  0.4748  0.6464
 4651SOL    HW125589   4.134   1.495   3.948  1.0972 -0.5699  0.0413
 4651SOL    HW225590   4.267   1.446   3.993 -0.0269  0.0857  2.0272
 4652SOL     OW25591   2.206   4.431   7.719  0.1041  0.6177  0.2749
 4652SOL    HW125592   2.253   4.359   7.761 -0.3661  0.4246  0.4631
 4652SOL    HW225593   2.259   4.441   7.640 -0.3345  2.3260  0.1903
 4653SOL     OW25594   1.478   4.647   9.396 -0.6641  0.3368 -0.1364
 4653SOL    HW125595   1.487   4.601   9.479  2.1177  1.7454  0.3587
 4653SOL    HW225596   1.419   4.712   9.433 -0.1356  1.0381 -0.5172
 4654SOL     OW25597   1.232   0.881  16.923 -0.4824 -0.0534  0.3245
 4654SOL    HW125598   1.309   0.853  16.973 -3.2649 -2.4213  3.2710
 4654SOL    HW225599   1.161   0.824  16.953 -0.7945 -0.5421 -1.3320
 4655SOL     OW25600   0.654   4.609   5.217  0.9854 -0.2207 -0.9349
 4655SOL    HW125601   0.571   4.577   5.184  0.2353 -1.3223  2.0170
 4655SOL    HW225602   0.678   4.682   5.159 -0.6496  0.5619 -0.6042
 4656SOL     OW25603   1.607   2.667  12.086  0.4553 -0.0898 -0.8392
 4656SOL    HW125604   1.591   2.679  11.992 -1.1410  2.5428 -0.2043
 4656SOL    HW225605   1.586   2.574  12.097 -0.3223  0.6028  3.3744
 4657SOL     OW25606   1.718   1.389   3.473  0.0556  0.1305  0.5259
 4657SOL    HW125607   1.790   1.328   3.486  0.1817 -0.1782 -1.5286
 4657SOL    HW225608   1.671   1.363   3.552 -0.4552  2.1842  0.9026
 4658SOL     OW25609   4.114   4.205   2.637  0.4250  0.3599  0.0082
 4658SOL    HW125610   4.030   4.226   2.598  1.1420  1.7857 -0.7725
 4658SOL    HW225611   4.110   4.274   2.704  0.5215  0.5603 -0.1933
 4659SOL     OW25612   2.447   1.195   8.518 -0.0576  0.4827  0.1707
 4659SOL    HW125613   2.370   1.223   8.567  0.3171  0.7213  0.6224
 4659SOL    HW225614   2.406   1.227   8.437 -0.0456  0.2174  0.0586
 4660SOL     OW25615   1.768   0.814   8.688 -0.1825  0.4623 -0.2450
 4660SOL    HW125616   1.739   0.766   8.765  1.5149  0.6358  0.5044
 4660SOL    HW225617   1.724   0.769   8.616  1.2650  1.1241 -1.5599
 4661SOL     OW25618   0.778   2.951   0.570 -0.2506 -0.5692 -0.2086
 4661SOL    HW125619   0.764   2.994   0.654  1.2688  4.3526 -2.4812
 4661SOL    HW225620   0.731   2.868   0.579 -0.1272 -0.6250 -0.0749
 4662SOL     OW25621   1.890   4.695   8.757 -0.3228  0.9079  0.4942
 4662SOL    HW125622   1.867   0.040   8.721 -0.6549  0.0623 -1.3013
 4662SOL    HW225623   1.955   4.676   8.690  0.6135  1.7726  1.1694
 4663SOL     OW25624   3.222   0.862   4.711 -0.2277 -0.2766  0.2684
 4663SOL    HW125625   3.142   0.871   4.660 -0.7145  0.9505  1.2631
 4663SOL    HW225626   3.213   0.780   4.759 -0.8391  0.1012  0.8100
 4664SOL     OW25627   1.107   1.883  11.574 -0.3787 -0.3775  0.1966
 4664SOL    HW125628   1.150   1.820  11.632 -2.0165  1.4760  3.4649
 4664SOL    HW225629   1.049   1.936  11.630  0.5084  0.6379  0.1703
 4665SOL     OW25630   4.652   3.646   3.105  0.3986 -0.0487  0.2534
 4665SOL    HW125631   4.585   3.594   3.061  1.6546 -1.2718 -0.2462
 4665SOL    HW225632   4.682   3.702   3.034  0.4700  0.7032  0.8845
 4666SOL     OW25633   2.198   4.225   0.504 -0.0595  0.0168  0.0421
 4666SOL    HW125634   2.290   4.243   0.522 -0.5832  2.3752  0.3545
 4666SOL    HW225635   2.173   4.158   0.568  0.9914 -0.1650  0.2643
 4667SOL     OW25636   3.595   2.350   6.162  0.2340  0.0311  0.5101
 4667SOL    HW125637   3.509   2.362   6.122  1.2367 -0.1267 -1.6570
 4667SOL    HW225638   3.603   2.427   6.218  3.1529  0.4437 -0.4947
 4668SOL     OW25639   1.640   4.271  14.061  0.1178 -0.5558  0.6692
 4668SOL    HW125640   1.696   4.277  14.139  0.8300 -1.7278  0.2415
 4668SOL    HW225641   1.557   4.265  14.108 -0.4405  1.9769  0.0252
 4669SOL     OW25642   2.910   0.675   8.904 -0.2912  0.6381  0.1080
 4669SOL    HW125643   2.876   0.637   8.823  0.0928 -1.0961  0.7623
 4669SOL    HW225644   2.823   0.686   8.944 -0.8475  1.2190 -1.2728
 4670SOL     OW25645   3.113   3.213   5.556  0.0252 -0.2112  0.0386
 4670SOL    HW125646   3.071   3.292   5.590 -1.7693 -1.3079  0.3372
 4670SOL    HW225647   3.178   3.255   5.500  0.0264  1.4106  1.2659
 4671SOL     OW25648   4.122   4.520   4.947  0.0580  0.5304 -0.4546
 4671SOL    HW125649   4.177   4.466   4.890  0.2062  1.9172 -1.6316
 4671SOL    HW225650   4.128   4.598   4.892  2.6268  1.2599  0.8550
 4672SOL     OW25651   1.999   4.451   1.958 -0.0608  0.1377  0.4374
 4672SOL    HW125652   2.094   4.454   1.949 -0.0737 -0.9840 -0.0969
 4672SOL    HW225653   1.985   4.357   1.973 -1.9188  0.5340  1.1386
 4673SOL     OW25654   3.106   4.231   8.706 -0.1466 -0.4168 -0.2218
 4673SOL    HW125655   3.135   4.157   8.654  1.3786 -1.8907  2.7400
 4673SOL    HW225656   3.190   4.251   8.745 -0.3998  1.2728 -0.5401
 4674SOL     OW25657   4.600   1.219   9.897  0.4242 -0.5488 -0.6284
 4674SOL    HW125658   4.518   1.268   9.886 -0.1847 -1.2145  0.9502
 4674SOL    HW225659   4.588   1.155   9.827  2.8773 -1.6687 -0.0025
 4675SOL     OW25660   4.488   0.939   8.374  0.1049  0.8654  0.5875
 4675SOL    HW125661   4.470   0.858   8.328  2.3436 -0.1273  1.4779
 4675SOL    HW225662   4.443   0.920   8.456  0.3517  1.0886  0.7776
 4676SOL     OW25663   1.542   3.929  13.835  0.2359 -0.0482 -0.2696
 4676SOL    HW125664   1.623   3.956  13.791  0.6154 -2.1321 -0.8881
 4676SOL    HW225665   1.578   3.943  13.922  0.0105  1.9576 -0.5137
 4677SOL     OW25666   1.861   3.306   8.327 -0.1641  0.4876  0.3029
 4677SOL    HW125667   1.902   3.309   8.413  0.3557  1.1288  0.0351
 4677SOL    HW225668   1.934   3.262   8.282  0.2702  2.0996 -0.5789
 4678SOL     OW25669   2.236   0.886   2.084  0.0335 -0.2048 -0.0838
 4678SOL    HW125670   2.325   0.851   2.092 -0.4185 -1.6135 -1.2579
 4678SOL    HW225671   2.258   0.962   2.030 -1.3969  0.4136  0.1996
 4679SOL     OW25672   0.784   1.409   9.321 -0.3528 -0.0136  0.3880
 4679SOL    HW125673   0.766   1.501   9.300 -1.9506  0.0142  1.8843
 4679SOL    HW225674   0.791   1.414   9.416  1.7161  0.8352  0.1938
 4680SOL     OW25675   2.803   3.385   2.860 -0.3523  0.2486  0.6139
 4680SOL    HW125676   2.825   3.449   2.928  2.4084  0.7266 -0.7323
 4680SOL    HW225677   2.895   3.375   2.835 -1.1973 -2.9313 -1.0963
 4681SOL     OW25678   3.503   0.109   2.661 -0.4867 -0.1048 -0.2528
 4681SOL    HW125679   3.546   0.033   2.624  1.2755 -1.4895  4.7216
 4681SOL    HW225680   3.489   0.151   2.576 -0.4043  0.4637  0.0133
 4682SOL     OW25681   2.518   3.832   9.320 -0.4981 -0.1177 -0.6436
 4682SOL    HW125682   2.567   3.750   9.321  1.9681  1.3543  0.0274
 4682SOL    HW225683   2.585   3.901   9.311  0.0128 -0.4010  1.0153
 4683SOL     OW25684   3.897   0.291   3.677 -0.1036  0.6879  0.1190
 4683SOL    HW125685   3.893   0.271   3.771 -1.3588 -1.3490 -0.3809
 4683SOL    HW225686   3.991   0.300   3.663 -0.4904  2.4013 -1.3113
 4684SOL     OW25687   4.480   2.671   3.855  0.1909 -0.2165  0.1428
 4684SOL    HW125688   4.463   2.586   3.896 -0.0041  0.3091  1.1537
 4684SOL    HW225689   4.395   2.711   3.839 -0.0152 -1.5485 -2.0890
 4685SOL     OW25690   3.649   4.267  11.592  0.6696 -0.1252  0.4203
 4685SOL    HW125691   3.687   4.193  11.639  1.2912 -0.6844 -0.9612
 4685SOL    HW225692   3.567   4.230  11.560  0.1146  1.6546 -0.1871
 4686SOL     OW25693   0.306   2.888   6.150 -0.1886  0.3392 -0.3928
 4686SOL    HW125694   0.288   2.798   6.178  1.9887 -0.1695 -0.6018
 4686SOL    HW225695   0.362   2.922   6.220  1.5548 -1.3432 -0.9529
 4687SOL     OW25696   4.726   4.486   3.450 -0.1019  0.0306 -0.4241
 4687SOL    HW125697   4.662   4.547   3.486  0.2412  0.6251 -0.8165
 4687SOL    HW225698   4.672   4.448   3.381 -0.2802 -0.6463  0.0964
 4688SOL     OW25699   0.343   3.725  16.235  0.4479  0.1283  0.1769
 4688SOL    HW125700   0.274   3.681  16.186  0.5748  1.1456 -0.9130
 4688SOL    HW225701   0.313   3.816  16.245 -0.7687  0.0434 -2.7822
 4689SOL     OW25702   2.964   3.846  11.071 -0.2564 -0.2017 -0.4508
 4689SOL    HW125703   2.993   3.927  11.111  1.7757 -1.9565  1.6494
 4689SOL    HW225704   2.910   3.889  11.005 -2.3395 -3.0322 -0.6119
 4690SOL     OW25705   2.003   3.137   3.023 -0.1824  0.6418 -0.2622
 4690SOL    HW125706   2.091   3.173   3.028 -0.0390  0.2230  0.2774
 4690SOL    HW225707   2.009   3.101   2.935 -0.3995  0.5171 -0.2266
 4691SOL     OW25708   3.616   4.175  12.205 -0.0445  0.3283  0.1965
 4691SOL    HW125709   3.572   4.154  12.123  0.3813 -2.1350  0.5993
 4691SOL    HW225710   3.676   4.240  12.169 -0.3372  1.5335  1.9010
 4692SOL     OW25711   0.083   2.867   8.437  0.0006 -0.1929  0.3455
 4692SOL    HW125712   0.067   2.928   8.508  0.0257 -0.3454  0.4812
 4692SOL    HW225713   0.176   2.860   8.454  0.4100  0.8726 -1.4580
 4693SOL     OW25714   2.965   4.344   2.101  0.0777 -0.4742 -0.2978
 4693SOL    HW125715   2.909   4.267   2.113 -0.9633  0.7807  2.8379
 4693SOL    HW225716   2.912   4.397   2.160 -0.0050  0.2470 -1.0322
 4694SOL     OW25717   0.739   0.731   9.721  0.6785  0.0809 -0.3771
 4694SOL    HW125718   0.810   0.754   9.662  0.9267  4.0489  1.4717
 4694SOL    HW225719   0.688   0.810   9.705  1.1159  0.6262  0.9831
 4695SOL     OW25720   0.363   3.061  12.589 -0.2602  0.4489 -0.2766
 4695SOL    HW125721   0.362   3.111  12.671  0.6652 -1.3001  0.8044
 4695SOL    HW225722   0.332   2.976  12.620 -0.1690  0.5816  0.1852
 4696SOL     OW25723   3.469   0.136  13.301  0.0467  0.6905  0.4494
 4696SOL    HW125724   3.508   0.183  13.375  2.8365 -0.6736 -0.1607
 4696SOL    HW225725   3.450   0.049  13.336 -1.6318  1.1876  0.7672
 4697SOL     OW25726   2.321   0.138   5.331 -0.5521 -0.2286  0.5416
 4697SOL    HW125727   2.360   0.176   5.409  1.8229  0.7266 -1.1211
 4697SOL    HW225728   2.390   0.074   5.312 -0.5636 -0.0736 -0.0177
 4698SOL     OW25729   3.958   4.588   8.657 -0.0524 -0.4660 -0.3114
 4698SOL    HW125730   3.922   4.521   8.600 -0.5949  0.5505 -1.1596
 4698SOL    HW225731   3.925   4.668   8.616 -0.9779 -1.6847 -1.9531
 4699SOL     OW25732   3.458   3.552   4.116  0.1802  0.1951  0.1563
 4699SOL    HW125733   3.491   3.492   4.050 -2.4142 -1.2621  0.2031
 4699SOL    HW225734   3.531   3.566   4.177  1.7442 -0.1299 -1.6428
 4700SOL     OW25735   1.783   2.814  12.211  0.0499  0.7275 -0.3075
 4700SOL    HW125736   1.854   2.769  12.165  2.9840  1.6121  3.3430
 4700SOL    HW225737   1.713   2.754  12.184  1.7063 -1.4380  0.2386
 4701SOL     OW25738   2.976   2.738   4.470  0.1830  0.3894  0.2534
 4701SOL    HW125739   2.888   2.701   4.471  0.9080 -1.3158 -2.4308
 4701SOL    HW225740   2.995   2.755   4.563  1.0179 -0.3224  0.2033
 4702SOL     OW25741   3.023   1.567   3.102 -0.1520  0.2124  0.5248
 4702SOL    HW125742   3.060   1.481   3.082  1.3534  1.1106 -0.5517
 4702SOL    HW225743   2.976   1.546   3.183  1.9533 -3.8620  0.7072
 4703SOL     OW25744   0.367   4.046   5.342 -0.1550  0.0383 -0.1345
 4703SOL    HW125745   0.382   4.117   5.279 -3.0722 -1.6614 -2.7393
 4703SOL    HW225746   0.294   4.003   5.297 -0.0569 -0.8323  0.5354
 4704SOL     OW25747   2.563   4.406   7.747 -0.2516  0.7304 -0.5479
 4704SOL    HW125748   2.656   4.400   7.766 -0.1586 -1.7777 -1.7779
 4704SOL    HW225749   2.542   4.487   7.792 -0.5433  1.6210 -2.2762
 4705SOL     OW25750   4.055   2.551   6.752  0.3813  0.1024  0.3380
 4705SOL    HW125751   4.029   2.459   6.753  1.8134 -0.2973  1.3365
 4705SOL    HW225752   4.150   2.542   6.756  0.3880 -0.8396 -2.3238
 4706SOL     OW25753   3.126   2.487  12.166 -0.4402 -0.1366  0.3665
 4706SOL    HW125754   3.181   2.565  12.174  0.1168 -0.7274  2.3222
 4706SOL    HW225755   3.074   2.496  12.246 -0.4166 -3.0536  0.7224
 4707SOL     OW25756   2.337   2.973   8.372  0.2895  0.4272  0.0755
 4707SOL    HW125757   2.254   3.016   8.351  0.6496  0.4938 -1.1584
 4707SOL    HW225758   2.376   3.041   8.427  1.1838  1.1310 -1.4616
 4708SOL     OW25759   4.298   1.283   3.963 -0.3250  0.6574 -0.1981
 4708SOL    HW125760   4.374   1.255   3.911  1.3134 -0.2420  2.6832
 4708SOL    HW225761   4.300   1.218   4.032 -5.9339  0.5350 -0.1674
 4709SOL     OW25762   0.816   0.845   9.287 -0.9041  0.5258  0.2861
 4709SOL    HW125763   0.737   0.897   9.299 -0.1538  1.4774  1.0850
 4709SOL    HW225764   0.770   0.763   9.267  1.6333 -0.9859  0.5883
 4710SOL     OW25765   0.536   0.963   2.930  0.4178 -0.0382 -0.0317
 4710SOL    HW125766   0.613   0.952   2.875 -0.1229  0.9682 -0.9927
 4710SOL    HW225767   0.462   0.948   2.871  0.1429 -2.8943  1.0077
 4711SOL     OW25768   0.658   0.772   1.584 -0.2444  0.0309 -0.0469
 4711SOL    HW125769   0.634   0.714   1.511 -3.6081  1.1970  0.1783
 4711SOL    HW225770   0.752   0.754   1.598  0.2201  0.8922 -2.1171
 4712SOL     OW25771   0.313   4.636   8.340 -0.0420 -0.4165 -0.1115
 4712SOL    HW125772   0.337   4.548   8.311  0.7806 -0.5676  1.0373
 4712SOL    HW225773   0.260   4.612   8.416 -1.6120 -1.8811 -1.6751
 4713SOL     OW25774   3.882   1.600   0.725 -0.1868 -0.0808 -0.1079
 4713SOL    HW125775   3.862   1.561   0.810 -1.0745 -2.1986 -1.3071
 4713SOL    HW225776   3.895   1.518   0.678  0.0997  0.4806 -1.0132
 4714SOL     OW25777   2.554   4.504   4.660  0.6752 -0.5942  0.2874
 4714SOL    HW125778   2.526   4.487   4.570  0.7757 -0.4478  0.2283
 4714SOL    HW225779   2.607   4.583   4.646 -1.2099  0.6688  0.1769
 4715SOL     OW25780   3.486   2.919   7.367 -0.3974  0.2769 -0.7248
 4715SOL    HW125781   3.468   2.933   7.274  0.9659 -0.6515 -1.1317
 4715SOL    HW225782   3.573   2.881   7.352 -0.5050  0.2829 -1.3661
 4716SOL     OW25783   2.860   1.103   1.677 -0.1735  0.8362 -0.2235
 4716SOL    HW125784   2.901   1.137   1.598  0.6810 -1.0119 -0.5828
 4716SOL    HW225785   2.791   1.169   1.685  0.2594  1.4362 -1.4742
 4717SOL     OW25786   0.090   3.814   4.639 -0.3423  0.5532  0.0809
 4717SOL    HW125787   0.081   3.909   4.631  2.5423  0.8287  0.0797
 4717SOL    HW225788   0.001   3.792   4.668 -0.3186 -0.9496 -1.0064
 4718SOL     OW25789   1.391   2.143   8.117  0.4795  0.0985 -0.1443
 4718SOL    HW125790   1.480   2.161   8.146  1.2845  0.9603 -3.1578
 4718SOL    HW225791   1.348   2.219   8.158  2.2746  0.8249  0.3751
 4719SOL     OW25792   0.382   3.901   7.326 -0.1813  0.1905 -0.0921
 4719SOL    HW125793   0.325   3.924   7.399 -1.4079 -1.6203 -0.4817
 4719SOL    HW225794   0.360   3.971   7.264  1.7467  0.3786 -0.5713
 4720SOL     OW25795   0.498   2.675   9.781  0.3130 -0.0174  0.1066
 4720SOL    HW125796   0.440   2.689   9.856  1.5310 -2.3301  1.4771
 4720SOL    HW225797   0.492   2.580   9.783  1.8235 -0.1546 -1.4705
 4721SOL     OW25798   3.917   3.747   3.888 -0.1104 -0.4153 -0.0939
 4721SOL    HW125799   3.835   3.705   3.861 -0.4653  0.1612  0.0953
 4721SOL    HW225800   3.947   3.673   3.941 -2.0822  0.3190  2.0407
 4722SOL     OW25801   0.470   3.902  14.209 -0.1906  0.5865 -0.0426
 4722SOL    HW125802   0.542   3.840  14.199 -0.9423 -0.1666 -0.7384
 4722SOL    HW225803   0.440   3.881  14.297 -1.4031  0.7225 -0.4283
 4723SOL     OW25804   2.547   0.760   8.632 -0.2270 -0.4391 -0.2943
 4723SOL    HW125805   2.631   0.714   8.631  0.8180  1.4212  0.9537
 4723SOL    HW225806   2.569   0.831   8.571 -1.3320 -0.7178 -1.0295
 4724SOL     OW25807   3.393   3.785   0.176  0.5672  0.4022 -0.4157
 4724SOL    HW125808   3.471   3.730   0.186  1.1214  0.9877 -1.4535
 4724SOL    HW225809   3.320   3.740   0.218 -0.9447  2.5229 -0.7681
 4725SOL     OW25810   0.677   2.680  10.219 -0.3862 -0.6801 -0.0036
 4725SOL    HW125811   0.722   2.655  10.138 -1.1456 -2.8761  0.2573
 4725SOL    HW225812   0.625   2.602  10.239 -1.2303 -0.2256 -0.4459
 4726SOL     OW25813   3.490   0.275   2.439  0.3135 -0.0970 -0.5111
 4726SOL    HW125814   3.507   0.309   2.351 -4.4046  1.6439 -0.7236
 4726SOL    HW225815   3.455   0.350   2.487  3.1344  1.7637 -1.3690
 4727SOL     OW25816   1.366   0.854   6.602 -0.3669 -0.4462 -0.5661
 4727SOL    HW125817   1.284   0.807   6.612 -1.8518  2.1533 -0.4259
 4727SOL    HW225818   1.349   0.888   6.514 -2.5630 -1.2509 -0.4317
 4728SOL     OW25819   3.378   3.880   2.630  0.7967 -0.1798 -0.3502
 4728SOL    HW125820   3.368   3.795   2.672  0.5644  0.8277  1.6340
 4728SOL    HW225821   3.466   3.874   2.593  1.7641 -0.2476  1.9516
 4729SOL     OW25822   3.286   3.442  11.609 -0.5476 -0.5993  0.2742
 4729SOL    HW125823   3.241   3.439  11.525 -0.0512 -1.5212  0.0454
 4729SOL    HW225824   3.297   3.349  11.629 -0.3481 -0.7880 -0.7243
 4730SOL     OW25825   2.113   2.091   8.780 -0.2296  0.2888  0.2830
 4730SOL    HW125826   2.023   2.057   8.783 -0.9825  2.0822 -1.9032
 4730SOL    HW225827   2.102   2.185   8.768 -2.9398  0.0907  1.1306
 4731SOL     OW25828   3.981   1.958  14.983 -0.7938 -0.0407 -0.0735
 4731SOL    HW125829   4.007   1.866  14.975 -2.3549 -0.3770 -1.2569
 4731SOL    HW225830   3.890   1.955  14.955 -1.0256  0.6619  0.6054
 4732SOL     OW25831   0.513   1.782   5.883 -0.7879  0.2328 -0.3471
 4732SOL    HW125832   0.588   1.730   5.853 -1.2020  0.6497 -2.1298
 4732SOL    HW225833   0.495   1.742   5.968 -1.0240  1.5449  0.2238
 4733SOL     OW25834   3.492   3.759  10.254 -0.5427  0.5218 -0.3699
 4733SOL    HW125835   3.571   3.774  10.306  0.3490 -0.1451 -1.5080
 4733SOL    HW225836   3.524   3.699  10.186 -1.9816  0.9674 -1.4467
 4734SOL     OW25837   4.080   1.202   5.189  0.2554  0.0344  0.2140
 4734SOL    HW125838   4.099   1.221   5.281  0.8057 -0.3327  0.1737
 4734SOL    HW225839   4.082   1.292   5.156  0.8083 -1.2649 -3.3357
 4735SOL     OW25840   0.691   0.404   1.442  0.2509  0.0718 -0.3189
 4735SOL    HW125841   0.663   0.410   1.533 -2.5004 -0.2855 -1.1371
 4735SOL    HW225842   0.654   0.488   1.412  0.6923  0.9463  1.6289
 4736SOL     OW25843   0.145   0.385   6.585  0.4586 -0.3278 -0.7092
 4736SOL    HW125844   0.079   0.318   6.565  0.3330 -0.4032 -0.0281
 4736SOL    HW225845   0.165   0.434   6.505 -2.6788  1.8465 -0.1532
 4737SOL     OW25846   2.481   3.474   3.950  0.5589 -0.5079 -0.4936
 4737SOL    HW125847   2.451   3.421   4.023  3.4643  0.1491  1.1362
 4737SOL    HW225848   2.397   3.505   3.914  0.0698 -2.5323 -1.0795
 4738SOL     OW25849   1.613   1.885   8.419  0.1429 -0.0386 -0.5970
 4738SOL    HW125850   1.607   1.823   8.491  1.2089  0.6880  0.1071
 4738SOL    HW225851   1.704   1.908   8.439 -0.3577  0.5627  0.9657
 4739SOL     OW25852   0.502   2.441  10.186  0.3090  0.5650  0.4990
 4739SOL    HW125853   0.440   2.451  10.258  1.1442  2.1022  1.0032
 4739SOL    HW225854   0.434   2.391  10.140  0.7990  0.8838 -0.5686
 4740SOL     OW25855   2.631   2.435  11.691 -0.2082 -0.1127 -0.0820
 4740SOL    HW125856   2.641   2.396  11.604  1.0950  0.0395  0.0111
 4740SOL    HW225857   2.611   2.523  11.660  0.6357  0.6858  1.6689
 4741SOL     OW25858   0.359   3.200   0.474  0.5495 -0.1800  0.1128
 4741SOL    HW125859   0.265   3.185   0.465  0.5399  1.1755 -2.0760
 4741SOL    HW225860   0.383   3.212   0.382  0.5999 -0.2585  0.1159
 4742SOL     OW25861   0.623   3.718  15.854  0.7155 -0.1425 -0.4498
 4742SOL    HW125862   0.616   3.717  15.949 -0.0659  0.4060 -0.5001
 4742SOL    HW225863   0.627   3.811  15.831  0.0934 -0.9309 -3.7937
 4743SOL     OW25864   1.506   0.274   2.815 -0.1204 -0.2197  0.1041
 4743SOL    HW125865   1.586   0.316   2.845 -0.1358  0.7981 -1.2424
 4743SOL    HW225866   1.463   0.359   2.817 -1.6989 -1.0170 -0.1343
 4744SOL     OW25867   1.259   3.055   3.683  0.3326  0.3882  0.0725
 4744SOL    HW125868   1.281   2.988   3.748  2.6506 -0.6706 -1.8040
 4744SOL    HW225869   1.218   3.005   3.612  1.3426  0.6206 -0.6757
 4745SOL     OW25870   0.011   0.834   6.682  0.3541  0.3116  0.4190
 4745SOL    HW125871   4.731   0.889   6.607 -2.3982  1.0394  1.6780
 4745SOL    HW225872   4.731   0.748   6.646 -1.5942  1.3531 -0.9359
 4746SOL     OW25873   3.338   2.064   1.644 -0.2242  0.8459  0.3639
 4746SOL    HW125874   3.376   2.040   1.560 -2.0226  1.0345 -0.5061
 4746SOL    HW225875   3.301   2.150   1.625 -2.1875 -0.4465 -1.5757
 4747SOL     OW25876   0.016   1.430  14.108  0.3859 -0.2899 -0.7912
 4747SOL    HW125877   0.083   1.460  14.170  0.2816 -2.1316  0.1776
 4747SOL    HW225878   0.062   1.349  14.086  1.4558 -0.1093  0.7809
 4748SOL     OW25879   1.384   2.914   3.914  0.4710 -0.5981  0.1237
 4748SOL    HW125880   1.462   2.932   3.861  0.0019  1.0625  0.0020
 4748SOL    HW225881   1.371   2.823   3.885  0.0503  0.0382 -1.7021
 4749SOL     OW25882   1.053   1.903   8.547 -0.2559  0.1851 -0.3920
 4749SOL    HW125883   1.095   1.972   8.495 -1.0274  0.6017 -0.4493
 4749SOL    HW225884   1.041   1.834   8.481 -1.9916 -0.4450  0.5911
 4750SOL     OW25885   0.500   4.652  10.440  0.0496  0.4704 -0.5285
 4750SOL    HW125886   0.537   4.569  10.409 -0.5298 -0.6190  1.7587
 4750SOL    HW225887   0.557   4.675  10.513  1.3048  0.1635 -1.4164
 4751SOL     OW25888   4.158   0.654   5.186 -0.4091 -0.2369  0.6901
 4751SOL    HW125889   4.087   0.704   5.226  0.2209  0.9238  0.3385
 4751SOL    HW225890   4.147   0.682   5.095 -1.5758 -1.5102  0.4346
 4752SOL     OW25891   2.719   1.392   4.080  0.0059 -0.4284  0.4926
 4752SOL    HW125892   2.648   1.454   4.065 -0.0781 -1.0676 -1.7110
 4752SOL    HW225893   2.751   1.421   4.166  0.1525  0.7575  0.0324
 4753SOL     OW25894   0.335   0.685   0.431  0.0290  0.4172  0.0310
 4753SOL    HW125895   0.263   0.622   0.422 -1.9837  2.9574 -1.7341
 4753SOL    HW225896   0.320   0.717   0.520  1.9140  0.1785  0.4184
 4754SOL     OW25897   3.628   4.559  17.530  0.4261  0.4232  0.0154
 4754SOL    HW125898   3.574   4.517  17.464  0.1366  0.6603  0.1020
 4754SOL    HW225899   3.604   4.651  17.516  0.5864  0.7135  1.6209
 4755SOL     OW25900   1.523   0.644   6.828 -0.4454  0.7605  0.2838
 4755SOL    HW125901   1.537   0.663   6.735  1.2744 -2.4016 -0.1007
 4755SOL    HW225902   1.549   0.552   6.825  0.9541  1.1578  0.3315
 4756SOL     OW25903   1.149   3.773  16.145 -0.4165 -0.4007  0.7399
 4756SOL    HW125904   1.184   3.759  16.057 -1.5856 -3.0426  0.6959
 4756SOL    HW225905   1.153   3.868  16.156 -2.5107 -0.0869 -1.3651
 4757SOL     OW25906   3.770   2.161   9.038 -0.4064  0.1694  0.5472
 4757SOL    HW125907   3.747   2.155   9.130 -1.9275 -0.2506  0.1331
 4757SOL    HW225908   3.817   2.244   9.041 -0.9691  0.5309 -0.5838
 4758SOL     OW25909   3.452   0.967  12.490 -0.1352  0.4107  0.1693
 4758SOL    HW125910   3.505   0.966  12.570  0.7919 -1.1770 -0.4594
 4758SOL    HW225911   3.428   0.874  12.488  1.6201 -0.0314 -0.3083
 4759SOL     OW25912   3.570   3.617   9.564 -0.0906 -0.1953 -0.5956
 4759SOL    HW125913   3.563   3.523   9.548 -0.5930 -0.1838 -0.4567
 4759SOL    HW225914   3.665   3.626   9.561  0.1009 -2.3378 -1.3273
 4760SOL     OW25915   0.261   0.284   9.279 -0.2623 -0.3487 -0.4992
 4760SOL    HW125916   0.224   0.356   9.330 -2.0733 -3.2441  2.2553
 4760SOL    HW225917   0.328   0.248   9.337  0.4584 -0.4627 -1.4075
 4761SOL     OW25918   1.953   3.640  11.581 -0.4018  0.0802 -0.5479
 4761SOL    HW125919   1.925   3.726  11.614  0.1253  0.5147 -1.2297
 4761SOL    HW225920   2.042   3.656  11.548  1.6294 -1.8115  4.0217
 4762SOL     OW25921   3.188   0.194  11.067  0.7689  0.2921 -0.2704
 4762SOL    HW125922   3.153   0.238  11.144  2.3634  0.2021  0.4967
 4762SOL    HW225923   3.102   0.175  11.028  1.1785  0.4677 -1.2694
 4763SOL     OW25924   0.356   2.803   7.609  0.3098 -0.0537  0.2983
 4763SOL    HW125925   0.354   2.821   7.515  2.1577  1.8507  0.6197
 4763SOL    HW225926   0.314   2.717   7.608  0.3573 -0.0771  0.3229
 4764SOL     OW25927   1.683   0.422   2.628  0.1002 -0.1540  0.8942
 4764SOL    HW125928   1.764   0.427   2.577 -0.6262 -1.0233 -0.3445
 4764SOL    HW225929   1.624   0.386   2.561 -1.7163  1.9895  1.3573
 4765SOL     OW25930   2.389   0.962   7.664  0.5849 -0.2292  0.0621
 4765SOL    HW125931   2.350   1.017   7.596 -3.5564 -1.2016  1.6670
 4765SOL    HW225932   2.427   0.892   7.611  1.3842  0.3166 -0.0872
 4766SOL     OW25933   4.718   3.916   7.542 -0.6667  0.8351 -0.0785
 4766SOL    HW125934   4.732   3.836   7.593  0.2371  2.1402  1.7142
 4766SOL    HW225935   4.660   3.970   7.595 -2.5764 -2.0165  0.7347
 4767SOL     OW25936   3.855   4.529   4.695  0.6216 -0.5202  0.0424
 4767SOL    HW125937   3.858   4.575   4.612 -0.5679 -0.0672  0.2581
 4767SOL    HW225938   3.934   4.475   4.698 -0.0179 -1.5181 -1.1317
 4768SOL     OW25939   1.321   0.732  13.673 -0.2544  0.6867 -0.1381
 4768SOL    HW125940   1.257   0.770  13.734 -1.0172 -1.9749  0.7752
 4768SOL    HW225941   1.386   0.800  13.661  0.6580  0.3905  3.0334
 4769SOL     OW25942   2.157   1.869   6.283  0.3685 -0.0379  0.3747
 4769SOL    HW125943   2.087   1.929   6.256 -0.8780 -1.5015  0.3694
 4769SOL    HW225944   2.238   1.920   6.280 -1.2160  2.4574 -0.8546
 4770SOL     OW25945   1.392   0.498   0.539  0.1770 -0.3493  0.1289
 4770SOL    HW125946   1.431   0.414   0.515  1.8390 -0.0505  1.6826
 4770SOL    HW225947   1.330   0.470   0.607 -2.7239  2.6462 -1.3310
 4771SOL     OW25948   1.211   2.185   6.833 -0.2929  0.5241  0.0804
 4771SOL    HW125949   1.140   2.158   6.774  0.0246  0.3271 -0.2164
 4771SOL    HW225950   1.177   2.223   6.913  0.1247 -1.2803  1.1105
 4772SOL     OW25951   3.399   3.051   7.580  0.6274  0.2053  0.2043
 4772SOL    HW125952   3.433   3.009   7.501  0.4129  0.1910  0.1222
 4772SOL    HW225953   3.315   3.007   7.587  0.1396  1.1278  0.1046
 4773SOL     OW25954   1.285   1.010   6.377  0.0877  0.0384 -0.3454
 4773SOL    HW125955   1.265   0.955   6.302 -0.9205  1.9855 -1.4882
 4773SOL    HW225956   1.292   1.099   6.342  0.2346 -0.5594 -1.8296
 4774SOL     OW25957   2.759   1.565   5.450 -0.0011 -0.0721  0.2202
 4774SOL    HW125958   2.791   1.654   5.434 -1.3208  0.4268  0.3518
 4774SOL    HW225959   2.693   1.547   5.383 -0.5673 -3.0249  1.5923
 4775SOL     OW25960   4.251   4.494  10.992 -0.0371  0.2308  0.7063
 4775SOL    HW125961   4.266   4.400  10.985  1.0355  0.4951 -0.5112
 4775SOL    HW225962   4.197   4.514  10.915  0.8531 -2.4734 -0.5929
 4776SOL     OW25963   3.707   3.058   3.124 -0.6321  0.3190 -0.6615
 4776SOL    HW125964   3.621   3.074   3.162 -0.6945 -0.3157 -0.5267
 4776SOL    HW225965   3.738   3.138   3.083  5.6244 -2.4208 -1.3144
 4777SOL     OW25966   4.724   2.404   6.480 -0.6918 -0.2416 -0.3396
 4777SOL    HW125967   4.684   2.320   6.460  0.6991 -0.8048 -0.7516
 4777SOL    HW225968   0.049   2.377   6.546 -0.2113  0.4349 -0.5382
 4778SOL     OW25969   3.746   2.159  15.216  0.2546 -0.2297 -0.4011
 4778SOL    HW125970   3.755   2.071  15.181 -1.5996 -0.1793 -0.9894
 4778SOL    HW225971   3.673   2.143  15.276  0.2153 -0.9824 -0.6528
 4779SOL     OW25972   3.797   2.666   3.885  0.5011  0.2631  0.5704
 4779SOL    HW125973   3.883   2.647   3.846  0.0221 -1.4951  0.3794
 4779SOL    HW225974   3.782   2.601   3.953  0.0431 -1.5069 -1.2159
 4780SOL     OW25975   1.627   3.559   9.832 -0.0343 -0.4055  0.0259
 4780SOL    HW125976   1.685   3.632   9.808  0.0843 -0.6602 -0.4613
 4780SOL    HW225977   1.576   3.600   9.902 -0.2393 -0.6296  0.0040
 4781SOL     OW25978   4.097   1.524   2.572  0.2714  0.0509 -0.5491
 4781SOL    HW125979   4.012   1.566   2.556 -0.2509 -0.4942  0.8353
 4781SOL    HW225980   4.053   1.458   2.624  1.3660  0.9636  1.5105
 4782SOL     OW25981   2.864   3.848  17.736 -0.1073 -0.0768 -0.2847
 4782SOL    HW125982   2.781   3.863  17.691 -0.5907  1.6802  1.2061
 4782SOL    HW225983   2.847   3.882   0.066 -2.9598 -2.0940 -0.0586
 4783SOL     OW25984   2.627   1.616  14.016 -0.3240 -0.0749  0.7885
 4783SOL    HW125985   2.702   1.662  13.978 -0.8738  0.1660 -0.0076
 4783SOL    HW225986   2.651   1.529  13.985  0.0109  0.6649 -1.0359
 4784SOL     OW25987   0.865   4.450   5.203  0.6913 -0.3897  0.4503
 4784SOL    HW125988   0.786   4.498   5.227  0.0693 -1.1576 -0.0590
 4784SOL    HW225989   0.832   4.401   5.128 -0.4561  0.8511  0.1599
 4785SOL     OW25990   4.632   0.989   7.013  0.8633  0.3947 -0.6000
 4785SOL    HW125991   4.566   1.031   6.958 -0.7576 -0.3115  0.7866
 4785SOL    HW225992   4.700   1.007   6.949  0.0376 -0.2441 -1.6760
 4786SOL     OW25993   3.602   3.952   9.844 -0.0283 -0.9462  0.3353
 4786SOL    HW125994   3.644   3.985   9.765  0.7374  2.1757  2.0073
 4786SOL    HW225995   3.512   3.959   9.811  0.5614  0.9862 -0.8542
 4787SOL     OW25996   0.017   3.799   7.011 -0.0697  0.1919 -0.1845
 4787SOL    HW125997   4.671   3.758   7.006  0.0029 -0.1259  1.3755
 4787SOL    HW225998   0.015   3.849   7.093 -0.9347  1.7009 -1.1097
 4788SOL     OW25999   2.905   3.560  13.094  0.2892 -0.0289  0.5211
 4788SOL    HW126000   2.845   3.486  13.091  0.5726 -0.2655  0.6922
 4788SOL    HW226001   2.984   3.512  13.122 -0.0606  0.1633  1.8432
 4789SOL     OW26002   0.321   0.447   4.064  0.3480 -0.2768 -0.2597
 4789SOL    HW126003   0.246   0.483   4.017 -0.3483 -1.2923  0.0717
 4789SOL    HW226004   0.276   0.425   4.145  0.6700 -1.2680 -0.3466
 4790SOL     OW26005   2.575   4.549  17.253 -0.0365 -0.2468  0.2924
 4790SOL    HW126006   2.550   4.459  17.232 -1.4903  0.8921 -2.8195
 4790SOL    HW226007   2.530   4.554  17.337  0.5024 -0.7453  0.6135
 4791SOL     OW26008   1.217   0.957   3.959  0.2480  0.0030  0.7685
 4791SOL    HW126009   1.195   0.880   4.011  0.0339  0.4988  1.4115
 4791SOL    HW226010   1.262   0.998   4.033  1.4908 -0.9402  0.5303
 4792SOL     OW26011   1.973   1.471  11.699 -0.2772  0.1838 -0.3139
 4792SOL    HW126012   2.043   1.516  11.652 -1.7285  1.3092 -1.4207
 4792SOL    HW226013   1.983   1.380  11.671  0.8148  0.0590  0.4848
 4793SOL     OW26014   1.582   1.755   8.175 -0.4231 -0.2926 -0.3594
 4793SOL    HW126015   1.549   1.674   8.213  0.8724 -1.3599 -1.5027
 4793SOL    HW226016   1.589   1.810   8.253  0.0610  0.4438 -0.9184
 4794SOL     OW26017   0.047   1.677   5.812  0.9747 -0.1770  0.4876
 4794SOL    HW126018   0.076   1.762   5.779  1.8939 -0.9403 -0.6416
 4794SOL    HW226019   0.100   1.670   5.892  1.0512  0.6836  0.5136
 4795SOL     OW26020   0.107   0.418   1.983  0.0141 -0.1960 -0.3110
 4795SOL    HW126021   0.033   0.388   1.931 -0.3332  0.0057  0.0687
 4795SOL    HW226022   0.130   0.503   1.946  2.0348 -0.2984  0.7072
 4796SOL     OW26023   0.457   3.884   4.101  0.3203 -0.0252  0.1012
 4796SOL    HW126024   0.429   3.820   4.036  0.0244 -0.2914  0.4908
 4796SOL    HW226025   0.383   3.858   4.157 -0.5019 -3.8098 -2.7407
 4797SOL     OW26026   0.396   3.683   6.114  0.0068  0.5822 -0.4343
 4797SOL    HW126027   0.445   3.712   6.037 -0.3817 -0.0124 -0.9037
 4797SOL    HW226028   0.321   3.651   6.065  0.8527  0.8275 -1.8833
 4798SOL     OW26029   1.801   4.127   3.594 -0.3273 -0.5330  0.3831
 4798SOL    HW126030   1.758   4.082   3.521  0.2377  1.4474 -1.1662
 4798SOL    HW226031   1.771   4.215   3.573  1.6400 -0.3632 -1.7415
 4799SOL     OW26032   4.538   2.796   2.968  0.1768  0.1147  0.1348
 4799SOL    HW126033   4.537   2.721   3.027 -1.7566 -0.8085 -1.0748
 4799SOL    HW226034   4.622   2.832   2.997  1.0655  0.5030 -2.9129
 4800SOL     OW26035   1.082   0.045  11.482  0.1899 -0.3991 -0.5765
 4800SOL    HW126036   1.118   0.025  11.568 -3.6715 -0.1433  1.0950
 4800SOL    HW226037   0.993   0.069  11.509  0.4235 -0.6409  0.4077
 4801SOL     OW26038   1.763   2.044  14.594 -0.4079  0.3912  0.0739
 4801SOL    HW126039   1.804   1.958  14.608 -1.5871 -0.4039 -1.3724
 4801SOL    HW226040   1.729   2.028  14.506 -0.4168 -3.7001  0.8431
 4802SOL     OW26041   3.735   3.934  12.272 -0.3931 -0.3233 -0.8922
 4802SOL    HW126042   3.824   3.967  12.283  0.3178 -3.0382  1.3629
 4802SOL    HW226043   3.679   4.005  12.304 -0.4774 -0.1489 -1.4268
 4803SOL     OW26044   3.603   4.260   7.955 -0.2549 -0.1366 -0.0221
 4803SOL    HW126045   3.552   4.264   8.036  2.2441 -0.6675  1.5653
 4803SOL    HW226046   3.632   4.169   7.956 -0.1547 -0.0702  2.2978
 4804SOL     OW26047   0.473   2.588   7.154 -0.3255 -1.0359 -0.2047
 4804SOL    HW126048   0.444   2.606   7.064  2.6089  0.1409 -0.9178
 4804SOL    HW226049   0.541   2.654   7.154 -0.7245 -0.6246 -0.2058
 4805SOL     OW26050   4.150   3.744   2.110 -0.5361 -0.1201  0.0714
 4805SOL    HW126051   4.121   3.782   2.193  0.8276  0.6314  0.2065
 4805SOL    HW226052   4.129   3.651   2.120 -1.2417  0.2344  1.9677
 4806SOL     OW26053   3.846   0.051   4.132 -0.0715 -0.1020 -0.0994
 4806SOL    HW126054   3.854   4.725   4.064 -1.5784  0.7296 -1.0724
 4806SOL    HW226055   3.768   0.022   4.180 -1.9076  0.6465 -2.6464
 4807SOL     OW26056   0.374   0.425   7.696 -0.0209  0.4154 -0.2681
 4807SOL    HW126057   0.364   0.376   7.778  3.1210 -1.0730 -0.7793
 4807SOL    HW226058   0.297   0.398   7.646  0.2979 -1.5916  0.3047
 4808SOL     OW26059   3.722   1.193   6.381  0.2816 -0.2888  0.3094
 4808SOL    HW126060   3.756   1.166   6.466  2.7275  1.6163 -0.0841
 4808SOL    HW226061   3.751   1.283   6.394 -0.8826 -0.2041  2.2313
 4809SOL     OW26062   1.686   0.627   8.469 -0.0589  0.2675 -0.4927
 4809SOL    HW126063   1.632   0.571   8.413 -0.8488  2.0192 -1.4961
 4809SOL    HW226064   1.762   0.637   8.410  0.6208  0.9615  0.5070
 4810SOL     OW26065   4.034   3.994   4.003  0.2210  0.0745  0.6464
 4810SOL    HW126066   4.105   3.962   4.059 -0.4040 -0.1125  1.3214
 4810SOL    HW226067   4.047   3.939   3.926  1.0809  1.6391 -0.3195
 4811SOL     OW26068   1.704   4.550   8.870  0.2483  0.4320 -0.1543
 4811SOL    HW126069   1.720   4.466   8.828 -0.7814  0.1552  0.0073
 4811SOL    HW226070   1.767   4.604   8.822  1.9909 -0.6707  0.8945
 4812SOL     OW26071   4.195   4.632   2.986  0.1101 -0.7858  0.3942
 4812SOL    HW126072   4.188   4.660   2.895  2.1476  0.1515  0.5301
 4812SOL    HW226073   4.281   4.591   2.977  1.1438  1.5862 -0.5885
 4813SOL     OW26074   1.369   3.214   3.452 -0.0800  0.3615 -0.8664
 4813SOL    HW126075   1.353   3.141   3.512 -0.3788  0.1907 -1.1567
 4813SOL    HW226076   1.314   3.284   3.487  0.0531  0.0875 -0.1039
 4814SOL     OW26077   2.481   2.724   4.251  1.1144  0.3788  0.0288
 4814SOL    HW126078   2.525   2.772   4.181  1.9755 -1.2070 -0.5004
 4814SOL    HW226079   2.486   2.782   4.328 -1.7719 -0.7438  1.0941
 4815SOL     OW26080   2.751   2.274   5.733  0.9221  0.5147  0.2062
 4815SOL    HW126081   2.785   2.274   5.823  1.6124 -1.2940 -0.0644
 4815SOL    HW226082   2.772   2.360   5.697  2.7610  0.2009  0.5041
 4816SOL     OW26083   0.620   2.363   6.777  0.3643  0.5670  0.5759
 4816SOL    HW126084   0.636   2.317   6.859 -0.8058  0.5175  0.7885
 4816SOL    HW226085   0.586   2.292   6.722  0.3223  1.8816 -1.1122
 4817SOL     OW26086   4.431   1.966  13.165 -0.1880 -0.5909  0.4812
 4817SOL    HW126087   4.371   1.995  13.234 -2.2528 -2.3092 -0.5827
 4817SOL    HW226088   4.472   1.887  13.199  0.7963 -0.3885 -0.2358
 4818SOL     OW26089   1.551   4.322   7.758 -0.0063 -0.2319  0.0089
 4818SOL    HW126090   1.476   4.341   7.814  1.3869  0.8663  1.5025
 4818SOL    HW226091   1.540   4.389   7.691  0.2405  0.8396  1.0284
 4819SOL     OW26092   3.133   1.278   5.622 -0.5245 -0.4243 -0.2444
 4819SOL    HW126093   3.050   1.313   5.654 -0.3178 -0.2903  0.1399
 4819SOL    HW226094   3.129   1.303   5.530  0.7254 -1.0769 -0.4808
 4820SOL     OW26095   2.212   2.055  16.838 -0.4462 -0.3807  0.0405
 4820SOL    HW126096   2.157   1.984  16.871  0.6951 -1.7632 -1.0156
 4820SOL    HW226097   2.163   2.135  16.854 -0.0648  0.0754 -1.0776
 4821SOL     OW26098   4.452   4.483   2.825 -0.1198  0.6742  0.0903
 4821SOL    HW126099   4.423   4.566   2.786  0.9552  0.8651 -0.3061
 4821SOL    HW226100   4.434   4.424   2.752  1.7410 -1.3716  1.2605
 4822SOL     OW26101   2.121   1.328   7.778 -0.3902  0.1803 -0.1550
 4822SOL    HW126102   2.026   1.342   7.774 -0.2956  0.3515 -1.9083
 4822SOL    HW226103   2.126   1.327   7.874  1.6118  0.9008 -0.2651
 4823SOL     OW26104   0.608   4.723   4.621  0.5532  0.5164 -0.1384
 4823SOL    HW126105   0.658   0.065   4.622  0.7121  0.4278 -1.0719
 4823SOL    HW226106   0.608   4.714   4.526  1.1225 -0.4612 -0.0513
 4824SOL     OW26107   4.708   2.120   2.142 -0.3951 -0.0837  0.3335
 4824SOL    HW126108   0.063   2.131   2.136 -0.4470  0.5053  0.5809
 4824SOL    HW226109   4.699   2.030   2.112 -2.2731 -0.0511  0.8307
 4825SOL     OW26110   3.758   2.861   6.665  0.6392  0.0673 -0.0190
 4825SOL    HW126111   3.758   2.795   6.733  1.0955 -0.7662 -0.8264
 4825SOL    HW226112   3.673   2.843   6.625  0.4312 -0.0935  0.4969
 4826SOL     OW26113   0.378   1.327   8.830  0.2218  0.3079  1.2750
 4826SOL    HW126114   0.358   1.378   8.751 -0.8238  0.7593  1.8326
 4826SOL    HW226115   0.455   1.275   8.806  0.2414  1.2400 -0.6781
 4827SOL     OW26116   4.551   0.758   4.615 -0.2435  0.0576  0.1217
 4827SOL    HW126117   4.565   0.710   4.696 -2.9554 -0.9993 -0.0431
 4827SOL    HW226118   4.563   0.690   4.549 -0.1811 -0.0866  0.2826
 4828SOL     OW26119   3.596   3.719   1.617  0.5723  0.5707  0.0819
 4828SOL    HW126120   3.595   3.811   1.644  1.9532  0.4326  0.6014
 4828SOL    HW226121   3.502   3.708   1.603  0.7140 -0.4092 -0.1054
 4829SOL     OW26122   1.943   2.221   3.878  0.3716 -0.1514  0.0011
 4829SOL    HW126123   1.861   2.253   3.840  0.9140  0.0552 -0.9863
 4829SOL    HW226124   1.935   2.267   3.962  1.6972 -1.3119  0.7475
 4830SOL     OW26125   2.042   3.510   5.469  0.8070  0.2897  0.2666
 4830SOL    HW126126   2.056   3.540   5.559 -0.7828  0.2443  0.5280
 4830SOL    HW226127   2.103   3.436   5.468  0.9771  0.4229  0.7228
 4831SOL     OW26128   2.510   1.884   0.256 -0.0763  0.0003 -0.5562
 4831SOL    HW126129   2.561   1.857   0.332 -0.1409  3.4112  0.6988
 4831SOL    HW226130   2.451   1.949   0.295 -1.7783 -0.1794 -2.8007
 4832SOL     OW26131   2.617   0.310   9.148 -0.7044 -0.5388  0.0376
 4832SOL    HW126132   2.569   0.350   9.220  1.3415  0.0991  1.0452
 4832SOL    HW226133   2.684   0.376   9.127 -1.3057  0.1286  0.2098
 4833SOL     OW26134   2.916   2.720   5.543 -0.3942  0.4678 -0.1566
 4833SOL    HW126135   2.881   2.786   5.603 -2.8518 -1.3128  0.3381
 4833SOL    HW226136   3.009   2.742   5.551 -0.6013  1.0114  0.7347
 4834SOL     OW26137   1.253   2.363   8.278 -0.0146 -0.5449  0.0471
 4834SOL    HW126138   1.326   2.418   8.306 -0.7257 -0.2273  1.2786
 4834SOL    HW226139   1.178   2.419   8.259 -0.0332 -0.9024 -0.9464
 4835SOL     OW26140   3.593   3.486   2.883  0.1214 -0.7876  0.0473
 4835SOL    HW126141   3.581   3.491   2.978 -1.2911  0.8250 -0.2036
 4835SOL    HW226142   3.643   3.408   2.862  2.9018  1.4132 -1.4873
 4836SOL     OW26143   1.764   4.164   1.748 -0.3903 -0.1104 -0.1926
 4836SOL    HW126144   1.678   4.146   1.785 -0.1974  0.4735  0.5451
 4836SOL    HW226145   1.793   4.076   1.724 -0.8306 -0.3955  0.3210
 4837SOL     OW26146   2.538   4.579   9.066  0.7690  0.1554  0.6814
 4837SOL    HW126147   2.445   4.603   9.070  0.7850  0.2027  0.7847
 4837SOL    HW226148   2.568   4.653   9.119  0.5079  0.2629  0.6767
 4838SOL     OW26149   0.199   1.676   9.279  0.1538  0.0218 -0.1015
 4838SOL    HW126150   0.253   1.693   9.356 -0.4656 -2.2048  0.8186
 4838SOL    HW226151   0.161   1.757   9.245 -2.1137  0.1850  2.7792
 4839SOL     OW26152   3.456   4.042   2.860 -0.0682 -0.9228 -0.3111
 4839SOL    HW126153   3.449   3.988   2.781  1.1322 -1.1186 -0.2901
 4839SOL    HW226154   3.498   3.987   2.926  1.3877  0.0276 -0.4539
 4840SOL     OW26155   2.162   0.675   1.463 -0.5043  0.1625 -0.4415
 4840SOL    HW126156   2.166   0.581   1.479  2.6675  0.0027 -2.1015
 4840SOL    HW226157   2.092   0.673   1.398  0.1068 -1.2637 -1.0497
 4841SOL     OW26158   4.056   1.364   5.852 -0.1727  0.2388  0.6516
 4841SOL    HW126159   4.020   1.410   5.776 -1.5598 -2.6808 -0.4448
 4841SOL    HW226160   4.104   1.432   5.900 -0.8059  0.7492  0.5527
 4842SOL     OW26161   2.434   0.241  16.456  0.4662  0.7830  0.3577
 4842SOL    HW126162   2.422   0.258  16.550 -0.7784 -1.2553  0.5659
 4842SOL    HW226163   2.527   0.260  16.442  0.8353 -1.1485  0.0739
 4843SOL     OW26164   2.444   1.296   3.924  0.5185  0.1148 -0.5443
 4843SOL    HW126165   2.451   1.307   3.829 -3.3498  2.0291 -0.6138
 4843SOL    HW226166   2.364   1.347   3.934  0.1963 -0.6245  0.6675
 4844SOL     OW26167   0.155   1.257  16.787 -0.5609  0.1890 -0.0730
 4844SOL    HW126168   0.123   1.268  16.876  1.0203 -2.4484  0.8095
 4844SOL    HW226169   0.202   1.339  16.775 -1.1753  0.2994 -1.7969
 4845SOL     OW26170   3.922   0.667   2.811  0.2478  0.3124 -0.0029
 4845SOL    HW126171   3.969   0.684   2.893  1.2366  1.9970 -0.9290
 4845SOL    HW226172   3.939   0.750   2.766  2.7888 -1.7065 -2.7505
 4846SOL     OW26173   3.959   4.489   3.681 -0.0097  0.2871  0.1946
 4846SOL    HW126174   3.921   4.520   3.599 -0.0938  1.3025  0.6093
 4846SOL    HW226175   3.892   4.430   3.716  2.6107 -3.1143 -0.5153
 4847SOL     OW26176   3.092   1.012   6.286  0.0047  0.4316 -0.3637
 4847SOL    HW126177   3.115   1.094   6.241 -1.6652  0.3837 -1.3061
 4847SOL    HW226178   3.141   1.025   6.367 -1.7682 -0.2614  0.8145
 4848SOL     OW26179   4.292   1.604  15.449 -0.1297  0.4538  0.4115
 4848SOL    HW126180   4.317   1.541  15.517 -2.4922  0.2044  1.0644
 4848SOL    HW226181   4.376   1.647  15.435  1.9916 -3.5278  0.7875
 4849SOL     OW26182   2.449   1.629   3.436 -0.5437 -0.6713  0.2800
 4849SOL    HW126183   2.436   1.591   3.349  0.5634  1.1970 -0.7062
 4849SOL    HW226184   2.379   1.694   3.439 -0.1730 -0.1848 -1.4896
 4850SOL     OW26185   1.701   0.710  11.481 -0.1237 -0.1494 -0.4006
 4850SOL    HW126186   1.696   0.771  11.554 -0.6506  0.7466 -1.1771
 4850SOL    HW226187   1.789   0.676  11.498 -1.1097 -1.8476  1.2057
 4851SOL     OW26188   2.725   0.626   7.912 -0.3134  0.7976  0.5866
 4851SOL    HW126189   2.804   0.665   7.951  0.8274  0.5111 -1.4262
 4851SOL    HW226190   2.665   0.698   7.931 -1.2451  0.4866 -1.1292
 4852SOL     OW26191   3.764   1.889  15.191  0.4726  0.0032  0.4801
 4852SOL    HW126192   3.693   1.835  15.158 -0.1773 -0.4191  2.5383
 4852SOL    HW226193   3.841   1.836  15.171  0.4260 -0.0338  0.3985
 4853SOL     OW26194   0.093   4.518   4.660  0.1796  0.2515  0.0652
 4853SOL    HW126195   0.172   4.502   4.712  0.1499  1.8433  0.6022
 4853SOL    HW226196   0.103   4.464   4.582  0.8626  0.0225  0.3107
 4854SOL     OW26197   4.593   2.038   7.456  0.4906  0.0446  0.3262
 4854SOL    HW126198   4.654   2.110   7.474  2.3668 -1.0196 -1.8245
 4854SOL    HW226199   4.574   2.050   7.363 -0.8023  1.3579  0.7471
 4855SOL     OW26200   2.841   2.481   1.268 -0.0567  0.0930 -0.1533
 4855SOL    HW126201   2.878   2.393   1.280 -0.4035 -0.3622 -2.5242
 4855SOL    HW226202   2.851   2.521   1.355 -0.1555 -2.3503  0.9822
 4856SOL     OW26203   0.901   4.345   4.750  0.2779 -0.3880 -0.2620
 4856SOL    HW126204   0.918   4.272   4.691  1.4164 -0.1002 -0.2887
 4856SOL    HW226205   0.932   4.418   4.696  1.3319 -0.6410 -0.0044
 4857SOL     OW26206   1.078   3.979  13.064 -0.4496  0.6472  0.2602
 4857SOL    HW126207   1.022   4.021  13.129  0.1000  0.0714  1.1155
 4857SOL    HW226208   1.040   4.010  12.982 -0.6681 -0.6416 -0.1251
 4858SOL     OW26209   3.441   2.669   2.496 -0.3611 -0.2066 -0.1724
 4858SOL    HW126210   3.369   2.634   2.443 -0.4488 -1.0302  0.4896
 4858SOL    HW226211   3.396   2.687   2.578 -0.9610  1.6533 -0.9281
 4859SOL     OW26212   0.570   2.657   4.151  0.3218 -0.5494  0.5937
 4859SOL    HW126213   0.661   2.661   4.121  0.0374  0.5714 -0.1229
 4859SOL    HW226214   0.530   2.686   4.069  2.1225 -0.4651 -0.2633
 4860SOL     OW26215   4.659   0.292   1.828  0.3143 -1.2148 -0.0758
 4860SOL    HW126216   4.658   0.313   1.734 -0.0438 -1.1754 -0.0627
 4860SOL    HW226217   4.700   0.205   1.825  1.8897 -0.5015  0.8336
 4861SOL     OW26218   1.972   0.446   7.958 -0.0873 -0.4256 -0.3508
 4861SOL    HW126219   1.918   0.369   7.942 -1.7136  0.9063 -1.2498
 4861SOL    HW226220   2.055   0.430   7.913  0.2028  0.1147 -0.0080
 4862SOL     OW26221   0.253   2.544   7.633 -1.0382 -0.2947 -0.1192
 4862SOL    HW126222   0.251   2.505   7.546  3.2270  0.1987 -0.4502
 4862SOL    HW226223   0.174   2.508   7.673 -0.2979 -1.3489  0.3984
 4863SOL     OW26224   1.028   2.166   9.459  0.1541  0.6106 -0.3006
 4863SOL    HW126225   1.102   2.141   9.405  0.1598  1.9999 -0.9378
 4863SOL    HW226226   1.024   2.097   9.525  1.1184 -0.4411 -1.3671
 4864SOL     OW26227   4.057   4.041   5.465 -0.8120  0.0295 -0.0663
 4864SOL    HW126228   4.015   4.121   5.497 -2.9105 -0.1190 -2.4706
 4864SOL    HW226229   4.104   4.077   5.390  0.6624  0.1667  0.9086
 4865SOL     OW26230   1.841   4.459   4.710  0.3737 -0.5662 -0.2632
 4865SOL    HW126231   1.822   4.450   4.803 -2.9047  1.5033 -0.7231
 4865SOL    HW226232   1.862   4.551   4.695  1.4709 -0.8980 -0.7550
 4866SOL     OW26233   4.499   2.970   7.337 -1.1506 -0.3269  0.3130
 4866SOL    HW126234   4.544   2.920   7.405  0.1048  1.4213  0.7702
 4866SOL    HW226235   4.548   3.052   7.344 -1.9522  0.0209  1.9567
 4867SOL     OW26236   0.463   4.012  14.709  0.2474  0.4172 -0.0524
 4867SOL    HW126237   0.436   3.945  14.772 -0.6324  1.0926  0.2837
 4867SOL    HW226238   0.528   3.966  14.655  0.4584 -0.6192  1.0777
 4868SOL     OW26239   2.300   3.173   1.850  0.1797  0.1169 -0.0330
 4868SOL    HW126240   2.375   3.223   1.883  0.0087  0.9478 -0.8911
 4868SOL    HW226241   2.309   3.191   1.756 -3.8486  2.4272  0.0150
 4869SOL     OW26242   1.379   0.089  17.495  0.2266  0.0629  0.3132
 4869SOL    HW126243   1.381   0.078  17.590  0.4629 -0.9785  0.1812
 4869SOL    HW226244   1.432   0.169  17.492  1.6126 -0.8594  0.3387
 4870SOL     OW26245   2.675   2.312   4.813 -0.4570 -0.0367 -0.3114
 4870SOL    HW126246   2.673   2.360   4.895  2.3874 -2.3249  1.0930
 4870SOL    HW226247   2.591   2.265   4.818 -1.6716  2.0844 -0.4071
 4871SOL     OW26248   1.438   0.798   3.342  0.1337 -0.0809 -0.0178
 4871SOL    HW126249   1.433   0.889   3.313  1.1769  0.1102  0.3990
 4871SOL    HW226250   1.464   0.817   3.432  0.0152  0.0376 -0.0080
 4872SOL     OW26251   4.015   2.370  11.029 -0.2918 -0.1530 -0.1102
 4872SOL    HW126252   3.953   2.330  11.090  1.4511 -2.3894  0.1943
 4872SOL    HW226253   4.088   2.396  11.085  0.2266 -1.5651 -0.1286
 4873SOL     OW26254   0.548   0.031   8.380  0.4201  0.3303  0.3405
 4873SOL    HW126255   0.497   4.700   8.343 -2.6361  1.3994  2.5285
 4873SOL    HW226256   0.517   0.042   8.470 -0.3355 -0.7171  0.2059
 4874SOL     OW26257   4.715   3.518  11.878 -0.8665  0.3799 -0.0664
 4874SOL    HW126258   4.623   3.519  11.853 -1.0124 -0.1073  0.4589
 4874SOL    HW226259   4.720   3.580  11.952 -1.7264 -2.2538  2.1987
 4875SOL     OW26260   1.794   3.604   2.844 -0.2991 -0.4383  0.5321
 4875SOL    HW126261   1.888   3.619   2.852 -0.1193 -1.2006 -0.2480
 4875SOL    HW226262   1.784   3.667   2.772 -0.6062 -0.2909  0.7039
 4876SOL     OW26263   0.571   2.148   8.582 -0.3518 -0.7203  0.4097
 4876SOL    HW126264   0.641   2.087   8.559  0.4895 -0.3526  2.0344
 4876SOL    HW226265   0.585   2.226   8.528 -0.7340 -1.0492 -0.1721
 4877SOL     OW26266   2.538   0.530   1.389 -0.1042  0.3040 -0.2413
 4877SOL    HW126267   2.576   0.455   1.344  0.3165  1.1853 -1.3456
 4877SOL    HW226268   2.605   0.592   1.362  0.6025 -0.3669 -0.0407
 4878SOL     OW26269   1.892   0.175   8.287 -0.0687 -0.2308  0.1700
 4878SOL    HW126270   1.872   0.149   8.377  1.0987 -1.9149 -0.0629
 4878SOL    HW226271   1.851   0.094   8.257 -0.5602  0.0794 -0.0080
 4879SOL     OW26272   1.212   1.381   5.586  0.1110  0.0844 -0.1804
 4879SOL    HW126273   1.227   1.287   5.575 -0.5894  0.2372 -2.4906
 4879SOL    HW226274   1.119   1.378   5.608  1.2415  0.3254  4.5885
 4880SOL     OW26275   4.264   4.670   2.689 -0.0351  0.1802  0.6017
 4880SOL    HW126276   4.317   4.728   2.744 -1.2819 -0.0629  2.0671
 4880SOL    HW226277   4.265   4.724   2.610  0.8983  0.5084  0.8342
 4881SOL     OW26278   4.465   0.804   2.812 -0.2453  0.5648 -0.6790
 4881SOL    HW126279   4.399   0.735   2.820 -0.2697  0.5010 -1.4311
 4881SOL    HW226280   4.464   0.841   2.900 -0.9807 -0.7996 -0.1076
 4882SOL     OW26281   2.381   3.857   7.398  0.5202 -0.4604  0.0760
 4882SOL    HW126282   2.392   3.924   7.330  1.6545  0.1395  0.8442
 4882SOL    HW226283   2.327   3.787   7.363  0.3501  0.3284 -1.2172
 4883SOL     OW26284   1.471   1.195   2.820  0.6567 -0.0304 -0.4362
 4883SOL    HW126285   1.463   1.255   2.894  1.0939 -0.3265 -0.1551
 4883SOL    HW226286   1.450   1.254   2.747 -0.9149  0.6804  0.5836
 4884SOL     OW26287   1.641   0.579  11.235 -0.6216  0.1344 -0.2904
 4884SOL    HW126288   1.647   0.570  11.330  1.4754 -0.1427 -0.4598
 4884SOL    HW226289   1.733   0.594  11.214 -0.3667  0.6652  1.1571
 4885SOL     OW26290   1.318   3.557   3.650 -0.3582 -0.7354 -0.0339
 4885SOL    HW126291   1.285   3.480   3.696 -3.9376  0.5829 -0.3467
 4885SOL    HW226292   1.268   3.624   3.697  0.8491  0.1131  0.0484
 4886SOL     OW26293   2.851   1.891   4.923  0.2321 -0.1025  0.2280
 4886SOL    HW126294   2.908   1.818   4.948 -2.0830 -1.4932  1.4952
 4886SOL    HW226295   2.896   1.964   4.965  0.6067  0.9601 -2.0520
 4887SOL     OW26296   4.509   1.090   6.800 -0.1672  0.4856  0.1503
 4887SOL    HW126297   4.463   1.171   6.821  0.8557  1.8517 -2.9142
 4887SOL    HW226298   4.534   1.108   6.709 -0.7467  0.1132 -0.0838
 4888SOL     OW26299   0.164   0.033   9.292  0.1525 -0.2927 -0.1303
 4888SOL    HW126300   0.188   0.126   9.284 -1.2803  0.2287  1.8446
 4888SOL    HW226301   0.180   0.019   9.385  0.6232  1.3671  0.0469
 4889SOL     OW26302   3.892   0.879   9.180 -0.2840  0.4966  0.5338
 4889SOL    HW126303   3.813   0.911   9.137 -0.7934 -0.1319  0.9923
 4889SOL    HW226304   3.858   0.798   9.220 -1.9760 -0.0274 -1.9141
 4890SOL     OW26305   0.095   1.564   3.090 -0.4026  0.3770  0.5825
 4890SOL    HW126306   0.147   1.509   3.149  0.9384  1.4582  0.4108
 4890SOL    HW226307   0.117   1.520   3.008 -1.0724  1.5331 -0.2285
 4891SOL     OW26308   3.712   0.636   7.904  1.1193  0.0124 -0.2131
 4891SOL    HW126309   3.689   0.664   7.992  1.2216  1.3462 -0.5994
 4891SOL    HW226310   3.723   0.541   7.909  1.2118  0.0961  1.0069
 4892SOL     OW26311   0.897   2.863   9.981  0.1695 -0.2043 -0.2579
 4892SOL    HW126312   0.817   2.853   9.929  0.9780 -4.4484 -0.6068
 4892SOL    HW226313   0.873   2.942  10.030  2.2214  0.0183  0.3626
 4893SOL     OW26314   3.150   1.204  12.254 -0.2282  0.2054 -0.0181
 4893SOL    HW126315   3.227   1.234  12.301  0.6048 -1.5661 -0.2425
 4893SOL    HW226316   3.099   1.159  12.321 -2.1625  2.6784  0.1505
 4894SOL     OW26317   2.729   4.157  17.429  0.7302 -0.0026  0.3313
 4894SOL    HW126318   2.748   4.078  17.480  1.0073  1.0634  1.8405
 4894SOL    HW226319   2.766   4.219  17.491  1.2539 -0.2881  0.3061
 4895SOL     OW26320   2.446   2.270   2.883 -0.1207 -0.1560  0.1927
 4895SOL    HW126321   2.515   2.265   2.816 -0.4262  0.7905 -0.1917
 4895SOL    HW226322   2.488   2.278   2.969  0.0624 -0.4468  0.1325
 4896SOL     OW26323   3.628   1.925   4.107 -0.5483 -0.3871  0.3132
 4896SOL    HW126324   3.668   1.890   4.027  0.7646  0.2446  0.6885
 4896SOL    HW226325   3.539   1.938   4.075 -0.5322 -1.2349 -0.1018
 4897SOL     OW26326   4.009   2.595   5.590 -0.0676  0.3211  0.0301
 4897SOL    HW126327   3.929   2.545   5.603  0.2259 -0.3628 -0.7832
 4897SOL    HW226328   3.973   2.679   5.617  0.9361  0.8599 -0.2791
 4898SOL     OW26329   1.204   1.334   5.871 -0.2429  0.7561 -0.4145
 4898SOL    HW126330   1.286   1.362   5.912  1.0145  0.3014 -2.5942
 4898SOL    HW226331   1.239   1.261   5.820  0.4437  0.4166  0.5421
 4899SOL     OW26332   4.033   4.373   8.887  0.2223  0.4453  0.3862
 4899SOL    HW126333   3.943   4.402   8.873  0.1422  1.3215  2.6720
 4899SOL    HW226334   4.045   4.298   8.829  1.7716  0.8595  0.1532
 4900SOL     OW26335   3.853   0.345   8.523  0.3869 -0.8951  0.0933
 4900SOL    HW126336   3.774   0.330   8.574 -0.4823 -0.4485 -1.1069
 4900SOL    HW226337   3.877   0.430   8.558  0.2903 -1.2470  1.0045
 4901SOL     OW26338   1.215   2.956  12.712 -0.6605  0.2402  0.0536
 4901SOL    HW126339   1.298   2.925  12.676 -1.4026 -0.6219 -0.8969
 4901SOL    HW226340   1.167   2.933  12.633 -0.7836 -0.4364  0.3285
 4902SOL     OW26341   1.525   3.777   3.624  0.3401  0.6345 -0.0507
 4902SOL    HW126342   1.534   3.791   3.530 -0.5385 -4.0204 -0.8640
 4902SOL    HW226343   1.468   3.700   3.617  2.2799 -0.8710  0.6294
 4903SOL     OW26344   1.802   3.121   5.780  0.0277  0.0736 -0.4493
 4903SOL    HW126345   1.783   3.029   5.759 -1.5839  0.2780  0.1206
 4903SOL    HW226346   1.720   3.158   5.812  0.1531  1.0534 -1.2543
 4904SOL     OW26347   0.846   1.030   7.327 -0.2741 -0.3177 -0.5395
 4904SOL    HW126348   0.778   1.055   7.390 -0.4241 -0.2474 -0.7289
 4904SOL    HW226349   0.922   1.069   7.371 -1.7232  0.3056  1.4163
 4905SOL     OW26350   1.553   4.426   5.767  0.0761 -0.0586 -0.1472
 4905SOL    HW126351   1.499   4.488   5.718  0.0225 -0.3358 -0.4363
 4905SOL    HW226352   1.619   4.489   5.794  0.1496  0.0369 -0.5513
 4906SOL     OW26353   2.930   1.984   7.643 -0.4037 -0.3679  0.8648
 4906SOL    HW126354   2.855   1.941   7.685 -1.3939 -0.9925 -1.5669
 4906SOL    HW226355   2.923   2.074   7.673 -0.6318 -0.5915  1.4884
 4907SOL     OW26356   1.360   1.345   8.837 -0.4431 -0.4196 -0.0248
 4907SOL    HW126357   1.384   1.388   8.755 -0.2421  0.3645  0.4428
 4907SOL    HW226358   1.417   1.271   8.859  1.5596  1.1844  0.2337
 4908SOL     OW26359   3.570   1.188   2.878  0.1806  0.3586 -0.1603
 4908SOL    HW126360   3.636   1.160   2.941  1.0775  0.5611 -0.9985
 4908SOL    HW226361   3.578   1.116   2.816  0.4930 -0.2061  0.5380
 4909SOL     OW26362   0.253   1.051   3.793  0.0842  0.0347 -0.0535
 4909SOL    HW126363   0.250   0.960   3.766 -0.8110  0.5485 -1.6851
 4909SOL    HW226364   0.328   1.051   3.852  0.1969  0.2728 -0.1974
 4910SOL     OW26365   2.629   4.470   8.248  0.4588 -0.3633  0.3655
 4910SOL    HW126366   2.641   4.476   8.343 -1.6465  1.1615  0.5420
 4910SOL    HW226367   2.579   4.549   8.227  0.3133 -0.2426  1.1445
 4911SOL     OW26368   4.478   1.349   1.339 -0.5893 -0.4425  0.1054
 4911SOL    HW126369   4.471   1.269   1.392 -0.9836  0.3091  1.1924
 4911SOL    HW226370   4.529   1.396   1.405 -1.0000  3.1906 -2.1990
 4912SOL     OW26371   1.911   4.729   4.722 -0.3608 -0.2805 -0.5626
 4912SOL    HW126372   1.950   0.076   4.727  0.5994 -0.7377  0.0628
 4912SOL    HW226373   1.874   4.729   4.634  0.1885 -0.3418 -0.7957
 4913SOL     OW26374   2.250   2.595   8.429  0.1347  0.0339  0.1727
 4913SOL    HW126375   2.246   2.502   8.407 -0.0395  0.3287 -1.0650
 4913SOL    HW226376   2.237   2.638   8.345  0.3114 -0.7961 -0.2819
 4914SOL     OW26377   1.710   2.246   2.247 -0.5810  0.0694 -0.6970
 4914SOL    HW126378   1.699   2.268   2.154  1.8899 -0.0969 -1.0350
 4914SOL    HW226379   1.721   2.153   2.228  2.0597  0.1192  0.5540
 4915SOL     OW26380   2.138   1.302   4.710 -0.9579 -0.2380 -0.1429
 4915SOL    HW126381   2.162   1.395   4.716  0.7250 -0.7990  1.6178
 4915SOL    HW226382   2.187   1.252   4.774 -0.3214  2.3388  1.3956
 4916SOL     OW26383   3.213   2.630   2.340 -0.3179 -0.4317 -0.2546
 4916SOL    HW126384   3.206   2.543   2.379 -0.6709  0.4754  1.7027
 4916SOL    HW226385   3.122   2.655   2.355 -0.2727 -1.1518  1.2385
 4917SOL     OW26386   1.741   0.038   3.309 -0.1256 -0.0134  0.0484
 4917SOL    HW126387   1.719   0.121   3.266 -0.4857 -0.3765 -0.4752
 4917SOL    HW226388   1.754   4.731   3.226 -1.3443  2.9556 -1.8139
 4918SOL     OW26389   1.238   2.954   2.967 -0.6223  0.3605 -0.2540
 4918SOL    HW126390   1.258   3.044   2.941 -1.2439  0.1734 -1.3550
 4918SOL    HW226391   1.323   2.920   2.939 -0.4204  0.5658  0.1076
 4919SOL     OW26392   2.870   0.262   7.548 -0.4351  0.3116 -0.2154
 4919SOL    HW126393   2.788   0.300   7.516 -0.6896 -0.0808 -0.0255
 4919SOL    HW226394   2.879   0.301   7.635  2.1227  0.6059 -0.6138
 4920SOL     OW26395   2.699   3.259   2.223  0.1202  0.2840 -0.3446
 4920SOL    HW126396   2.792   3.244   2.202  0.1374  2.7129 -2.0405
 4920SOL    HW226397   2.687   3.336   2.279 -0.3708 -0.7192  0.9173
 4921SOL     OW26398   2.366   2.047   4.463 -0.2496 -0.3722  0.1447
 4921SOL    HW126399   2.436   2.087   4.411  1.8239 -0.7993  2.6019
 4921SOL    HW226400   2.399   2.040   4.552  2.3651  0.6674 -0.7216
 4922SOL     OW26401   0.200   1.284  11.906 -0.3006  0.0150  0.4936
 4922SOL    HW126402   0.264   1.272  11.835 -1.2163 -0.6717 -0.2104
 4922SOL    HW226403   0.129   1.330  11.862  0.6120  2.1582  1.2586
 4923SOL     OW26404   2.118   1.208   3.811  0.1901  0.4539  0.4125
 4923SOL    HW126405   2.154   1.253   3.735 -0.0901  1.9041  1.1524
 4923SOL    HW226406   2.029   1.243   3.814  0.3049  0.6218  1.8357
 4924SOL     OW26407   0.271   4.500   0.048  0.4403 -0.2175 -0.7626
 4924SOL    HW126408   0.292   4.578  17.753  2.6892 -1.0623 -1.1402
 4924SOL    HW226409   0.351   4.450   0.032  1.0202  0.5803 -0.3494
 4925SOL     OW26410   3.049   4.597  12.781  0.0663 -0.1753 -0.3458
 4925SOL    HW126411   2.968   4.546  12.785 -0.5104  0.8321  0.8091
 4925SOL    HW226412   3.038   4.637  12.867 -0.2668 -1.1607  0.0803
 4926SOL     OW26413   4.212   0.069   3.206  0.1330  0.1053 -0.6826
 4926SOL    HW126414   4.202   4.732   3.150 -0.6042  0.6623 -1.3316
 4926SOL    HW226415   4.296   0.100   3.172  0.1153  0.0826 -0.7481
 4927SOL     OW26416   4.609   0.505   5.949  0.2677  0.0672  0.4063
 4927SOL    HW126417   4.678   0.493   6.015  0.6042  1.6320  0.3493
 4927SOL    HW226418   4.643   0.478   5.864 -0.4479 -2.4011  0.8952
 4928SOL     OW26419   2.027   4.634   8.517 -0.7371 -0.4188  0.4210
 4928SOL    HW126420   1.999   4.623   8.426  0.5091 -2.3662  0.2911
 4928SOL    HW226421   2.077   4.713   8.497  3.2684 -2.9130  0.6368
 4929SOL     OW26422   4.466   0.915  12.845  0.7044 -0.1747 -0.2927
 4929SOL    HW126423   4.558   0.943  12.837  0.6448 -0.4879 -2.0788
 4929SOL    HW226424   4.424   0.938  12.762  0.4945  1.4130  0.2455
 4930SOL     OW26425   3.431   2.407  15.459  0.4877  0.2229 -0.3064
 4930SOL    HW126426   3.349   2.412  15.508  0.2385  0.4799 -0.7437
 4930SOL    HW226427   3.490   2.464  15.508  4.0738 -2.3026 -1.6797
 4931SOL     OW26428   2.864   2.151   4.524  0.3079 -0.6136 -0.3103
 4931SOL    HW126429   2.938   2.109   4.481 -0.2553 -0.1363 -1.7312
 4931SOL    HW226430   2.915   2.203   4.587  0.5654 -1.2484  0.0073
 4932SOL     OW26431   3.696   1.677   7.761 -0.6119 -0.2573 -0.0397
 4932SOL    HW126432   3.682   1.760   7.806 -1.0286 -0.5533  0.3790
 4932SOL    HW226433   3.778   1.690   7.714  0.1047 -0.3551  1.1812
 4933SOL     OW26434   4.305   3.034   9.160 -0.5440 -0.6492  0.0992
 4933SOL    HW126435   4.311   3.039   9.064  1.3885 -2.1459  0.1371
 4933SOL    HW226436   4.224   3.082   9.172 -0.1672  0.0141  0.0000
 4934SOL     OW26437   0.895   0.309  14.686  0.3873 -0.3687 -0.2184
 4934SOL    HW126438   0.960   0.239  14.687 -0.0490 -0.7853 -0.8068
 4934SOL    HW226439   0.834   0.272  14.750  0.8866  0.5196  0.7650
 4935SOL     OW26440   2.658   1.092  11.041 -0.1450 -0.0891 -0.3066
 4935SOL    HW126441   2.704   1.115  10.960 -1.0450  2.4509 -0.0938
 4935SOL    HW226442   2.670   1.158  11.108  1.3859 -1.6378  0.9329
 4936SOL     OW26443   1.206   1.927  15.077  0.5341  0.2164  0.4431
 4936SOL    HW126444   1.177   1.898  14.990  0.5370 -0.1335  0.5561
 4936SOL    HW226445   1.302   1.923  15.071  0.5194 -2.3117  1.5622
 4937SOL     OW26446   4.514   4.037   3.709 -0.3192 -0.0604 -0.7243
 4937SOL    HW126447   4.551   4.050   3.796 -0.4433 -1.0229 -0.5265
 4937SOL    HW226448   4.509   3.941   3.717 -1.2755 -0.1353 -2.3133
 4938SOL     OW26449   3.668   1.003  15.122 -0.2078  0.0923 -0.5727
 4938SOL    HW126450   3.704   1.058  15.052  1.8395 -1.2549 -0.5768
 4938SOL    HW226451   3.589   0.983  15.071 -0.2956  0.8101 -0.7131
 4939SOL     OW26452   1.343   2.839   7.373 -0.5449 -0.0588 -0.3535
 4939SOL    HW126453   1.279   2.877   7.432 -0.1872 -2.5904  1.6305
 4939SOL    HW226454   1.423   2.889   7.392 -0.1348 -2.0720  3.0477
 4940SOL     OW26455   3.568   3.287   7.066  0.1623  0.8021 -0.5296
 4940SOL    HW126456   3.510   3.345   7.016  0.4245 -0.2900 -2.1060
 4940SOL    HW226457   3.629   3.263   6.996  0.6987 -0.1997  0.2887
 4941SOL     OW26458   1.028   3.615   9.904 -0.1799  0.0088  0.1648
 4941SOL    HW126459   1.081   3.536   9.901  0.0400  0.1590  0.0974
 4941SOL    HW226460   1.079   3.662   9.971  1.9870 -0.4087 -1.1831
 4942SOL     OW26461   1.949   0.669   7.074  0.0480  0.1251 -0.0332
 4942SOL    HW126462   1.922   0.587   7.032 -0.9735  1.3770 -1.8238
 4942SOL    HW226463   1.980   0.719   6.999 -0.9549  0.8751  0.0668
 4943SOL     OW26464   0.365   3.812   2.874  0.2937 -0.1124 -0.0353
 4943SOL    HW126465   0.359   3.907   2.872 -4.0650 -0.3940 -1.5560
 4943SOL    HW226466   0.361   3.795   2.780  2.4848  3.1996 -0.7041
 4944SOL     OW26467   3.879   4.606   3.918 -0.0897 -0.1839 -0.8358
 4944SOL    HW126468   3.946   4.537   3.924 -2.2566 -2.1109  1.0339
 4944SOL    HW226469   3.820   4.587   3.844  1.1822 -2.3775 -1.2969
 4945SOL     OW26470   2.809   4.453  12.824  0.0870 -0.0479 -0.0339
 4945SOL    HW126471   2.857   4.379  12.862 -3.5447 -2.5671 -0.3012
 4945SOL    HW226472   2.769   4.493  12.901 -1.1147  1.2056 -1.3146
 4946SOL     OW26473   4.477   3.563   4.459  0.3978  0.0255 -0.5702
 4946SOL    HW126474   4.564   3.599   4.439 -0.1037  2.4391  1.5025
 4946SOL    HW226475   4.501   3.472   4.443 -0.5867 -0.2013 -0.7550
 4947SOL     OW26476   4.079   2.002   1.350 -0.2994 -0.6063  0.6911
 4947SOL    HW126477   4.141   1.934   1.375  0.8810 -0.2362 -1.2782
 4947SOL    HW226478   3.998   1.959   1.380 -1.3715 -0.0160 -1.3259
 4948SOL     OW26479   1.235   3.622   9.497 -0.5218 -0.4987 -0.2818
 4948SOL    HW126480   1.249   3.682   9.570  0.2919  1.9242 -2.4111
 4948SOL    HW226481   1.322   3.595   9.468 -0.9408 -0.2791 -1.7442
 4949SOL     OW26482   4.194   0.235   5.605  0.1516 -0.0946  0.7135
 4949SOL    HW126483   4.156   0.292   5.671 -3.4797 -2.4120  0.6600
 4949SOL    HW226484   4.141   0.156   5.620 -0.6899  0.4583  0.6841
 4950SOL     OW26485   1.728   1.002  10.540  0.1250 -0.3123 -0.0522
 4950SOL    HW126486   1.667   0.933  10.515 -3.0376  2.5892 -0.2965
 4950SOL    HW226487   1.691   1.085  10.511  0.9712 -1.0905 -3.3091
 4951SOL     OW26488   3.769   0.965   3.212 -0.6830 -0.7426  0.0544
 4951SOL    HW126489   3.849   0.914   3.196 -0.1101 -0.1293  0.9202
 4951SOL    HW226490   3.804   1.054   3.203 -0.0034 -0.7740  2.4199
 4952SOL     OW26491   2.860   1.363   8.553 -0.3829  0.3911 -0.3270
 4952SOL    HW126492   2.937   1.389   8.503  0.1284  0.9869  0.7691
 4952SOL    HW226493   2.821   1.320   8.477 -3.1765 -0.3445  1.5372
 4953SOL     OW26494   4.707   0.961  10.525 -0.0858  0.3018  0.4475
 4953SOL    HW126495   4.719   1.050  10.491  2.2938  0.5995  2.1069
 4953SOL    HW226496   4.634   0.935  10.468 -0.4014  1.3013  0.3927
 4954SOL     OW26497   4.727   3.039   2.350  0.2356  0.1381 -0.1421
 4954SOL    HW126498   4.655   2.990   2.309 -1.0908  1.9311  0.0049
 4954SOL    HW226499   0.055   2.973   2.351 -0.7443 -0.8826 -1.0569
 4955SOL     OW26500   2.913   0.916   1.867 -0.4028 -0.7349  0.4249
 4955SOL    HW126501   2.987   0.971   1.894 -0.9272  0.6041 -0.9107
 4955SOL    HW226502   2.870   0.967   1.799 -0.9356 -0.6747  0.8069
 4956SOL     OW26503   2.951   0.643   5.562 -0.0791 -0.0434  0.0129
 4956SOL    HW126504   2.989   0.707   5.501 -0.9574 -0.2201 -0.7082
 4956SOL    HW226505   3.014   0.572   5.568  0.1524  0.0585 -1.1260
 4957SOL     OW26506   4.397   2.548   9.034 -0.5729  0.0336  0.2448
 4957SOL    HW126507   4.370   2.599   8.957 -2.4469 -2.8430 -0.9975
 4957SOL    HW226508   4.490   2.551   9.010 -1.2549  0.9447 -2.3801
 4958SOL     OW26509   1.873   1.378  11.921  0.0993  0.2471 -0.2170
 4958SOL    HW126510   1.898   1.428  11.843  2.7972 -0.6896  0.0355
 4958SOL    HW226511   1.813   1.438  11.965  1.2423  0.1632  1.4647
 4959SOL     OW26512   3.319   3.359  14.291 -0.5020 -0.6368 -0.1470
 4959SOL    HW126513   3.249   3.302  14.323  0.1814  0.2063  2.7877
 4959SOL    HW226514   3.280   3.385  14.207 -0.7741  1.3289  0.5803
 4960SOL     OW26515   0.629   3.481   4.256  0.0880 -0.3191  0.7996
 4960SOL    HW126516   0.722   3.458   4.243  0.0177 -0.4930  0.5934
 4960SOL    HW226517   0.633   3.576   4.247 -0.7237 -0.4421 -0.8662
 4961SOL     OW26518   1.992   0.294   4.656  0.2499  0.2750  0.1928
 4961SOL    HW126519   1.988   0.263   4.747 -2.4100 -1.3219 -0.4648
 4961SOL    HW226520   2.067   0.353   4.663  1.0151 -0.6850  0.1956
 4962SOL     OW26521   2.446   1.082   4.245 -0.2665  0.1864  0.1325
 4962SOL    HW126522   2.488   1.045   4.167 -0.4333 -1.2167  0.6950
 4962SOL    HW226523   2.413   1.165   4.213  0.3540  0.9126  1.3484
 4963SOL     OW26524   1.343   4.048   9.391 -0.2882  0.8043  0.1022
 4963SOL    HW126525   1.382   3.963   9.369  1.2224  0.6672  3.2390
 4963SOL    HW226526   1.403   4.102   9.340 -0.3965  0.7204 -0.1128
 4964SOL     OW26527   2.046   0.144   2.885 -0.1508 -0.2488 -0.4031
 4964SOL    HW126528   2.061   0.080   2.815  2.2728 -0.2197  0.1013
 4964SOL    HW226529   2.042   0.222   2.830 -1.5927  0.1817  0.3251
 4965SOL     OW26530   1.505   0.710  12.470 -0.1709 -0.3873  0.7563
 4965SOL    HW126531   1.559   0.670  12.401 -0.0547 -0.2430  0.7649
 4965SOL    HW226532   1.569   0.724  12.539 -0.9458  1.1051  1.1678
 4966SOL     OW26533   2.316   3.466  10.749 -0.3103  0.0806  0.1551
 4966SOL    HW126534   2.327   3.527  10.821 -0.4810 -0.9720  1.0633
 4966SOL    HW226535   2.356   3.390  10.792  1.3626 -0.7005 -2.7548
 4967SOL     OW26536   2.983   1.769  11.853 -0.3095 -0.5201 -0.3516
 4967SOL    HW126537   3.040   1.745  11.926  0.6906  0.2327 -0.8707
 4967SOL    HW226538   2.896   1.767  11.892 -0.1583 -2.7086 -0.1426
 4968SOL     OW26539   2.923   2.839   3.736 -0.0716 -0.2163  0.4176
 4968SOL    HW126540   2.919   2.925   3.779  2.2322 -0.0001  0.2131
 4968SOL    HW226541   3.014   2.839   3.705 -0.4099 -0.8166 -0.5802
 4969SOL     OW26542   1.868   4.446   0.568 -0.0330  0.3479  1.0574
 4969SOL    HW126543   1.875   4.373   0.507 -1.0177  1.3160 -0.2001
 4969SOL    HW226544   1.894   4.520   0.513  0.7563 -0.9114 -0.2627
 4970SOL     OW26545   1.737   2.591   4.588  0.6445  0.0811 -0.2012
 4970SOL    HW126546   1.726   2.632   4.503  0.4272 -1.7978 -1.0778
 4970SOL    HW226547   1.649   2.571   4.621  0.4068 -0.3441 -1.0992
 4971SOL     OW26548   2.306   0.848   8.440  0.0223 -0.5400  0.5667
 4971SOL    HW126549   2.387   0.890   8.469  0.6858 -0.7761 -0.8939
 4971SOL    HW226550   2.340   0.776   8.386 -0.3295  0.2229 -0.6892
 4972SOL     OW26551   0.303   3.644   6.827  0.1718 -0.2504  0.0318
 4972SOL    HW126552   0.395   3.623   6.842  0.7650  0.8182 -2.0032
 4972SOL    HW226553   0.275   3.566   6.780 -0.4984  0.2691 -0.4278
 4973SOL     OW26554   0.671   0.440   1.740 -0.0708  0.2810  0.1929
 4973SOL    HW126555   0.639   0.372   1.800  0.9865 -1.7673 -1.5696
 4973SOL    HW226556   0.707   0.502   1.804 -1.1541 -0.3951  1.4659
 4974SOL     OW26557   2.718   1.359   8.290 -0.5351 -0.5268  0.5041
 4974SOL    HW126558   2.749   1.268   8.291 -0.2146 -0.4592 -2.1785
 4974SOL    HW226559   2.780   1.397   8.227 -0.9531  1.6408  1.4212
 4975SOL     OW26560   3.790   1.538   9.839  0.5428 -0.2163  0.3176
 4975SOL    HW126561   3.857   1.470   9.852  2.0148  1.4012  1.1226
 4975SOL    HW226562   3.780   1.527   9.744  0.3919 -2.8751  0.6266
 4976SOL     OW26563   0.085   2.649   9.261  0.1252  0.1102 -0.6438
 4976SOL    HW126564   0.013   2.588   9.279 -0.8533  1.9814  1.8352
 4976SOL    HW226565   0.126   2.666   9.346 -1.7796  0.9701  0.1135
 4977SOL     OW26566   3.963   3.798   2.543  0.3934 -0.0089 -0.4359
 4977SOL    HW126567   3.915   3.773   2.464 -2.6708 -0.7307  1.6872
 4977SOL    HW226568   3.901   3.850   2.594  0.3766  0.5276 -0.9988
 4978SOL     OW26569   4.583   4.582   6.427 -0.1412  0.1147 -0.1175
 4978SOL    HW126570   4.574   4.599   6.521 -0.1464 -1.5406  0.1926
 4978SOL    HW226571   4.596   4.670   6.392  0.4536  0.1401  0.1693
 4979SOL     OW26572   0.150   1.651  12.931 -0.0672 -0.1432  0.4635
 4979SOL    HW126573   0.242   1.626  12.925 -0.0844  0.1393 -1.0464
 4979SOL    HW226574   0.141   1.720  12.865 -0.7807 -1.6442 -1.0262
 4980SOL     OW26575   3.107   0.078   9.243 -0.3681  0.7868 -0.5407
 4980SOL    HW126576   3.057   0.143   9.292  0.8984 -0.1413  1.9897
 4980SOL    HW226577   3.070   0.101   9.158  2.3262  1.5512 -1.5053
 4981SOL     OW26578   0.394   1.962   3.300 -0.6759 -0.0935  0.2481
 4981SOL    HW126579   0.418   1.897   3.366 -2.6826  0.4601  1.5278
 4981SOL    HW226580   0.374   1.905   3.226 -1.3063  0.8341 -0.3012
 4982SOL     OW26581   3.592   4.125  17.174  0.4113 -0.3700 -0.1621
 4982SOL    HW126582   3.600   4.171  17.091  0.3403  0.1188  0.1015
 4982SOL    HW226583   3.508   4.083  17.154 -0.0270  0.1171  0.6502
 4983SOL     OW26584   4.690   4.606   3.845 -0.1001  0.7897  0.4318
 4983SOL    HW126585   4.595   4.590   3.850 -0.2410  1.0640 -1.3776
 4983SOL    HW226586   4.695   4.690   3.890 -1.7175 -0.0014  2.0819
 4984SOL     OW26587   3.065   3.706   0.192  0.0815  0.0732  0.3014
 4984SOL    HW126588   3.050   3.654   0.113 -0.3694 -0.4452  0.7263
 4984SOL    HW226589   3.038   3.790   0.155 -0.0706 -0.4267 -0.7134
 4985SOL     OW26590   3.252   0.896   8.566 -0.1434  0.8758 -0.6765
 4985SOL    HW126591   3.232   0.984   8.533 -1.0982  1.3398  1.1515
 4985SOL    HW226592   3.221   0.908   8.656 -1.6719  0.6881 -1.1805
 4986SOL     OW26593   4.320   1.494   2.856 -0.4799 -0.3050 -0.1403
 4986SOL    HW126594   4.406   1.526   2.880 -1.0102  0.7517  0.3485
 4986SOL    HW226595   4.331   1.476   2.762 -0.2064  3.1232 -0.7757
 4987SOL     OW26596   2.477   4.624   9.752  0.3867  0.1646  0.1919
 4987SOL    HW126597   2.570   4.622   9.775  0.4769  0.2949 -0.1635
 4987SOL    HW226598   2.449   4.533   9.738 -1.5533  0.8305 -0.2630
 4988SOL     OW26599   1.949   1.423   4.930  0.4073 -0.5642  0.2108
 4988SOL    HW126600   1.960   1.404   5.023 -0.0499  2.6558  0.9384
 4988SOL    HW226601   1.969   1.335   4.900  1.2738 -0.0411 -0.7639
 4989SOL     OW26602   1.484   2.667   6.141  0.5312  0.3838  0.5160
 4989SOL    HW126603   1.507   2.697   6.053  1.5515  0.4095  0.7932
 4989SOL    HW226604   1.508   2.742   6.195 -0.4697  0.3728  0.9739
 4990SOL     OW26605   2.108   3.446   1.772  0.1274 -0.5769  0.4751
 4990SOL    HW126606   2.082   3.526   1.817 -1.1422  0.2487 -1.7318
 4990SOL    HW226607   2.059   3.457   1.690  0.4886 -0.4156  0.2802
 4991SOL     OW26608   3.831   2.401   1.939 -0.7220  0.5735 -0.1638
 4991SOL    HW126609   3.798   2.313   1.953  0.2427  0.3292  0.5282
 4991SOL    HW226610   3.845   2.386   1.845  0.7978  1.4367 -0.0829
 4992SOL     OW26611   0.105   3.075   6.842  0.6083 -0.7435 -0.2417
 4992SOL    HW126612   0.044   3.002   6.844 -0.4311  0.1290 -0.0211
 4992SOL    HW226613   0.047   3.151   6.851  2.8091  1.0902 -1.3723
 4993SOL     OW26614   1.947   1.636   8.378 -0.0221  0.0167  0.1094
 4993SOL    HW126615   1.930   1.687   8.298 -0.5233  0.8116  0.7253
 4993SOL    HW226616   1.920   1.550   8.347 -1.7848 -0.0036  1.7241
 4994SOL     OW26617   0.170   0.795   4.932  0.5300 -0.0300 -0.2020
 4994SOL    HW126618   0.143   0.881   4.965  3.0858 -0.0404  1.9525
 4994SOL    HW226619   0.134   0.804   4.844  1.0330 -0.4293 -0.4479
 4995SOL     OW26620   3.827   0.598   1.915  0.5549 -0.0338  0.6270
 4995SOL    HW126621   3.798   0.688   1.928 -0.4321 -0.1800 -0.6506
 4995SOL    HW226622   3.866   0.605   1.828 -4.1847 -0.3623 -1.4801
 4996SOL     OW26623   1.137   3.524   7.936  0.1350 -0.3852  0.2290
 4996SOL    HW126624   1.121   3.430   7.935  1.0033 -0.5220 -0.8687
 4996SOL    HW226625   1.130   3.544   7.842  0.8127 -1.8827 -0.1371
 4997SOL     OW26626   1.911   1.862   6.066 -0.7230  0.1421 -0.2778
 4997SOL    HW126627   1.997   1.858   6.024  0.0932  2.4141  1.1898
 4997SOL    HW226628   1.920   1.934   6.128 -0.2073  1.2209 -1.6222
 4998SOL     OW26629   1.648   2.255  14.337  0.1910 -0.0771 -0.1874
 4998SOL    HW126630   1.621   2.163  14.337  1.2693 -0.3955  0.8052
 4998SOL    HW226631   1.699   2.252  14.256 -0.0165 -1.9427 -0.2477
 4999SOL     OW26632   1.873   1.239  13.509  0.4624  0.5393 -0.3224
 4999SOL    HW126633   1.794   1.270  13.465  0.9667  3.3922  0.7260
 4999SOL    HW226634   1.846   1.227  13.599 -0.3449  1.2611 -0.4730
 5000SOL     OW26635   4.646   2.869   6.889  0.7164  0.1442  0.5009
 5000SOL    HW126636   4.597   2.857   6.807  1.3007  0.7329  0.0629
 5000SOL    HW226637   4.705   2.793   6.889  0.5610  0.0362  2.8747
 5001SOL     OW26638   2.354   0.070   2.085  0.6422  0.2237 -0.3898
 5001SOL    HW126639   2.399   0.063   2.000  1.0180  3.2009 -0.4396
 5001SOL    HW226640   2.269   0.109   2.061 -1.0744 -3.0096  0.5159
 5002SOL     OW26641   3.404   1.328  14.999 -0.0911 -0.1119 -0.2283
 5002SOL    HW126642   3.374   1.418  14.990 -0.4485  0.0383  2.7592
 5002SOL    HW226643   3.371   1.293  14.916  0.7816 -1.8289  0.1468
 5003SOL     OW26644   3.083   4.125   8.307  0.1056  0.2699 -0.2775
 5003SOL    HW126645   3.012   4.072   8.272 -1.2099  1.6021  0.4028
 5003SOL    HW226646   3.089   4.193   8.240  0.4321  1.0233  0.5146
 5004SOL     OW26647   2.748   4.489   6.615  0.3593 -0.2880 -0.1328
 5004SOL    HW126648   2.791   4.567   6.650  1.6498 -0.5049 -1.2397
 5004SOL    HW226649   2.679   4.513   6.553 -1.1041 -1.8906  0.8732
 5005SOL     OW26650   3.800   0.508   0.442 -0.4094 -0.4688  0.3022
 5005SOL    HW126651   3.766   0.427   0.405  0.1658  0.3458 -2.0569
 5005SOL    HW226652   3.729   0.569   0.421  1.2236  1.5575  0.7147
 5006SOL     OW26653   1.196   3.702   9.011  0.5334  0.1458  0.0328
 5006SOL    HW126654   1.129   3.709   9.078  1.3208  1.4784  0.6938
 5006SOL    HW226655   1.202   3.792   8.977 -0.8621 -0.7955 -2.7081
 5007SOL     OW26656   1.851   4.566  14.926  0.1875  0.4263 -0.3731
 5007SOL    HW126657   1.915   4.600  14.863 -2.4296  3.3131 -1.4334
 5007SOL    HW226658   1.893   4.586  15.010  1.2177 -0.8695 -0.5806
 5008SOL     OW26659   1.090   3.892   7.144 -0.2414  0.3418  0.0343
 5008SOL    HW126660   1.080   3.800   7.117  0.7409  0.0863  0.5245
 5008SOL    HW226661   1.000   3.925   7.145 -1.1704 -2.2630  2.9899
 5009SOL     OW26662   1.468   1.949  15.038 -0.0206  0.4542 -0.1675
 5009SOL    HW126663   1.498   1.938  15.129 -0.0839 -0.6842 -0.2871
 5009SOL    HW226664   1.533   1.915  14.977 -1.4525 -1.7130 -0.4864
 5010SOL     OW26665   1.420   1.974   6.434 -0.0212 -1.1344 -0.5025
 5010SOL    HW126666   1.502   1.925   6.430 -0.1798 -1.3875 -0.6582
 5010SOL    HW226667   1.404   1.993   6.342 -1.1738  0.0392 -0.0521
 5011SOL     OW26668   2.023   0.620  13.739  0.2057  0.1406  0.0408
 5011SOL    HW126669   1.959   0.671  13.689 -0.9263 -0.7505  0.5988
 5011SOL    HW226670   1.999   0.528  13.744 -1.0982  0.4275 -0.8978
 5012SOL     OW26671   2.307   4.183   1.212 -0.1345  0.3340  0.1852
 5012SOL    HW126672   2.395   4.146   1.205  0.0255  0.4735  1.5818
 5012SOL    HW226673   2.333   4.275   1.211  2.0271 -0.2736  1.8495
 5013SOL     OW26674   3.549   4.081  11.950  0.5503  0.0137 -0.1983
 5013SOL    HW126675   3.506   3.999  11.929  0.3097 -0.5878  2.7142
 5013SOL    HW226676   3.626   4.070  11.895  1.2332 -1.6876  1.1138
 5014SOL     OW26677   1.016   0.316  17.438  0.4173  0.5762  0.2125
 5014SOL    HW126678   0.964   0.250  17.393  2.6560  0.2972 -1.9739
 5014SOL    HW226679   1.045   0.270  17.517 -2.3954  1.3467  1.6971
 5015SOL     OW26680   4.155   3.836   3.798  0.3003 -0.7419 -0.1973
 5015SOL    HW126681   4.071   3.795   3.815 -1.1247  2.3866  0.3185
 5015SOL    HW226682   4.209   3.794   3.865  1.3021  0.0265 -0.5055
 5016SOL     OW26683   4.068   4.367   4.551  0.1689 -0.2927  0.3704
 5016SOL    HW126684   4.071   4.307   4.476 -0.3349 -1.1507  1.0448
 5016SOL    HW226685   4.149   4.413   4.530  0.0017  0.2618  0.9284
 5017SOL     OW26686   2.091   4.367   3.976  0.1877  0.0956  0.4248
 5017SOL    HW126687   2.184   4.374   3.997  0.2134  2.6208 -0.5566
 5017SOL    HW226688   2.093   4.366   3.880  0.8591 -0.0351  0.4398
 5018SOL     OW26689   0.245   2.165   2.867  0.2445  0.2281 -0.1906
 5018SOL    HW126690   0.183   2.150   2.938  1.9734 -1.0443  1.0612
 5018SOL    HW226691   0.307   2.228   2.904  3.0200 -0.1759 -4.1608
 5019SOL     OW26692   1.407   4.257   4.088 -0.1017 -0.1331 -0.0345
 5019SOL    HW126693   1.453   4.178   4.059 -1.0354 -1.0550  1.0001
 5019SOL    HW226694   1.319   4.220   4.092  0.1203 -0.8427 -1.6812
 5020SOL     OW26695   0.015   1.661  17.223  0.0475 -0.1099 -0.5446
 5020SOL    HW126696   4.703   1.739  17.244  1.7392  0.7736  0.3456
 5020SOL    HW226697   0.098   1.688  17.262  0.9694 -1.5907 -1.4803
 5021SOL     OW26698   3.119   0.679   3.285 -0.7059 -0.1999  0.4679
 5021SOL    HW126699   3.155   0.671   3.373  0.7536 -2.1576 -0.3123
 5021SOL    HW226700   3.066   0.758   3.288  0.7102  0.7396  0.5666
 5022SOL     OW26701   4.579   0.063   5.676  0.6464 -0.1155 -0.3156
 5022SOL    HW126702   4.540   0.150   5.685  0.1257  0.0549 -4.3124
 5022SOL    HW226703   4.652   0.073   5.614  2.3988 -1.2856  1.5424
 5023SOL     OW26704   0.752   0.866  15.095  0.1335  0.2571  0.1415
 5023SOL    HW126705   0.713   0.953  15.085  0.7787  0.6206  0.8689
 5023SOL    HW226706   0.690   0.818  15.150 -0.2460 -0.6518 -1.0560
 5024SOL     OW26707   3.960   2.638   2.836 -0.9122  0.3994  0.1246
 5024SOL    HW126708   4.030   2.598   2.784 -2.4735  0.3322 -1.8870
 5024SOL    HW226709   3.914   2.683   2.766 -0.3560  1.0495  0.1683
 5025SOL     OW26710   0.172   0.828  17.300 -0.3281  0.0408  0.1027
 5025SOL    HW126711   0.159   0.910  17.349  0.9013  0.5781 -0.4789
 5025SOL    HW226712   0.267   0.825  17.306 -0.3012 -3.0151 -2.1916
 5026SOL     OW26713   2.161   0.540   6.827 -0.4157 -0.5258  0.1351
 5026SOL    HW126714   2.240   0.594   6.827 -1.6131  1.2334  2.4348
 5026SOL    HW226715   2.155   0.523   6.733  0.8782  2.9556 -0.5804
 5027SOL     OW26716   4.326   4.445   4.785 -0.0804 -0.0286  0.0972
 5027SOL    HW126717   4.380   4.424   4.709 -2.3685  0.5931 -1.6941
 5027SOL    HW226718   4.288   4.360   4.808 -0.0145 -0.2972 -0.8038
 5028SOL     OW26719   4.545   2.991  13.668 -0.6408 -0.0931 -0.6622
 5028SOL    HW126720   4.589   3.032  13.742  1.3826 -1.9516 -0.8228
 5028SOL    HW226721   4.613   2.940  13.624  0.9546  1.6715 -0.2545
 5029SOL     OW26722   0.853   1.334   4.623  0.6425  0.1034  0.3791
 5029SOL    HW126723   0.933   1.342   4.571 -0.7877  2.2270 -1.4954
 5029SOL    HW226724   0.881   1.339   4.714 -1.3307  0.4302  0.9711
 5030SOL     OW26725   2.512   3.008   3.699 -0.1427 -0.2655  1.1770
 5030SOL    HW126726   2.594   3.032   3.656 -1.3255  2.3618  0.4227
 5030SOL    HW226727   2.497   2.944   3.629 -1.4080 -0.3178  1.5037
 5031SOL     OW26728   1.681   0.039   6.892 -0.6345  0.1689 -0.6525
 5031SOL    HW126729   1.748   0.107   6.894  1.5516 -1.8668 -3.0732
 5031SOL    HW226730   1.721   4.709   6.943 -1.3642  0.8857  0.8832
 5032SOL     OW26731   3.174   0.664   9.010 -0.1037  0.2977 -0.1895
 5032SOL    HW126732   3.081   0.659   8.988 -0.0825  1.7589 -0.6218
 5032SOL    HW226733   3.206   0.578   8.984 -0.2732 -0.1808  1.1786
 5033SOL     OW26734   4.545   2.976   1.440 -0.1751  0.2786  0.0220
 5033SOL    HW126735   4.597   2.911   1.488  2.1536  2.2878  0.1894
 5033SOL    HW226736   4.604   3.049   1.426 -1.0169  1.0077  0.2730
 5034SOL     OW26737   2.931   2.116   5.058  0.0774 -0.4127  0.2348
 5034SOL    HW126738   2.958   2.100   5.148  0.0151 -1.0013  0.1490
 5034SOL    HW226739   2.869   2.188   5.065 -0.9138 -1.3579  1.1972
 5035SOL     OW26740   2.987   1.587   0.505  0.3944 -0.3753  0.0122
 5035SOL    HW126741   2.975   1.682   0.509 -0.3499 -0.4187 -1.1755
 5035SOL    HW226742   2.958   1.574   0.415  0.3660  0.2608 -0.0737
 5036SOL     OW26743   3.266   3.095  13.685 -0.2109 -0.5189 -0.5013
 5036SOL    HW126744   3.330   3.074  13.752 -0.9632  0.5802  0.5525
 5036SOL    HW226745   3.198   3.137  13.737 -0.9926 -2.2018 -0.1650
 5037SOL     OW26746   4.673   1.501  12.862  0.8405  0.2746 -0.3824
 5037SOL    HW126747   0.000   1.548  12.912 -0.8026  1.9352  0.3037
 5037SOL    HW226748   4.621   1.575  12.830 -0.2323 -0.4091 -0.2396
 5038SOL     OW26749   2.856   4.603   9.242 -0.5790 -0.1703  0.6442
 5038SOL    HW126750   2.827   4.547   9.170  0.9292  0.9661 -0.8459
 5038SOL    HW226751   2.801   4.676   9.216 -0.2910 -0.3478 -0.4350
 5039SOL     OW26752   1.920   1.592  16.456  0.0989 -0.2576  0.2222
 5039SOL    HW126753   1.935   1.628  16.369  1.6103 -0.2749  0.4777
 5039SOL    HW226754   1.838   1.632  16.487  0.4687  0.4383  0.2912
 5040SOL     OW26755   4.410   3.273   2.990  0.0800  0.2951  0.2076
 5040SOL    HW126756   4.329   3.249   2.944  0.7285 -2.2614  0.4337
 5040SOL    HW226757   4.462   3.305   2.916  0.6849 -2.7954 -0.6941
 5041SOL     OW26758   1.413   1.314  13.199 -0.2010 -0.1340  0.1308
 5041SOL    HW126759   1.405   1.367  13.278  0.1134 -1.0671  0.7826
 5041SOL    HW226760   1.506   1.292  13.207 -0.2696 -0.6216 -0.3925
 5042SOL     OW26761   1.714   3.587   4.646 -0.5827 -0.2840  0.6818
 5042SOL    HW126762   1.718   3.540   4.562 -0.5154  0.6983  0.1377
 5042SOL    HW226763   1.723   3.676   4.613 -0.5739 -0.6790 -0.3710
 5043SOL     OW26764   2.145   2.283   1.064 -0.0404  0.2059  0.0066
 5043SOL    HW126765   2.061   2.293   1.108 -0.0549 -0.9576  0.2203
 5043SOL    HW226766   2.134   2.339   0.987 -0.3509 -1.7690 -1.3865
 5044SOL     OW26767   0.530   1.290   2.147  0.0360 -0.9694 -0.1418
 5044SOL    HW126768   0.473   1.221   2.183 -2.4305  0.3738 -1.5104
 5044SOL    HW226769   0.478   1.348   2.093  1.1678 -1.3779 -1.6774
 5045SOL     OW26770   0.639   4.343   7.651  1.2442  0.0693 -0.4482
 5045SOL    HW126771   0.597   4.416   7.604 -0.2483 -1.5865 -1.6726
 5045SOL    HW226772   0.572   4.275   7.662  0.0572  1.3034 -0.0502
 5046SOL     OW26773   0.083   1.854   7.743  0.1244 -0.0332 -0.6350
 5046SOL    HW126774   4.734   1.843   7.708 -0.2094 -0.9402  0.4897
 5046SOL    HW226775   0.073   1.872   7.836 -2.8240 -1.8026 -0.5951
 5047SOL     OW26776   3.048   1.322   6.567  0.1029 -0.1473 -0.5468
 5047SOL    HW126777   3.010   1.367   6.492 -0.5777  0.0210 -0.0959
 5047SOL    HW226778   3.061   1.401   6.619 -2.1497 -1.1347  1.4958
 5048SOL     OW26779   2.312   4.542   9.440  0.1154 -0.9991 -0.2876
 5048SOL    HW126780   2.241   4.500   9.392 -1.8382  2.4772 -0.4824
 5048SOL    HW226781   2.387   4.487   9.418 -1.5314 -2.1857 -2.8762
 5049SOL     OW26782   2.246   2.543  17.364  0.4649  0.3168  0.5945
 5049SOL    HW126783   2.335   2.571  17.386  0.5364  0.7199 -0.2047
 5049SOL    HW226784   2.220   2.582  17.281  1.6563  0.8290  0.4690
 5050SOL     OW26785   2.399   2.909   7.257 -0.1994 -0.4442  0.2094
 5050SOL    HW126786   2.452   2.908   7.337  1.6069 -0.7968 -0.9862
 5050SOL    HW226787   2.425   2.825   7.219  1.3248 -0.9938  2.4610
 5051SOL     OW26788   3.152   1.376   7.372 -0.0155 -0.5455  0.9314
 5051SOL    HW126789   3.212   1.364   7.299 -0.8426 -0.3846  0.2311
 5051SOL    HW226790   3.143   1.288   7.409 -1.1723 -0.4938  0.7654
 5052SOL     OW26791   3.863   3.095   6.573 -0.1493 -0.1470 -1.0744
 5052SOL    HW126792   3.818   3.012   6.587 -1.2361  0.7456  0.6712
 5052SOL    HW226793   3.933   3.097   6.638 -2.1133 -0.0480  1.0261
 5053SOL     OW26794   2.714   3.705   7.151 -0.3492 -0.2922  0.1300
 5053SOL    HW126795   2.689   3.613   7.153  0.5415 -0.5291  0.2065
 5053SOL    HW226796   2.803   3.692   7.182 -0.7377  0.0192  1.3859
 5054SOL     OW26797   4.145   1.859  15.858  0.1183 -0.5128  0.3260
 5054SOL    HW126798   4.171   1.920  15.927  0.3956  1.8520 -1.8873
 5054SOL    HW226799   4.221   1.801  15.848  0.3440 -0.6431  2.7767
 5055SOL     OW26800   0.455   3.063   1.364  0.3161  0.2967 -0.6395
 5055SOL    HW126801   0.502   2.981   1.378 -0.6861 -0.3829 -1.2686
 5055SOL    HW226802   0.520   3.122   1.403 -2.4738  2.6365  0.4631
 5056SOL     OW26803   2.807   0.305  10.202  0.0252  0.0838 -0.1059
 5056SOL    HW126804   2.805   0.262  10.116 -2.1966  1.0513 -0.5483
 5056SOL    HW226805   2.717   0.314  10.232 -0.4413  0.5551 -1.6249
 5057SOL     OW26806   3.973   1.661   8.912  0.2263 -0.4327 -0.0509
 5057SOL    HW126807   3.948   1.753   8.921 -1.3990 -0.9705  0.8203
 5057SOL    HW226808   4.030   1.661   8.835 -0.2037  1.2648 -0.3744
 5058SOL     OW26809   1.220   3.320   8.268  0.3649 -0.0241 -0.4914
 5058SOL    HW126810   1.178   3.273   8.196  2.7400 -0.0430 -1.8218
 5058SOL    HW226811   1.296   3.361   8.228  0.3445  0.0907 -0.4145
 5059SOL     OW26812   1.716   4.062   4.657 -0.0470  0.0399 -0.0702
 5059SOL    HW126813   1.763   4.087   4.578  0.4187 -0.5718  0.0099
 5059SOL    HW226814   1.663   3.989   4.623 -2.7938  1.2550  1.5537
 5060SOL     OW26815   2.713   3.390   8.998 -0.3074 -0.2165 -0.4890
 5060SOL    HW126816   2.737   3.304   9.033  3.0803  0.5510 -0.9601
 5060SOL    HW226817   2.653   3.430   9.061  1.4569  0.8995  0.4597
 5061SOL     OW26818   1.913   0.856  16.706  0.3754  0.6393 -0.4208
 5061SOL    HW126819   1.852   0.927  16.686 -0.9195 -0.4153 -0.2091
 5061SOL    HW226820   1.887   0.792  16.639  0.0116 -1.2928  1.5472
 5062SOL     OW26821   2.952   4.250   0.722  0.0197  0.4098  0.8363
 5062SOL    HW126822   3.030   4.281   0.676 -1.1038  2.4742  0.3219
 5062SOL    HW226823   2.975   4.277   0.811  0.3089  0.7637  0.6554
 5063SOL     OW26824   2.767   3.656   3.213 -0.2577 -0.2184 -0.3640
 5063SOL    HW126825   2.707   3.586   3.241 -0.3313  0.0330  0.1022
 5063SOL    HW226826   2.791   3.695   3.297 -0.9750  2.9524 -1.6572
 5064SOL     OW26827   0.192   4.386   6.077  0.2499 -0.4742 -0.0458
 5064SOL    HW126828   0.287   4.395   6.078  0.1501  0.6782 -1.3972
 5064SOL    HW226829   0.169   4.444   6.149 -0.5124 -0.1949 -0.5094
 5065SOL     OW26830   1.837   0.709   2.490 -0.0813  0.1707 -0.4087
 5065SOL    HW126831   1.861   0.787   2.538  1.5468  0.3021 -1.4395
 5065SOL    HW226832   1.917   0.658   2.477  0.1156  0.1863  0.7451
 5066SOL     OW26833   4.635   1.513   6.558 -0.3169 -0.2211  0.8640
 5066SOL    HW126834   4.597   1.543   6.641 -2.6098  0.9119 -0.6051
 5066SOL    HW226835   4.728   1.508   6.577  0.0096  1.1661 -0.3799
 5067SOL     OW26836   3.821   0.999   2.430 -0.1514 -0.5692  0.4722
 5067SOL    HW126837   3.849   0.928   2.371  3.8883  3.1950 -2.1705
 5067SOL    HW226838   3.727   0.985   2.424 -0.2759 -0.3532  2.0990
 5068SOL     OW26839   2.478   3.874   7.059  0.4697 -0.1275  0.1026
 5068SOL    HW126840   2.570   3.848   7.052  0.3228 -0.5999 -0.1148
 5068SOL    HW226841   2.469   3.940   7.128 -0.8083 -0.5072  0.3057
 5069SOL     OW26842   1.085   3.024  14.936 -0.3502 -0.0634 -0.0698
 5069SOL    HW126843   1.148   2.998  15.004 -0.1970 -0.0112 -0.1928
 5069SOL    HW226844   1.067   2.936  14.903 -1.3024  0.1862 -0.2000
 5070SOL     OW26845   0.382   4.502   7.180  0.5386  0.6756 -0.5768
 5070SOL    HW126846   0.290   4.485   7.197  0.6471 -1.1217 -1.7649
 5070SOL    HW226847   0.400   4.416   7.141 -0.3064  0.6510 -0.8980
 5071SOL     OW26848   3.662   3.245   6.388  0.4504 -0.3761 -0.3530
 5071SOL    HW126849   3.630   3.327   6.425  0.4466 -0.3591 -0.3940
 5071SOL    HW226850   3.727   3.231   6.457 -1.3265 -0.4461  1.2853
 5072SOL     OW26851   4.361   1.701   2.163 -0.3772 -0.5830  0.3712
 5072SOL    HW126852   4.281   1.740   2.128 -0.0335 -1.8180 -1.8275
 5072SOL    HW226853   4.332   1.663   2.246  0.9380 -1.9762  0.1894
 5073SOL     OW26854   2.881   3.186   8.237 -0.0038  0.3128  0.3650
 5073SOL    HW126855   2.893   3.092   8.233  0.0310  0.3397 -0.1396
 5073SOL    HW226856   2.960   3.203   8.186 -0.1619  0.6265  0.2259
 5074SOL     OW26857   3.458   4.549   3.156  0.1694 -0.7039 -0.4016
 5074SOL    HW126858   3.473   4.504   3.074 -1.2813 -0.3764 -0.8527
 5074SOL    HW226859   3.441   4.482   3.222 -0.0980 -0.4039 -0.1639
 5075SOL     OW26860   2.530   3.089   1.543 -0.0133 -0.4521 -0.0453
 5075SOL    HW126861   2.510   3.005   1.585  1.8918 -1.9362 -2.1036
 5075SOL    HW226862   2.456   3.146   1.564  0.0592 -0.5979  0.5979
 5076SOL     OW26863   3.348   0.209  16.410  0.2442  0.5031 -0.2180
 5076SOL    HW126864   3.291   0.276  16.373 -1.1246  0.0647  1.0998
 5076SOL    HW226865   3.313   0.135  16.361 -1.9435  0.0072  2.1177
 5077SOL     OW26866   1.416   3.124  12.870  0.1774  0.9319 -0.4350
 5077SOL    HW126867   1.511   3.120  12.876 -0.1734 -0.3306  4.2849
 5077SOL    HW226868   1.399   3.203  12.921  0.7783  0.6305  0.2302
 5078SOL     OW26869   1.305   0.052   7.822 -0.6387  0.2511 -0.2287
 5078SOL    HW126870   1.308   0.101   7.739 -2.7118  2.9914  1.3043
 5078SOL    HW226871   1.213   0.030   7.814  0.1828 -3.6831  1.2614
 5079SOL     OW26872   1.839   0.586   9.364  0.2135 -0.5152  1.2081
 5079SOL    HW126873   1.854   0.618   9.453 -2.4382  0.9036  1.1439
 5079SOL    HW226874   1.855   0.663   9.309 -1.9539 -0.9244 -0.0159
 5080SOL     OW26875   1.595   1.764  16.289  0.8702 -0.0809 -0.1194
 5080SOL    HW126876   1.582   1.845  16.338  2.7202  0.6464 -0.8381
 5080SOL    HW226877   1.511   1.746  16.246  1.3496 -1.3576 -0.5335
 5081SOL     OW26878   3.977   4.571   3.174 -0.1036 -0.2994  0.2878
 5081SOL    HW126879   4.038   4.549   3.103 -1.4298  0.5940 -1.1412
 5081SOL    HW226880   4.013   4.519   3.246 -0.0846 -1.9257 -0.8991
 5082SOL     OW26881   0.670   1.579   8.218  0.0530 -0.1930  0.0046
 5082SOL    HW126882   0.593   1.543   8.173  0.3037 -0.5555 -0.1315
 5082SOL    HW226883   0.696   1.642   8.151  2.3035  0.8865  1.9358
 5083SOL     OW26884   0.045   2.546   5.994  0.9736  0.5745 -0.2846
 5083SOL    HW126885   0.063   2.628   6.041  1.1443  0.6008 -0.3925
 5083SOL    HW226886   4.722   2.580   5.930 -1.6129 -0.9002  1.4963
 5084SOL     OW26887   4.364   2.509   6.141  0.2456  0.1402 -0.0349
 5084SOL    HW126888   4.288   2.453   6.131 -0.2680  0.9210 -0.5666
 5084SOL    HW226889   4.353   2.579   6.076  0.4766  1.0599  0.9218
 5085SOL     OW26890   0.860   4.037   3.052  0.9624  0.5981  0.0657
 5085SOL    HW126891   0.941   4.059   3.007 -0.0177  2.1634 -0.8923
 5085SOL    HW226892   0.894   4.053   3.140  2.1407 -1.2696 -0.0314
 5086SOL     OW26893   1.004   4.479   7.888 -0.0464  0.1047  0.1245
 5086SOL    HW126894   0.954   4.432   7.822  1.0845  0.9619 -1.3539
 5086SOL    HW226895   0.927   4.520   7.928  0.2080 -0.5794  1.3141
 5087SOL     OW26896   3.339   3.296   7.376  0.7848 -0.4053 -0.3432
 5087SOL    HW126897   3.425   3.259   7.359  1.4059  0.2932  1.2323
 5087SOL    HW226898   3.335   3.303   7.472  0.1438  1.7612 -0.5141
 5088SOL     OW26899   4.680   3.040   8.644  0.6795 -0.2593 -0.5336
 5088SOL    HW126900   4.727   3.062   8.724  0.7526  0.2624 -0.7153
 5088SOL    HW226901   4.660   3.131   8.621  0.8615  0.1687  1.0021
 5089SOL     OW26902   3.318   3.546   2.134 -0.5386 -0.6192 -0.5379
 5089SOL    HW126903   3.319   3.642   2.140  1.3960 -0.6709  0.2086
 5089SOL    HW226904   3.263   3.524   2.059 -0.2840  0.0922 -0.9373
 5090SOL     OW26905   4.021   0.537   7.086 -0.3356  0.1429  0.1349
 5090SOL    HW126906   4.086   0.598   7.051 -1.3810  1.1128 -0.0867
 5090SOL    HW226907   3.939   0.568   7.048  0.5061  1.4366 -0.6132
 5091SOL     OW26908   2.508   3.342   4.749  0.6980  0.1161 -0.4230
 5091SOL    HW126909   2.451   3.274   4.785 -0.5522  0.7117 -1.2819
 5091SOL    HW226910   2.460   3.422   4.771  1.0695  0.6697 -1.6325
 5092SOL     OW26911   3.113   4.579   6.078 -0.1883  0.0688 -0.3587
 5092SOL    HW126912   3.088   4.551   5.990 -1.6979 -0.2706  0.1717
 5092SOL    HW226913   3.206   4.560   6.074 -0.2906 -0.5160  0.0334
 5093SOL     OW26914   1.357   3.786  12.497  0.0068 -0.0231  0.1838
 5093SOL    HW126915   1.289   3.723  12.522  1.4599 -1.6385  0.0874
 5093SOL    HW226916   1.364   3.780  12.402  0.6580  1.9398  0.1060
 5094SOL     OW26917   0.092   4.170   7.349  0.8250 -0.4192 -0.3010
 5094SOL    HW126918   0.010   4.196   7.392  0.4959 -0.4550 -0.9074
 5094SOL    HW226919   0.116   4.249   7.300 -0.9860  0.1128 -0.3302
 5095SOL     OW26920   0.914   2.423   7.974  0.7647  0.8403 -0.4259
 5095SOL    HW126921   0.860   2.438   7.897 -1.2623 -0.6464  0.7192
 5095SOL    HW226922   0.998   2.455   7.941  0.9745  1.0113  0.2783
 5096SOL     OW26923   3.304   1.577  15.011  0.9757 -0.0090  0.3323
 5096SOL    HW126924   3.247   1.637  14.962  0.0106 -1.1280  0.1031
 5096SOL    HW226925   3.276   1.598  15.100 -1.8816  0.9023 -0.7889
 5097SOL     OW26926   2.922   1.236   2.150  0.0562  0.2708  0.7756
 5097SOL    HW126927   2.965   1.254   2.234  2.4762 -2.9491  0.2380
 5097SOL    HW226928   2.877   1.320   2.146  0.6437  0.4488 -2.0773
 5098SOL     OW26929   0.860   2.517   6.704  0.3199  0.7308  0.5767
 5098SOL    HW126930   0.930   2.544   6.764  0.2576  2.3905 -0.0951
 5098SOL    HW226931   0.794   2.498   6.771 -0.4017  1.3643  0.0422
 5099SOL     OW26932   4.288   3.631   9.146  0.1146 -0.2565 -0.3332
 5099SOL    HW126933   4.340   3.550   9.145 -1.1630 -1.0788  0.1358
 5099SOL    HW226934   4.240   3.619   9.228 -0.6572 -1.1536 -0.9044
 5100SOL     OW26935   1.848   2.055   4.860  0.5323  0.2702 -0.0435
 5100SOL    HW126936   1.857   2.048   4.955  1.2964 -2.0704 -0.2995
 5100SOL    HW226937   1.874   2.146   4.843 -1.1079  0.0827 -3.3860
 5101SOL     OW26938   3.894   1.196  15.507 -0.8766 -0.0426  0.0134
 5101SOL    HW126939   3.821   1.148  15.468 -1.3116 -0.5333  1.4290
 5101SOL    HW226940   3.930   1.238  15.429  0.5722  1.7995  1.6422
 5102SOL     OW26941   1.963   0.425  12.190  0.3797  0.0494  0.0188
 5102SOL    HW126942   1.954   0.508  12.143 -0.3085  0.3411  0.6755
 5102SOL    HW226943   2.016   0.368  12.134 -1.1233  1.3170 -2.6980
 5103SOL     OW26944   4.327   2.813   2.802  0.8821 -0.1134 -0.0025
 5103SOL    HW126945   4.361   2.901   2.786 -0.6595  0.7840  1.6981
 5103SOL    HW226946   4.389   2.769   2.860  0.0967 -1.6500 -0.3310
 5104SOL     OW26947   3.187   0.243   5.049 -0.2558 -0.6152 -0.7503
 5104SOL    HW126948   3.231   0.160   5.067 -0.6167 -0.1885  2.2042
 5104SOL    HW226949   3.239   0.305   5.100  0.7608 -0.1089 -2.4408
 5105SOL     OW26950   1.463   0.887  11.023 -0.3178  0.3851  0.1721
 5105SOL    HW126951   1.545   0.889  10.974 -0.2254 -0.2903  0.3027
 5105SOL    HW226952   1.499   0.894  11.111  1.1275 -0.5504 -0.3410
 5106SOL     OW26953   1.739   0.279   3.186  0.0405 -0.4947 -0.5158
 5106SOL    HW126954   1.719   0.329   3.107  1.1842 -0.0729 -0.5410
 5106SOL    HW226955   1.833   0.296   3.196 -0.4539  2.2901 -0.7485
 5107SOL     OW26956   4.673   1.106   0.606 -0.6222  0.1465  0.0957
 5107SOL    HW126957   4.581   1.130   0.599 -1.2753 -2.1704  0.7811
 5107SOL    HW226958   4.707   1.196   0.607  0.0994 -0.1363  0.8402
 5108SOL     OW26959   2.654   1.013   0.357 -0.1885  0.0078 -0.4162
 5108SOL    HW126960   2.656   0.921   0.333  0.1657  0.2837 -1.4832
 5108SOL    HW226961   2.586   1.018   0.424  0.8873  0.7533  0.6185
 5109SOL     OW26962   2.792   4.380  11.793 -0.3783 -0.2996  0.1896
 5109SOL    HW126963   2.748   4.455  11.753  1.8299 -0.4011 -2.4756
 5109SOL    HW226964   2.798   4.406  11.885 -0.0178 -2.7124  0.8511
 5110SOL     OW26965   4.335   4.667   1.234  0.3652  0.4059 -0.8707
 5110SOL    HW126966   4.254   4.713   1.211 -0.9363  0.5951  4.2098
 5110SOL    HW226967   4.341   4.670   1.329 -1.3328  1.0669 -0.7809
 5111SOL     OW26968   3.786   0.543   6.225 -0.2087  0.4918  0.7484
 5111SOL    HW126969   3.818   0.614   6.280  1.4130  1.3690 -1.3135
 5111SOL    HW226970   3.801   0.471   6.285 -0.6195 -0.4690 -0.2969
 5112SOL     OW26971   1.721   3.720  13.596  0.5157  0.5898 -0.1592
 5112SOL    HW126972   1.672   3.792  13.636 -2.9088 -0.6176 -2.2016
 5112SOL    HW226973   1.717   3.735  13.502 -0.1981  1.8633  0.0769
 5113SOL     OW26974   2.211   1.126   2.771  0.1852  0.6225 -0.5654
 5113SOL    HW126975   2.241   1.166   2.852  1.7655 -0.6410 -0.5404
 5113SOL    HW226976   2.122   1.159   2.761 -0.7620 -1.2835  1.5902
 5114SOL     OW26977   2.885   0.182   6.112  0.0554 -0.3783  0.5266
 5114SOL    HW126978   2.820   0.134   6.061  0.1409 -1.4605  1.4351
 5114SOL    HW226979   2.922   0.250   6.055 -3.0155 -0.3691 -1.4430
 5115SOL     OW26980   4.087   1.720  15.327 -0.7733  0.1381  0.3024
 5115SOL    HW126981   4.154   1.768  15.278  0.0495  0.9188  2.2138
 5115SOL    HW226982   4.145   1.664  15.378 -1.0883 -0.1684  0.3272
 5116SOL     OW26983   1.255   2.144  16.735  0.4036  0.0297 -0.4691
 5116SOL    HW126984   1.188   2.076  16.740  0.0804  0.5038  1.5943
 5116SOL    HW226985   1.246   2.170  16.644 -1.7154 -0.3387 -0.3526
 5117SOL     OW26986   1.234   1.478  13.820 -0.6634 -0.2430 -0.3619
 5117SOL    HW126987   1.244   1.403  13.762 -3.0951 -0.0418 -1.0334
 5117SOL    HW226988   1.313   1.469  13.874 -0.3985 -0.0212 -0.7098
 5118SOL     OW26989   4.528   3.429   5.017  0.3519  0.8993  0.0068
 5118SOL    HW126990   4.592   3.496   5.045  1.7271  0.0566 -1.1447
 5118SOL    HW226991   4.457   3.451   5.078 -0.3406 -0.3020 -0.3880
 5119SOL     OW26992   0.078   0.045   8.946  0.9589 -0.3682  0.4762
 5119SOL    HW126993   0.117   0.001   9.021  1.4917  0.3118  0.6011
 5119SOL    HW226994   0.101   0.136   8.964 -0.9478  0.5339 -1.6500
 5120SOL     OW26995   0.078   3.170  10.307  0.0536 -0.0100  0.4269
 5120SOL    HW126996   0.067   3.097  10.245  0.1770  0.6358 -0.3594
 5120SOL    HW226997   0.164   3.205  10.281 -1.4803  2.2189 -1.6537
 5121SOL     OW26998   3.379   2.885   2.958 -0.7802 -0.1658 -0.0324
 5121SOL    HW126999   3.433   2.828   2.903 -0.4617  1.9684 -1.9065
 5121SOL    HW227000   3.363   2.832   3.036  0.9490 -0.0040  0.4343
 5122SOL     OW27001   2.250   1.321   1.536 -0.2075  0.4447  0.4402
 5122SOL    HW127002   2.187   1.287   1.600 -1.5213  1.3366 -0.3805
 5122SOL    HW227003   2.283   1.235   1.510  1.9220  0.7817  2.0541
 5123SOL     OW27004   4.659   0.580   6.620 -0.5379 -0.3742 -0.4263
 5123SOL    HW127005   4.731   0.521   6.597  0.2311 -0.2347  1.6487
 5123SOL    HW227006   4.627   0.602   6.532 -1.1669  0.8595  0.1034
 5124SOL     OW27007   1.268   4.016   1.897  0.2330 -0.5913 -0.0964
 5124SOL    HW127008   1.257   4.077   1.970 -0.8206  0.2847 -1.0062
 5124SOL    HW227009   1.185   3.968   1.892 -1.9662  3.2746 -0.5767
 5125SOL     OW27010   2.909   2.638   0.516 -0.3729 -0.6534  0.2763
 5125SOL    HW127011   2.816   2.662   0.510 -0.4540 -0.4395  2.2856
 5125SOL    HW227012   2.939   2.685   0.594  2.0118  2.4062 -2.4847
 5126SOL     OW27013   2.474   0.146   9.860  0.2708 -0.4121  0.1055
 5126SOL    HW127014   2.445   0.065   9.820 -1.2938 -0.5226  1.4772
 5126SOL    HW227015   2.452   0.210   9.792  0.8225 -1.0383 -0.6614
 5127SOL     OW27016   0.029   3.107   3.236 -0.1587  0.3512  0.4109
 5127SOL    HW127017   0.011   3.116   3.330  0.5279  2.2200  0.3729
 5127SOL    HW227018   0.125   3.103   3.234 -0.2366 -1.6951  0.7220
 5128SOL     OW27019   0.085   4.387   8.395 -0.2759  0.8329 -0.1573
 5128SOL    HW127020   0.172   4.389   8.354  0.4279  0.8852  1.3575
 5128SOL    HW227021   0.062   4.295   8.385  0.1837  0.6616  0.3881
 5129SOL     OW27022   0.930   0.985   2.545 -0.1218  0.1748 -0.0369
 5129SOL    HW127023   1.006   0.927   2.549 -1.7732 -1.9786  0.7707
 5129SOL    HW227024   0.929   1.005   2.452 -1.1259 -1.8583 -0.4654
 5130SOL     OW27025   1.349   1.122  13.980  0.1435 -0.5064  0.7056
 5130SOL    HW127026   1.347   1.033  13.945  0.3377 -0.4831  0.6353
 5130SOL    HW227027   1.261   1.139  14.014 -0.7992 -2.9293 -0.4814
 5131SOL     OW27028   1.172   0.575   2.329 -0.2318  0.2446 -0.1406
 5131SOL    HW127029   1.116   0.622   2.268 -2.5990 -2.6881 -0.2132
 5131SOL    HW227030   1.258   0.595   2.292  1.0371 -0.0846  2.6414
 5132SOL     OW27031   0.925   0.840   5.082  0.3931  0.0808  0.3415
 5132SOL    HW127032   0.913   0.928   5.047 -1.0020 -0.3730 -0.3010
 5132SOL    HW227033   1.011   0.818   5.047  0.8898  0.9377  1.0313
 5133SOL     OW27034   4.664   4.599   8.494 -0.2834  0.2133 -0.4751
 5133SOL    HW127035   4.579   4.595   8.450  0.2629  0.3813 -1.5313
 5133SOL    HW227036   4.684   4.506   8.491 -1.5176 -0.0615 -0.0466
 5134SOL     OW27037   0.514   4.074  13.891 -0.5994  0.2410  0.0081
 5134SOL    HW127038   0.572   4.009  13.931 -1.3804  2.1198  4.2640
 5134SOL    HW227039   0.432   4.024  13.896 -0.2540 -0.2036  1.4047
 5135SOL     OW27040   4.468   0.235   4.117  0.9107  0.1656 -0.0206
 5135SOL    HW127041   4.492   0.327   4.126 -0.8236  0.5691  0.5451
 5135SOL    HW227042   4.475   0.229   4.022  2.7389 -0.5079  0.1640
 5136SOL     OW27043   4.008   4.257  14.783 -0.4046  0.4869 -0.0775
 5136SOL    HW127044   4.081   4.209  14.744  0.0915  1.8410 -0.8260
 5136SOL    HW227045   3.935   4.252  14.721  1.2325  2.1954 -2.1504
 5137SOL     OW27046   1.936   3.003  17.560 -0.4107  0.0927  0.4163
 5137SOL    HW127047   1.951   2.911  17.583  1.6138 -0.3209 -2.6132
 5137SOL    HW227048   1.973   3.005  17.472  0.9297  0.6355  0.9935
 5138SOL     OW27049   2.070   0.420   0.586 -0.1138  0.0474  0.1922
 5138SOL    HW127050   2.112   0.372   0.658  1.9802 -1.1847 -1.8810
 5138SOL    HW227051   1.987   0.372   0.577 -1.2132  1.4165  2.9749
 5139SOL     OW27052   2.841   0.341  10.812 -0.6092  0.3835 -0.0132
 5139SOL    HW127053   2.784   0.310  10.742 -1.2320 -0.3487  0.8186
 5139SOL    HW227054   2.883   0.415  10.769 -1.0447  1.3643  1.2209
 5140SOL     OW27055   0.833   4.647   5.840  0.3520 -0.0374 -0.2631
 5140SOL    HW127056   0.846   4.690   5.755  0.3016 -1.1815 -0.8418
 5140SOL    HW227057   0.876   4.563   5.829  0.7851  0.1772 -0.2082
 5141SOL     OW27058   2.308   2.596  10.877 -0.4663 -0.3049 -0.0039
 5141SOL    HW127059   2.296   2.566  10.967 -0.5856 -0.5132 -0.0878
 5141SOL    HW227060   2.241   2.541  10.836 -1.3059  0.4957  0.2703
 5142SOL     OW27061   2.335   0.294   4.723 -0.3437 -0.2457 -0.5488
 5142SOL    HW127062   2.319   0.270   4.814 -1.5925 -2.5467 -1.3767
 5142SOL    HW227063   2.431   0.297   4.719 -0.3829  0.5277 -0.7571
 5143SOL     OW27064   1.578   1.587   1.521  0.3817 -0.2785  1.0195
 5143SOL    HW127065   1.488   1.556   1.515  0.1618  0.4687  0.3753
 5143SOL    HW227066   1.590   1.629   1.436 -1.4294  0.2900  1.0332
 5144SOL     OW27067   0.516   4.156  14.362  0.5696 -0.1430  0.3094
 5144SOL    HW127068   0.458   4.232  14.357  1.3639  0.5455  1.3575
 5144SOL    HW227069   0.500   4.100  14.287  1.2199  1.4011 -0.9961
 5145SOL     OW27070   3.484   1.745  13.652  0.1018  0.1519 -0.1105
 5145SOL    HW127071   3.469   1.653  13.671 -0.0080  0.2631  0.3398
 5145SOL    HW227072   3.407   1.792  13.684  0.3078  0.3662  0.0675
 5146SOL     OW27073   2.733   3.913  12.516 -0.0782 -1.1206 -0.5665
 5146SOL    HW127074   2.716   3.838  12.573  3.3793 -0.7900  0.9134
 5146SOL    HW227075   2.697   3.880  12.434 -0.5310 -1.2477 -0.3131
 5147SOL     OW27076   2.657   0.566   9.617  0.3799  0.1276 -1.0024
 5147SOL    HW127077   2.687   0.654   9.594  2.2796  0.3456  2.2599
 5147SOL    HW227078   2.564   0.584   9.630  0.3377 -0.0365 -1.0791
 5148SOL     OW27079   4.580   0.167   7.365  0.4444 -0.6911  0.1815
 5148SOL    HW127080   4.619   0.198   7.283 -1.8494  1.9965  0.0760
 5148SOL    HW227081   4.655   0.177   7.423 -0.1678 -0.0857  0.8847
 5149SOL     OW27082   2.141   0.920   4.863 -0.0685 -0.0345  0.4926
 5149SOL    HW127083   2.100   0.899   4.778 -0.7300  0.0465  0.7915
 5149SOL    HW227084   2.202   0.846   4.868 -0.9290 -0.7676  0.1423
 5150SOL     OW27085   1.900   0.448   4.195 -0.1497  0.0004 -0.0930
 5150SOL    HW127086   1.961   0.401   4.138 -0.2028 -1.5327  1.1067
 5150SOL    HW227087   1.944   0.430   4.278 -0.9783  0.4631  0.4496
 5151SOL     OW27088   2.970   3.365   7.060 -0.4449  0.3091 -0.0307
 5151SOL    HW127089   3.046   3.328   7.105 -1.5267 -1.7620  0.0940
 5151SOL    HW227090   2.911   3.289   7.055  0.4541 -0.6107  3.0173
 5152SOL     OW27091   1.261   2.063  12.735 -0.6080  0.5154  0.1061
 5152SOL    HW127092   1.348   2.056  12.774 -0.9167  2.9029  1.2219
 5152SOL    HW227093   1.276   2.126  12.665 -2.1984 -0.0904 -0.7687
 5153SOL     OW27094   4.681   3.091  13.901  0.5435 -0.2013  0.0176
 5153SOL    HW127095   0.011   3.051  13.953  1.3499  0.2664 -0.7043
 5153SOL    HW227096   4.737   3.143  13.843 -0.2965  1.9642  1.1468
 5154SOL     OW27097   3.416   0.231  12.272 -0.4654  0.1959 -0.5471
 5154SOL    HW127098   3.374   0.207  12.189  1.0886  2.1829 -1.9019
 5154SOL    HW227099   3.499   0.186  12.257 -0.7367 -0.3416 -0.4393
 5155SOL     OW27100   3.381   3.509   8.047  0.3271 -0.4887 -0.4565
 5155SOL    HW127101   3.462   3.523   7.997  0.5062 -1.7768 -0.5363
 5155SOL    HW227102   3.354   3.601   8.048 -0.2381 -0.6165 -2.3855
 5156SOL     OW27103   1.589   3.386   0.303  0.2623 -0.2390 -0.1735
 5156SOL    HW127104   1.656   3.317   0.301  0.5212  0.0576 -1.5797
 5156SOL    HW227105   1.627   3.461   0.257  4.3941 -1.1700  1.6625
 5157SOL     OW27106   4.490   0.819   2.384  0.5442  0.2452  0.1351
 5157SOL    HW127107   4.535   0.763   2.321 -2.0272 -1.5275 -0.1433
 5157SOL    HW227108   4.520   0.904   2.353  2.6993 -1.2746 -1.9617
 5158SOL     OW27109   1.169   0.672  15.203  0.5298  0.1365  0.0319
 5158SOL    HW127110   1.246   0.657  15.148 -1.2816 -0.4534 -2.3728
 5158SOL    HW227111   1.200   0.639  15.286  1.3791 -0.5545 -0.5633
 5159SOL     OW27112   4.062   2.370   8.447  1.3093 -0.0429  0.0896
 5159SOL    HW127113   4.017   2.361   8.532 -1.5253 -1.8496 -1.6101
 5159SOL    HW227114   4.152   2.362   8.480  0.2786 -0.9141  2.7292
 5160SOL     OW27115   3.588   0.589   3.299 -0.4823  0.6126  0.8226
 5160SOL    HW127116   3.632   0.580   3.384 -0.6102 -0.8977  0.7212
 5160SOL    HW227117   3.522   0.521   3.293 -0.0992  0.3550 -0.4368
 5161SOL     OW27118   0.755   0.493   6.822  0.4085  0.0918  0.0888
 5161SOL    HW127119   0.793   0.490   6.910  0.1668  0.0925  0.1937
 5161SOL    HW227120   0.666   0.525   6.833  0.6336  0.9266 -0.5167
 5162SOL     OW27121   0.657   2.781   7.327 -0.6770  0.1519  0.0286
 5162SOL    HW127122   0.738   2.778   7.378 -0.1405  2.8599 -0.6295
 5162SOL    HW227123   0.593   2.734   7.381 -2.7119  0.4187 -2.1000
 5163SOL     OW27124   1.780   4.487   2.671 -0.0127 -0.6405 -0.2170
 5163SOL    HW127125   1.812   4.455   2.586  0.9436 -1.3269  0.4150
 5163SOL    HW227126   1.743   4.568   2.635  2.9851  0.0927 -1.6307
 5164SOL     OW27127   4.275   1.186  15.467 -0.6064 -0.3106 -0.6471
 5164SOL    HW127128   4.258   1.159  15.376  0.2902 -0.2052 -0.8492
 5164SOL    HW227129   4.211   1.135  15.516 -0.6255  0.8425  0.5231
 5165SOL     OW27130   1.796   3.116   4.625  0.2179 -0.0063 -0.0549
 5165SOL    HW127131   1.867   3.082   4.571  0.4642 -0.5269  0.6126
 5165SOL    HW227132   1.723   3.125   4.563 -1.7988  1.9743  2.6079
 5166SOL     OW27133   4.031   0.928   8.572  0.1690 -0.4674  0.0239
 5166SOL    HW127134   3.949   0.939   8.620 -0.5974 -0.4815 -1.2646
 5166SOL    HW227135   4.094   0.942   8.643 -1.2028 -1.6329  1.4686
 5167SOL     OW27136   0.724   2.196   3.508 -0.0414  0.4069 -0.5098
 5167SOL    HW127137   0.819   2.189   3.497 -0.1299 -1.0296 -0.4073
 5167SOL    HW227138   0.697   2.133   3.442 -0.6812 -0.8253  0.9228
 5168SOL     OW27139   0.433   2.172   6.650 -0.7283 -0.1691  0.1916
 5168SOL    HW127140   0.376   2.177   6.573  0.5671  1.4003 -0.6480
 5168SOL    HW227141   0.458   2.080   6.649  1.2295  0.4361 -3.6144
 5169SOL     OW27142   1.343   0.445   0.218  0.0365  0.2373 -0.7093
 5169SOL    HW127143   1.351   0.491   0.301 -0.0425  0.6729 -0.9435
 5169SOL    HW227144   1.433   0.417   0.201  0.2083  0.7185 -0.5936
 5170SOL     OW27145   0.202   0.224   7.104  0.5455  0.2729  0.0452
 5170SOL    HW127146   0.293   0.227   7.135  0.4611  5.1321 -0.3014
 5170SOL    HW227147   0.161   0.299   7.147  0.6380  0.4239 -0.1359
 5171SOL     OW27148   4.126   2.389  16.181 -0.2950  0.0420 -0.0853
 5171SOL    HW127149   4.115   2.302  16.142  1.0089  0.8833 -2.3418
 5171SOL    HW227150   4.060   2.394  16.250  0.3981  5.1144  0.2287
 5172SOL     OW27151   0.996   4.688   9.310  0.5362 -0.1458 -0.1929
 5172SOL    HW127152   0.976   4.626   9.380 -0.7361  0.1882 -0.2520
 5172SOL    HW227153   0.902   4.698   9.290  0.0321 -0.2483  2.0901
 5173SOL     OW27154   3.536   2.115   4.481 -0.0446  0.2236 -0.1505
 5173SOL    HW127155   3.619   2.138   4.439 -0.3994  1.0523 -0.3926
 5173SOL    HW227156   3.568   2.044   4.538 -0.0170  0.7566  0.5021
 5174SOL     OW27157   1.887   1.870   7.521 -0.0825  0.1442  0.1701
 5174SOL    HW127158   1.893   1.866   7.616  3.2841  1.2110  0.0074
 5174SOL    HW227159   1.791   1.869   7.525 -0.0786  0.3125  0.3110
 5175SOL     OW27160   3.937   2.679   6.975  0.0821  0.1112 -0.1432
 5175SOL    HW127161   3.956   2.662   6.883  2.3613 -0.2733  0.3791
 5175SOL    HW227162   3.956   2.772   6.984  1.2081 -0.0237 -1.0756
 5176SOL     OW27163   3.431   4.530   8.894  0.3474  0.3070 -0.6050
 5176SOL    HW127164   3.344   4.565   8.911 -0.3533 -3.1118  2.7447
 5176SOL    HW227165   3.441   4.559   8.803  1.0500 -0.9087 -0.9049
 5177SOL     OW27166   1.535   2.347   2.555 -0.4194  1.0697 -0.1703
 5177SOL    HW127167   1.573   2.259   2.564  2.5148  2.1578 -1.9499
 5177SOL    HW227168   1.531   2.358   2.460  1.5789  0.6472 -0.3061
 5178SOL     OW27169   2.973   4.212   7.787 -0.5424 -0.4638 -0.1649
 5178SOL    HW127170   3.032   4.137   7.793 -0.5785 -0.4575  0.2261
 5178SOL    HW227171   2.889   4.170   7.765 -1.4628  0.6247  1.2767
 5179SOL     OW27172   0.641   4.490   3.591 -0.4113  0.6211 -1.1749
 5179SOL    HW127173   0.696   4.520   3.664 -2.1257 -2.1857  1.2591
 5179SOL    HW227174   0.615   4.404   3.624  1.5935  0.3932 -0.1775
 5180SOL     OW27175   4.719   3.663  17.732 -0.7368  0.1453 -0.0017
 5180SOL    HW127176   4.730   3.614  17.651  1.8352  0.3472  0.2466
 5180SOL    HW227177   4.633   3.698  17.708 -0.5016  1.3257  0.8470
 5181SOL     OW27178   2.117   2.984   7.216 -0.2364  0.0876  0.0797
 5181SOL    HW127179   2.099   2.922   7.287 -1.0982 -1.4480 -1.4729
 5181SOL    HW227180   2.212   2.980   7.226 -0.0449  1.6368 -1.2067
 5182SOL     OW27181   4.446   2.078  14.140  0.4990  0.4049 -0.5396
 5182SOL    HW127182   4.429   2.029  14.060 -0.5407  0.0372 -0.0903
 5182SOL    HW227183   4.466   2.163  14.099 -1.7340  0.7579 -0.8986
 5183SOL     OW27184   3.401   1.212   4.437 -0.0555  0.0155 -0.0147
 5183SOL    HW127185   3.383   1.291   4.488  0.5740  1.2119 -1.6650
 5183SOL    HW227186   3.313   1.175   4.428  0.4516 -1.2932  0.3466
 5184SOL     OW27187   4.512   3.364   3.215  0.4587  0.1306  0.1478
 5184SOL    HW127188   4.462   3.348   3.134  2.0002 -2.6729 -0.2749
 5184SOL    HW227189   4.602   3.356   3.183  0.5677 -0.5644  0.6364
 5185SOL     OW27190   2.473   3.404   9.605 -0.0187 -0.0795  0.6524
 5185SOL    HW127191   2.542   3.442   9.551  0.0411 -2.7702 -1.1812
 5185SOL    HW227192   2.417   3.479   9.621  1.1053  1.2543 -1.6957
 5186SOL     OW27193   2.535   4.627  17.508 -0.2101  0.4812  0.2566
 5186SOL    HW127194   2.555   4.571  17.584 -1.2608 -1.4870 -0.9234
 5186SOL    HW227195   2.441   4.639  17.520 -0.8312 -1.2949 -2.9854
 5187SOL     OW27196   3.696   2.184   1.771 -0.7634 -0.4241 -0.3053
 5187SOL    HW127197   3.632   2.164   1.839 -0.2531 -1.1187 -0.0306
 5187SOL    HW227198   3.744   2.103   1.758  0.5906  0.1628  1.0886
 5188SOL     OW27199   1.634   0.724   8.126 -0.0034 -0.0470 -0.2942
 5188SOL    HW127200   1.721   0.758   8.146 -0.3760  0.2168  0.8905
 5188SOL    HW227201   1.652   0.635   8.095 -1.4155  0.2954 -2.1369
 5189SOL     OW27202   2.251   3.254   8.845 -0.0430  0.4244  0.7314
 5189SOL    HW127203   2.290   3.169   8.865  2.0278  0.7712 -1.8367
 5189SOL    HW227204   2.171   3.244   8.897  0.9478 -0.9059  2.0011
 5190SOL     OW27205   1.069   3.958   8.055  0.0300 -0.9039 -0.6706
 5190SOL    HW127206   0.989   4.011   8.051  1.0577  0.5630 -1.6785
 5190SOL    HW227207   1.092   3.940   8.146 -0.8950  1.2176 -0.0103
 5191SOL     OW27208   1.850   3.964  12.192  0.7712 -0.1694  0.1517
 5191SOL    HW127209   1.898   3.937  12.270  1.5663  0.8888  0.0260
 5191SOL    HW227210   1.902   4.041  12.171  1.0291 -0.0701  1.1647
 5192SOL     OW27211   3.995   3.884  11.214  0.2589  0.0312 -0.2134
 5192SOL    HW127212   3.918   3.937  11.194 -1.4256 -2.3160  0.0250
 5192SOL    HW227213   4.077   3.930  11.200 -0.0810  0.5183 -0.6505
 5193SOL     OW27214   1.934   0.541   4.841  0.2701 -0.3110 -0.5693
 5193SOL    HW127215   1.938   0.500   4.927  1.7916  1.9713  0.4612
 5193SOL    HW227216   2.025   0.552   4.812  0.9140  1.5076  2.0792
 5194SOL     OW27217   2.602   3.762   3.014  0.3815  0.4069  0.4564
 5194SOL    HW127218   2.562   3.829   3.069  1.3532  1.3076  0.0507
 5194SOL    HW227219   2.678   3.737   3.067  0.0972 -0.3586  0.5116
 5195SOL     OW27220   2.218   3.907   1.218  0.4391 -0.0149  0.3198
 5195SOL    HW127221   2.132   3.901   1.259  0.8607  2.2289  1.5285
 5195SOL    HW227222   2.224   4.002   1.216 -1.5923  0.1322  1.8562
 5196SOL     OW27223   1.864   0.458   3.849  0.3258  0.1780 -0.4353
 5196SOL    HW127224   1.820   0.531   3.807 -0.8615 -0.2255  0.1099
 5196SOL    HW227225   1.958   0.464   3.832  0.5141 -1.6150 -0.0741
 5197SOL     OW27226   1.384   2.812   2.689  0.0925  0.0106 -0.1398
 5197SOL    HW127227   1.431   2.759   2.625 -2.2632  0.2450 -2.0554
 5197SOL    HW227228   1.447   2.816   2.761 -0.4783  1.4307  0.2831
 5198SOL     OW27229   0.714   3.130  15.793  0.0205 -0.6099  0.0995
 5198SOL    HW127230   0.678   3.181  15.721  1.1925  2.4792  1.6695
 5198SOL    HW227231   0.679   3.188  15.862  1.1104 -1.8404  1.6923
 5199SOL     OW27232   1.838   3.058   9.065  0.3839  0.6492  0.4460
 5199SOL    HW127233   1.748   3.088   9.052  0.8422  1.8586  0.0478
 5199SOL    HW227234   1.828   2.987   9.128  0.5188 -1.5904 -2.0822
 5200SOL     OW27235   2.251   4.091   4.141  0.4064 -0.1117  0.4723
 5200SOL    HW127236   2.272   4.020   4.202  0.7713  0.8386  1.4455
 5200SOL    HW227237   2.194   4.058   4.072 -1.7697  1.1371  1.7024
 5201SOL     OW27238   0.688   2.667   3.477 -0.3048  0.0389  0.0674
 5201SOL    HW127239   0.775   2.706   3.487 -0.7113  0.9170  0.1696
 5201SOL    HW227240   0.648   2.678   3.563 -1.2082  0.2703 -0.3867
 5202SOL     OW27241   3.516   3.251   8.457 -0.0863 -0.1923  0.1926
 5202SOL    HW127242   3.469   3.299   8.390 -0.3229  0.6688  0.9737
 5202SOL    HW227243   3.475   3.164   8.463  0.9931 -0.6810  0.4742
 5203SOL     OW27244   3.493   1.335  15.812  0.2941 -0.0459 -0.5430
 5203SOL    HW127245   3.505   1.258  15.755  1.3868  1.6008 -2.5743
 5203SOL    HW227246   3.566   1.390  15.782  0.0967 -0.2740 -1.4478
 5204SOL     OW27247   0.660   2.867   1.225  0.5096  0.2764  0.1784
 5204SOL    HW127248   0.580   2.827   1.190  0.7739 -0.3549  0.2833
 5204SOL    HW227249   0.719   2.864   1.150 -1.3871 -1.6435 -1.2321
 5205SOL     OW27250   4.244   3.516   7.476 -0.1038 -0.4693 -0.0661
 5205SOL    HW127251   4.271   3.537   7.387  3.0416  2.4664  1.5830
 5205SOL    HW227252   4.289   3.433   7.491  0.1017 -0.2573  0.4951
 5206SOL     OW27253   3.450   1.741   6.362  0.0723 -0.2729  0.6366
 5206SOL    HW127254   3.454   1.766   6.454 -1.9873 -2.2486  1.2639
 5206SOL    HW227255   3.457   1.647   6.375 -0.4557 -0.3209  0.6063
 5207SOL     OW27256   0.192   1.760  13.201 -0.3060  0.6045  0.4138
 5207SOL    HW127257   0.168   1.673  13.233  0.6419  0.4417  0.6850
 5207SOL    HW227258   0.173   1.740  13.109  1.8514 -1.8766  0.4960
 5208SOL     OW27259   2.564   3.932   1.634 -0.4049  0.1046  0.2597
 5208SOL    HW127260   2.563   3.838   1.616  2.1758  0.0243  0.4593
 5208SOL    HW227261   2.501   3.943   1.704 -0.6594  2.1888 -0.2795
 5209SOL     OW27262   1.840   2.380  12.007 -0.2376  0.5793  0.1707
 5209SOL    HW127263   1.868   2.445  12.071 -0.6953  0.1839  0.7714
 5209SOL    HW227264   1.745   2.369  12.014 -0.3713  0.6683 -1.4569
 5210SOL     OW27265   4.510   0.566   8.563  0.1987  0.1360  0.4275
 5210SOL    HW127266   4.601   0.579   8.537 -0.0554 -0.8412 -0.9618
 5210SOL    HW227267   4.469   0.557   8.476 -0.5644 -0.3724  0.8428
 5211SOL     OW27268   3.869   1.187   4.129 -0.2097  0.9857 -0.4100
 5211SOL    HW127269   3.787   1.159   4.170  1.0630 -0.3325  1.2481
 5211SOL    HW227270   3.870   1.272   4.172  1.2173  0.9866 -0.4314
 5212SOL     OW27271   4.376   4.343  13.830  0.2208 -0.3144 -0.3084
 5212SOL    HW127272   4.286   4.324  13.855  1.2414 -0.2889  3.3371
 5212SOL    HW227273   4.427   4.300  13.898 -1.1648  0.4856  1.2175
 5213SOL     OW27274   2.971   3.421  16.199 -0.3058 -0.1950 -0.5080
 5213SOL    HW127275   3.063   3.421  16.176 -0.5483 -1.1128 -1.4393
 5213SOL    HW227276   2.975   3.512  16.230  1.1052 -0.6070  0.4795
 5214SOL     OW27277   0.022   1.322   5.312  0.1253  0.3742 -0.0717
 5214SOL    HW127278   4.713   1.241   5.326 -0.6464  1.0371  1.0446
 5214SOL    HW227279   0.085   1.305   5.382 -0.7297 -2.5661 -0.0342
 5215SOL     OW27280   0.317   2.507   5.635  0.0513 -0.4811  0.7174
 5215SOL    HW127281   0.281   2.594   5.655  0.5545 -0.0092 -0.4617
 5215SOL    HW227282   0.284   2.436   5.691 -1.3683 -0.1272  0.3350
 5216SOL     OW27283   1.566   3.972   8.814  0.6567  0.0100  0.1854
 5216SOL    HW127284   1.530   4.042   8.760  1.3256 -1.2391 -1.9070
 5216SOL    HW227285   1.600   3.909   8.750 -0.7049 -1.1531  0.5896
 5217SOL     OW27286   0.156   1.244   9.465  0.2533 -0.0183 -0.2663
 5217SOL    HW127287   0.250   1.261   9.455  1.0303 -2.7647  2.4221
 5217SOL    HW227288   0.125   1.310   9.403  1.2850  2.0329  1.3781
 5218SOL     OW27289   4.185   2.169  11.425 -0.2795  0.1000  0.4604
 5218SOL    HW127290   4.213   2.258  11.447 -1.1969  0.7543 -0.9638
 5218SOL    HW227291   4.219   2.175  11.336 -2.6547 -3.8630 -0.6901
 5219SOL     OW27292   0.235   1.036   8.256 -0.0270 -0.4576 -0.3571
 5219SOL    HW127293   0.187   0.986   8.190 -2.1564  0.5088  0.4347
 5219SOL    HW227294   0.195   1.123   8.264  0.0391 -0.4796  0.2395
 5220SOL     OW27295   4.647   2.914   5.515 -0.1195 -0.3055 -0.3733
 5220SOL    HW127296   4.664   2.938   5.424 -1.1726 -1.4277 -0.8730
 5220SOL    HW227297   4.557   2.947   5.523 -0.2307 -0.8232  0.5317
 5221SOL     OW27298   0.711   0.556   1.069 -0.5749  0.6782  0.0819
 5221SOL    HW127299   0.679   0.585   0.984 -2.6137 -1.5017  0.1158
 5221SOL    HW227300   0.672   0.469   1.073 -1.7739  1.2448  0.8865
 5222SOL     OW27301   4.721   0.952   8.694 -0.0217 -0.5307  0.1192
 5222SOL    HW127302   0.018   0.936   8.607  2.4518  1.6428  0.7689
 5222SOL    HW227303   4.708   0.862   8.722 -0.1069 -1.2013 -2.0545
 5223SOL     OW27304   1.069   1.623  14.329 -0.2135 -0.9504  0.0646
 5223SOL    HW127305   1.086   1.706  14.285 -1.4660 -1.1881 -0.8892
 5223SOL    HW227306   1.123   1.636  14.407  1.0647 -1.7697 -0.6778
 5224SOL     OW27307   0.802   2.752   3.997 -0.4709  0.0625 -1.0148
 5224SOL    HW127308   0.843   2.678   4.043 -0.9410  0.4733  0.0609
 5224SOL    HW227309   0.877   2.779   3.944 -0.2750  0.3359 -0.5980
 5225SOL     OW27310   0.076   0.605   3.646 -0.2474  0.0365  0.6192
 5225SOL    HW127311   0.015   0.556   3.591 -1.1818  0.3256  1.3987
 5225SOL    HW227312   0.130   0.648   3.579 -2.4365  0.3264 -0.9765
 5226SOL     OW27313   2.659   1.291   1.709  0.4547 -0.1000 -0.4163
 5226SOL    HW127314   2.604   1.350   1.657 -0.2750 -2.2474 -2.0768
 5226SOL    HW227315   2.662   1.345   1.788  1.5980  0.6523 -0.9636
 5227SOL     OW27316   1.829   1.732  15.645 -0.0745  0.1324 -0.5177
 5227SOL    HW127317   1.830   1.689  15.560  0.6573 -0.8762 -0.0005
 5227SOL    HW227318   1.753   1.689  15.684  0.1320  0.5446  0.3403
 5228SOL     OW27319   0.592   0.497   7.204  0.1571 -0.0086  0.4606
 5228SOL    HW127320   0.580   0.465   7.293  0.2232  0.6606  0.7063
 5228SOL    HW227321   0.621   0.418   7.159 -2.6123 -0.2683 -0.8622
 5229SOL     OW27322   1.864   3.503  13.112 -0.1315 -0.3087  0.3895
 5229SOL    HW127323   1.797   3.557  13.071 -1.9998 -1.8163  1.3990
 5229SOL    HW227324   1.830   3.468  13.195  2.2102 -0.7962  1.1289
 5230SOL     OW27325   4.367   4.247  13.418 -0.0460 -0.3009  0.2418
 5230SOL    HW127326   4.436   4.256  13.483 -0.5589  0.8757  0.6214
 5230SOL    HW227327   4.369   4.153  13.397  0.4301 -0.0004 -1.0506
 5231SOL     OW27328   4.517   4.090   7.723 -0.4194 -0.5424  0.6064
 5231SOL    HW127329   4.479   4.011   7.761  1.7257 -1.5882  0.5138
 5231SOL    HW227330   4.478   4.156   7.780  2.5147  0.6708  1.1566
 5232SOL     OW27331   4.038   1.053   7.602 -0.0235 -0.1900 -0.0294
 5232SOL    HW127332   3.973   1.038   7.533  1.0782 -3.3532 -0.3581
 5232SOL    HW227333   4.008   1.138   7.634 -0.2695 -0.3039  0.0466
 5233SOL     OW27334   0.666   1.415   0.600 -0.0454 -0.3650  0.1737
 5233SOL    HW127335   0.574   1.433   0.580 -0.3007 -1.9529 -0.0978
 5233SOL    HW227336   0.667   1.407   0.696 -1.6819 -1.3616  0.1126
 5234SOL     OW27337   1.752   1.003   0.292  0.4881  0.1634 -0.3493
 5234SOL    HW127338   1.669   1.022   0.249 -1.4680 -3.9858  1.6832
 5234SOL    HW227339   1.815   1.040   0.230 -0.9874 -0.1129 -2.0059
 5235SOL     OW27340   1.125   0.270   7.318 -0.3731 -0.3510 -0.1087
 5235SOL    HW127341   1.174   0.284   7.398 -0.7984 -4.2688  0.8341
 5235SOL    HW227342   1.176   0.216   7.257  0.4190 -0.4458  0.6488
 5236SOL     OW27343   3.657   3.086   5.231  0.6849 -0.0344  0.3882
 5236SOL    HW127344   3.649   2.992   5.216 -0.6351  0.1978 -0.3748
 5236SOL    HW227345   3.735   3.079   5.286  0.5652 -0.9108  0.4351
 5237SOL     OW27346   3.278   4.721   8.356 -0.4355  0.1186  0.4641
 5237SOL    HW127347   3.293   0.046   8.426  1.5740  0.7053 -0.5273
 5237SOL    HW227348   3.366   4.728   8.320 -1.0044 -0.8187 -1.0810
 5238SOL     OW27349   4.670   0.461  17.376  0.1234 -0.3384  0.4780
 5238SOL    HW127350   4.667   0.404  17.453 -0.2067 -0.1205  0.6290
 5238SOL    HW227351   4.607   0.530  17.395 -3.2735 -3.6010  1.1563
 5239SOL     OW27352   2.733   4.678   7.626  0.3236 -0.4204  0.1030
 5239SOL    HW127353   2.655   4.662   7.680 -0.5059 -1.6243 -1.4342
 5239SOL    HW227354   2.800   4.660   7.692  1.1379 -4.4007 -1.8392
 5240SOL     OW27355   2.716   2.960   7.806 -0.2214 -0.3007 -0.4426
 5240SOL    HW127356   2.735   2.868   7.822 -1.8056 -0.7805 -1.2837
 5240SOL    HW227357   2.802   3.002   7.812 -0.1380 -0.5347 -0.0415
 5241SOL     OW27358   3.110   4.283   6.382  0.5048  0.1179 -0.4675
 5241SOL    HW127359   3.189   4.241   6.417 -0.0207 -1.4351 -1.1425
 5241SOL    HW227360   3.085   4.229   6.307  0.7351  0.0843 -0.5200
 5242SOL     OW27361   0.053   4.714   8.099  0.3994  0.1485 -0.0620
 5242SOL    HW127362   0.108   4.643   8.067  2.6774  0.1574  3.8779
 5242SOL    HW227363   0.109   0.010   8.168  1.1399 -1.6963  0.2952
 5243SOL     OW27364   4.051   1.453   3.280 -0.2501 -0.5316 -0.7640
 5243SOL    HW127365   4.137   1.475   3.316 -0.0698  0.2465 -1.6922
 5243SOL    HW227366   4.001   1.534   3.276 -2.6423 -1.9764 -0.0117
 5244SOL     OW27367   0.107   4.530   3.113 -0.3115  0.1750 -0.0523
 5244SOL    HW127368   0.184   4.511   3.059  2.3750  2.6972  2.8956
 5244SOL    HW227369   0.093   4.449   3.162 -1.0947 -0.5541 -1.4551
 5245SOL     OW27370   0.678   2.012   3.710 -0.3905  0.1435 -0.3374
 5245SOL    HW127371   0.595   1.966   3.723 -1.0338  1.2642 -0.4609
 5245SOL    HW227372   0.656   2.079   3.645  0.5947  0.9841  0.1988
 5246SOL     OW27373   1.416   1.044  16.706  0.1409 -0.3381  0.6185
 5246SOL    HW127374   1.367   1.069  16.784 -0.7878  0.6117 -0.2711
 5246SOL    HW227375   1.377   0.959  16.682  1.2704 -1.0736  1.4059
 5247SOL     OW27376   3.783   1.943  14.022 -0.3039  0.2377 -0.5132
 5247SOL    HW127377   3.873   1.915  14.037 -0.4906  0.1692  0.4777
 5247SOL    HW227378   3.776   1.945  13.926  3.1602  0.5934 -0.7435
 5248SOL     OW27379   0.285   3.151   2.151 -0.3536  0.5537  0.2148
 5248SOL    HW127380   0.216   3.123   2.092  0.5871 -1.4661  0.0589
 5248SOL    HW227381   0.345   3.078   2.135 -0.2266  0.6503  0.2472
 5249SOL     OW27382   0.345   3.286   6.375 -0.0943  0.1833  0.2550
 5249SOL    HW127383   0.263   3.310   6.418 -0.7664  1.4370 -1.7084
 5249SOL    HW227384   0.329   3.302   6.282  1.1901 -1.2967 -0.2155
 5250SOL     OW27385   0.387   3.532   4.375  0.5884 -0.0532  0.8753
 5250SOL    HW127386   0.414   3.621   4.398  1.0721  0.3997 -1.4373
 5250SOL    HW227387   0.456   3.504   4.315  0.8791  3.4628 -0.4077
 5251SOL     OW27388   3.651   1.845   9.442  0.1723  0.2393  0.2415
 5251SOL    HW127389   3.581   1.798   9.397  1.4353 -0.2469 -1.2067
 5251SOL    HW227390   3.616   1.869   9.528  0.6070 -0.5507  0.6430
 5252SOL     OW27391   1.960   2.728  17.536  0.5185 -0.2387 -0.2979
 5252SOL    HW127392   1.994   2.652  17.490  0.5609  0.0753 -0.7797
 5252SOL    HW227393   2.021   2.730  17.610  1.0757 -0.9014 -0.7427
 5253SOL     OW27394   3.849   1.178   6.646 -0.3600 -0.2960  0.3456
 5253SOL    HW127395   3.938   1.143   6.639 -0.7804 -0.9987 -1.4400
 5253SOL    HW227396   3.866   1.269   6.668  0.3639 -0.6440  1.2279
 5254SOL     OW27397   0.650   1.090   5.730 -0.1705 -0.4009 -0.0004
 5254SOL    HW127398   0.715   1.062   5.666 -0.7849 -0.7306 -0.4794
 5254SOL    HW227399   0.703   1.106   5.808  0.4386  0.1429 -0.5261
 5255SOL     OW27400   0.472   3.706  11.456 -0.2213  0.8567  0.2503
 5255SOL    HW127401   0.457   3.799  11.475  1.4666  0.8370  1.6379
 5255SOL    HW227402   0.389   3.675  11.419 -0.0764 -1.3235  1.7036
 5256SOL     OW27403   1.207   0.787   5.012  0.4179 -0.3356 -0.9203
 5256SOL    HW127404   1.267   0.846   4.966  0.1767  2.1118  1.8365
 5256SOL    HW227405   1.229   0.695   4.998  0.8807 -0.6286  1.6926
 5257SOL     OW27406   0.921   4.562   9.552 -0.1357  0.0833  0.4138
 5257SOL    HW127407   0.891   4.510   9.477  1.9426  0.8553 -0.9560
 5257SOL    HW227408   0.905   4.509   9.630  1.2766 -0.1515  0.5472
 5258SOL     OW27409   2.082   0.571   6.228  0.3145 -0.1384 -0.7567
 5258SOL    HW127410   2.062   0.586   6.136  0.1012 -0.1220 -0.7082
 5258SOL    HW227411   1.997   0.578   6.273  0.8795 -2.0447  0.6154
 5259SOL     OW27412   0.891   0.077   6.047  0.8185 -0.1595  0.4120
 5259SOL    HW127413   0.978   0.090   6.007  0.7741 -1.9954 -0.2733
 5259SOL    HW227414   0.850   0.012   5.990  1.3406 -0.3789  0.2824
 5260SOL     OW27415   1.715   2.023   5.989 -0.1791 -0.4717  0.3593
 5260SOL    HW127416   1.773   1.948   6.001  0.8830  0.6223  2.1450
 5260SOL    HW227417   1.754   2.054   5.907 -0.3069  3.0267  1.6265
 5261SOL     OW27418   2.169   0.760   1.733 -0.1358  0.2160  0.2878
 5261SOL    HW127419   2.170   0.726   1.643 -0.5708  0.5961  0.1410
 5261SOL    HW227420   2.236   0.706   1.774  0.6049  0.7636 -0.1942
 5262SOL     OW27421   4.057   1.350   8.525 -0.3947  0.0127  0.7626
 5262SOL    HW127422   4.046   1.356   8.620 -2.4112  1.1037  0.4725
 5262SOL    HW227423   4.134   1.294   8.527  0.3693  1.0178 -0.6395
 5263SOL     OW27424   3.594   2.738  15.115 -0.2552 -0.1203 -0.3791
 5263SOL    HW127425   3.566   2.667  15.172  0.1771  1.0625  1.2933
 5263SOL    HW227426   3.535   2.735  15.040 -1.5677  2.5474  0.5462
 5264SOL     OW27427   2.086   1.879   2.180 -0.0114 -0.5594  0.4319
 5264SOL    HW127428   2.057   1.889   2.271 -1.6481  2.1970 -0.3833
 5264SOL    HW227429   2.116   1.790   2.164  0.4839 -0.1308 -1.0082
 5265SOL     OW27430   4.561   1.528   5.877  0.0166  0.6661 -0.2868
 5265SOL    HW127431   4.638   1.576   5.847  0.5899  0.2098  0.4670
 5265SOL    HW227432   4.496   1.570   5.820 -0.6540 -0.5483 -0.4132
 5266SOL     OW27433   1.614   3.604   3.030  0.0461  0.9382 -0.6616
 5266SOL    HW127434   1.653   3.555   3.102  0.8872  0.8409 -1.1804
 5266SOL    HW227435   1.682   3.609   2.962  1.5865 -0.5405  0.7759
 5267SOL     OW27436   2.143   4.119   9.296 -0.1486  0.1380 -0.2322
 5267SOL    HW127437   2.218   4.076   9.338 -0.4229 -0.8330 -0.7490
 5267SOL    HW227438   2.074   4.053   9.301  0.3308 -0.3952 -0.5878
 5268SOL     OW27439   1.914   1.398  14.533 -0.1113  0.0158  0.4386
 5268SOL    HW127440   1.883   1.340  14.464 -2.6139  0.8985  0.8121
 5268SOL    HW227441   1.937   1.473  14.479 -0.5373  0.6194  1.0921
 5269SOL     OW27442   4.056   4.190   8.314  0.5435  0.2911 -0.2896
 5269SOL    HW127443   3.991   4.255   8.337  1.3174  0.2758  1.8875
 5269SOL    HW227444   4.101   4.183   8.398  0.0066 -0.1056 -0.0353
 5270SOL     OW27445   0.958   0.962   3.800  0.1731 -0.2140  0.2547
 5270SOL    HW127446   1.027   0.961   3.866  0.3837 -2.1764  0.0119
 5270SOL    HW227447   0.994   0.916   3.725 -2.2702 -1.0497 -0.4148
 5271SOL     OW27448   0.681   2.401   7.193  0.0835  0.3501  0.5397
 5271SOL    HW127449   0.605   2.458   7.205 -2.0647 -1.9073 -2.3407
 5271SOL    HW227450   0.692   2.386   7.287 -3.1352 -0.4537  0.7880
 5272SOL     OW27451   2.698   0.231  16.304  0.2426 -0.0459 -0.3085
 5272SOL    HW127452   2.723   0.149  16.347  1.0330  0.8568  0.9598
 5272SOL    HW227453   2.731   0.229  16.214 -0.3815 -0.8904 -0.5224
 5273SOL     OW27454   1.911   2.211   6.741 -0.0511  0.0513 -0.1824
 5273SOL    HW127455   1.956   2.149   6.797  0.9092  0.6217 -0.3337
 5273SOL    HW227456   1.849   2.152   6.697 -0.3795  0.1373  0.1653
 5274SOL     OW27457   1.028   4.453  16.922  0.7110 -1.1030 -0.8221
 5274SOL    HW127458   1.123   4.448  16.926  0.8924  1.3803 -2.5832
 5274SOL    HW227459   1.008   4.409  16.839  1.8536 -3.4197  0.1236
 5275SOL     OW27460   2.623   0.268  13.685  0.3407  0.4731  0.3938
 5275SOL    HW127461   2.574   0.350  13.675 -0.7475 -0.0652  1.3032
 5275SOL    HW227462   2.679   0.282  13.761  0.9607 -0.8306  0.1805
 5276SOL     OW27463   4.703   3.486  14.037 -0.5543 -0.1369  0.2623
 5276SOL    HW127464   0.007   3.477  13.952  1.5521 -3.9620  1.7815
 5276SOL    HW227465   0.015   3.554  14.079 -1.5163  0.3001  0.7358
 5277SOL     OW27466   1.105   0.327  16.916 -0.2213  0.4505 -0.4634
 5277SOL    HW127467   1.021   0.336  16.959  1.4761  0.1559  2.9463
 5277SOL    HW227468   1.145   0.245  16.947 -2.1832 -1.0025 -1.7399
 5278SOL     OW27469   3.749   0.247  16.161 -0.8335  0.0098 -0.2711
 5278SOL    HW127470   3.722   0.288  16.243 -0.2468 -1.0377  0.4385
 5278SOL    HW227471   3.837   0.286  16.163 -1.0100  0.3479  1.1121
 5279SOL     OW27472   2.581   2.879   2.297  0.0693 -0.0519  0.5393
 5279SOL    HW127473   2.510   2.941   2.284  1.8423  1.7748 -0.2501
 5279SOL    HW227474   2.552   2.833   2.376 -0.5540  0.1825  0.4393
 5280SOL     OW27475   0.252   0.175   4.795 -0.2233 -0.1555 -0.3192
 5280SOL    HW127476   0.316   0.196   4.863  0.2213  0.3807 -0.8977
 5280SOL    HW227477   0.214   0.109   4.853  1.8715 -0.9521  0.1665
 5281SOL     OW27478   1.733   1.585   3.951 -0.4244 -0.5830 -0.2668
 5281SOL    HW127479   1.800   1.571   4.019 -0.1046 -2.1262 -0.8967
 5281SOL    HW227480   1.667   1.623   4.009  1.3274  1.6279  0.2792
 5282SOL     OW27481   3.845   1.549   2.200  1.0744 -0.9966 -0.7927
 5282SOL    HW127482   3.787   1.610   2.245  2.5329  0.1158 -0.4329
 5282SOL    HW227483   3.812   1.466   2.235  0.5773 -0.5784 -0.2699
 5283SOL     OW27484   3.384   4.521   1.310  0.1849  0.1444 -0.1528
 5283SOL    HW127485   3.419   4.562   1.389 -0.4331 -2.9134  1.7121
 5283SOL    HW227486   3.402   4.429   1.329  1.9131  0.1084 -1.9787
 5284SOL     OW27487   2.159   0.513   8.873  0.8007  0.1304  0.3728
 5284SOL    HW127488   2.144   0.516   8.778 -0.1771 -0.7578  0.4899
 5284SOL    HW227489   2.077   0.550   8.907 -0.1743 -1.5548 -0.1240
 5285SOL     OW27490   2.156   4.383   9.261 -0.4372  0.7587 -0.3172
 5285SOL    HW127491   2.236   4.369   9.210 -1.8156 -2.2875 -1.6549
 5285SOL    HW227492   2.142   4.295   9.295 -3.4355  1.7930  1.1828
 5286SOL     OW27493   3.471   3.080   3.750  0.5910  0.3228  0.3504
 5286SOL    HW127494   3.452   3.072   3.657 -0.0543 -2.5270  0.7406
 5286SOL    HW227495   3.507   2.992   3.759  0.2247  0.1236 -0.1493
 5287SOL     OW27496   0.571   4.276  15.413 -0.4240 -0.0976 -0.9094
 5287SOL    HW127497   0.532   4.232  15.489 -0.2464 -0.3684 -0.9780
 5287SOL    HW227498   0.498   4.316  15.366  1.0965  0.2042 -3.0172
 5288SOL     OW27499   2.549   4.671   2.663 -0.2617  0.5500  0.3642
 5288SOL    HW127500   2.544   0.014   2.614 -0.4037  1.0057  1.1401
 5288SOL    HW227501   2.644   4.668   2.671 -0.3891  2.8297  3.0386
 5289SOL     OW27502   4.130   1.176   6.660 -0.3215  0.5642  0.4737
 5289SOL    HW127503   4.142   1.082   6.649 -0.9554  0.1322  3.4363
 5289SOL    HW227504   4.115   1.174   6.754 -2.0571  0.6603  0.1920
 5290SOL     OW27505   2.790   0.509  17.108  0.0496 -0.4527  0.5142
 5290SOL    HW127506   2.846   0.519  17.185 -2.9488  1.3609  2.4636
 5290SOL    HW227507   2.741   0.591  17.116  2.6652  1.1011  0.5047
 5291SOL     OW27508   0.075   1.109   7.959 -0.1012  0.1238 -0.7210
 5291SOL    HW127509   0.084   1.064   7.875 -0.2569 -0.7418 -0.2667
 5291SOL    HW227510   4.720   1.123   7.961 -0.0504  0.3931 -0.1407
 5292SOL     OW27511   4.442   3.040   8.911  0.0996 -0.0025 -0.0833
 5292SOL    HW127512   4.449   3.131   8.882  0.5051 -0.0135 -0.0178
 5292SOL    HW227513   4.535   3.018   8.904 -0.0936 -0.8963  0.1137
 5293SOL     OW27514   3.883   0.140   5.965 -0.4399  0.2155  0.0430
 5293SOL    HW127515   3.899   0.180   5.880 -1.0991 -1.0749 -0.6810
 5293SOL    HW227516   3.794   0.172   5.980 -0.3060 -1.4377  4.3788
 5294SOL     OW27517   2.797   2.463   7.197 -0.1854  0.1477  0.0533
 5294SOL    HW127518   2.713   2.454   7.152  0.3095 -1.1026 -0.6309
 5294SOL    HW227519   2.851   2.461   7.117  0.5620  1.1615  0.5222
 5295SOL     OW27520   2.507   0.334   1.886 -0.1415  0.3148  0.2533
 5295SOL    HW127521   2.487   0.365   1.798 -0.5642 -2.0890 -0.4870
 5295SOL    HW227522   2.441   0.391   1.925  0.7391  2.0038 -0.6966
 5296SOL     OW27523   4.007   3.995  12.310 -0.1673  0.6310  0.5139
 5296SOL    HW127524   4.040   4.067  12.365 -2.3137  2.3893 -0.4971
 5296SOL    HW227525   3.994   3.925  12.374 -1.9745 -0.1990 -0.7687
 5297SOL     OW27526   0.195   2.850   2.344  0.5767  0.7268  0.3431
 5297SOL    HW127527   0.274   2.828   2.394  1.9224  0.3384 -1.9338
 5297SOL    HW227528   0.235   2.893   2.268  2.4983  0.3022  1.0947
 5298SOL     OW27529   0.879   2.690   8.632  0.3600 -0.4144 -0.5403
 5298SOL    HW127530   0.858   2.657   8.720  1.0299  0.3518 -0.0892
 5298SOL    HW227531   0.951   2.631   8.612  0.4612 -0.4266 -0.1569
 5299SOL     OW27532   3.240   3.187   0.785 -0.4315  0.2196 -0.0025
 5299SOL    HW127533   3.319   3.237   0.763  0.5425 -0.3234  2.2393
 5299SOL    HW227534   3.273   3.098   0.799 -3.0312 -0.9938 -1.6012
 5300SOL     OW27535   1.659   2.407   1.148  0.2476  0.2775  0.2426
 5300SOL    HW127536   1.699   2.459   1.078 -1.3021 -0.0250 -0.8612
 5300SOL    HW227537   1.653   2.323   1.102  0.6337  0.5738 -0.3583
 5301SOL     OW27538   2.388   3.883   5.138 -0.3810  0.7549 -0.0550
 5301SOL    HW127539   2.312   3.852   5.089 -0.7682  0.7053  0.5744
 5301SOL    HW227540   2.356   3.866   5.227  1.3041  0.4594  0.5030
 5302SOL     OW27541   2.975   1.101  12.458 -0.2705  0.3766 -0.4350
 5302SOL    HW127542   2.924   1.177  12.486 -0.8296 -0.5215  0.9474
 5302SOL    HW227543   2.952   1.036  12.524 -0.1844 -0.8596 -1.6274
 5303SOL     OW27544   3.753   2.659   8.731 -0.2463  0.2570  0.1670
 5303SOL    HW127545   3.802   2.586   8.693 -0.7753 -0.9032  1.7206
 5303SOL    HW227546   3.808   2.736   8.745  0.5480 -0.1459 -0.7696
 5304SOL     OW27547   1.945   0.203   7.412  0.1679 -0.1897 -0.4168
 5304SOL    HW127548   1.874   0.188   7.474  0.7222 -0.8681  0.0640
 5304SOL    HW227549   1.956   0.116   7.373 -2.6046 -0.6280 -0.2267
 5305SOL     OW27550   3.424   4.344   0.340 -0.0721 -0.0277 -0.3319
 5305SOL    HW127551   3.471   4.347   0.423  1.4956  2.4418 -1.3156
 5305SOL    HW227552   3.463   4.267   0.299  1.1404  0.2250  0.3511
 5306SOL     OW27553   1.770   4.113   6.357  1.4206  0.2595 -0.0627
 5306SOL    HW127554   1.722   4.197   6.358  2.6319  0.9460  0.0993
 5306SOL    HW227555   1.699   4.048   6.355  1.8326 -0.2565  1.8428
 5307SOL     OW27556   3.730   1.968   3.328 -0.0237 -0.1012 -0.6466
 5307SOL    HW127557   3.818   2.005   3.338 -0.4041  0.9774 -1.2764
 5307SOL    HW227558   3.716   1.924   3.412 -3.2989  1.8443 -0.1834
 5308SOL     OW27559   0.398   1.200   6.849  0.1950  0.8064 -0.8232
 5308SOL    HW127560   0.358   1.127   6.801  1.1164  0.8397 -1.6279
 5308SOL    HW227561   0.354   1.269   6.801  0.8101  0.6307 -1.6284
 5309SOL     OW27562   4.502   4.679  13.443  0.3910  0.2540 -0.0494
 5309SOL    HW127563   4.554   4.599  13.449  1.4343  1.0631  1.5228
 5309SOL    HW227564   4.499   4.700  13.349  0.3183  1.5403  0.2410
 5310SOL     OW27565   2.090   3.068   0.361  0.2309 -0.2222  0.5617
 5310SOL    HW127566   2.142   3.007   0.308  0.3132  2.0491 -1.9662
 5310SOL    HW227567   2.076   3.146   0.307 -1.0054 -2.5174 -2.3608
 5311SOL     OW27568   3.344   3.438   6.957 -0.0595 -0.5731  0.8099
 5311SOL    HW127569   3.365   3.523   6.994  0.4128 -0.1358 -0.4479
 5311SOL    HW227570   3.249   3.442   6.943 -0.0405  1.4639  1.3760
 5312SOL     OW27571   2.411   4.372   2.945  0.6028  0.0858  0.9196
 5312SOL    HW127572   2.504   4.395   2.940  0.7096 -0.3222  1.0815
 5312SOL    HW227573   2.386   4.385   2.853  1.0093  0.9532  0.9263
 5313SOL     OW27574   2.598   3.241   4.111 -0.3108 -0.1339 -0.2430
 5313SOL    HW127575   2.639   3.172   4.059 -0.8119 -1.0391  0.5764
 5313SOL    HW227576   2.668   3.306   4.111 -0.8993  0.5055 -0.8504
 5314SOL     OW27577   0.106   3.866   5.566 -0.5319 -0.4018 -0.1840
 5314SOL    HW127578   0.095   3.881   5.660 -1.0540 -1.0217 -0.1499
 5314SOL    HW227579   0.035   3.805   5.547  0.1208 -1.0711 -0.4556
 5315SOL     OW27580   2.772   4.335   7.366  0.1629 -0.1099 -0.0885
 5315SOL    HW127581   2.745   4.307   7.279 -0.1519  0.6139 -0.2269
 5315SOL    HW227582   2.778   4.431   7.364  1.1327 -0.1212  1.6414
 5316SOL     OW27583   2.188   0.532   4.742 -0.1595  0.1358 -0.0389
 5316SOL    HW127584   2.262   0.478   4.714 -0.7264 -0.6773  0.0338
 5316SOL    HW227585   2.165   0.579   4.662  3.0241  2.7929  0.5931
 5317SOL     OW27586   1.443   0.831   7.623 -0.2413  0.2370 -0.1716
 5317SOL    HW127587   1.450   0.847   7.529  0.1961  0.3356 -0.1254
 5317SOL    HW227588   1.453   0.920   7.657 -3.5519  0.7101 -0.4025
 5318SOL     OW27589   2.340   4.615   7.321  0.2736  0.0745  0.4156
 5318SOL    HW127590   2.277   4.631   7.391  0.2219 -0.0385  0.3943
 5318SOL    HW227591   2.392   4.695   7.320 -1.8484  1.4525  1.8548
 5319SOL     OW27592   0.939   0.829  11.759  0.3986  0.4130  0.2537
 5319SOL    HW127593   0.863   0.870  11.718 -0.3799 -0.6847  0.5881
 5319SOL    HW227594   0.963   0.883  11.834 -0.2085 -0.2102  0.8865
 5320SOL     OW27595   3.315   0.043   1.916 -0.0807  0.1443  0.2179
 5320SOL    HW127596   3.309   4.732   1.836  0.3020  0.1563  0.1840
 5320SOL    HW227597   3.278   0.128   1.890  0.6866 -0.3736 -2.4419
 5321SOL     OW27598   1.765   1.941   5.224 -0.4790  0.5946 -0.3481
 5321SOL    HW127599   1.747   1.862   5.173  0.0831 -0.0573  0.4635
 5321SOL    HW227600   1.681   1.964   5.264 -0.6198 -1.0813  0.3258
 5322SOL     OW27601   4.249   3.350   4.059  0.0520  0.0256 -0.4285
 5322SOL    HW127602   4.296   3.407   4.120 -1.7014  0.7901  0.1897
 5322SOL    HW227603   4.232   3.268   4.106 -1.6843 -0.0791 -1.2457
 5323SOL     OW27604   0.360   4.088   2.797 -0.2258 -0.4180 -0.0880
 5323SOL    HW127605   0.412   4.151   2.847 -2.1146 -1.0076  2.6104
 5323SOL    HW227606   0.389   4.107   2.708  1.4324 -0.4227  0.4434
 5324SOL     OW27607   4.465   2.735   2.486  0.0616 -0.6233 -0.3632
 5324SOL    HW127608   4.458   2.643   2.512  1.4861 -0.5286  0.3680
 5324SOL    HW227609   4.546   2.752   2.534  0.0541 -1.2705 -0.1142
 5325SOL     OW27610   0.221   1.018   9.170 -0.2894  0.2822  0.2899
 5325SOL    HW127611   0.156   0.952   9.194 -1.0791 -0.4921 -4.1075
 5325SOL    HW227612   0.237   0.984   9.082 -2.1646  1.8494 -0.6550
 5326SOL     OW27613   3.010   2.849  17.700 -0.1719 -0.2753  0.2879
 5326SOL    HW127614   2.926   2.821  17.737 -1.4734 -0.3053 -2.6173
 5326SOL    HW227615   3.063   2.774  17.674  0.3264 -0.3382  1.5324
 5327SOL     OW27616   1.846   4.282   6.905 -0.5677 -0.0298 -0.1243
 5327SOL    HW127617   1.788   4.214   6.870  0.3392 -0.6733 -0.3859
 5327SOL    HW227618   1.856   4.243   6.992  0.3955  0.4967  0.0006
 5328SOL     OW27619   3.018   2.850   7.023 -0.2450 -0.0629  0.1873
 5328SOL    HW127620   2.942   2.890   7.066  0.4573 -0.0690  1.4164
 5328SOL    HW227621   3.054   2.818   7.105  2.1735  0.4006 -0.7169
 5329SOL     OW27622   4.394   0.442   4.810  0.4062 -0.0659 -0.0242
 5329SOL    HW127623   4.383   0.402   4.724  0.3156 -0.5158  0.1974
 5329SOL    HW227624   4.436   0.372   4.861  0.8552  0.1132 -0.1474
 5330SOL     OW27625   2.979   2.830  14.728  0.3769 -0.7180  0.0984
 5330SOL    HW127626   2.902   2.876  14.760  0.2630  0.2992 -1.6199
 5330SOL    HW227627   2.998   2.879  14.648 -0.1999  0.2793  0.5729
 5331SOL     OW27628   3.526   1.900   1.975  0.7412  0.0279  0.2388
 5331SOL    HW127629   3.558   1.918   2.063 -1.2546  1.4753  0.6834
 5331SOL    HW227630   3.453   1.960   1.958 -0.5695 -1.6164 -0.0084
 5332SOL     OW27631   2.946   2.126   6.415 -0.5252 -0.9376  0.4878
 5332SOL    HW127632   2.969   2.158   6.502  2.6966 -0.8345 -0.4048
 5332SOL    HW227633   2.963   2.199   6.356  0.2796 -1.1276  0.4845
 5333SOL     OW27634   3.977   3.447   9.127  0.9487  0.0500 -0.5595
 5333SOL    HW127635   3.891   3.428   9.165  1.2575  0.2279  0.2487
 5333SOL    HW227636   3.969   3.541   9.111 -3.6032 -0.4024 -0.7470
 5334SOL     OW27637   4.076   1.446   6.211  0.0248  0.0547 -0.0393
 5334SOL    HW127638   4.137   1.455   6.139  2.1469  0.2318  1.7953
 5334SOL    HW227639   3.994   1.432   6.163 -0.7463  0.0188  1.2779
 5335SOL     OW27640   0.614   3.454  10.006 -0.5350 -0.0396  0.5772
 5335SOL    HW127641   0.553   3.440   9.933 -1.0316 -0.6087  1.1088
 5335SOL    HW227642   0.554   3.421  10.072  0.5690 -1.7927  0.7199
 5336SOL     OW27643   4.705   0.194   6.503  0.3006  0.6160 -0.7866
 5336SOL    HW127644   4.637   0.159   6.445 -1.9177  0.5168  1.8544
 5336SOL    HW227645   0.034   0.136   6.471  1.1884  0.6147  1.1044
 5337SOL     OW27646   4.573   0.325   4.962  0.0256 -0.9243 -0.5830
 5337SOL    HW127647   4.561   0.359   5.051  0.4900 -1.5214 -0.2859
 5337SOL    HW227648   4.666   0.303   4.967 -0.0480 -1.4042 -1.2959
 5338SOL     OW27649   1.642   1.509   5.374  0.2067  0.0495  0.3244
 5338SOL    HW127650   1.555   1.470   5.387  0.1100  1.4313  3.7799
 5338SOL    HW227651   1.654   1.503   5.279  2.3592  0.6789  0.5673
 5339SOL     OW27652   3.851   1.163   5.839  0.3273 -0.7473  0.4837
 5339SOL    HW127653   3.868   1.095   5.774  1.7837 -2.4804  2.6619
 5339SOL    HW227654   3.936   1.208   5.847  0.1824 -0.7863  2.3588
 5340SOL     OW27655   3.151   1.701  13.876 -0.3190  0.2114  0.4522
 5340SOL    HW127656   3.097   1.659  13.942 -0.3043  1.6048  1.3714
 5340SOL    HW227657   3.125   1.652  13.798 -1.5471  0.4578  0.7076
 5341SOL     OW27658   3.837   2.875  15.103  0.4530 -0.4722  0.3697
 5341SOL    HW127659   3.854   2.905  15.192  2.2451  1.0806 -0.4823
 5341SOL    HW227660   3.749   2.838  15.113 -0.1305  1.4669  2.5256
 5342SOL     OW27661   0.701   4.319  11.677  0.0055 -0.4020 -0.7614
 5342SOL    HW127662   0.787   4.351  11.705 -1.2221  1.8267  0.4841
 5342SOL    HW227663   0.726   4.248  11.617  1.3887 -1.1974  0.7811
 5343SOL     OW27664   1.711   2.097   0.184 -0.0835  0.1462 -0.0381
 5343SOL    HW127665   1.646   2.083   0.116 -0.8894  1.3792  0.4768
 5343SOL    HW227666   1.677   2.049   0.260 -1.6988 -1.3648 -1.7040
 5344SOL     OW27667   3.766   2.202   2.127  0.8045 -0.2254  0.3697
 5344SOL    HW127668   3.720   2.240   2.202  0.5775 -3.0333  1.6790
 5344SOL    HW227669   3.788   2.112   2.153 -0.2172 -0.3706  0.7459
 5345SOL     OW27670   4.408   3.913   7.378  0.4022 -0.3705 -0.1418
 5345SOL    HW127671   4.480   3.967   7.412  0.1537 -0.1053 -0.0357
 5345SOL    HW227672   4.396   3.851   7.450 -0.1153  1.7210  1.5994
 5346SOL     OW27673   1.736   2.190   7.903  0.2348  0.2034 -0.1243
 5346SOL    HW127674   1.731   2.171   7.809  1.9468 -1.6687  0.1529
 5346SOL    HW227675   1.646   2.200   7.934 -0.3169 -1.2873 -1.2420
 5347SOL     OW27676   2.385   4.156   6.551  0.4805 -0.4884  0.0746
 5347SOL    HW127677   2.331   4.134   6.475  3.1322  1.8928 -2.4967
 5347SOL    HW227678   2.455   4.210   6.514 -0.2190  0.1579 -0.2967
 5348SOL     OW27679   0.850   2.592   4.281 -0.2538  0.5657 -0.1191
 5348SOL    HW127680   0.941   2.570   4.304 -0.3992  0.7020  0.5741
 5348SOL    HW227681   0.802   2.587   4.364  0.6917  0.3189  0.4187
 5349SOL     OW27682   3.938   4.241   4.203 -0.4891 -0.0966  0.1606
 5349SOL    HW127683   3.942   4.165   4.144  0.4660 -0.5483  0.8175
 5349SOL    HW227684   4.008   4.295   4.169 -1.3220  1.2552  0.6059
 5350SOL     OW27685   2.373   1.359   3.353 -0.0720  0.6011 -0.6870
 5350SOL    HW127686   2.350   1.284   3.408  0.4597  1.1900  0.3305
 5350SOL    HW227687   2.283   1.392   3.345 -0.1749  0.5532  0.2165
 5351SOL     OW27688   4.397   4.688   8.969 -0.4029 -0.3338 -0.5688
 5351SOL    HW127689   4.437   4.709   9.054 -0.5154  1.0262 -0.8643
 5351SOL    HW227690   4.469   4.707   8.909  0.1667 -0.9053 -0.0721
 5352SOL     OW27691   2.241   0.123   6.268  0.9037  0.4043  0.6499
 5352SOL    HW127692   2.335   0.106   6.280  1.5944  1.9423 -2.6875
 5352SOL    HW227693   2.221   0.151   6.357  3.1800 -0.8140  1.5652
 5353SOL     OW27694   1.884   2.710   2.944 -0.3356 -0.0310 -0.1174
 5353SOL    HW127695   1.940   2.780   2.911  1.1522 -0.8369  0.7143
 5353SOL    HW227696   1.834   2.687   2.866 -2.2176  4.4445 -0.2585
 5354SOL     OW27697   1.129   1.027   5.571  0.0873  0.5817 -0.6758
 5354SOL    HW127698   1.155   0.936   5.584 -1.0145  0.0222 -2.4897
 5354SOL    HW227699   1.104   1.021   5.479  1.7603  0.4395 -1.1310
 5355SOL     OW27700   2.978   3.516   1.445  0.4044 -0.5449  0.2366
 5355SOL    HW127701   2.886   3.491   1.455 -0.4969  3.1130  1.2305
 5355SOL    HW227702   3.035   3.471   1.507  1.4486  0.4290 -0.0165
 5356SOL     OW27703   0.386   1.295   4.515  0.8541 -0.1288  0.1624
 5356SOL    HW127704   0.369   1.202   4.527 -1.3605  0.2262 -0.3766
 5356SOL    HW227705   0.437   1.318   4.593 -0.6611  0.2206  1.0430
 5357SOL     OW27706   2.501   1.471   0.873 -0.4290  0.5490  0.6656
 5357SOL    HW127707   2.594   1.448   0.874 -0.8404 -1.1636 -0.9848
 5357SOL    HW227708   2.506   1.565   0.856 -0.1347 -0.0879 -2.7600
 5358SOL     OW27709   1.556   1.336   4.559 -0.6156  0.4515  0.1481
 5358SOL    HW127710   1.607   1.373   4.630  0.5144 -3.0932  1.1627
 5358SOL    HW227711   1.623   1.292   4.507 -1.1196 -0.3381  0.1604
 5359SOL     OW27712   4.134   0.695  16.689 -0.1334  0.1870  0.1149
 5359SOL    HW127713   4.049   0.736  16.708  0.4859  1.5331 -0.0502
 5359SOL    HW227714   4.120   0.692  16.595  1.9494  3.0938 -0.2780
 5360SOL     OW27715   0.031   3.029   4.815 -0.2373  0.1385  0.4118
 5360SOL    HW127716   0.108   3.077   4.787 -1.4383  1.1319 -1.2045
 5360SOL    HW227717   0.063   2.995   4.899 -1.2084 -1.3784  0.1795
 5361SOL     OW27718   3.434   2.408   8.176 -0.1692 -0.0454  0.1181
 5361SOL    HW127719   3.368   2.339   8.171 -0.8692  0.7046 -0.8894
 5361SOL    HW227720   3.509   2.348   8.175  0.2597  0.5074 -0.4573
 5362SOL     OW27721   2.101   1.707   9.569 -0.4605  0.0821 -0.2299
 5362SOL    HW127722   2.186   1.731   9.605 -1.1889  2.1539  0.1303
 5362SOL    HW227723   2.054   1.788   9.550  2.0841  1.2749 -1.4150
 5363SOL     OW27724   2.732   2.550   0.912 -0.0530 -0.0595  0.4279
 5363SOL    HW127725   2.662   2.603   0.874 -0.0070 -1.7692 -2.0426
 5363SOL    HW227726   2.707   2.460   0.889 -0.3367 -0.1317  1.0208
 5364SOL     OW27727   4.139   4.703   8.866  0.1950  0.4295 -0.1894
 5364SOL    HW127728   4.235   4.707   8.867  0.1377  1.7878  0.2052
 5364SOL    HW227729   4.125   4.646   8.791 -2.2413  1.4358 -0.4935
 5365SOL     OW27730   0.239   4.543   3.388  0.0625  0.3601  0.0218
 5365SOL    HW127731   0.149   4.530   3.415 -0.0951 -1.3628 -1.2829
 5365SOL    HW227732   0.271   4.526   3.477  0.1981  1.2885  0.1500
 5366SOL     OW27733   2.916   4.210  12.851 -0.2225  0.5397 -0.2367
 5366SOL    HW127734   2.841   4.177  12.801  0.2867 -0.1845 -0.5176
 5366SOL    HW227735   2.983   4.217  12.783  0.7415  1.0622  0.7707
 5367SOL     OW27736   3.128   4.057   4.924 -0.1185 -0.0811 -0.3524
 5367SOL    HW127737   3.076   3.990   4.879 -0.3024  0.5214 -1.0266
 5367SOL    HW227738   3.153   4.008   5.003  0.4424 -1.0688 -1.1429
 5368SOL     OW27739   2.825   1.871   3.324 -0.8433 -0.6558 -0.0217
 5368SOL    HW127740   2.841   1.836   3.236  0.5990  1.5129 -0.6283
 5368SOL    HW227741   2.734   1.899   3.315 -0.8921 -1.0202 -0.6545
 5369SOL     OW27742   4.238   2.260   9.052 -0.3456  0.2331 -0.1814
 5369SOL    HW127743   4.322   2.225   9.024  0.4872  0.5852  1.8939
 5369SOL    HW227744   4.246   2.290   9.142 -0.4999  0.7761 -0.3449
 5370SOL     OW27745   4.209   0.567  11.872 -0.7960  0.9635 -0.4168
 5370SOL    HW127746   4.299   0.561  11.905 -1.0908  0.9464  0.3791
 5370SOL    HW227747   4.179   0.478  11.857  1.5836  0.4152 -1.9360
 5371SOL     OW27748   2.383   4.683   7.698  0.0466  0.4557 -0.1873
 5371SOL    HW127749   2.447   4.680   7.769  0.3413  3.6153 -0.3390
 5371SOL    HW227750   2.424   0.016   7.652 -2.5921  1.7872 -0.4518
 5372SOL     OW27751   3.091   1.949   8.406 -0.1832 -0.1085 -0.9367
 5372SOL    HW127752   3.110   1.945   8.500 -1.9688 -1.6668 -0.6386
 5372SOL    HW227753   3.110   2.041   8.387 -2.4223  0.4783 -0.2891
 5373SOL     OW27754   2.181   2.181   2.772  0.2627  0.2159 -0.2679
 5373SOL    HW127755   2.242   2.221   2.833 -0.3218  3.2770 -1.6639
 5373SOL    HW227756   2.117   2.125   2.815  0.2291  0.2927 -0.2186
 5374SOL     OW27757   3.717   0.951   7.579 -0.2349 -0.1979 -0.3441
 5374SOL    HW127758   3.678   0.883   7.633  2.7070 -1.2153  0.4830
 5374SOL    HW227759   3.656   1.024   7.591 -1.3278 -1.1300 -0.3063
 5375SOL     OW27760   0.024   2.617   6.857  0.4475  0.0157 -0.3553
 5375SOL    HW127761   4.674   2.594   6.833  0.8552 -0.6417 -1.2397
 5375SOL    HW227762   0.069   2.622   6.773 -2.8516 -0.8358 -2.1760
 5376SOL     OW27763   4.382   1.438   5.380  0.3203  0.8106 -0.2776
 5376SOL    HW127764   4.295   1.477   5.386 -0.1205 -0.1543 -0.3201
 5376SOL    HW227765   4.443   1.511   5.385  0.8500  0.3964 -0.7172
 5377SOL     OW27766   0.292   3.097   3.199 -0.2104  0.0925 -0.2409
 5377SOL    HW127767   0.327   3.150   3.128 -3.1801 -0.3045 -1.9945
 5377SOL    HW227768   0.312   3.012   3.160  2.2273  0.3213  0.5081
 5378SOL     OW27769   0.337   1.487   8.619 -0.2357 -0.0813 -0.4218
 5378SOL    HW127770   0.381   1.453   8.542 -0.0377  0.2759 -0.4651
 5378SOL    HW227771   0.332   1.581   8.604  0.6297  0.1611  0.8154
 5379SOL     OW27772   0.737   3.132   8.665  0.6456  0.5157  0.1622
 5379SOL    HW127773   0.767   3.221   8.648  1.9036  0.4899  2.2254
 5379SOL    HW227774   0.818   3.081   8.664 -0.3649 -1.0899 -0.3211
 5380SOL     OW27775   2.745   3.070   3.938 -0.7514 -0.1094  0.4798
 5380SOL    HW127776   2.706   3.078   3.851 -0.2378 -1.8642  0.1051
 5380SOL    HW227777   2.834   3.098   3.915 -1.4625  1.5535 -0.2193
 5381SOL     OW27778   4.697   3.866  10.799 -0.2458  0.2569 -0.5154
 5381SOL    HW127779   0.020   3.809  10.843 -1.9255 -1.9781 -0.9878
 5381SOL    HW227780   4.619   3.813  10.815 -0.6045  0.8870 -0.1965
 5382SOL     OW27781   2.278   4.181   2.698  0.3105 -0.1487  0.7413
 5382SOL    HW127782   2.344   4.138   2.754 -1.0682 -1.1777  1.5858
 5382SOL    HW227783   2.275   4.268   2.738  1.1360 -0.5101  1.6029
 5383SOL     OW27784   3.335   3.849   7.402  0.2048 -0.1249 -0.1120
 5383SOL    HW127785   3.305   3.812   7.486  0.1158  0.9355  0.3174
 5383SOL    HW227786   3.421   3.888   7.416  0.3967 -0.8795  0.8497
 5384SOL     OW27787   3.099   0.359   6.986  0.4667 -0.3071  0.3098
 5384SOL    HW127788   3.103   0.297   6.913  2.6576  0.2088 -0.0222
 5384SOL    HW227789   3.093   0.444   6.941 -0.0974 -0.4134  0.1794
 5385SOL     OW27790   0.793   2.959   5.264  0.4855  0.1961  0.1577
 5385SOL    HW127791   0.709   2.985   5.303 -1.0087 -3.5779 -0.5921
 5385SOL    HW227792   0.764   2.925   5.180 -0.0403  3.7480 -1.1212
 5386SOL     OW27793   1.028   2.955   7.206 -0.2856 -0.0609  0.1288
 5386SOL    HW127794   0.989   3.023   7.152  0.1965 -2.3215 -3.0505
 5386SOL    HW227795   1.047   3.011   7.282 -0.8695  1.5420 -0.9094
 5387SOL     OW27796   0.777   4.556  17.013 -0.2933 -0.0372 -0.0664
 5387SOL    HW127797   0.862   4.520  16.987 -0.6536 -1.4210  0.7221
 5387SOL    HW227798   0.722   4.545  16.935 -0.1760 -0.9871 -0.0100
 5388SOL     OW27799   1.951   2.776   2.438 -0.0490  0.2053  0.1635
 5388SOL    HW127800   1.893   2.849   2.416  1.1351  1.0170 -0.2632
 5388SOL    HW227801   1.910   2.693   2.414 -0.3058  0.4532 -0.2642
 5389SOL     OW27802   1.212   0.026   6.402  0.5121  0.1401 -0.1274
 5389SOL    HW127803   1.260   4.692   6.439  1.0764  1.2310  1.3136
 5389SOL    HW227804   1.122   4.735   6.393 -0.3847  1.7067  3.3987
 5390SOL     OW27805   1.382   4.607   5.138 -0.0171 -0.4297  0.1587
 5390SOL    HW127806   1.289   4.588   5.145  0.0994  0.0507  2.9558
 5390SOL    HW227807   1.369   4.698   5.165 -1.6572 -0.8245  0.6850
 5391SOL     OW27808   0.118   3.153   0.159 -0.0673 -0.0006  0.2746
 5391SOL    HW127809   0.111   3.243   0.129  2.7989  0.0165 -0.2918
 5391SOL    HW227810   0.027   3.133   0.136  0.5391 -0.6162 -1.5641
 5392SOL     OW27811   3.831   3.255   8.835  0.5946  0.3469  0.6843
 5392SOL    HW127812   3.743   3.272   8.802  0.9037 -1.1103 -0.8704
 5392SOL    HW227813   3.882   3.321   8.788  2.1104  0.0393  1.8998
 5393SOL     OW27814   1.758   2.543   7.169 -0.1236 -0.0080 -0.0939
 5393SOL    HW127815   1.798   2.522   7.085  0.2463  0.0754  0.0638
 5393SOL    HW227816   1.674   2.497   7.159 -0.0982 -0.0386 -0.1619
 5394SOL     OW27817   4.456   3.179  12.254 -0.7613 -0.3427 -0.6881
 5394SOL    HW127818   4.492   3.197  12.168  0.9954 -0.4036  0.0403
 5394SOL    HW227819   4.380   3.238  12.249 -0.9494 -0.3929  1.4580
 5395SOL     OW27820   4.321   2.929   5.466  0.3896 -0.2441 -0.1109
 5395SOL    HW127821   4.355   2.893   5.384  0.8755 -1.2922  0.5383
 5395SOL    HW227822   4.227   2.937   5.447  0.3943 -1.3457 -0.6299
 5396SOL     OW27823   4.522   4.638   6.696 -0.1016 -0.0025 -0.2440
 5396SOL    HW127824   4.461   4.622   6.768 -1.3339  2.6322 -0.6933
 5396SOL    HW227825   4.606   4.630   6.742  0.3541  1.9757 -0.7245
 5397SOL     OW27826   2.974   2.576   1.069 -0.6429  0.1810  0.1362
 5397SOL    HW127827   2.923   2.577   1.150  1.0587 -2.5439  1.2132
 5397SOL    HW227828   2.909   2.589   0.999 -0.7123  0.1225  0.1901
 5398SOL     OW27829   1.665   3.140   7.306 -0.2057 -0.2191 -0.2490
 5398SOL    HW127830   1.622   3.061   7.340 -0.4284 -0.2507 -0.6106
 5398SOL    HW227831   1.587   3.196   7.313 -1.7172 -1.9595 -3.1536
 5399SOL     OW27832   3.994   0.948  10.613  0.0526 -0.1480  0.0272
 5399SOL    HW127833   4.056   1.011  10.651  0.7693 -0.5058 -0.5336
 5399SOL    HW227834   3.913   0.970  10.659 -0.2098 -2.1253  0.4845
 5400SOL     OW27835   2.259   3.330   9.149  0.4494 -0.6615 -0.2238
 5400SOL    HW127836   2.196   3.328   9.077 -1.5063 -2.8289  1.5587
 5400SOL    HW227837   2.259   3.239   9.179 -2.0846 -0.0487  1.6425
 5401SOL     OW27838   2.672   3.654   6.473  0.3785  1.1351  0.1019
 5401SOL    HW127839   2.690   3.643   6.567  0.4105  1.9478  0.1963
 5401SOL    HW227840   2.746   3.708   6.446  0.0639 -0.0658 -3.0534
 5402SOL     OW27841   1.021   3.513   5.751 -0.0385 -0.0759  0.2975
 5402SOL    HW127842   0.947   3.561   5.715 -0.1397 -0.3872  0.0827
 5402SOL    HW227843   1.062   3.470   5.675  0.4818  0.9988 -0.0227
 5403SOL     OW27844   3.319   3.509   5.395  0.1147  0.2920  0.0774
 5403SOL    HW127845   3.276   3.432   5.358  0.3399 -0.1302  0.7019
 5403SOL    HW227846   3.380   3.522   5.321  0.5979 -1.5298  0.1559
 5404SOL     OW27847   0.999   1.106  13.210  0.0821 -0.1113  0.4265
 5404SOL    HW127848   1.020   1.200  13.203 -1.3714  0.2756  1.2668
 5404SOL    HW227849   0.907   1.096  13.231 -0.0928  0.1262 -0.2300
 5405SOL     OW27850   3.641   4.691   9.533 -0.0826  0.0595  0.6811
 5405SOL    HW127851   3.666   4.733   9.615  0.1020 -0.5700  0.9545
 5405SOL    HW227852   3.717   4.709   9.478 -1.1024 -0.8289 -1.0228
 5406SOL     OW27853   1.905   3.253   2.508 -0.5957  0.1568  0.4424
 5406SOL    HW127854   1.872   3.284   2.593 -1.4762  1.3851 -0.3392
 5406SOL    HW227855   1.866   3.325   2.458  0.8177  0.9752  0.4927
 5407SOL     OW27856   4.393   3.089   2.678 -0.1530 -0.0601  0.0965
 5407SOL    HW127857   4.355   3.173   2.654  0.9279  0.5533  0.5427
 5407SOL    HW227858   4.346   3.034   2.616  0.4720 -0.1544 -0.2978
 5408SOL     OW27859   4.184   4.363   6.834  0.0325 -0.2056  0.5219
 5408SOL    HW127860   4.236   4.285   6.812  0.5274 -0.1801  1.5883
 5408SOL    HW227861   4.253   4.428   6.850 -0.8465  0.7256  0.4867
 5409SOL     OW27862   2.759   1.844   2.620  0.5829 -0.0229  0.1845
 5409SOL    HW127863   2.765   1.916   2.682  0.5337 -0.2137  0.4117
 5409SOL    HW227864   2.666   1.853   2.599  0.9806  0.8480 -1.2366
 5410SOL     OW27865   3.652   3.434   3.471 -0.4003 -0.7641  0.2390
 5410SOL    HW127866   3.667   3.523   3.439  0.2588 -1.1477 -0.5004
 5410SOL    HW227867   3.715   3.441   3.543  1.2158 -2.4103 -1.0162
 5411SOL     OW27868   3.568   1.541   3.515  0.0609  0.0397 -0.0992
 5411SOL    HW127869   3.515   1.462   3.531 -0.4480  0.6439  1.1622
 5411SOL    HW227870   3.582   1.564   3.607 -0.9698 -0.2092  0.1283
 5412SOL     OW27871   0.380   1.129   3.529  0.5439  0.3837  0.3094
 5412SOL    HW127872   0.357   1.116   3.621  0.7130 -0.3038  0.2521
 5412SOL    HW227873   0.405   1.041   3.502  2.2587  2.1310 -3.8747
 5413SOL     OW27874   2.698   0.855   7.735 -0.2014 -0.1055  0.5261
 5413SOL    HW127875   2.615   0.827   7.697 -0.1762  0.7814 -0.2153
 5413SOL    HW227876   2.757   0.793   7.693  0.8547  1.2067  0.0695
 5414SOL     OW27877   3.175   2.350  11.674 -0.0657 -0.2326 -0.3060
 5414SOL    HW127878   3.251   2.295  11.652 -0.0712  0.5468 -2.2675
 5414SOL    HW227879   3.105   2.289  11.698  1.4477 -0.7391  2.7919
 5415SOL     OW27880   0.374   4.479   6.783  0.2884  0.6038 -0.1393
 5415SOL    HW127881   0.332   4.544   6.839 -0.6932  0.8348 -1.1380
 5415SOL    HW227882   0.347   4.399   6.828  0.7078  0.8832  0.6031
 5416SOL     OW27883   4.253   3.915  11.640 -0.7504 -0.7756 -0.5560
 5416SOL    HW127884   4.282   3.937  11.551 -1.0377  0.1705 -0.4190
 5416SOL    HW227885   4.163   3.919  11.607  0.2820  0.2311 -3.2374
 5417SOL     OW27886   4.709   1.095   7.477  0.1185  0.2169  0.1963
 5417SOL    HW127887   4.732   1.182   7.508  1.4396 -0.0974  0.1189
 5417SOL    HW227888   4.616   1.092   7.497  0.1900 -2.5930  0.1753
 5418SOL     OW27889   0.332   3.554   8.615 -0.7998 -0.3598  0.5740
 5418SOL    HW127890   0.311   3.468   8.579 -1.5874  0.4218 -0.8444
 5418SOL    HW227891   0.400   3.524   8.675  1.1978  3.6818  0.3039
 5419SOL     OW27892   0.435   1.184   6.089  0.3426  0.0188  0.3975
 5419SOL    HW127893   0.432   1.113   6.153 -1.3506 -0.0821  0.1991
 5419SOL    HW227894   0.403   1.255   6.144 -1.6156 -0.2511 -0.4044
 5420SOL     OW27895   1.662   2.437   8.175 -0.8196  0.8564 -0.4834
 5420SOL    HW127896   1.586   2.495   8.182 -1.4408 -0.0779  0.6113
 5420SOL    HW227897   1.694   2.457   8.087  0.9881  2.1039  0.4730
 5421SOL     OW27898   1.314   0.428   5.878  0.3200 -0.4304  0.2392
 5421SOL    HW127899   1.406   0.446   5.899  0.4164 -0.7959  0.1208
 5421SOL    HW227900   1.313   0.479   5.798 -1.3283 -0.2397  0.3681
 5422SOL     OW27901   0.175   1.665   4.911 -0.2364  0.5331 -0.1465
 5422SOL    HW127902   0.251   1.615   4.881 -0.6480  0.2258 -0.6772
 5422SOL    HW227903   0.198   1.685   5.001  1.5459 -0.2773 -0.4157
 5423SOL     OW27904   2.415   3.444   7.929  0.7696  0.1680  0.3021
 5423SOL    HW127905   2.344   3.460   7.991 -0.2049  0.9062 -1.0040
 5423SOL    HW227906   2.369   3.443   7.845 -0.4939  1.8162  0.9791
 5424SOL     OW27907   2.819   3.293   5.793 -0.3968 -1.0222 -0.4295
 5424SOL    HW127908   2.770   3.322   5.871  0.1441 -0.5275 -0.2795
 5424SOL    HW227909   2.875   3.232   5.841  0.3203  0.9718  1.2579
 5425SOL     OW27910   3.573   0.891  11.862  0.4079  0.1071  0.3351
 5425SOL    HW127911   3.633   0.950  11.816 -1.5469  0.9798 -1.1120
 5425SOL    HW227912   3.537   0.855  11.780  2.1050 -1.9322  0.4841
 5426SOL     OW27913   0.912   2.448   3.551  0.5810 -0.4650  0.6819
 5426SOL    HW127914   0.990   2.457   3.606 -1.1478 -0.1140  3.0897
 5426SOL    HW227915   0.849   2.433   3.622  0.2635 -1.1409  0.2530
 5427SOL     OW27916   4.685   2.594   5.559  0.3093 -0.0041  0.1939
 5427SOL    HW127917   4.730   2.509   5.556  0.7987  0.1910  1.9540
 5427SOL    HW227918   4.629   2.598   5.482  0.4646  1.7767  0.1653
 5428SOL     OW27919   0.512   1.705   4.126 -0.5432 -0.6342  0.0202
 5428SOL    HW127920   0.538   1.613   4.120  2.3263  0.2493 -0.8874
 5428SOL    HW227921   0.533   1.735   4.038 -1.7175  0.5273  0.1344
 5429SOL     OW27922   2.632   2.217   8.097  0.1483 -0.0344 -0.7900
 5429SOL    HW127923   2.692   2.171   8.155  0.4422  2.1419  0.6500
 5429SOL    HW227924   2.578   2.141   8.076  1.3189 -0.6890 -1.4512
 5430SOL     OW27925   4.208   3.852  16.017 -0.0829  0.9715  0.2250
 5430SOL    HW127926   4.248   3.935  15.989  0.9667  0.1969 -0.5530
 5430SOL    HW227927   4.122   3.884  16.043  0.1310  0.4042  1.6356
 5431SOL     OW27928   2.192   4.143   8.688  0.2853 -0.2229  0.1525
 5431SOL    HW127929   2.201   4.227   8.732  1.5051 -1.0657  1.4961
 5431SOL    HW227930   2.101   4.124   8.713  0.4173  0.8461  1.4274
 5432SOL     OW27931   2.555   1.631  13.314 -0.3173 -0.5029  0.2226
 5432SOL    HW127932   2.462   1.650  13.321 -0.0145  1.4194 -1.1044
 5432SOL    HW227933   2.596   1.717  13.324  0.4833 -0.9936  1.1790
 5433SOL     OW27934   4.694   2.676   3.713 -0.0597 -0.1873 -0.4478
 5433SOL    HW127935   4.616   2.647   3.762  1.1258  1.2971  2.3585
 5433SOL    HW227936   4.712   2.597   3.663  1.0272 -1.2708  1.6703
 5434SOL     OW27937   0.731   2.090   2.620  0.2547 -0.2748 -0.3107
 5434SOL    HW127938   0.667   2.120   2.555 -0.3323  0.3245  0.5339
 5434SOL    HW227939   0.755   2.173   2.659 -0.0181 -0.0290 -0.6668
 5435SOL     OW27940   1.488   2.012   4.345 -0.0480 -0.0591  0.4247
 5435SOL    HW127941   1.410   2.060   4.317  0.4301  1.8178  2.3058
 5435SOL    HW227942   1.441   1.966   4.415 -1.0987  0.4546  0.0576
 5436SOL     OW27943   2.761   2.360   1.756 -0.5181 -0.4138 -0.1720
 5436SOL    HW127944   2.687   2.315   1.717 -0.6626  0.9093 -1.4314
 5436SOL    HW227945   2.725   2.382   1.842  0.0356  0.7347 -0.2307
 5437SOL     OW27946   3.174   2.768  14.515 -0.0055 -1.0502 -0.0671
 5437SOL    HW127947   3.264   2.791  14.538  0.6171 -2.0695 -1.4212
 5437SOL    HW227948   3.124   2.849  14.519  1.4616 -0.2290  1.2161
 5438SOL     OW27949   0.027   3.511   5.748  0.5816 -0.2137  0.3832
 5438SOL    HW127950   4.709   3.563   5.803  0.3668  2.5791 -2.4802
 5438SOL    HW227951   4.717   3.512   5.667  1.1246 -1.3824  0.0326
 5439SOL     OW27952   3.061   2.569   7.830  0.0491 -0.0800 -0.0454
 5439SOL    HW127953   3.042   2.661   7.847  0.7949  0.3996 -1.8447
 5439SOL    HW227954   3.157   2.566   7.836  0.1562  1.8522 -0.9649
 5440SOL     OW27955   1.244   3.379  10.418 -0.1346 -0.2970  0.2470
 5440SOL    HW127956   1.301   3.306  10.396 -0.4222 -1.0474  1.9223
 5440SOL    HW227957   1.284   3.402  10.502  0.1193 -1.0406  0.3321
 5441SOL     OW27958   0.598   1.328   2.495  0.0071  0.4360  0.6191
 5441SOL    HW127959   0.631   1.331   2.584 -2.2459 -0.5780  1.4816
 5441SOL    HW227960   0.509   1.365   2.499  0.6740  1.9307  1.4400
 5442SOL     OW27961   1.130   2.858   2.569  0.1536  0.6244  0.1224
 5442SOL    HW127962   1.136   2.954   2.575 -0.0255  0.5954  0.7835
 5442SOL    HW227963   1.190   2.812   2.628 -1.1732  0.1664  1.1099
 5443SOL     OW27964   1.698   4.131  11.933  0.1796  0.0381  0.1909
 5443SOL    HW127965   1.689   4.224  11.913 -0.9570 -0.1463 -0.1468
 5443SOL    HW227966   1.779   4.128  11.984  1.1027  0.0918 -1.2671
 5444SOL     OW27967   4.254   1.611   3.629  0.3069  0.1020  0.5683
 5444SOL    HW127968   4.257   1.677   3.560  3.1152 -2.1444 -1.4343
 5444SOL    HW227969   4.170   1.634   3.670 -0.0110 -0.7018  0.3576
 5445SOL     OW27970   1.813   0.223   3.972  0.3490  0.2201 -0.2510
 5445SOL    HW127971   1.888   0.188   3.924  1.3115  1.7118  0.1532
 5445SOL    HW227972   1.823   0.312   3.938 -3.0817  1.1654  1.2246
 5446SOL     OW27973   3.984   0.560   4.070  0.4981 -0.5122  0.7728
 5446SOL    HW127974   3.975   0.628   4.003  1.1717 -1.6257 -0.4658
 5446SOL    HW227975   4.071   0.578   4.104  1.5377 -0.6744 -1.7859
 5447SOL     OW27976   4.655   2.021   5.552 -0.9804  0.2958  0.2058
 5447SOL    HW127977   4.622   2.088   5.611  1.5127  0.6273  1.1924
 5447SOL    HW227978   4.615   2.056   5.472 -0.4837  0.0863 -0.1394
 5448SOL     OW27979   1.754   0.055  10.658  0.4045  0.7368  0.1536
 5448SOL    HW127980   1.709   0.138  10.674 -0.2314  0.7378 -1.6403
 5448SOL    HW227981   1.682   4.735  10.641 -0.3037  1.6500 -0.0456
 5449SOL     OW27982   0.978   1.943   9.092  0.0939 -0.0516  0.0959
 5449SOL    HW127983   0.923   1.891   9.151 -2.2006 -0.5549 -2.4611
 5449SOL    HW227984   1.005   1.871   9.034 -3.2153 -0.6948 -0.6464
 5450SOL     OW27985   0.028   4.471  11.760  0.2442 -0.2177 -0.1020
 5450SOL    HW127986   0.063   4.475  11.849  1.5502 -1.6199 -0.5654
 5450SOL    HW227987   4.677   4.495  11.776 -0.2641 -1.1593 -1.6611
 5451SOL     OW27988   3.411   1.191   2.038  0.4108 -0.1208  0.2317
 5451SOL    HW127989   3.334   1.223   1.991  0.3182 -1.8439 -0.7841
 5451SOL    HW227990   3.482   1.244   2.001 -0.6922  1.9328  1.0530
 5452SOL     OW27991   2.110   2.832   7.454 -0.7978  0.5071  0.1111
 5452SOL    HW127992   2.123   2.746   7.413  1.2423  0.6342  0.5027
 5452SOL    HW227993   2.165   2.827   7.532 -1.4234 -1.3397  0.4434
 5453SOL     OW27994   3.298   1.923  13.838  0.1605 -0.7182  0.3994
 5453SOL    HW127995   3.238   1.858  13.875  0.1739 -0.3472  1.0721
 5453SOL    HW227996   3.241   1.987  13.795 -0.4196 -0.8161  1.0282
 5454SOL     OW27997   4.078   1.470   2.959 -0.4356 -0.1566 -0.4997
 5454SOL    HW127998   4.041   1.545   3.006  2.1145 -0.9632  2.7647
 5454SOL    HW227999   4.163   1.495   2.925 -1.9975  1.5584 -3.1249
 5455SOL     OW28000   0.325   4.397   4.710 -0.3859 -0.0458 -0.4760
 5455SOL    HW128001   0.295   4.308   4.727 -2.2638  1.0094  1.7233
 5455SOL    HW228002   0.412   4.379   4.675 -0.8456 -1.6974 -0.7606
 5456SOL     OW28003   3.966   3.597   5.970 -0.3318  0.2601  0.2957
 5456SOL    HW128004   3.914   3.534   6.021 -2.3807 -0.3104 -2.5207
 5456SOL    HW228005   3.989   3.661   6.038 -1.7730 -0.5110  1.4915
 5457SOL     OW28006   1.217   4.191   2.688 -0.4470  0.0515  0.1755
 5457SOL    HW128007   1.186   4.119   2.743 -1.0942 -0.1348 -0.4383
 5457SOL    HW228008   1.292   4.219   2.740  0.5908 -3.2903  0.4993
 5458SOL     OW28009   3.600   4.700   3.389  0.1298 -0.1681 -0.4057
 5458SOL    HW128010   3.646   0.040   3.361 -1.3176  1.1542  1.0217
 5458SOL    HW228011   3.576   4.666   3.302 -1.8081  0.4683 -0.1161
 5459SOL     OW28012   2.451   0.424   1.630  0.3440  0.5335  0.0543
 5459SOL    HW128013   2.358   0.411   1.611  0.5680  1.4407 -1.6661
 5459SOL    HW228014   2.483   0.465   1.550  1.6378  0.1563  0.3888
 5460SOL     OW28015   2.462   4.495  10.694 -0.1506  0.0409 -0.0679
 5460SOL    HW128016   2.466   4.572  10.637  1.4249 -0.2345 -0.3378
 5460SOL    HW228017   2.387   4.517  10.748 -0.8001 -3.7867  0.5643
 5461SOL     OW28018   1.081   3.245   9.321 -0.1401  0.2655 -0.2337
 5461SOL    HW128019   1.071   3.283   9.234  0.4128 -1.2568 -0.9715
 5461SOL    HW228020   1.048   3.319   9.371  0.6062  0.2159  0.3228
 5462SOL     OW28021   2.362   3.776   8.339  0.1643  0.2890 -0.8881
 5462SOL    HW128022   2.352   3.868   8.362 -1.3146 -0.2895  0.7545
 5462SOL    HW228023   2.299   3.730   8.395  1.1667 -1.0275 -0.8248
 5463SOL     OW28024   2.786   4.505   4.210 -0.3301 -0.8701 -0.3812
 5463SOL    HW128025   2.803   4.518   4.117 -0.1477 -0.2999 -0.2716
 5463SOL    HW228026   2.691   4.505   4.213 -0.2890  0.4788  0.6155
 5464SOL     OW28027   1.348   2.204  15.342 -0.2549  0.0777 -0.6744
 5464SOL    HW128028   1.407   2.279  15.343  2.4298 -2.0729 -0.0571
 5464SOL    HW228029   1.408   2.130  15.342  0.7347  0.8734 -1.6892
 5465SOL     OW28030   2.352   3.159   4.901  0.0455 -0.1889  0.5539
 5465SOL    HW128031   2.343   3.185   4.993  0.4744  1.5128  0.1200
 5465SOL    HW228032   2.375   3.067   4.914  1.0975 -0.0640 -0.3823
 5466SOL     OW28033   2.160   3.294   5.676  0.1391  0.2104 -0.2105
 5466SOL    HW128034   2.105   3.356   5.726  0.5717 -0.7809  1.4934
 5466SOL    HW228035   2.244   3.319   5.714 -0.2214  0.8690  0.1679
 5467SOL     OW28036   2.623   1.021  16.388  0.1047 -0.1568 -0.3272
 5467SOL    HW128037   2.545   1.024  16.444  0.1011 -2.1042 -0.2032
 5467SOL    HW228038   2.661   1.101  16.424 -1.2261 -0.3274  1.4821
 5468SOL     OW28039   1.916   3.447  10.698  0.6168  0.2093 -0.5121
 5468SOL    HW128040   1.929   3.440  10.603 -0.3307  0.3966 -0.6505
 5468SOL    HW228041   1.953   3.362  10.721  0.8624  0.2753 -0.6563
 5469SOL     OW28042   3.866   1.342  15.274 -0.4610  0.0361 -0.2778
 5469SOL    HW128043   3.877   1.425  15.321 -1.8375  1.2377 -2.1047
 5469SOL    HW228044   3.932   1.347  15.205 -1.5831 -3.0402 -1.5617
 5470SOL     OW28045   3.952   3.793   0.542  0.2697 -0.0770  0.0650
 5470SOL    HW128046   3.901   3.736   0.600  0.0936 -2.3378 -2.3016
 5470SOL    HW228047   3.900   3.872   0.556 -1.0526 -0.2842 -3.6511
 5471SOL     OW28048   2.032   2.669   4.900 -0.1459  0.1921 -0.3563
 5471SOL    HW128049   1.969   2.739   4.891  0.8083  1.0766 -0.2198
 5471SOL    HW228050   2.029   2.632   4.812  0.5541  1.7747 -1.0387
 5472SOL     OW28051   1.755   1.090   6.332  0.7454  0.3020 -0.2158
 5472SOL    HW128052   1.710   1.172   6.311 -1.8413 -0.5661  1.9258
 5472SOL    HW228053   1.828   1.122   6.385  0.7534 -2.1200  1.2035
 5473SOL     OW28054   2.858   0.254  16.086 -0.0776 -0.1142  0.6347
 5473SOL    HW128055   2.948   0.270  16.113  0.1203 -1.9637  1.1157
 5473SOL    HW228056   2.845   0.161  16.107  2.5005 -0.8784 -1.1079
 5474SOL     OW28057   2.680   3.785   9.727 -0.3788 -0.4802  0.2035
 5474SOL    HW128058   2.701   3.768   9.635 -0.8288  2.0475 -0.3733
 5474SOL    HW228059   2.761   3.763   9.773  0.2537 -1.5266 -1.4108
 5475SOL     OW28060   0.800   2.858   2.610  0.1963 -0.0255 -0.0520
 5475SOL    HW128061   0.840   2.886   2.527  0.5078  1.2482  0.5266
 5475SOL    HW228062   0.826   2.934   2.662  0.7039 -0.0803 -0.2203
 5476SOL     OW28063   2.306   3.371   6.724 -0.5128  0.1247  0.0439
 5476SOL    HW128064   2.388   3.417   6.707 -0.8424  1.0788  1.0402
 5476SOL    HW228065   2.330   3.361   6.816  1.2477 -1.7141 -0.6400
 5477SOL     OW28066   3.193   3.429  14.044  0.7402  0.1347 -0.0947
 5477SOL    HW128067   3.169   3.514  14.008 -1.6461 -1.0346 -1.3136
 5477SOL    HW228068   3.118   3.376  14.018  2.1892 -1.3745 -1.2145
 5478SOL     OW28069   4.686   4.163   5.825  0.8891 -0.2447  0.4291
 5478SOL    HW128070   0.007   4.128   5.889  0.8375 -0.1481  0.5315
 5478SOL    HW228071   4.614   4.195   5.880  0.5059 -0.1486 -0.1227
 5479SOL     OW28072   4.052   3.232  11.095  0.2868 -0.4546  0.2183
 5479SOL    HW128073   3.962   3.239  11.129  0.6020 -2.3200  1.4457
 5479SOL    HW228074   4.056   3.313  11.044 -0.6560  0.9526  2.3950
 5480SOL     OW28075   4.056   2.294  14.760 -0.0103  0.4828 -0.4000
 5480SOL    HW128076   3.989   2.357  14.783 -0.3052 -0.4790  1.3891
 5480SOL    HW228077   4.063   2.300  14.665  3.3600 -0.5831 -0.2320
 5481SOL     OW28078   1.217   0.386  16.413 -0.2314 -0.8766 -0.3491
 5481SOL    HW128079   1.181   0.437  16.487  0.5168 -1.3880  0.3617
 5481SOL    HW228080   1.233   0.459  16.353  0.1580 -0.0903  0.7082
 5482SOL     OW28081   2.520   2.736   6.624  0.7691  0.2742 -0.0457
 5482SOL    HW128082   2.460   2.809   6.638  0.8914  0.6001 -1.2640
 5482SOL    HW228083   2.573   2.746   6.703  1.2821 -0.0350 -0.3506
 5483SOL     OW28084   2.209   0.394   8.421 -0.0217  0.3678  0.5128
 5483SOL    HW128085   2.256   0.463   8.469 -0.2766 -0.1847  1.5616
 5483SOL    HW228086   2.187   0.439   8.340  1.5133 -0.2911 -0.2602
 5484SOL     OW28087   1.638   0.621  17.285  0.0620 -0.3885  0.5047
 5484SOL    HW128088   1.715   0.592  17.236 -0.1595 -1.2538  0.6654
 5484SOL    HW228089   1.688   0.642  17.364  0.3060 -2.6594  0.9597
 5485SOL     OW28090   2.321   0.236  16.194  0.7048 -0.7312  0.2203
 5485SOL    HW128091   2.332   0.324  16.158 -0.1452 -1.0995 -0.9213
 5485SOL    HW228092   2.365   0.241  16.279  1.4802  1.1748 -0.2882
 5486SOL     OW28093   2.497   4.739   9.446  0.3334 -0.5750 -0.0531
 5486SOL    HW128094   2.520   4.686   9.522 -1.1753 -0.4646  0.4846
 5486SOL    HW228095   2.410   4.703   9.427  0.1527 -0.2262  0.1323
 5487SOL     OW28096   0.725   1.307  11.427  0.7898 -0.6038 -0.5029
 5487SOL    HW128097   0.797   1.324  11.488 -0.3522  1.3719  0.3207
 5487SOL    HW228098   0.763   1.238  11.374  0.4775 -1.8772  0.9251
 5488SOL     OW28099   4.115   0.294   6.060 -0.1033  0.2776  0.1859
 5488SOL    HW128100   4.026   0.262   6.046  0.3548 -0.2205 -1.5904
 5488SOL    HW228101   4.108   0.389   6.058  0.3867  0.3720  2.9780
 5489SOL     OW28102   4.517   4.181  15.782 -0.2658  0.0266  0.0322
 5489SOL    HW128103   4.462   4.246  15.739 -2.5828 -2.6012 -0.9654
 5489SOL    HW228104   4.567   4.148  15.707 -0.1196  0.0689  0.1114
 5490SOL     OW28105   2.893   4.725   4.967  0.2435  0.2504 -0.3013
 5490SOL    HW128106   2.966   4.678   4.926  0.7727  1.5215 -0.8235
 5490SOL    HW228107   2.901   4.679   5.050  0.9496  1.1789  0.1534
 5491SOL     OW28108   0.566   0.291   6.589 -0.0263  0.4648 -0.2806
 5491SOL    HW128109   0.566   0.208   6.636  4.2102 -0.3133 -1.6739
 5491SOL    HW228110   0.616   0.343   6.653 -2.2262  0.8746  1.1176
 5492SOL     OW28111   1.472   3.490   7.553  0.1395  0.1835  0.6040
 5492SOL    HW128112   1.540   3.504   7.618 -0.7776 -0.9608  1.8001
 5492SOL    HW228113   1.486   3.577   7.516  0.0092  0.3628  0.9770
 5493SOL     OW28114   0.693   4.091   4.856 -0.0801 -0.5231 -0.2213
 5493SOL    HW128115   0.754   4.058   4.922 -0.2409  1.5048  0.9312
 5493SOL    HW228116   0.690   4.031   4.781  1.3865  1.0899 -1.5747
 5494SOL     OW28117   3.627   4.237   8.987  0.4138  0.4205 -0.3240
 5494SOL    HW128118   3.671   4.317   8.960 -1.1971  2.0787  1.9221
 5494SOL    HW228119   3.627   4.251   9.082 -0.8219  2.9897 -0.6830
 5495SOL     OW28120   1.894   3.724  10.659 -0.4379  0.2540 -0.5283
 5495SOL    HW128121   1.973   3.757  10.615  0.5686 -0.5884  0.6757
 5495SOL    HW228122   1.934   3.652  10.708  0.4134  0.7595 -0.4755
 5496SOL     OW28123   0.701   2.431  16.123  0.1739  0.3122  0.0157
 5496SOL    HW128124   0.629   2.422  16.186  0.5256  1.3265  0.5649
 5496SOL    HW228125   0.656   2.409  16.041  1.3061 -0.2323 -0.4523
 5497SOL     OW28126   3.877   1.160  16.058  0.1305  0.1072  0.5396
 5497SOL    HW128127   3.947   1.176  15.994  0.7554 -1.1480  0.8953
 5497SOL    HW228128   3.927   1.116  16.127  2.5794  0.8394 -0.7414
 5498SOL     OW28129   3.129   3.147   7.185  0.3239 -0.3573 -0.0649
 5498SOL    HW128130   3.113   3.065   7.230  0.4048 -0.0137  0.5909
 5498SOL    HW228131   3.199   3.190   7.235 -0.2810 -0.0642  0.5183
 5499SOL     OW28132   0.543   3.106   1.754 -0.3382 -0.1143 -0.3030
 5499SOL    HW128133   0.463   3.070   1.716 -0.5822 -0.0189  0.1226
 5499SOL    HW228134   0.606   3.072   1.690  0.9237 -0.6681  1.2307
 5500SOL     OW28135   0.566   3.111   5.446 -0.2341 -0.2963  0.0179
 5500SOL    HW128136   0.540   3.035   5.498 -0.9291  0.8633  1.3858
 5500SOL    HW228137   0.539   3.180   5.507  1.9763  0.3415  0.2651
 5501SOL     OW28138   4.550   2.892   6.613  0.3078  0.3189  0.0540
 5501SOL    HW128139   4.488   2.835   6.569  0.8406 -0.5726  0.4467
 5501SOL    HW228140   4.634   2.890   6.566  1.3959 -0.5293  1.9982
 5502SOL     OW28141   3.221   2.468   6.910 -0.5727  0.2866  0.1305
 5502SOL    HW128142   3.230   2.495   6.819  0.1902 -0.4648 -0.0155
 5502SOL    HW228143   3.298   2.511   6.946  0.2676  1.1286 -2.6762
 5503SOL     OW28144   0.354   1.181   2.740 -0.5644 -0.0533  0.0317
 5503SOL    HW128145   0.395   1.266   2.724 -2.4081  1.2204  2.1270
 5503SOL    HW228146   0.405   1.110   2.700 -1.0130 -0.1722 -0.3292
 5504SOL     OW28147   3.618   1.616   4.392 -0.1125  0.8026  0.5475
 5504SOL    HW128148   3.635   1.524   4.413 -1.7630  0.3783  0.0860
 5504SOL    HW228149   3.531   1.596   4.357  1.1780 -1.6853 -1.2782
 5505SOL     OW28150   0.298   0.072   3.806 -0.2995 -0.2060  0.0581
 5505SOL    HW128151   0.331   0.161   3.794  2.5753 -1.2151  0.5243
 5505SOL    HW228152   0.369   0.024   3.764 -0.2427 -0.7421  0.7523
 5506SOL     OW28153   0.132   0.879   4.672  0.0975 -0.0338 -0.1247
 5506SOL    HW128154   0.215   0.911   4.638  0.3539 -1.6957 -1.0628
 5506SOL    HW228155   0.072   0.952   4.660  0.8075  1.1294  3.2348
 5507SOL     OW28156   2.297   4.040   9.998 -0.0154  0.4404  0.0451
 5507SOL    HW128157   2.386   4.012   9.976 -0.5235 -2.5864  1.7533
 5507SOL    HW228158   2.317   4.110  10.060  1.8780  0.3119 -0.4114
 5508SOL     OW28159   0.532   2.188   2.018  0.4006 -0.1850 -0.1209
 5508SOL    HW128160   0.577   2.253   2.072 -0.6340  0.1975  0.2957
 5508SOL    HW228161   0.482   2.248   1.963  0.5009  1.5932  1.7388
 5509SOL     OW28162   4.084   1.873   3.605  0.2916  0.1129  0.6547
 5509SOL    HW128163   4.163   1.892   3.554 -0.3536 -2.5920 -1.3554
 5509SOL    HW228164   4.118   1.923   3.679  1.5274  0.5929 -0.2536
 5510SOL     OW28165   0.058   0.864  13.165 -1.0178  0.4051  0.2360
 5510SOL    HW128166   0.154   0.872  13.169 -1.2780  2.9908  1.0858
 5510SOL    HW228167   0.039   0.893  13.254 -1.6669  1.9978 -0.4140
 5511SOL     OW28168   4.302   3.771  12.597  0.3450  0.3884 -0.3891
 5511SOL    HW128169   4.244   3.847  12.590  0.8649  0.5949 -2.3341
 5511SOL    HW228170   4.382   3.824  12.606 -0.9089  2.2481 -0.1069
 5512SOL     OW28171   1.412   2.734  11.512 -0.2982 -0.3351 -0.1137
 5512SOL    HW128172   1.319   2.752  11.530  0.0194  0.8217  0.3651
 5512SOL    HW228173   1.441   2.690  11.591 -1.0617  0.0215  0.3652
 5513SOL     OW28174   0.554   0.413  10.302 -0.6134  0.0714  0.1579
 5513SOL    HW128175   0.528   0.322  10.292 -1.4185  0.3845 -0.5734
 5513SOL    HW228176   0.639   0.406  10.346 -0.3183  0.4798 -0.3433
 5514SOL     OW28177   0.361   2.284   3.958  0.2200  0.2138  0.2999
 5514SOL    HW128178   0.423   2.322   3.896  0.0754  1.2909  0.8242
 5514SOL    HW228179   0.406   2.287   4.042 -1.8649 -0.1864  1.4277
 5515SOL     OW28180   3.542   0.542  16.365  0.8302  0.8212  0.2276
 5515SOL    HW128181   3.517   0.632  16.385  0.1669  1.0808 -1.8029
 5515SOL    HW228182   3.538   0.551  16.270  0.6080  2.0862  0.3574
 5516SOL     OW28183   1.550   4.042   4.069 -0.5473 -0.1594 -0.1444
 5516SOL    HW128184   1.597   4.054   3.987  1.1220 -0.9563  0.6984
 5516SOL    HW228185   1.608   4.085   4.132  0.7275 -1.6442 -0.3030
 5517SOL     OW28186   2.412   3.351   2.312 -0.4232 -0.6575 -0.1955
 5517SOL    HW128187   2.383   3.429   2.265  1.1438  0.8596  1.3705
 5517SOL    HW228188   2.467   3.389   2.380  0.4714 -1.3026 -0.5692
 5518SOL     OW28189   1.372   4.598   1.409  0.0946 -0.4065  0.7254
 5518SOL    HW128190   1.453   4.570   1.367  0.4573  0.1748  1.0320
 5518SOL    HW228191   1.325   4.643   1.340 -0.3014 -2.8824 -0.6030
 5519SOL     OW28192   0.758   2.293   2.781  0.7089  0.8720  0.1273
 5519SOL    HW128193   0.665   2.308   2.765  0.6594  0.2536 -0.1676
 5519SOL    HW228194   0.775   2.380   2.818 -0.4495  1.2598 -0.2565
 5520SOL     OW28195   2.305   1.162   4.909  0.1964  0.0757 -0.6714
 5520SOL    HW128196   2.395   1.129   4.908 -0.5645 -1.9799 -2.1313
 5520SOL    HW228197   2.255   1.081   4.911  0.0811  0.2790  4.0036
 5521SOL     OW28198   4.378   2.770   5.202  0.4614 -0.3090  0.8294
 5521SOL    HW128199   4.366   2.787   5.108  1.2979 -0.2804  0.7277
 5521SOL    HW228200   4.296   2.729   5.228 -1.0951  1.3317 -1.4751
 5522SOL     OW28201   3.631   0.088  12.217  0.1013  0.2892 -0.0790
 5522SOL    HW128202   3.655   0.022  12.281 -0.0757  0.1070 -0.2016
 5522SOL    HW228203   3.708   0.145  12.207 -0.7469  2.0109  3.0733
 5523SOL     OW28204   1.091   3.208  11.459  0.3522  0.2027 -0.1093
 5523SOL    HW128205   1.111   3.114  11.462  2.8825  0.8151  1.3890
 5523SOL    HW228206   1.051   3.235  11.542  2.8673 -3.3678  2.2660
 5524SOL     OW28207   0.573   1.057   4.871  0.0703  0.1753  0.5234
 5524SOL    HW128208   0.557   1.080   4.962 -0.2390 -0.9677  0.7526
 5524SOL    HW228209   0.584   1.142   4.828 -1.3965 -0.6656 -1.5339
 5525SOL     OW28210   1.607   3.966   7.068  0.5403 -0.0207  0.2638
 5525SOL    HW128211   1.535   3.903   7.073  1.1817 -0.8372 -0.8759
 5525SOL    HW228212   1.676   3.904   7.090 -0.5737 -1.9267 -1.5676
 5526SOL     OW28213   4.700   3.685   4.406  0.0005  0.3374  0.0738
 5526SOL    HW128214   0.011   3.635   4.342 -0.7638 -0.3438 -0.0088
 5526SOL    HW228215   0.018   3.694   4.481  2.4300 -0.7416 -1.6586
 5527SOL     OW28216   4.641   1.800   2.860  0.1323 -0.2028  0.3474
 5527SOL    HW128217   4.721   1.748   2.859  0.5613  0.5187 -1.3104
 5527SOL    HW228218   4.567   1.739   2.860 -0.0468  0.0187 -0.3260
 5528SOL     OW28219   2.284   0.886   2.611 -0.2169 -0.3325 -0.3176
 5528SOL    HW128220   2.263   0.976   2.634 -0.9076 -1.0776  1.9903
 5528SOL    HW228221   2.247   0.830   2.679 -0.3455  0.5492  0.3362
 5529SOL     OW28222   4.618   3.703   9.501  0.5895 -0.5673  1.1523
 5529SOL    HW128223   4.660   3.779   9.540  0.8613 -0.8486  1.4152
 5529SOL    HW228224   4.650   3.720   9.413 -2.3116 -1.9993 -0.1678
 5530SOL     OW28225   3.370   1.995   5.007 -0.0141  0.3210 -0.5564
 5530SOL    HW128226   3.335   2.070   5.055 -0.4461 -0.1142 -0.1825
 5530SOL    HW228227   3.390   2.033   4.921 -0.8830 -0.9162 -1.3029
 5531SOL     OW28228   1.263   1.297   7.528  0.1203  0.2038  0.2584
 5531SOL    HW128229   1.269   1.383   7.569 -0.7939  0.1526  0.4986
 5531SOL    HW228230   1.231   1.328   7.443  2.1889  0.5242 -0.3905
 5532SOL     OW28231   0.610   1.811   3.482 -0.6863  0.0043  0.2022
 5532SOL    HW128232   0.693   1.799   3.436 -1.7197 -0.4807 -1.5322
 5532SOL    HW228233   0.626   1.750   3.554 -0.9857  0.9466  1.0710
 5533SOL     OW28234   2.311   3.193   4.366  0.0939  0.4852  0.6406
 5533SOL    HW128235   2.337   3.271   4.414  0.9053  1.1802 -0.9383
 5533SOL    HW228236   2.308   3.121   4.429  0.2790 -0.8737 -0.9004
 5534SOL     OW28237   1.770   2.878  17.270  0.4052  0.1475  0.0263
 5534SOL    HW128238   1.784   2.786  17.294  0.2936  0.0191 -0.3904
 5534SOL    HW228239   1.850   2.928  17.285  1.4273 -1.3786 -0.3973
 5535SOL     OW28240   3.671   0.328   7.011 -0.0249 -0.4650  0.1363
 5535SOL    HW128241   3.617   0.348   6.935 -1.0397  0.7556  1.1686
 5535SOL    HW228242   3.642   0.243   7.043  0.3895  0.6294  3.4746
 5536SOL     OW28243   2.001   3.668   1.866 -0.2757 -0.2376  0.0501
 5536SOL    HW128244   2.054   3.721   1.807 -0.6698 -1.7522 -1.6488
 5536SOL    HW228245   1.918   3.716   1.863  0.2469  0.7773  1.4785
 5537SOL     OW28246   0.714   2.406   4.900 -0.8343 -0.1888 -0.0218
 5537SOL    HW128247   0.750   2.401   4.989 -1.3465 -0.1747  0.1900
 5537SOL    HW228248   0.793   2.385   4.851  0.3279  1.2920  1.2180
 5538SOL     OW28249   0.194   2.760  12.421  0.2005 -0.6422  0.1338
 5538SOL    HW128250   0.259   2.821  12.385 -1.8882  0.7241 -1.3576
 5538SOL    HW228251   0.216   2.685  12.367  1.3848 -0.0836 -0.1721
 5539SOL     OW28252   3.891   1.853  15.721 -0.1242  0.1527 -0.2970
 5539SOL    HW128253   3.967   1.840  15.777 -1.7670 -0.8549  1.7013
 5539SOL    HW228254   3.928   1.875  15.635  1.3121 -0.2454  0.2169
 5540SOL     OW28255   1.391   3.534   3.237  0.0222 -0.2132  0.1669
 5540SOL    HW128256   1.388   3.629   3.239 -2.6960 -0.3053 -0.4240
 5540SOL    HW228257   1.484   3.511   3.240 -0.0069 -0.5592 -1.6632
 5541SOL     OW28258   2.399   0.962   9.699  0.1887 -0.3827  0.4523
 5541SOL    HW128259   2.315   0.929   9.731  0.3016 -1.3562 -0.2395
 5541SOL    HW228260   2.460   0.912   9.753  0.0737 -0.7430  0.2539
 5542SOL     OW28261   2.710   0.432   2.265 -0.1425 -0.2759 -0.0703
 5542SOL    HW128262   2.706   0.408   2.357  0.5005  1.3634  0.3710
 5542SOL    HW228263   2.661   0.514   2.268  0.4573  0.1039 -0.6634
 5543SOL     OW28264   2.581   1.950   3.291 -0.6228 -0.5317  0.4432
 5543SOL    HW128265   2.513   1.978   3.230 -0.4865  0.2114  0.6366
 5543SOL    HW228266   2.523   1.906   3.353 -1.7919  0.0916 -0.2088
 5544SOL     OW28267   1.210   3.496   5.208 -0.4123  0.5782 -0.1112
 5544SOL    HW128268   1.199   3.413   5.161 -1.3029  1.4643 -1.4604
 5544SOL    HW228269   1.181   3.567   5.151 -0.8529 -0.2470 -0.9286
 5545SOL     OW28270   0.405   4.010   8.090 -0.0894  0.5455  0.6629
 5545SOL    HW128271   0.494   3.993   8.122  0.9857  1.8531 -1.6934
 5545SOL    HW228272   0.409   4.105   8.077 -0.1167  0.8234  2.7045
 5546SOL     OW28273   1.597   1.811  10.723 -0.5534  0.2964 -0.1485
 5546SOL    HW128274   1.509   1.831  10.755 -0.5793  1.8738 -1.1814
 5546SOL    HW228275   1.583   1.855  10.639  2.0670  1.9576  0.3272
 5547SOL     OW28276   1.420   3.014  16.825  0.0555  0.6361 -0.1167
 5547SOL    HW128277   1.478   3.089  16.840 -0.3738  0.5307  2.1703
 5547SOL    HW228278   1.355   3.050  16.765  0.5529  3.0778  0.7846
 5548SOL     OW28279   0.693   1.592   7.529  0.0813  0.0154 -0.7791
 5548SOL    HW128280   0.605   1.590   7.492 -0.8163  0.7412  1.3245
 5548SOL    HW228281   0.676   1.652   7.601  0.3788 -2.2979  1.2311
 5549SOL     OW28282   0.071   0.960  15.528 -0.0375 -1.0649 -0.5624
 5549SOL    HW128283   0.108   0.917  15.605  1.1715 -0.5454 -0.8477
 5549SOL    HW228284   4.736   1.007  15.563  0.8526  0.2978 -0.4715
 5550SOL     OW28285   2.888   0.876  13.538 -0.2989 -0.1801 -0.1208
 5550SOL    HW128286   2.943   0.848  13.465 -0.4052 -0.9388  0.0917
 5550SOL    HW228287   2.807   0.828  13.520 -0.1809 -0.1742 -0.6632
 5551SOL     OW28288   0.890   0.080  10.999 -0.4922  0.2035  0.1673
 5551SOL    HW128289   0.939   0.068  10.917 -1.1949  0.2558 -0.2621
 5551SOL    HW228290   0.867   4.730  11.023  1.7263  0.1628  2.1501
 5552SOL     OW28291   3.311   4.149   9.203 -0.0351 -0.3806 -0.0557
 5552SOL    HW128292   3.367   4.121   9.276  0.2572 -1.3146 -0.6344
 5552SOL    HW228293   3.364   4.135   9.124 -1.5220 -2.5032 -0.6878
 5553SOL     OW28294   2.711   2.059  13.552 -0.4792  0.6507  0.0812
 5553SOL    HW128295   2.792   2.080  13.598 -0.5075 -2.5451  1.5722
 5553SOL    HW228296   2.650   2.049  13.625 -2.4603 -0.5342 -1.7303
 5554SOL     OW28297   4.126   2.057   3.112  0.6951 -0.6355 -0.4447
 5554SOL    HW128298   4.189   1.985   3.120  0.4001 -0.7076  1.1334
 5554SOL    HW228299   4.126   2.043   3.017  1.3747 -0.9769 -0.3936
 5555SOL     OW28300   4.219   1.533  10.610 -0.7836 -0.2039  1.2103
 5555SOL    HW128301   4.290   1.559  10.668  1.1324 -1.4983 -0.5617
 5555SOL    HW228302   4.183   1.615  10.575 -0.2418  0.2180  1.6465
 5556SOL     OW28303   4.558   0.612   6.380  0.2519 -0.0202 -0.2427
 5556SOL    HW128304   4.641   0.657   6.367 -0.3256  1.1648  0.1171
 5556SOL    HW228305   4.581   0.537   6.325  1.8529  0.4402 -0.1874
 5557SOL     OW28306   3.919   2.163   1.110 -0.6560  0.3794  0.0200
 5557SOL    HW128307   3.918   2.071   1.134 -1.4928 -0.1059 -1.9457
 5557SOL    HW228308   4.013   2.178   1.114 -0.5381 -0.7072  1.2590
 5558SOL     OW28309   0.666   1.895  12.367  0.0914  0.7168  0.3891
 5558SOL    HW128310   0.690   1.824  12.427 -2.1309  1.9456  2.7502
 5558SOL    HW228311   0.598   1.857  12.311 -1.2700  0.4572  2.2110
 5559SOL     OW28312   1.839   0.107  17.535 -0.7205  0.1494 -0.0666
 5559SOL    HW128313   1.863   0.155  17.456 -0.5594  1.2378  0.6508
 5559SOL    HW228314   1.794   0.176  17.583  0.2945  1.6930 -1.3068
 5560SOL     OW28315   3.534   0.048   9.788 -0.7088 -0.4171  0.1955
 5560SOL    HW128316   3.462   0.069   9.848 -0.3178 -3.4390  1.7124
 5560SOL    HW228317   3.576   4.716   9.835 -1.4733 -1.4066 -0.6410
 5561SOL     OW28318   4.257   3.049  15.894  0.2788  0.5303  0.8636
 5561SOL    HW128319   4.201   2.981  15.858  0.8498  1.4608 -1.7431
 5561SOL    HW228320   4.309   3.004  15.960 -0.0496 -1.2957 -0.1307
 5562SOL     OW28321   1.135   1.356   2.600 -0.0490 -0.7732  0.1940
 5562SOL    HW128322   1.086   1.297   2.658 -0.9121 -2.2816 -2.0480
 5562SOL    HW228323   1.099   1.340   2.512  0.5457 -1.9770  0.1700
 5563SOL     OW28324   0.580   0.387   7.451 -0.1923  0.0571 -0.1484
 5563SOL    HW128325   0.533   0.440   7.515 -0.3882 -0.7895  0.4090
 5563SOL    HW228326   0.639   0.340   7.509  1.6702 -0.3518 -2.3598
 5564SOL     OW28327   0.816   1.330   4.215 -0.0488  0.4528 -0.1053
 5564SOL    HW128328   0.760   1.254   4.226 -2.2770  2.2503  0.8945
 5564SOL    HW228329   0.772   1.385   4.280 -1.7590  0.1684 -1.0252
 5565SOL     OW28330   0.487   0.852   1.074 -0.0526  0.5859 -0.1194
 5565SOL    HW128331   0.527   0.881   1.156  0.1691  0.0345 -0.0309
 5565SOL    HW228332   0.398   0.882   1.092 -0.4362 -1.2730  1.0847
 5566SOL     OW28333   3.459   4.451   9.173 -0.1767 -0.0675  0.3166
 5566SOL    HW128334   3.490   4.449   9.082  3.4138 -1.0810  1.5544
 5566SOL    HW228335   3.376   4.496   9.160  0.8019  1.1266 -1.7890
 5567SOL     OW28336   2.075   4.122   0.239 -0.2669  0.2035  0.0347
 5567SOL    HW128337   2.162   4.087   0.259  0.2729  0.9221 -1.0769
 5567SOL    HW228338   2.055   4.167   0.321 -0.3877  0.8842 -0.3659
 5568SOL     OW28339   2.720   4.496   6.017  0.6483  0.2307  0.8482
 5568SOL    HW128340   2.688   4.455   6.097 -1.9854 -0.7264 -0.7022
 5568SOL    HW228341   2.686   4.442   5.945  0.2875 -0.4544  1.5381
 5569SOL     OW28342   4.580   4.310   0.109  0.4127  0.3523 -0.2501
 5569SOL    HW128343   4.563   4.225   0.068 -0.3933  0.2966  0.1894
 5569SOL    HW228344   4.608   4.358   0.031 -1.3054  2.1808  0.2713
 5570SOL     OW28345   2.030   2.911   3.750  0.1319 -0.0484 -0.6935
 5570SOL    HW128346   2.123   2.911   3.724  0.7105 -0.5818  1.4055
 5570SOL    HW228347   1.995   2.855   3.681  2.9694  0.5727 -2.6384
 5571SOL     OW28348   1.979   3.181   7.055 -0.0825 -0.0392  0.0350
 5571SOL    HW128349   2.008   3.131   7.132  0.0267 -2.8449 -1.8419
 5571SOL    HW228350   1.909   3.123   7.025  0.7604 -0.1698 -1.6727
 5572SOL     OW28351   0.699   2.652  12.920  0.3391 -0.1795 -0.4128
 5572SOL    HW128352   0.733   2.572  12.958 -1.0749 -0.7589 -0.3572
 5572SOL    HW228353   0.638   2.680  12.988 -0.1877  0.0415 -0.9683
 5573SOL     OW28354   4.000   4.089   7.254 -0.7002  0.1932  0.3810
 5573SOL    HW128355   3.964   4.010   7.215  0.7664 -0.7340  0.9130
 5573SOL    HW228356   3.999   4.072   7.348  1.6524  1.1130  0.5817
 5574SOL     OW28357   1.579   1.252   4.204  1.0294 -0.0354  0.4037
 5574SOL    HW128358   1.626   1.280   4.283 -0.7762 -2.4266  2.3231
 5574SOL    HW228359   1.580   1.157   4.195  2.4317  0.1162 -1.0161
 5575SOL     OW28360   1.221   0.077   8.682  0.2446  0.2128  0.0963
 5575SOL    HW128361   1.237   0.128   8.761 -0.6585  1.7334 -0.7049
 5575SOL    HW228362   1.186   0.142   8.621 -2.8272  0.5720  2.2595
 5576SOL     OW28363   3.153   3.437   3.188  0.0027  0.0613  0.3080
 5576SOL    HW128364   3.239   3.474   3.206 -0.4757  1.5002 -0.3668
 5576SOL    HW228365   3.137   3.380   3.264  0.4833  0.8618  0.9988
 5577SOL     OW28366   0.229   2.161   9.242 -0.4654 -0.3319 -0.4393
 5577SOL    HW128367   0.281   2.200   9.313  0.3868 -0.8181 -0.7937
 5577SOL    HW228368   0.155   2.220   9.231 -0.9281 -0.4711  1.9201
 5578SOL     OW28369   4.567   4.333   3.249 -0.3445 -0.2947 -0.2976
 5578SOL    HW128370   4.565   4.265   3.316  2.6469  0.2867  0.4196
 5578SOL    HW228371   4.484   4.306   3.209 -0.1279 -1.3362 -0.0414
 5579SOL     OW28372   3.101   1.357   8.205  0.0443 -0.3045 -0.0390
 5579SOL    HW128373   3.087   1.421   8.135  1.3251 -2.4064 -2.2207
 5579SOL    HW228374   3.155   1.407   8.266  1.8815 -2.2977 -0.0167
 5580SOL     OW28375   1.917   3.295   4.798 -0.0422  0.2756 -0.1609
 5580SOL    HW128376   1.871   3.311   4.881 -0.9828 -2.8230 -0.0799
 5580SOL    HW228377   1.862   3.228   4.758  0.8075 -1.0473  0.8721
 5581SOL     OW28378   3.599   2.491   3.645 -0.1392 -0.1610 -0.4827
 5581SOL    HW128379   3.505   2.509   3.644 -0.6667 -2.8173  0.5769
 5581SOL    HW228380   3.629   2.541   3.569  1.0860  0.5687  0.4926
 5582SOL     OW28381   1.842   3.012  11.857 -0.1221 -0.3502 -0.5242
 5582SOL    HW128382   1.926   3.036  11.818 -0.9304 -0.1001 -2.1160
 5582SOL    HW228383   1.858   3.039  11.948  3.0324 -1.0396 -0.8756
 5583SOL     OW28384   1.179   0.827   3.120  0.5617 -0.3292 -0.2184
 5583SOL    HW128385   1.225   0.807   3.202  2.1600  0.7137 -0.8598
 5583SOL    HW228386   1.095   0.855   3.156  0.7422 -0.7120  0.5087
 5584SOL     OW28387   2.207   4.581   7.955  0.0281  0.2436 -0.3368
 5584SOL    HW128388   2.242   4.669   7.941  2.1327 -0.3092  1.4232
 5584SOL    HW228389   2.211   4.538   7.870  1.2242  0.2235 -0.2754
 5585SOL     OW28390   0.516   0.831   6.963  0.6042 -0.6886 -0.2826
 5585SOL    HW128391   0.444   0.827   6.900  2.2599 -1.4946 -2.0971
 5585SOL    HW228392   0.591   0.865   6.914  1.3570 -0.9672  0.6833
 5586SOL     OW28393   2.943   0.171   5.194 -0.5772 -0.6084  0.7355
 5586SOL    HW128394   2.940   0.077   5.212  0.1732 -0.7346  0.1874
 5586SOL    HW228395   3.027   0.183   5.149 -1.0973 -0.2217 -0.1344
 5587SOL     OW28396   2.827   2.388  10.982 -0.2187 -0.0645  0.0999
 5587SOL    HW128397   2.822   2.342  11.067 -1.0373 -0.2276 -0.0364
 5587SOL    HW228398   2.756   2.452  10.981 -1.5060 -1.4776  0.0942
 5588SOL     OW28399   0.824   3.038   1.064  0.2159 -0.1064  0.0257
 5588SOL    HW128400   0.768   3.050   0.987  0.1812  1.9089  0.3517
 5588SOL    HW228401   0.910   3.037   1.022  0.6766 -0.9909  0.9998
 5589SOL     OW28402   4.664   0.999   9.664  0.2210 -0.8235 -0.3098
 5589SOL    HW128403   4.688   0.908   9.644  3.3815 -0.5288  2.2219
 5589SOL    HW228404   4.573   0.982   9.689 -0.5794 -0.5791 -3.0420
 5590SOL     OW28405   4.146   1.772  10.476 -0.4763  0.0315 -0.5952
 5590SOL    HW128406   4.117   1.850  10.523  0.3573 -0.5279  0.8288
 5590SOL    HW228407   4.215   1.808  10.421 -1.5214  2.7103 -0.1235
 5591SOL     OW28408   2.905   3.700   2.614 -0.3248 -0.1512  0.2913
 5591SOL    HW128409   2.976   3.639   2.637  0.5765  0.1760 -1.6607
 5591SOL    HW228410   2.887   3.665   2.527 -0.3339 -0.2382  0.3281
 5592SOL     OW28411   1.496   1.719   1.241  0.5557 -0.5819 -0.7010
 5592SOL    HW128412   1.403   1.741   1.242  0.3931 -1.2708 -0.9103
 5592SOL    HW228413   1.495   1.625   1.227 -0.5896 -0.1997 -3.1946
 5593SOL     OW28414   4.410   3.200   1.005  1.2831  0.5623 -0.4655
 5593SOL    HW128415   4.373   3.280   1.043  0.9508  0.1742  0.0367
 5593SOL    HW228416   4.393   3.127   1.065  1.6720  1.6064  0.9148
 5594SOL     OW28417   4.275   3.426   2.755  0.3974  0.4001  0.7686
 5594SOL    HW128418   4.182   3.435   2.778  0.2316  1.5064 -0.3809
 5594SOL    HW228419   4.278   3.480   2.677  3.7248 -0.4523  0.3158
 5595SOL     OW28420   2.357   2.390   2.548  0.8163 -0.2902 -0.3217
 5595SOL    HW128421   2.298   2.465   2.559 -0.1594 -1.1590  0.4858
 5595SOL    HW228422   2.438   2.435   2.571  2.0570 -2.4864 -0.4465
 5596SOL     OW28423   3.567   1.021  13.619 -0.2748  0.3156 -0.0840
 5596SOL    HW128424   3.602   0.934  13.634  1.2879  0.8930 -0.3448
 5596SOL    HW228425   3.522   1.043  13.701 -0.2682  1.0251 -0.2700
 5597SOL     OW28426   0.892   1.243   1.292  0.3021 -0.0119  0.8105
 5597SOL    HW128427   0.869   1.225   1.201  0.1523  1.1617  0.6118
 5597SOL    HW228428   0.929   1.331   1.291 -0.8000  0.4306 -2.1597
 5598SOL     OW28429   2.704   2.799   8.090 -0.0525  0.2521  0.3755
 5598SOL    HW128430   2.617   2.835   8.109  0.3513  0.8039  1.1810
 5598SOL    HW228431   2.762   2.863   8.132  0.5002 -1.0891  1.6461
 5599SOL     OW28432   0.991   4.196   5.321 -0.7118  0.4949  0.3603
 5599SOL    HW128433   1.023   4.189   5.230  1.7981 -0.3758  1.3015
 5599SOL    HW228434   0.955   4.285   5.324 -3.2902 -0.5249 -0.9225
 5600SOL     OW28435   0.569   3.570   6.630 -0.4687 -0.0888  0.0493
 5600SOL    HW128436   0.521   3.533   6.555  0.7970 -1.9340  0.1305
 5600SOL    HW228437   0.638   3.617   6.583 -2.0715  1.9811 -0.1784
 5601SOL     OW28438   3.385   3.428   3.415  0.1936  0.1230  0.3108
 5601SOL    HW128439   3.471   3.447   3.453  0.7330  1.6642 -1.6910
 5601SOL    HW228440   3.329   3.433   3.492 -0.2069 -1.7720  0.1246
 5602SOL     OW28441   1.999   3.902   9.309  0.1592 -0.4613  0.0881
 5602SOL    HW128442   2.059   3.828   9.295 -0.0266 -0.5170 -0.4067
 5602SOL    HW228443   1.956   3.907   9.224 -0.8281  1.8037  0.7119
 5603SOL     OW28444   4.223   0.155   2.225 -0.2874 -0.1136  0.1184
 5603SOL    HW128445   4.147   0.111   2.188  0.0674 -1.9235  1.5443
 5603SOL    HW228446   4.300   0.124   2.176 -0.0469  0.7472 -0.0433
 5604SOL     OW28447   3.453   2.806   4.824 -0.1389 -0.1267  0.3739
 5604SOL    HW128448   3.486   2.739   4.884  2.1967 -0.8906 -1.7486
 5604SOL    HW228449   3.467   2.768   4.737  1.3373 -0.2056  0.6296
 5605SOL     OW28450   2.698   0.096   8.466 -0.3270 -0.1999  0.5590
 5605SOL    HW128451   2.686   0.003   8.487 -1.6455 -0.0375  0.4736
 5605SOL    HW228452   2.680   0.090   8.373  2.2964  0.4465 -0.0012
 5606SOL     OW28453   4.096   2.735  10.087 -0.3560 -0.1439  0.1846
 5606SOL    HW128454   4.130   2.724   9.998 -1.5647 -1.9249 -0.0647
 5606SOL    HW228455   4.156   2.800  10.123  0.7695 -1.4058  0.5729
 5607SOL     OW28456   3.061   3.701   4.932 -0.0203 -0.0942  0.0351
 5607SOL    HW128457   3.008   3.687   5.010 -0.2889  0.9416  0.0329
 5607SOL    HW228458   3.019   3.772   4.883  1.5176 -0.6416 -2.0624
 5608SOL     OW28459   1.199   0.776   0.213 -0.2715  0.0998 -0.1627
 5608SOL    HW128460   1.259   0.726   0.268  1.0597  1.4090 -0.4223
 5608SOL    HW228461   1.187   0.713   0.142 -0.0446 -0.0672 -0.0517
 5609SOL     OW28462   1.972   1.867  10.114 -0.0839  0.0160  0.0702
 5609SOL    HW128463   2.050   1.848  10.166  0.8570  2.0410 -0.6098
 5609SOL    HW228464   1.975   1.798  10.048  1.7695 -0.2374  0.4271
 5610SOL     OW28465   4.327   2.075   8.422 -0.3264  0.0879  0.0328
 5610SOL    HW128466   4.339   1.985   8.452 -2.1412  0.0170  0.6009
 5610SOL    HW228467   4.240   2.074   8.381  0.0411  1.1533 -0.7781
 5611SOL     OW28468   4.247   3.246   2.131 -0.8974  0.3899 -0.1755
 5611SOL    HW128469   4.304   3.287   2.067  2.0638 -0.3059  2.0318
 5611SOL    HW228470   4.179   3.195   2.087 -0.3343  0.3985 -1.0303
 5612SOL     OW28471   3.816   3.267   8.405 -0.3573  0.3803  0.1911
 5612SOL    HW128472   3.748   3.291   8.467  1.6682 -0.7200  2.8767
 5612SOL    HW228473   3.884   3.325   8.439 -0.5939 -0.3384  1.8858
 5613SOL     OW28474   3.220   4.082  17.397 -0.2494  0.0456 -0.2317
 5613SOL    HW128475   3.303   4.126  17.415  1.5576 -1.5862 -4.5797
 5613SOL    HW228476   3.158   4.155  17.406  2.2507  2.0570  0.5698
 5614SOL     OW28477   2.674   1.000   6.170  0.3472  0.2738 -0.1287
 5614SOL    HW128478   2.587   1.036   6.182  0.3472  0.4577 -0.7152
 5614SOL    HW228479   2.716   1.038   6.247 -0.4667  0.4212  0.2441
 5615SOL     OW28480   1.523   1.934  16.496 -0.7388 -0.2007 -0.1986
 5615SOL    HW128481   1.458   2.002  16.512 -1.9720 -2.0770  2.7349
 5615SOL    HW228482   1.545   1.909  16.586  0.7826  0.3345 -0.4215
 5616SOL     OW28483   3.597   2.641   4.996 -0.3251 -0.2532  0.0764
 5616SOL    HW128484   3.614   2.564   5.050 -1.4280 -0.1223  0.6084
 5616SOL    HW228485   3.603   2.701   5.070  2.0362  1.7668 -1.7657
 5617SOL     OW28486   2.595   0.059   1.887 -0.1249 -0.6449  0.5429
 5617SOL    HW128487   2.583   0.154   1.897  3.3400  0.0775 -1.9337
 5617SOL    HW228488   2.674   0.050   1.833 -0.5093  2.4589 -0.5268
 5618SOL     OW28489   1.798   2.575  13.647  0.6682  0.5368  0.0535
 5618SOL    HW128490   1.818   2.641  13.713 -2.9922  0.2562  1.4756
 5618SOL    HW228491   1.837   2.498  13.688 -1.0123 -0.2561  0.2047
 5619SOL     OW28492   1.310   1.166   5.252 -0.1955 -0.0587 -0.0028
 5619SOL    HW128493   1.326   1.078   5.285  1.2091 -0.9546 -3.1228
 5619SOL    HW228494   1.224   1.149   5.213 -0.9537  3.1591  0.2386
 5620SOL     OW28495   3.448   2.627   6.541 -0.4510  0.6753  0.6735
 5620SOL    HW128496   3.526   2.615   6.487 -0.4135  1.2584  0.5999
 5620SOL    HW228497   3.413   2.699   6.488  0.3666  1.2486  0.9137
 5621SOL     OW28498   3.549   2.867  15.869  0.3939 -0.0484 -0.2482
 5621SOL    HW128499   3.602   2.797  15.905 -0.3004  0.0132  0.8960
 5621SOL    HW228500   3.612   2.938  15.880 -0.8818  1.1108 -0.4063
 5622SOL     OW28501   3.428   0.444   3.657 -0.0715  0.1619  0.3769
 5622SOL    HW128502   3.356   0.486   3.610 -0.5882 -2.0064 -0.7473
 5622SOL    HW228503   3.380   0.438   3.740 -0.5860 -0.7879 -0.0032
 5623SOL     OW28504   0.708   3.505   5.081 -0.4152 -0.0996 -0.3753
 5623SOL    HW128505   0.656   3.438   5.125 -1.1514 -0.6853 -2.1315
 5623SOL    HW228506   0.781   3.515   5.142 -1.5442  0.2533  0.9104
 5624SOL     OW28507   1.422   3.089   2.638  0.2603 -0.1883  0.4700
 5624SOL    HW128508   1.400   3.006   2.680  1.7427  0.0673  1.7343
 5624SOL    HW228509   1.464   3.064   2.556  0.8964 -4.1096  1.9745
 5625SOL     OW28510   0.486   2.909   3.904 -0.2062  0.2497  0.1805
 5625SOL    HW128511   0.480   2.905   3.999  1.1957  0.8058  0.3008
 5625SOL    HW228512   0.420   2.844   3.879  0.6304 -0.6054  0.1683
 5626SOL     OW28513   0.460   3.541   2.458  0.7856 -0.0418 -0.7439
 5626SOL    HW128514   0.433   3.620   2.506  0.8498 -1.1639  1.1153
 5626SOL    HW228515   0.377   3.505   2.427 -0.5306  0.1363  2.5285
 5627SOL     OW28516   4.372   4.013  15.076  0.0511  0.1614  0.2241
 5627SOL    HW128517   4.296   3.980  15.029  2.6143 -4.1770 -0.9205
 5627SOL    HW228518   4.376   4.104  15.047 -3.1943 -0.7382 -2.9899
 5628SOL     OW28519   2.459   1.529   9.820 -0.9228 -0.3808  0.4932
 5628SOL    HW128520   2.528   1.505   9.881  0.8521 -0.9331 -1.7577
 5628SOL    HW228521   2.402   1.566   9.888 -1.5883  1.8090 -1.2599
 5629SOL     OW28522   2.214   3.379   6.117 -0.2871  0.2275 -0.7755
 5629SOL    HW128523   2.185   3.306   6.171 -0.0679 -1.3173 -2.7270
 5629SOL    HW228524   2.165   3.452   6.155  1.0677  0.6359  0.1730
 5630SOL     OW28525   1.891   3.819   7.410 -0.2512  0.3684 -0.0629
 5630SOL    HW128526   1.822   3.833   7.476  0.4310 -0.0441  0.7359
 5630SOL    HW228527   1.969   3.832   7.464 -1.5835  1.3836  1.6445
 5631SOL     OW28528   1.918   3.707   4.959 -0.0040  0.0205 -0.2604
 5631SOL    HW128529   1.894   3.785   4.908  2.9176  1.5728  0.7209
 5631SOL    HW228530   1.835   3.680   4.998 -0.2254  0.1957 -0.6128
 5632SOL     OW28531   1.572   3.415  11.884  0.0005  0.0679 -0.3664
 5632SOL    HW128532   1.648   3.471  11.898 -0.3072  0.9734 -2.4263
 5632SOL    HW228533   1.611   3.337  11.844  1.8944  0.9171 -0.1395
 5633SOL     OW28534   4.495   2.306   2.432  0.1367 -0.6046  0.1823
 5633SOL    HW128535   4.569   2.311   2.492  1.2760 -0.4352 -1.2439
 5633SOL    HW228536   4.438   2.362   2.484 -1.6950  0.2908 -2.7867
 5634SOL     OW28537   3.747   3.855   1.372 -0.1072 -0.4112 -0.0035
 5634SOL    HW128538   3.792   3.938   1.356 -3.7718  1.4933 -0.4935
 5634SOL    HW228539   3.794   3.821   1.448  1.5082  2.1407  0.1440
 5635SOL     OW28540   0.996   0.957   2.292 -0.7512  0.3717  0.3166
 5635SOL    HW128541   1.002   0.868   2.257  2.1474  0.9118 -0.6378
 5635SOL    HW228542   0.973   1.007   2.213 -0.6532  1.8204  1.2091
 5636SOL     OW28543   4.697   3.035  12.634  0.9569  0.0216  0.5517
 5636SOL    HW128544   4.608   3.034  12.598  0.9277 -0.7946  0.6643
 5636SOL    HW228545   4.723   2.949  12.602  2.4214  0.5077  0.4230
 5637SOL     OW28546   2.204   0.108   8.532 -0.3579 -0.0240 -0.4118
 5637SOL    HW128547   2.189   0.203   8.538  0.1419 -0.0282  0.9727
 5637SOL    HW228548   2.228   0.083   8.621  0.2867 -1.9634 -1.1464
 5638SOL     OW28549   2.027   3.970  10.933 -0.5231 -0.2480 -0.2274
 5638SOL    HW128550   2.121   3.981  10.918 -0.0546 -3.1074  0.5184
 5638SOL    HW228551   1.998   4.052  10.894 -1.1983 -1.6699 -2.7320
 5639SOL     OW28552   1.325   1.477   1.552 -0.7326  0.2679  0.1555
 5639SOL    HW128553   1.333   1.422   1.474  1.2181 -2.8220  2.5262
 5639SOL    HW228554   1.247   1.439   1.593 -0.3910 -1.9050 -1.2175
 5640SOL     OW28555   0.670   4.252  12.332 -0.0019  0.2011 -0.4247
 5640SOL    HW128556   0.580   4.239  12.301  0.7610 -0.1900 -2.4696
 5640SOL    HW228557   0.700   4.162  12.343 -0.9431 -0.0014  0.6068
 5641SOL     OW28558   1.277   2.610   5.672 -0.3798 -0.1683 -0.4005
 5641SOL    HW128559   1.197   2.659   5.694  0.8742  0.2860  3.1256
 5641SOL    HW228560   1.340   2.680   5.655 -1.1474  0.0992 -2.2247
 5642SOL     OW28561   2.585   1.217  12.622  0.1772  0.7349  0.5166
 5642SOL    HW128562   2.666   1.186  12.580 -0.6229  1.4736 -1.6151
 5642SOL    HW228563   2.522   1.158  12.581  0.4164  1.4076 -0.8391
 5643SOL     OW28564   1.470   1.918  14.670 -0.5288  0.0265  0.4137
 5643SOL    HW128565   1.453   1.873  14.587 -1.3732  2.5870 -0.8258
 5643SOL    HW228566   1.456   1.849  14.734  1.6042 -0.2586  0.5907
 5644SOL     OW28567   1.665   3.707   5.487  0.0681 -0.2139 -0.1373
 5644SOL    HW128568   1.703   3.643   5.426  1.8682  0.1057  0.6487
 5644SOL    HW228569   1.694   3.688   5.576  1.4205  0.2739 -0.4659
 5645SOL     OW28570   4.347   4.582   5.606  0.5614 -0.6321 -0.1881
 5645SOL    HW128571   4.401   4.521   5.658 -0.5778 -1.9536 -0.5458
 5645SOL    HW228572   4.390   4.667   5.612  0.4429 -0.5509 -0.5167
 5646SOL     OW28573   4.117   2.728   2.381 -0.5099  0.8292 -0.0094
 5646SOL    HW128574   4.025   2.710   2.366 -0.9192  0.9513  2.4224
 5646SOL    HW228575   4.154   2.641   2.365 -1.3360  0.3441  0.7751
 5647SOL     OW28576   4.295   2.991  14.572  0.5202 -0.1122 -0.4887
 5647SOL    HW128577   4.263   3.054  14.507  0.2134  0.7200  0.4706
 5647SOL    HW228578   4.352   2.940  14.515  0.3929  0.3102 -0.9974
 5648SOL     OW28579   0.182   0.193   6.795 -0.1985 -0.2610  0.1076
 5648SOL    HW128580   0.230   0.265   6.754 -0.9700  0.4341  0.4253
 5648SOL    HW228581   0.146   0.236   6.872 -0.9795 -0.6318 -0.0455
 5649SOL     OW28582   1.935   2.527   6.447  0.0503  0.3858 -0.2884
 5649SOL    HW128583   2.005   2.577   6.405 -1.7018  0.8032 -2.6565
 5649SOL    HW228584   1.990   2.473   6.504 -0.7226 -1.4983 -1.3282
 5650SOL     OW28585   1.738   3.750  13.317 -0.2168  0.0356 -0.0553
 5650SOL    HW128586   1.753   3.775  13.226  0.6258 -0.2523 -0.0017
 5650SOL    HW228587   1.643   3.757  13.321 -0.3757 -1.7793 -0.5194
 5651SOL     OW28588   4.191   1.707   4.420 -0.7022 -0.2382  0.1248
 5651SOL    HW128589   4.281   1.732   4.396 -0.6714 -1.7228 -1.3012
 5651SOL    HW228590   4.207   1.658   4.501 -0.0239  0.2215  0.2733
 5652SOL     OW28591   0.714   0.962  11.603 -0.0126  0.2095  0.2253
 5652SOL    HW128592   0.633   1.005  11.632 -0.9946 -1.4763 -0.0781
 5652SOL    HW228593   0.686   0.914  11.526  1.0604 -0.4925  0.2687
 5653SOL     OW28594   4.333   0.942   3.001  1.2911 -0.2288 -0.2244
 5653SOL    HW128595   4.420   0.941   3.039  1.2837  1.3637 -0.1711
 5653SOL    HW228596   4.285   0.881   3.058  1.7394  0.5381  0.9680
 5654SOL     OW28597   3.448   0.686   8.222  0.2817 -0.3412  0.1110
 5654SOL    HW128598   3.400   0.768   8.233  0.0972 -0.2809 -1.1327
 5654SOL    HW228599   3.409   0.653   8.303  0.1749 -0.6126 -0.0504
 5655SOL     OW28600   4.029   3.964  11.501  0.3116  0.6059 -0.3845
 5655SOL    HW128601   4.021   3.929  11.412  0.4852  0.1883 -0.2362
 5655SOL    HW228602   4.041   4.057  11.484  0.9705  1.1108  2.8031
 5656SOL     OW28603   4.683   4.035   4.608 -0.5435  0.0827  0.7888
 5656SOL    HW128604   4.603   4.042   4.660 -1.3779 -1.0164 -0.3810
 5656SOL    HW228605   4.649   4.067   4.525 -0.2317 -2.6249 -0.4048
 5657SOL     OW28606   0.561   3.631   8.213 -0.2299  0.4118 -0.7513
 5657SOL    HW128607   0.499   3.605   8.145 -1.8123  1.8429  0.1525
 5657SOL    HW228608   0.539   3.565   8.278  0.9257  0.4780 -0.3018
 5658SOL     OW28609   0.783   4.651   3.189 -0.0164 -0.0835  0.0734
 5658SOL    HW128610   0.771   4.698   3.271 -0.9133  0.2129 -0.2308
 5658SOL    HW228611   0.698   4.661   3.147  0.1113  2.2744  0.3741
 5659SOL     OW28612   1.039   2.616   2.425 -0.3293 -0.2042  0.2888
 5659SOL    HW128613   1.068   2.689   2.480  1.4634 -1.7572  1.3598
 5659SOL    HW228614   1.000   2.561   2.493  0.6090  1.1893  1.9397
 5660SOL     OW28615   2.671   4.601   5.495  0.0432  0.1435 -0.1301
 5660SOL    HW128616   2.673   4.556   5.411 -0.5581 -0.8852  0.3998
 5660SOL    HW228617   2.592   4.569   5.540  0.0478  2.6165  1.5998
 5661SOL     OW28618   2.826   3.895   7.931  0.0161 -0.2255  0.0528
 5661SOL    HW128619   2.804   3.941   7.849  1.5438  1.9634  0.8808
 5661SOL    HW228620   2.741   3.864   7.961 -0.9854  2.0261 -0.4203
 5662SOL     OW28621   1.775   4.252   8.799  0.4160  0.4165  0.1231
 5662SOL    HW128622   1.791   4.163   8.769  2.3068  1.1787 -1.1399
 5662SOL    HW228623   1.843   4.264   8.865 -1.1247  2.5754  1.2998
 5663SOL     OW28624   2.503   4.007  14.124  0.0416 -0.1714  0.1871
 5663SOL    HW128625   2.471   3.960  14.047 -1.5131 -0.2909  0.8926
 5663SOL    HW228626   2.422   4.002  14.176  1.0026 -2.8835  1.4456
 5664SOL     OW28627   0.939   1.229   7.603 -0.1363 -0.1068 -0.0062
 5664SOL    HW128628   0.961   1.322   7.613 -0.2377  0.0483 -1.3315
 5664SOL    HW228629   1.022   1.196   7.570  0.7067  2.1781 -0.2087
 5665SOL     OW28630   4.418   1.490   7.286  0.0363  0.4325  0.8003
 5665SOL    HW128631   4.454   1.498   7.198 -0.2727 -2.1200  0.4543
 5665SOL    HW228632   4.405   1.396   7.298  1.3915  0.3766  1.7664
 5666SOL     OW28633   0.721   1.633  15.029  0.2294  0.0042  0.1540
 5666SOL    HW128634   0.792   1.674  15.079  0.8313 -0.0364 -0.6654
 5666SOL    HW228635   0.744   1.540  15.028 -0.5116 -0.1740 -0.3756
 5667SOL     OW28636   1.195   2.662  14.610 -0.1540 -0.0357  0.0838
 5667SOL    HW128637   1.156   2.607  14.678  1.6424 -0.0418  1.0845
 5667SOL    HW228638   1.208   2.593  14.544  0.3060 -1.2805  1.4936
 5668SOL     OW28639   4.582   0.663   5.268  0.5260  0.0850 -0.1329
 5668SOL    HW128640   4.675   0.640   5.275  1.1759  2.2982 -1.1239
 5668SOL    HW228641   4.540   0.583   5.298  0.2292  0.2145 -0.2013
 5669SOL     OW28642   2.914   3.912   9.190 -0.6675  0.0417  0.1791
 5669SOL    HW128643   2.940   3.826   9.157 -0.0639  1.5514 -3.2685
 5669SOL    HW228644   2.994   3.964   9.177 -0.0466  0.2539  4.8221
 5670SOL     OW28645   1.506   4.298   8.811  0.4957  0.0852 -0.3056
 5670SOL    HW128646   1.601   4.287   8.819  0.4707  1.5326  2.1070
 5670SOL    HW228647   1.483   4.246   8.734  0.0640 -0.3763  0.1383
 5671SOL     OW28648   3.110   3.172   8.080  0.4971 -0.4339 -0.6466
 5671SOL    HW128649   3.175   3.160   8.011  1.6771 -1.8958  0.7098
 5671SOL    HW228650   3.081   3.081   8.082  1.7959 -0.8359  0.0998
 5672SOL     OW28651   3.532   1.002   7.359 -0.1130 -0.7709  0.0959
 5672SOL    HW128652   3.552   0.920   7.403  1.7463 -1.0641 -1.3008
 5672SOL    HW228653   3.444   0.989   7.322 -0.5079 -2.3934  1.6029
 5673SOL     OW28654   3.748   1.249  13.945  0.3923  0.2136  0.9757
 5673SOL    HW128655   3.691   1.228  14.019 -0.4467  1.7575  0.7641
 5673SOL    HW228656   3.683   1.289  13.889  0.9105  2.4662  1.9961
 5674SOL     OW28657   3.970   3.284  15.746  0.3704 -0.5873 -0.2780
 5674SOL    HW128658   4.005   3.358  15.696 -0.4796  0.1992  0.2939
 5674SOL    HW228659   4.023   3.208  15.722  0.8851  0.1308 -1.4126
 5675SOL     OW28660   2.784   0.313   1.818  0.1773  0.4720  0.0449
 5675SOL    HW128661   2.812   0.363   1.741  2.0509 -1.0057 -0.2337
 5675SOL    HW228662   2.710   0.363   1.853  1.0861  1.2089  0.9351
 5676SOL     OW28663   1.208   3.405   2.347  0.0324 -0.6789 -0.0602
 5676SOL    HW128664   1.241   3.450   2.425 -0.8606 -2.9884  1.6269
 5676SOL    HW228665   1.270   3.443   2.285  2.7938  0.3739  3.3391
 5677SOL     OW28666   3.750   1.736   9.203  0.2395  0.5473 -0.4326
 5677SOL    HW128667   3.716   1.808   9.256 -1.0125 -0.3444  0.0105
 5677SOL    HW228668   3.704   1.764   9.124 -1.7049 -0.7380  0.2226
 5678SOL     OW28669   3.609   0.849   3.413 -0.1869  0.2085  0.2376
 5678SOL    HW128670   3.667   0.893   3.351 -0.5477  0.5045  0.1127
 5678SOL    HW228671   3.614   0.756   3.388  0.1400  0.9287 -2.4135
 5679SOL     OW28672   0.132   4.086  15.586  0.1171 -0.4608 -0.4149
 5679SOL    HW128673   0.112   3.994  15.571  0.2775 -0.1281 -2.5704
 5679SOL    HW228674   0.054   4.130  15.555 -0.1838 -0.6140  0.1193
 5680SOL     OW28675   2.047   3.369   3.922 -0.1662  0.0087  0.2794
 5680SOL    HW128676   1.983   3.360   3.851  0.1318  0.3597 -0.0359
 5680SOL    HW228677   2.119   3.310   3.905 -0.8547 -1.2133  1.6262
 5681SOL     OW28678   4.014   1.642  10.980  0.2772 -0.7313  0.2461
 5681SOL    HW128679   4.041   1.639  11.072 -0.5004  2.8734  0.5684
 5681SOL    HW228680   4.072   1.571  10.950  1.5963  1.3745 -2.1585
 5682SOL     OW28681   3.611   2.121  14.842  0.3336  0.1649  0.1592
 5682SOL    HW128682   3.683   2.173  14.877 -1.3208  2.3065  0.3866
 5682SOL    HW228683   3.635   2.030  14.862  0.2861 -0.3080 -1.9230
 5683SOL     OW28684   0.254   0.007  12.865 -0.7546  0.3353  0.0297
 5683SOL    HW128685   0.328   0.005  12.804  1.3087 -1.2947  2.5925
 5683SOL    HW228686   0.280   0.072  12.929 -0.8162  1.8329 -1.4823
 5684SOL     OW28687   0.515   3.710  17.376  0.6619  0.0720 -0.2417
 5684SOL    HW128688   0.610   3.720  17.377  0.7136 -0.1928 -2.1814
 5684SOL    HW228689   0.496   3.773  17.307 -0.6952 -0.0109  0.0524
 5685SOL     OW28690   2.777   2.006   1.829  0.2863  0.3961 -0.7912
 5685SOL    HW128691   2.774   1.911   1.841  0.6824  0.2262 -2.0123
 5685SOL    HW228692   2.869   2.029   1.841 -0.0180  1.7680 -1.0724
 5686SOL     OW28693   0.508   4.263   8.053 -0.1868 -0.2572  0.3291
 5686SOL    HW128694   0.569   4.224   7.990 -1.7202  0.7814 -1.7729
 5686SOL    HW228695   0.493   4.343   8.003  0.3210 -0.6406 -0.4448
 5687SOL     OW28696   1.433   2.353   0.947  0.2898 -0.5559 -0.2424
 5687SOL    HW128697   1.429   2.346   1.043  2.2863 -1.3869 -0.2246
 5687SOL    HW228698   1.343   2.379   0.927  0.0407 -1.9613 -0.9381
 5688SOL     OW28699   0.890   3.973   5.042  0.6595 -0.3498 -0.0131
 5688SOL    HW128700   0.943   3.947   5.117 -0.0395  0.1706  0.6643
 5688SOL    HW228701   0.941   4.043   5.002 -0.7033  1.3823  1.2577
 5689SOL     OW28702   3.909   2.778  11.111 -0.1844 -0.6893  0.3973
 5689SOL    HW128703   3.926   2.760  11.018 -1.5317 -1.5658  0.3368
 5689SOL    HW228704   3.997   2.789  11.148 -1.3959  0.4294  2.9374
 5690SOL     OW28705   0.893   0.821   8.906  0.2579  0.0736 -0.3686
 5690SOL    HW128706   0.808   0.862   8.923  1.5023  1.9024  1.2805
 5690SOL    HW228707   0.876   0.727   8.920 -1.8207  0.8405  2.1962
 5691SOL     OW28708   2.317   2.901   1.988  0.4376  0.2601  0.1938
 5691SOL    HW128709   2.309   2.992   2.017 -0.1764  1.1712 -2.8655
 5691SOL    HW228710   2.244   2.854   2.029  0.5190 -0.1633 -0.1551
 5692SOL     OW28711   1.472   1.583   8.336 -0.6634 -0.1428  0.1458
 5692SOL    HW128712   1.429   1.498   8.340  0.6380 -0.8387 -0.7319
 5692SOL    HW228713   1.495   1.591   8.429 -1.0985  1.3448  0.1259
 5693SOL     OW28714   2.536   2.147   6.951 -0.6858 -0.0264  0.2811
 5693SOL    HW128715   2.484   2.083   7.000 -1.2180 -2.0824 -3.0077
 5693SOL    HW228716   2.582   2.090   6.890 -0.1395  0.3859  0.3046
 5694SOL     OW28717   3.961   4.635   6.003 -0.0091  0.3524 -0.5158
 5694SOL    HW128718   3.954   4.730   6.007  0.6104  0.2682  2.6910
 5694SOL    HW228719   4.000   4.616   5.917 -0.5919  2.1913 -1.1762
 5695SOL     OW28720   2.156   2.958   2.400  0.2396 -0.4036  0.0153
 5695SOL    HW128721   2.111   2.875   2.419 -1.4042  0.5883  0.3960
 5695SOL    HW228722   2.159   3.003   2.484 -1.5241 -0.3013  0.0263
 5696SOL     OW28723   1.587   0.474   8.686 -0.2463  0.0362 -0.6669
 5696SOL    HW128724   1.542   0.396   8.654 -0.0542 -0.5903  0.6085
 5696SOL    HW228725   1.629   0.512   8.608  0.4614 -3.1905 -1.8599
 5697SOL     OW28726   3.496   1.717  15.546 -0.3025 -0.3354 -0.2416
 5697SOL    HW128727   3.570   1.776  15.530  2.1273 -2.4731  3.0838
 5697SOL    HW228728   3.524   1.635  15.506 -0.1490  0.1058 -1.0240
 5698SOL     OW28729   4.603   2.416  14.259  0.0303 -0.0157  0.1549
 5698SOL    HW128730   4.572   2.338  14.306 -0.6549 -1.8213 -3.3405
 5698SOL    HW228731   4.686   2.439  14.301  0.6025 -2.6490  0.4215
 5699SOL     OW28732   1.014   3.681   8.131 -0.5498 -0.2855  0.4082
 5699SOL    HW128733   1.020   3.753   8.068 -2.0908  0.1067  0.7009
 5699SOL    HW228734   1.058   3.617   8.075  0.4185  0.2260  0.5930
 5700SOL     OW28735   4.473   0.744  13.840  0.1939 -0.0110 -0.2399
 5700SOL    HW128736   4.513   0.678  13.896 -0.6743 -0.8238 -0.5788
 5700SOL    HW228737   4.457   0.697  13.759 -1.4992  0.9546 -0.4800
 5701SOL     OW28738   2.699   2.376   6.331 -0.2560  0.9014 -0.2886
 5701SOL    HW128739   2.689   2.440   6.401 -0.7289  1.2678 -0.6923
 5701SOL    HW228740   2.613   2.335   6.336  0.3134 -0.0217  1.9867
 5702SOL     OW28741   1.301   0.879  17.675  0.5043  0.0816 -0.2572
 5702SOL    HW128742   1.230   0.823  17.643  0.0454  1.3041 -1.3894
 5702SOL    HW228743   1.257   0.959  17.705  3.0429  1.5388 -0.4671
 5703SOL     OW28744   3.257   4.015   0.130  0.2107 -0.2860  0.4649
 5703SOL    HW128745   3.345   4.053   0.126  0.4836 -0.8891  0.7400
 5703SOL    HW228746   3.280   3.930   0.167  1.7219  0.3672  1.0369
 5704SOL     OW28747   4.049   0.713  10.485 -0.6958 -0.3345 -0.1378
 5704SOL    HW128748   3.966   0.726  10.438  0.1229 -1.0750 -1.7924
 5704SOL    HW228749   4.033   0.785  10.546 -2.4750 -0.6573 -0.2018
 5705SOL     OW28750   2.489   0.508   7.744 -0.2107  0.3366  0.3976
 5705SOL    HW128751   2.517   0.493   7.653  1.8281 -1.2197  1.2967
 5705SOL    HW228752   2.567   0.510   7.799 -1.7093  1.0680  2.4604
 5706SOL     OW28753   3.967   1.155   0.485 -0.5342  0.4190 -0.4957
 5706SOL    HW128754   4.028   1.110   0.426 -2.4005  0.0949 -2.1958
 5706SOL    HW228755   3.891   1.099   0.502  1.0910 -1.4412  0.5854
 5707SOL     OW28756   2.335   0.685  15.788  0.6973 -0.0379 -0.1246
 5707SOL    HW128757   2.381   0.659  15.867  1.6624 -1.0037 -0.9941
 5707SOL    HW228758   2.283   0.751  15.833 -1.1175 -2.2628  0.9561
 5708SOL     OW28759   3.422   2.513   1.253 -0.7965 -0.0535  0.0482
 5708SOL    HW128760   3.420   2.549   1.342  3.3604  0.0124  0.1281
 5708SOL    HW228761   3.330   2.517   1.229 -0.3654 -1.1568 -1.7525
 5709SOL     OW28762   3.552   0.931   2.418  0.3220  0.0968 -0.4776
 5709SOL    HW128763   3.494   0.951   2.344 -0.7213  1.6399  0.7552
 5709SOL    HW228764   3.549   0.835   2.416 -0.2215  0.1194 -0.6696
 5710SOL     OW28765   0.006   1.373  11.512 -0.5002 -0.2226 -0.5997
 5710SOL    HW128766   4.653   1.395  11.504 -0.9169 -1.2227  1.4716
 5710SOL    HW228767   0.023   1.343  11.422  0.6882 -0.4415 -0.2951
 5711SOL     OW28768   0.896   2.965   2.389  0.0092  0.0850 -0.3095
 5711SOL    HW128769   0.973   2.964   2.333  0.0258  1.9626 -0.3234
 5711SOL    HW228770   0.865   3.050   2.358 -3.1045 -0.1393  2.2259
 5712SOL     OW28771   3.850   3.267   4.358 -0.2391 -0.1272  0.5846
 5712SOL    HW128772   3.887   3.293   4.443  0.3343 -0.4997  0.4513
 5712SOL    HW228773   3.781   3.214   4.397 -0.3620  0.3123  0.9771
 5713SOL     OW28774   4.305   0.422   5.221  0.5155 -0.1684 -0.8794
 5713SOL    HW128775   4.260   0.338   5.213 -0.8287  0.4056  0.7030
 5713SOL    HW228776   4.242   0.492   5.201  0.1633  0.4758  2.4231
 5714SOL     OW28777   3.761   3.636  15.151  0.6168 -0.4982 -0.9023
 5714SOL    HW128778   3.801   3.705  15.098 -0.0100 -0.6679 -1.5940
 5714SOL    HW228779   3.793   3.555  15.112  1.9773 -0.8496  0.9186
 5715SOL     OW28780   3.001   1.503  15.970 -0.4742  0.1807  0.3180
 5715SOL    HW128781   2.991   1.583  15.918 -0.9383 -0.4542 -0.5699
 5715SOL    HW228782   3.077   1.468  15.923 -1.6744 -2.5241  0.3859
 5716SOL     OW28783   4.652   3.545   8.082  0.6200  0.2165  0.2813
 5716SOL    HW128784   4.710   3.580   8.014 -2.1578  1.9992 -1.1579
 5716SOL    HW228785   4.665   3.450   8.082  0.5019  0.1997 -3.2921
 5717SOL     OW28786   1.708   4.701   5.341 -0.4565 -0.1459 -0.4669
 5717SOL    HW128787   1.681   4.707   5.249  0.1480  2.0967 -0.4712
 5717SOL    HW228788   1.659   4.628   5.379  0.8216 -0.3655  0.7302
 5718SOL     OW28789   2.395   3.045   3.112 -0.0255 -0.3588 -0.0599
 5718SOL    HW128790   2.420   3.067   3.202  1.0942  0.3883 -0.5704
 5718SOL    HW228791   2.368   3.126   3.069  1.4293 -1.0070 -2.1766
 5719SOL     OW28792   0.224   0.082  16.181 -0.0660  0.0528  0.3244
 5719SOL    HW128793   0.152   0.042  16.133 -1.4007  0.0716  2.2938
 5719SOL    HW228794   0.294   0.038  16.133  0.7955 -0.7646  2.3034
 5720SOL     OW28795   4.548   3.045   8.405  0.1185 -0.2020 -0.2812
 5720SOL    HW128796   4.523   2.955   8.382  0.3715 -0.6345  1.1652
 5720SOL    HW228797   4.607   3.031   8.479 -1.4044  4.5469  1.7963
 5721SOL     OW28798   0.635   1.159   5.405 -0.0409 -0.4458  0.2689
 5721SOL    HW128799   0.721   1.125   5.430  0.7978  0.5081 -1.4199
 5721SOL    HW228800   0.647   1.251   5.425  0.4504 -0.6430  0.9094
 5722SOL     OW28801   2.122   0.069   7.070  0.3441 -0.2841 -0.2111
 5722SOL    HW128802   2.207   0.037   7.040  0.2188 -1.0264  0.2381
 5722SOL    HW228803   2.147   0.149   7.116 -0.7171  1.2594 -2.2725
 5723SOL     OW28804   0.469   4.113   2.554 -0.1858 -0.3610 -0.7252
 5723SOL    HW128805   0.550   4.066   2.575  1.5092  0.9487 -4.4306
 5723SOL    HW228806   0.496   4.149   2.470 -0.2147  2.7983  0.6289
 5724SOL     OW28807   3.941   2.923   3.825 -0.0466  0.4362 -0.6562
 5724SOL    HW128808   3.935   2.957   3.736  1.1202  3.3798  0.3881
 5724SOL    HW228809   3.929   2.828   3.819 -2.6128  0.3459  5.1508
 5725SOL     OW28810   0.544   2.691   8.045  0.1294  0.0699 -0.1608
 5725SOL    HW128811   0.503   2.756   8.103 -0.2814 -2.0758  1.9419
 5725SOL    HW228812   0.580   2.631   8.111 -2.7404  1.4945  2.7032
 5726SOL     OW28813   4.443   2.854  11.961  0.0732  0.1638 -0.0628
 5726SOL    HW128814   4.534   2.878  11.946  0.2703 -0.6829 -0.2367
 5726SOL    HW228815   4.459   2.783  12.023  1.5379 -0.8467 -1.5720
 5727SOL     OW28816   2.647   1.737   4.496 -0.7503 -0.7022 -0.1773
 5727SOL    HW128817   2.578   1.723   4.561  1.0878  2.2456  2.4063
 5727SOL    HW228818   2.693   1.803   4.547 -1.0264  0.3125 -1.2537
 5728SOL     OW28819   0.906   2.596  15.969  0.0965 -0.0507 -0.0742
 5728SOL    HW128820   0.896   2.690  15.984 -0.0858  0.0307 -0.6918
 5728SOL    HW228821   0.850   2.571  16.042 -0.3149  2.7187  0.5443
 5729SOL     OW28822   3.773   3.006  15.886 -0.1913  0.1743 -0.1149
 5729SOL    HW128823   3.854   2.962  15.863 -1.0924 -1.7053  0.2965
 5729SOL    HW228824   3.755   3.057  15.808  1.8208 -0.6751 -1.1218
 5730SOL     OW28825   0.735   2.643   8.278 -0.3567  0.2122 -0.4657
 5730SOL    HW128826   0.755   2.628   8.370  0.2046 -1.1103 -0.8101
 5730SOL    HW228827   0.720   2.738   8.275 -1.4661  0.0034 -1.3699
 5731SOL     OW28828   2.162   3.843   9.736  0.2385  0.0418  0.6423
 5731SOL    HW128829   2.110   3.766   9.709 -0.5965  0.1364  1.9957
 5731SOL    HW228830   2.249   3.804   9.731  0.7196  0.9437  2.1584
 5732SOL     OW28831   0.600   3.259  12.705  0.3524 -0.1613 -0.3526
 5732SOL    HW128832   0.559   3.314  12.773  2.9708  0.6269  0.5991
 5732SOL    HW228833   0.606   3.172  12.745  1.2511  0.0015 -0.1319
 5733SOL     OW28834   1.590   3.640  10.245 -0.2386  0.0689  0.1774
 5733SOL    HW128835   1.525   3.570  10.252  0.4321 -0.4563  1.2531
 5733SOL    HW228836   1.604   3.664  10.337 -1.2520 -0.7283  0.5441
 5734SOL     OW28837   3.988   1.320   7.686 -0.0880 -0.4737  0.0578
 5734SOL    HW128838   3.926   1.367   7.742  0.5188  0.2471  0.1252
 5734SOL    HW228839   4.075   1.348   7.713 -0.1088 -0.6379  0.2901
 5735SOL     OW28840   3.629   3.583  13.257 -0.3892  0.1448 -0.0771
 5735SOL    HW128841   3.592   3.496  13.275  0.3038 -0.3187 -0.8995
 5735SOL    HW228842   3.552   3.634  13.233  0.5575  2.0279  0.8539
 5736SOL     OW28843   3.070   0.005   2.389  0.2119  0.6615 -0.1153
 5736SOL    HW128844   3.140   0.021   2.325 -0.7927 -1.7255 -1.7795
 5736SOL    HW228845   3.055   0.097   2.411 -1.1309  0.0359  1.5598
 5737SOL     OW28846   1.682   0.279   2.219  0.7738  0.3744  0.1659
 5737SOL    HW128847   1.629   0.234   2.153  1.3086  0.4049 -0.2831
 5737SOL    HW228848   1.614   0.301   2.283  0.9736  0.0597  0.4851
 5738SOL     OW28849   4.565   0.208  13.574  0.4152  0.1128  0.3230
 5738SOL    HW128850   4.481   0.165  13.589 -0.0590  0.2482 -1.9000
 5738SOL    HW228851   4.606   0.152  13.508 -0.1784  1.1260 -0.9043
 5739SOL     OW28852   2.544   3.158   2.039 -0.2400 -0.1713 -0.7019
 5739SOL    HW128853   2.503   3.102   2.106  0.3759  1.3552  0.9667
 5739SOL    HW228854   2.608   3.187   2.104 -0.2443 -0.2850 -0.6457
 5740SOL     OW28855   3.102   4.476   2.860  0.6185 -0.0202 -0.4289
 5740SOL    HW128856   3.016   4.513   2.880  1.2859  0.7039  1.0608
 5740SOL    HW228857   3.101   4.476   2.764  0.3939 -2.7340 -0.4272
 5741SOL     OW28858   4.730   0.241   3.114  0.0742  0.8922 -0.0370
 5741SOL    HW128859   4.729   0.151   3.147 -1.7448  0.5811 -0.9525
 5741SOL    HW228860   0.024   0.230   3.025  0.7626  0.1173  0.3123
 5742SOL     OW28861   2.526   2.470   7.834  0.8101 -0.8433 -0.2025
 5742SOL    HW128862   2.502   2.377   7.826  0.0587 -0.5927 -0.8585
 5742SOL    HW228863   2.513   2.494   7.925  0.2902  0.8008 -0.7178
 5743SOL     OW28864   1.814   0.273   0.566 -0.3229  0.6463  0.3159
 5743SOL    HW128865   1.741   0.326   0.599 -1.1911  0.2344 -0.9008
 5743SOL    HW228866   1.804   0.274   0.470  1.3670  1.9193  0.1562
 5744SOL     OW28867   4.157   2.714   8.653  0.7416  0.3385 -0.1286
 5744SOL    HW128868   4.129   2.750   8.569  2.7947  1.5988 -0.2735
 5744SOL    HW228869   4.085   2.761   8.697 -0.3496 -1.8917  0.4427
 5745SOL     OW28870   0.649   2.559   2.368 -0.1909  0.7288 -0.5308
 5745SOL    HW128871   0.690   2.640   2.338  0.7424  0.5865  0.3679
 5745SOL    HW228872   0.685   2.539   2.455  3.2161 -1.5118 -2.4401
 5746SOL     OW28873   4.300   3.334   7.016 -0.2532 -0.0849  0.7227
 5746SOL    HW128874   4.337   3.390   7.084  1.5905 -0.0937 -0.2890
 5746SOL    HW228875   4.366   3.265   7.011 -1.5918 -1.3234 -0.0040
 5747SOL     OW28876   0.267   0.005   6.569  0.5586 -0.4334 -0.1914
 5747SOL    HW128877   0.276   0.085   6.621 -1.3316 -1.0506  1.0837
 5747SOL    HW228878   0.351   4.701   6.583  1.6124  1.3918 -0.8843
 5748SOL     OW28879   2.477   0.658  16.019 -0.0290 -0.4910  0.4114
 5748SOL    HW128880   2.557   0.606  16.004 -1.2821 -2.2012 -0.2982
 5748SOL    HW228881   2.521   0.732  16.061  2.2547 -1.1228 -0.8525
 5749SOL     OW28882   1.254   1.062   8.493  0.1571  0.2881 -0.3247
 5749SOL    HW128883   1.169   1.104   8.484  0.4383  1.1171  0.8010
 5749SOL    HW228884   1.241   0.978   8.538  0.5866 -0.3632 -1.4133
 5750SOL     OW28885   4.334   2.341  14.731  0.3576 -0.2536 -0.1648
 5750SOL    HW128886   4.244   2.307  14.727 -0.1699  1.1707 -0.4703
 5750SOL    HW228887   4.314   2.417  14.786  2.7822 -2.0032  3.1570
 5751SOL     OW28888   1.931   1.523   6.780  0.0453 -0.3706  0.2992
 5751SOL    HW128889   1.911   1.565   6.696 -1.8928  0.3948  1.1449
 5751SOL    HW228890   1.932   1.434   6.744 -1.5415  0.1274 -0.9846
 5752SOL     OW28891   1.768   3.186   8.687  0.2389 -0.4837  0.1083
 5752SOL    HW128892   1.721   3.124   8.632 -0.8920  1.1722 -0.8055
 5752SOL    HW228893   1.722   3.185   8.771  0.9376  1.7690  0.5314
 5753SOL     OW28894   2.088   2.744   9.303  0.4937 -0.3984 -0.4903
 5753SOL    HW128895   2.039   2.826   9.315  2.3057  0.9553 -2.3097
 5753SOL    HW228896   2.035   2.679   9.349  1.5814 -0.8203  0.1631
 5754SOL     OW28897   3.340   1.783   2.814  0.2510 -0.0155 -0.0999
 5754SOL    HW128898   3.307   1.745   2.732  0.8471  1.7911 -1.1748
 5754SOL    HW228899   3.261   1.784   2.868 -0.9407 -1.4632 -1.8155
 5755SOL     OW28900   3.836   4.354   9.617 -0.4427 -0.4683 -0.0813
 5755SOL    HW128901   3.825   4.388   9.529  0.8962  0.7421  0.2114
 5755SOL    HW228902   3.753   4.308   9.626 -0.8924 -0.1510 -2.7794
 5756SOL     OW28903   0.020   3.297   5.433 -0.7180 -0.0970 -0.3970
 5756SOL    HW128904   4.739   3.219   5.382  0.0841 -0.2750 -0.4573
 5756SOL    HW228905   4.700   3.358   5.389  1.4542  1.3437 -1.3683
 5757SOL     OW28906   4.409   0.632   2.004 -0.4268  0.3216 -0.0897
 5757SOL    HW128907   4.428   0.726   2.002  0.0273  0.2200 -0.6838
 5757SOL    HW228908   4.457   0.621   2.087 -0.7268 -1.2977 -0.1365
 5758SOL     OW28909   4.272   2.401   5.031 -0.2292 -0.7631 -0.0617
 5758SOL    HW128910   4.332   2.443   4.969 -0.4025 -1.9699 -1.0427
 5758SOL    HW228911   4.234   2.486   5.055 -0.5220 -0.4983 -1.5072
 5759SOL     OW28912   2.774   2.134   6.710 -0.1961 -0.5565  0.1274
 5759SOL    HW128913   2.858   2.154   6.751  0.8433 -0.8099 -1.8661
 5759SOL    HW228914   2.768   2.046   6.747 -0.7956 -0.4445  0.2935
 5760SOL     OW28915   3.029   0.063   7.109  0.3901  0.2797 -0.2564
 5760SOL    HW128916   3.083   0.003   7.059 -0.7622 -1.0374  0.0965
 5760SOL    HW228917   2.944   0.044   7.070 -0.3741  0.5521  1.2458
 5761SOL     OW28918   3.981   2.072   6.012  0.3590 -0.3476  0.1250
 5761SOL    HW128919   3.894   2.103   5.988 -0.0264 -0.8397  0.8614
 5761SOL    HW228920   3.986   1.997   5.952  1.6763 -0.0643 -0.1038
 5762SOL     OW28921   3.472   2.854  12.131 -0.2752 -0.0800  0.1586
 5762SOL    HW128922   3.499   2.945  12.124 -1.5823  0.3603  0.8200
 5762SOL    HW228923   3.429   2.845  12.046 -3.7831 -0.8266  2.0153
 5763SOL     OW28924   0.766   2.748   6.332  0.7111  0.3680  0.0794
 5763SOL    HW128925   0.782   2.668   6.280  0.6800  0.8632 -0.6979
 5763SOL    HW228926   0.805   2.821   6.284 -0.9813  1.6745  0.7420
 5764SOL     OW28927   0.902   3.478   4.230  0.8495  0.1936  0.0211
 5764SOL    HW128928   0.928   3.509   4.143 -1.7093 -1.0120 -1.1623
 5764SOL    HW228929   0.905   3.384   4.211 -0.1980 -0.4137  2.8655
 5765SOL     OW28930   0.798   4.240  17.694 -0.0120  0.3224 -0.0010
 5765SOL    HW128931   0.809   4.276   0.024 -1.6538  2.9925 -0.8718
 5765SOL    HW228932   0.879   4.266  17.650 -0.8784  0.1267 -1.7083
 5766SOL     OW28933   0.788   2.429  16.826 -0.1714 -0.0861 -0.1354
 5766SOL    HW128934   0.808   2.386  16.909  1.1326  0.1556 -0.3200
 5766SOL    HW228935   0.878   2.443  16.795 -0.2002 -0.0207 -0.1883
 5767SOL     OW28936   3.883   1.745   1.995  1.1459  0.5013 -0.2064
 5767SOL    HW128937   3.865   1.684   2.067 -1.7956  1.5107 -0.1139
 5767SOL    HW228938   3.823   1.716   1.927 -0.0897  0.8354  0.7413
 5768SOL     OW28939   3.933   3.394   0.806 -0.0452 -0.4849 -0.8776
 5768SOL    HW128940   3.910   3.362   0.894  3.3988  1.8585  0.8510
 5768SOL    HW228941   3.869   3.464   0.795 -0.9879 -1.0884  0.5739
 5769SOL     OW28942   1.605   1.746   2.587 -1.0767  0.1303  0.1634
 5769SOL    HW128943   1.530   1.802   2.569 -0.2732  1.2011  0.1429
 5769SOL    HW228944   1.667   1.799   2.537 -0.2971 -0.9311  0.0077
 5770SOL     OW28945   0.892   3.555  17.285  0.2527 -0.1001  0.1470
 5770SOL    HW128946   0.957   3.608  17.241  0.4998 -0.8571 -0.3822
 5770SOL    HW228947   0.856   3.626  17.338  0.3511  0.0613 -0.0030
 5771SOL     OW28948   3.840   1.708   6.683  0.0731  0.4044 -0.0061
 5771SOL    HW128949   3.918   1.756   6.712  0.8371 -1.9202  1.7212
 5771SOL    HW228950   3.813   1.761   6.608 -1.9204  1.7687  1.6438
 5772SOL     OW28951   1.957   1.926  16.655  0.1377 -0.0001 -0.3162
 5772SOL    HW128952   1.899   1.999  16.677 -0.3408 -0.0574 -1.3939
 5772SOL    HW228953   1.960   1.882  16.739 -1.4420  0.0625 -0.2372
 5773SOL     OW28954   3.957   0.766   3.811 -0.2115  0.0862  0.6772
 5773SOL    HW128955   3.921   0.779   3.723 -1.5800 -1.8899  0.9493
 5773SOL    HW228956   3.951   0.851   3.853  2.6239  0.6508 -0.0741
 5774SOL     OW28957   0.836   1.219  16.922  0.7057 -0.3006 -0.1791
 5774SOL    HW128958   0.899   1.163  16.967  1.2915  0.9033  0.5121
 5774SOL    HW228959   0.753   1.185  16.956 -0.2403  2.5431  0.3614
 5775SOL     OW28960   2.471   2.993   8.646  0.5975  0.6798  0.1482
 5775SOL    HW128961   2.529   3.059   8.685 -0.2347  0.2740  2.0576
 5775SOL    HW228962   2.419   2.993   8.726  1.5190  0.8238  0.7539
 5776SOL     OW28963   1.197   3.444   6.545 -0.9983  0.2105 -0.4287
 5776SOL    HW128964   1.133   3.373   6.532 -1.3502  0.6096 -0.8632
 5776SOL    HW228965   1.145   3.493   6.608 -1.4809 -0.8850  0.0312
 5777SOL     OW28966   2.012   0.223   6.537 -0.6792  0.2389 -0.2693
 5777SOL    HW128967   2.094   0.273   6.541 -1.2996  1.0716  1.9840
 5777SOL    HW228968   2.038   0.149   6.592  0.6975 -0.4847 -1.9193
 5778SOL     OW28969   3.969   1.924   9.002  0.6741 -0.5229  0.1200
 5778SOL    HW128970   3.889   1.937   9.053  0.9554 -1.3401  0.7691
 5778SOL    HW228971   3.981   2.017   8.985 -1.4444  0.1217  2.1364
 5779SOL     OW28972   4.419   0.712   8.235  0.7659  0.1264  0.2276
 5779SOL    HW128973   4.482   0.660   8.185  0.1755  0.4656 -0.8703
 5779SOL    HW228974   4.356   0.734   8.166 -0.2723 -0.7787  0.8974
 5780SOL     OW28975   4.104   1.529   9.121  0.3239 -0.0958 -0.3716
 5780SOL    HW128976   4.184   1.523   9.069  0.8040 -1.3429  0.5090
 5780SOL    HW228977   4.040   1.577   9.068  0.3257 -2.2374 -2.2892
 5781SOL     OW28978   3.240   2.818   4.353 -0.4253 -0.2980 -0.5052
 5781SOL    HW128979   3.156   2.787   4.387 -0.9489 -1.6134 -2.9701
 5781SOL    HW228980   3.258   2.749   4.289  1.1703  0.3765 -0.7902
 5782SOL     OW28981   1.290   4.556   6.566 -0.1383  0.0320 -0.0905
 5782SOL    HW128982   1.195   4.565   6.564 -0.2027 -1.0644 -2.3777
 5782SOL    HW228983   1.315   4.617   6.635  0.4793  1.0733 -1.2184
 5783SOL     OW28984   1.281   2.873   8.138 -0.0387  0.2114  0.0011
 5783SOL    HW128985   1.244   2.821   8.067  1.4273 -3.5559  1.9230
 5783SOL    HW228986   1.206   2.862   8.197 -0.7192  0.5364 -0.8131
 5784SOL     OW28987   0.452   2.763   4.830 -0.1371 -0.5412  0.7515
 5784SOL    HW128988   0.358   2.757   4.846  0.0089  1.2279  2.3477
 5784SOL    HW228989   0.461   2.845   4.879  1.9166 -0.6041  0.4734
 5785SOL     OW28990   2.419   4.376   7.183  0.2790 -0.1956  0.0376
 5785SOL    HW128991   2.339   4.335   7.149 -0.2524 -0.3659  1.4568
 5785SOL    HW228992   2.385   4.447   7.238 -0.0496 -0.1535 -0.2158
 5786SOL     OW28993   0.038   0.424   7.268  0.3956  0.3409 -0.6830
 5786SOL    HW128994   0.033   0.517   7.290  1.5196  0.5380 -1.2866
 5786SOL    HW228995   0.002   0.424   7.179  0.0940  1.1714 -0.5654
 5787SOL     OW28996   4.127   2.248   3.461 -0.5462 -0.3951  0.1512
 5787SOL    HW128997   4.206   2.256   3.407 -0.7917 -1.5988 -0.3927
 5787SOL    HW228998   4.117   2.341   3.478 -1.1065 -0.8251  2.2220
 5788SOL     OW28999   4.286   1.577   1.337 -0.6028 -0.3294  0.3384
 5788SOL    HW129000   4.231   1.499   1.343 -1.6672  0.5352  1.8902
 5788SOL    HW229001   4.365   1.536   1.303  0.0191  0.8353  0.3612
 5789SOL     OW29002   3.124   0.399   5.622  0.3821 -0.5854 -0.1163
 5789SOL    HW129003   3.118   0.308   5.594  0.7191 -0.4861 -0.5137
 5789SOL    HW229004   3.184   0.431   5.554  1.2717 -1.2868  0.3393
 5790SOL     OW29005   0.666   3.535   2.263  0.0728 -0.2926 -0.0069
 5790SOL    HW129006   0.612   3.542   2.342 -1.4604 -0.4025 -1.0465
 5790SOL    HW229007   0.615   3.462   2.226 -0.9980  0.2695  0.3534
 5791SOL     OW29008   3.156   4.308   8.109  0.1600  0.7504 -0.5860
 5791SOL    HW129009   3.101   4.362   8.053  2.1748  1.9234 -1.4224
 5791SOL    HW229010   3.238   4.348   8.083  0.5162 -1.2721 -2.5295
 5792SOL     OW29011   3.232   2.341   3.055 -0.3133 -0.5627 -0.2969
 5792SOL    HW129012   3.320   2.376   3.066 -0.3524 -0.6908  0.4640
 5792SOL    HW229013   3.242   2.264   3.111  1.0240 -1.0143 -1.1533
 5793SOL     OW29014   1.541   1.224   9.549 -0.0274 -0.0208  0.0999
 5793SOL    HW129015   1.553   1.132   9.570 -2.0598 -1.2251 -3.9446
 5793SOL    HW229016   1.530   1.219   9.454 -1.5879  1.2837  0.2115
 5794SOL     OW29017   0.588   3.411   8.405 -0.1149 -0.0982  0.6432
 5794SOL    HW129018   0.553   3.400   8.494  2.0946  1.5895  1.7377
 5794SOL    HW229019   0.674   3.370   8.418 -0.4247 -1.0733 -0.3377
 5795SOL     OW29020   0.038   1.357   5.020 -0.3614  0.0880  0.1456
 5795SOL    HW129021   0.056   1.349   5.114  0.9424  0.5747 -0.0571
 5795SOL    HW229022   0.124   1.378   4.985 -1.3618 -1.4263 -3.1894
 5796SOL     OW29023   1.419   1.718   6.988 -0.2513 -0.1725 -0.3443
 5796SOL    HW129024   1.460   1.792   6.944 -1.2221 -0.0615 -1.0722
 5796SOL    HW229025   1.489   1.652   6.984  0.5262  0.6770 -0.7795
 5797SOL     OW29026   2.712   1.674   7.197 -0.2619  0.0406  0.3315
 5797SOL    HW129027   2.762   1.599   7.231 -0.2888 -0.9047 -1.6719
 5797SOL    HW229028   2.631   1.632   7.168  0.5436 -0.1061 -1.7253
 5798SOL     OW29029   4.658   2.770   7.928  0.2511 -0.2988 -0.1154
 5798SOL    HW129030   0.001   2.804   7.960  0.1915  0.4067 -0.7179
 5798SOL    HW229031   4.597   2.806   7.993  0.2882  1.1442 -0.8926
 5799SOL     OW29032   2.305   0.778   6.090 -0.0520 -0.3254 -0.1017
 5799SOL    HW129033   2.301   0.699   6.036 -0.4344 -0.4242  0.0690
 5799SOL    HW229034   2.383   0.823   6.059 -0.5042 -1.7167 -3.3077
 5800SOL     OW29035   4.009   3.703  13.862  0.3418 -0.3731 -0.8223
 5800SOL    HW129036   4.055   3.621  13.881  1.0690  0.3453  0.4415
 5800SOL    HW229037   3.968   3.673  13.781 -0.6087 -0.9783 -0.1199
 5801SOL     OW29038   0.665   4.642   2.829  0.1534 -0.2829 -0.3201
 5801SOL    HW129039   0.730   4.711   2.839 -1.8526  1.4580  0.9080
 5801SOL    HW229040   0.588   4.687   2.864  0.1433 -0.4323 -0.1519
 5802SOL     OW29041   2.954   3.269   7.463  0.3162 -0.4609  0.5436
 5802SOL    HW129042   2.997   3.352   7.483  0.8293 -0.7741  0.7262
 5802SOL    HW229043   2.879   3.278   7.523 -0.0870  2.2872 -0.3974
 5803SOL     OW29044   1.572   0.909  17.266 -0.8274 -0.1736 -0.1413
 5803SOL    HW129045   1.571   0.879  17.175 -0.6071  0.1287 -0.2384
 5803SOL    HW229046   1.572   0.828  17.318 -1.3346 -2.3863 -3.6138
 5804SOL     OW29047   4.671   1.300   5.640 -0.1852  0.1895 -0.3499
 5804SOL    HW129048   4.596   1.244   5.663 -0.0989 -1.3827 -3.9325
 5804SOL    HW229049   4.737   1.251   5.689  0.7050  0.8177 -0.9271
 5805SOL     OW29050   3.702   4.612   6.916 -0.1470  0.4284 -0.1354
 5805SOL    HW129051   3.760   4.688   6.913  1.2296 -0.6218 -0.0928
 5805SOL    HW229052   3.766   4.549   6.882 -0.7750 -0.0849 -0.3556
 5806SOL     OW29053   0.186   0.824   9.515 -0.0560 -0.2020  0.3645
 5806SOL    HW129054   0.227   0.907   9.489 -0.2229  0.2121  1.4106
 5806SOL    HW229055   0.200   0.833   9.609 -1.0356  0.3205  0.4635
 5807SOL     OW29056   3.530   0.632   1.353  0.0423 -0.6152  0.9837
 5807SOL    HW129057   3.557   0.663   1.439  3.8166 -1.4744  0.1221
 5807SOL    HW229058   3.438   0.630   1.378 -0.1134  3.9888  0.7663
 5808SOL     OW29059   4.665   2.540   8.948 -0.3150  0.5188 -0.1595
 5808SOL    HW129060   0.013   2.504   8.955 -0.6115 -0.4105 -1.2360
 5808SOL    HW229061   4.661   2.574   8.858 -2.4739 -1.2322 -0.7337
 5809SOL     OW29062   0.519   3.073   6.467  0.3570 -0.4533 -0.5120
 5809SOL    HW129063   0.477   3.081   6.553  0.2914  1.2559 -0.6994
 5809SOL    HW229064   0.467   3.141   6.425 -0.3567 -0.0043  1.0889
 5810SOL     OW29065   2.528   0.789   9.376  0.6117  0.2913  0.5303
 5810SOL    HW129066   2.534   0.786   9.472  2.9239 -1.4836  0.3231
 5810SOL    HW229067   2.435   0.771   9.361 -0.1357  2.0312  3.0620
 5811SOL     OW29068   2.251   3.072   6.925  0.1341 -0.1591  0.0160
 5811SOL    HW129069   2.193   3.138   6.887  0.3925  0.7866  1.2821
 5811SOL    HW229070   2.183   3.005   6.931 -1.6165  1.7723  1.4347
 5812SOL     OW29071   2.394   2.320  14.920 -0.3324 -0.2303 -0.7798
 5812SOL    HW129072   2.368   2.406  14.952 -0.2255  0.3014 -2.0892
 5812SOL    HW229073   2.420   2.264  14.993  0.1830  1.9327  0.7080
 5813SOL     OW29074   2.314   0.830  10.477  0.7523  0.8250 -0.1669
 5813SOL    HW129075   2.286   0.921  10.472 -0.2783  0.5241  0.1784
 5813SOL    HW229076   2.407   0.848  10.464  1.3218 -1.2688  0.8838
 5814SOL     OW29077   0.756   2.534   4.521 -0.0292 -0.6607  0.2142
 5814SOL    HW129078   0.725   2.597   4.585  0.2838  0.8830 -1.1512
 5814SOL    HW229079   0.805   2.475   4.578 -0.1444 -1.9429 -0.9904
 5815SOL     OW29080   3.913   3.579   1.581  0.6845 -0.2652  0.2324
 5815SOL    HW129081   3.865   3.598   1.661  2.0172  0.0614  0.9500
 5815SOL    HW229082   3.843   3.538   1.531  1.1434 -1.1200  0.2807
 5816SOL     OW29083   0.236   0.321   3.467  0.4831 -0.0381  0.5363
 5816SOL    HW129084   0.318   0.273   3.455 -1.2227 -3.7166  3.5749
 5816SOL    HW229085   0.178   0.253   3.502  1.2841 -1.0476 -0.1021
 5817SOL     OW29086   2.959   1.027  12.134  0.8353  0.2145  0.1673
 5817SOL    HW129087   2.898   1.021  12.208  0.7834  1.5102  0.2315
 5817SOL    HW229088   3.027   1.076  12.180  0.8892  1.1895 -0.9527
 5818SOL     OW29089   4.325   4.257  11.214 -0.0744 -0.2856  0.2437
 5818SOL    HW129090   4.306   4.348  11.235 -1.8547 -0.5721 -0.1172
 5818SOL    HW229091   4.420   4.262  11.208 -0.2502  1.1644 -1.4300
 5819SOL     OW29092   3.139   1.717   1.949  0.5715 -0.0519  0.2117
 5819SOL    HW129093   3.216   1.735   2.004 -0.5280  0.6823  1.5324
 5819SOL    HW229094   3.145   1.623   1.966  0.9287 -0.5886 -2.8880
 5820SOL     OW29095   3.399   1.548  12.526  0.1782  0.5526  0.6982
 5820SOL    HW129096   3.320   1.538  12.474 -0.9723  1.6418  2.2254
 5820SOL    HW229097   3.461   1.575  12.458 -0.4533 -1.9037 -0.8453
 5821SOL     OW29098   3.897   3.801   5.372  0.2858  0.0970  0.0354
 5821SOL    HW129099   3.934   3.836   5.291 -1.0208  0.3246 -0.4641
 5821SOL    HW229100   3.948   3.849   5.438  0.6407 -0.9932  0.5564
 5822SOL     OW29101   4.124   4.245   0.088  0.8061  0.7215 -0.0384
 5822SOL    HW129102   4.196   4.284   0.138  1.7746 -0.8604 -0.1999
 5822SOL    HW229103   4.147   4.153   0.102  0.9889  0.7586 -0.0947
 5823SOL     OW29104   3.468   4.050  14.625 -0.6376 -0.0867 -0.0716
 5823SOL    HW129105   3.493   4.080  14.537 -2.1658 -0.2383 -0.5648
 5823SOL    HW229106   3.388   4.101  14.639  0.6725  2.0744 -0.4662
 5824SOL     OW29107   1.920   4.588   8.256  0.2518 -0.1299 -0.1833
 5824SOL    HW129108   1.977   4.513   8.241  0.4806  0.1001 -0.4651
 5824SOL    HW229109   1.856   4.573   8.185  0.2376  0.3863 -0.2776
 5825SOL     OW29110   4.342   0.907  15.337  0.2915  0.0044  0.3913
 5825SOL    HW129111   4.275   0.954  15.288 -0.0435 -1.5072 -0.5984
 5825SOL    HW229112   4.290   0.843  15.385 -0.8140  0.7253  0.1459
 5826SOL     OW29113   0.653   0.588   4.887  0.1805 -0.0810 -0.0535
 5826SOL    HW129114   0.699   0.671   4.879  1.2344 -0.7647 -1.1615
 5826SOL    HW229115   0.561   0.600   4.910 -0.2638 -2.8120 -0.3420
 5827SOL     OW29116   1.212   3.001  11.660 -0.1369 -0.0982 -0.2605
 5827SOL    HW129117   1.184   3.091  11.680  2.1781  0.6235 -0.2492
 5827SOL    HW229118   1.139   2.941  11.672  0.4277 -0.7918 -0.3101
 5828SOL     OW29119   1.813   4.182   9.977  0.1507  0.5843 -0.0772
 5828SOL    HW129120   1.904   4.198   9.953  0.4915 -1.3290 -0.0578
 5828SOL    HW229121   1.818   4.092  10.009 -1.2230  0.0307 -1.4322
 5829SOL     OW29122   0.305   1.437   4.999 -0.6288  0.5180  0.3597
 5829SOL    HW129123   0.290   1.502   5.068  2.7116  0.8233  0.7939
 5829SOL    HW229124   0.362   1.371   5.037 -0.1718 -0.1551 -1.5016
 5830SOL     OW29125   2.699   2.346  11.947  0.2052  0.0142 -0.0216
 5830SOL    HW129126   2.630   2.370  11.886  0.1982  0.1879  0.0560
 5830SOL    HW229127   2.761   2.287  11.905  0.4185  1.7934 -2.1560
 5831SOL     OW29128   2.910   3.006   0.764  0.3363 -0.2352  0.1464
 5831SOL    HW129129   2.963   3.085   0.753 -2.0596  1.6522  2.3684
 5831SOL    HW229130   2.864   3.040   0.840 -0.2398 -2.3075  0.7331
 5832SOL     OW29131   3.514   3.206   2.025  0.1425  0.3335  0.0100
 5832SOL    HW129132   3.447   3.245   1.969  0.7704 -0.7180 -1.4808
 5832SOL    HW229133   3.491   3.245   2.109 -1.3079 -1.7028  0.5660
 5833SOL     OW29134   1.391   3.611   9.959  0.3899 -0.0910  0.0632
 5833SOL    HW129135   1.325   3.679   9.973 -0.3395 -0.5243 -1.1868
 5833SOL    HW229136   1.413   3.591  10.050 -1.2329  0.4937  0.5907
 5834SOL     OW29137   2.424   3.784   2.522  0.0668  0.6231  0.0820
 5834SOL    HW129138   2.441   3.878   2.521  0.2227  0.6069  1.0926
 5834SOL    HW229139   2.493   3.762   2.585  0.7489 -0.9749 -1.2273
 5835SOL     OW29140   0.768   2.213   9.386 -0.5428 -0.2322 -0.3067
 5835SOL    HW129141   0.742   2.121   9.394 -1.0221  0.1335  2.2251
 5835SOL    HW229142   0.862   2.204   9.405 -1.1399 -0.9275  2.1705
 5836SOL     OW29143   4.124   3.811   5.600 -0.0226 -0.2187  0.0629
 5836SOL    HW129144   4.100   3.904   5.595 -0.7846 -0.6106 -3.1321
 5836SOL    HW229145   4.055   3.774   5.655 -0.6575  3.6126  1.8709
 5837SOL     OW29146   3.538   2.002   5.213 -0.4563  0.6754  0.5090
 5837SOL    HW129147   3.599   2.069   5.181  0.2452 -0.0656  0.2930
 5837SOL    HW229148   3.475   1.993   5.142 -0.9850  1.2666  0.9006
 5838SOL     OW29149   0.371   2.813  11.546  0.0280 -0.1811 -0.2464
 5838SOL    HW129150   0.466   2.809  11.536 -0.2955 -1.0401 -2.9732
 5838SOL    HW229151   0.335   2.853  11.467 -0.1339 -0.8702 -0.5211
 5839SOL     OW29152   4.046   1.805   7.238 -0.3057 -0.2801  0.0476
 5839SOL    HW129153   3.960   1.794   7.196  0.3724  0.6014 -1.5725
 5839SOL    HW229154   4.045   1.736   7.305 -0.2375  0.4616  0.8101
 5840SOL     OW29155   4.435   3.542  11.821 -0.0372  0.4280 -0.1013
 5840SOL    HW129156   4.446   3.622  11.873  0.3712  0.0088  0.4537
 5840SOL    HW229157   4.498   3.560  11.751 -1.6928 -0.3630 -1.7890
 5841SOL     OW29158   2.548   1.274  14.556 -0.4733 -0.4393  0.6705
 5841SOL    HW129159   2.573   1.275  14.649 -0.3276 -0.3210  0.6284
 5841SOL    HW229160   2.556   1.181  14.533 -0.4296  0.4143 -2.6610
 5842SOL     OW29161   3.660   0.261  16.484 -0.1697 -0.0969 -0.8506
 5842SOL    HW129162   3.671   0.196  16.415 -3.9206 -0.4366 -1.1434
 5842SOL    HW229163   3.564   0.258  16.489 -0.0439 -0.4629  1.6490
 5843SOL     OW29164   2.742   0.309   3.063 -0.1218 -0.2718  0.1349
 5843SOL    HW129165   2.721   0.278   3.151 -2.3973 -0.3359 -0.4374
 5843SOL    HW229166   2.837   0.312   3.072 -0.3501 -0.1815  2.6666
 5844SOL     OW29167   1.407   4.143  11.531 -0.1622 -0.0363 -0.0632
 5844SOL    HW129168   1.490   4.103  11.557  0.0175  1.4325  1.6182
 5844SOL    HW229169   1.409   4.222  11.585 -1.4529 -0.4067  0.5225
 5845SOL     OW29170   2.947   4.694  13.017  0.2025 -0.7471  0.1497
 5845SOL    HW129171   2.855   4.668  13.020  0.7877 -2.4208  2.8822
 5845SOL    HW229172   2.929   0.048  13.018  0.0775 -0.7746  0.4361
 5846SOL     OW29173   3.804   1.187   2.045  0.3391 -0.2916  0.2147
 5846SOL    HW129174   3.849   1.252   1.991 -0.3167  0.4114  0.5176
 5846SOL    HW229175   3.762   1.133   1.978  1.2709 -2.2891  1.2434
 5847SOL     OW29176   3.419   0.384   8.510  0.2310  0.0604 -0.1016
 5847SOL    HW129177   3.461   0.377   8.424  0.1981 -0.6752 -0.0590
 5847SOL    HW229178   3.399   0.477   8.504  1.4218  0.2731 -0.8956
 5848SOL     OW29179   2.815   4.676   2.653 -0.6644  0.1234  0.0608
 5848SOL    HW129180   2.872   0.001   2.694 -0.1710  0.2235 -0.7743
 5848SOL    HW229181   2.829   4.688   2.559 -0.2616 -1.9467 -0.1416
 5849SOL     OW29182   2.383   3.054   2.289 -0.0229  0.0484  0.1043
 5849SOL    HW129183   2.372   3.147   2.313  0.2231 -0.2470  1.3548
 5849SOL    HW229184   2.300   3.021   2.325  0.5072  0.7840  2.0230
 5850SOL     OW29185   2.800   2.732  13.980  0.4800  0.1528 -0.6282
 5850SOL    HW129186   2.837   2.674  13.913  0.2575 -0.0493 -0.5773
 5850SOL    HW229187   2.783   2.673  14.053  0.3900  1.2373  0.2151
 5851SOL     OW29188   1.942   2.852   4.250  0.4060  0.5492 -0.0000
 5851SOL    HW129189   1.952   2.884   4.160 -3.2707  2.6740  0.3102
 5851SOL    HW229190   2.005   2.781   4.258 -1.6289 -1.0321  2.1144
 5852SOL     OW29191   3.041   1.829   8.891 -0.2844 -0.0759 -0.0636
 5852SOL    HW129192   3.054   1.737   8.915  0.7134 -0.2051 -1.0917
 5852SOL    HW229193   2.960   1.811   8.843 -0.0266 -3.0774  0.6068
 5853SOL     OW29194   3.546   2.357   6.753 -0.8082 -0.0355  0.1590
 5853SOL    HW129195   3.542   2.351   6.657 -0.4186 -0.9420  0.2034
 5853SOL    HW229196   3.487   2.286   6.777 -1.6768  0.4482 -0.5405
 5854SOL     OW29197   3.637   2.795   5.206  0.0814  0.1541 -0.0481
 5854SOL    HW129198   3.730   2.783   5.223  0.0760  1.9121  1.1757
 5854SOL    HW229199   3.594   2.752   5.280 -1.6675 -0.5335 -1.4401
 5855SOL     OW29200   1.466   0.182  16.691  0.0920 -0.5170 -0.2230
 5855SOL    HW129201   1.453   0.213  16.601 -1.5190 -0.2588  0.0981
 5855SOL    HW229202   1.490   0.090  16.687 -1.2055 -0.8919  0.5342
 5856SOL     OW29203   2.354   0.722   6.822  0.0413  0.4938  0.0620
 5856SOL    HW129204   2.446   0.747   6.814  0.3363 -0.0367  1.8119
 5856SOL    HW229205   2.304   0.787   6.773  2.1574  0.6870 -1.8280
 5857SOL     OW29206   1.993   4.233   4.773 -0.0689  0.0711  0.5838
 5857SOL    HW129207   1.946   4.313   4.752 -0.9373 -0.7187 -0.4676
 5857SOL    HW229208   2.085   4.257   4.764  0.1927 -1.5744 -1.2530
 5858SOL     OW29209   1.305   0.863  13.248 -0.3999 -0.3483 -0.0225
 5858SOL    HW129210   1.286   0.935  13.308  1.6150 -1.2161  1.6622
 5858SOL    HW229211   1.294   0.903  13.161  2.0905 -0.0352 -0.2075
 5859SOL     OW29212   3.746   0.293   3.114  0.3653 -0.1747 -0.1957
 5859SOL    HW129213   3.823   0.250   3.075  1.6254  0.5633  1.4511
 5859SOL    HW229214   3.782   0.378   3.140  0.8866 -0.7750  1.0707
 5860SOL     OW29215   1.074   2.076  17.345  0.3199  0.3224 -0.5676
 5860SOL    HW129216   1.073   2.028  17.427 -0.5698 -0.0653 -0.8116
 5860SOL    HW229217   1.049   2.009  17.280  1.9635 -0.8712  0.0215
 5861SOL     OW29218   2.983   2.146  10.942  0.3590  0.3685  0.1671
 5861SOL    HW129219   2.949   2.226  10.982  0.4666  0.3383  0.3151
 5861SOL    HW229220   3.065   2.130  10.988 -0.2428  1.8706  1.7502
 5862SOL     OW29221   3.069   0.014   9.683 -0.4093  0.2748  0.4668
 5862SOL    HW129222   3.137   4.710   9.733 -0.1937  1.1646  0.9514
 5862SOL    HW229223   3.066   4.703   9.602  0.5197  0.6935  0.1652
 5863SOL     OW29224   3.866   1.209   9.050 -0.2509  0.9492  0.0144
 5863SOL    HW129225   3.951   1.218   9.007  0.1104 -0.1830  0.4854
 5863SOL    HW229226   3.829   1.297   9.040 -1.3312  0.3266 -1.6740
 5864SOL     OW29227   3.972   3.618   0.324  0.0146  0.8516  0.0016
 5864SOL    HW129228   3.966   3.690   0.261 -1.5044  0.5985 -0.1565
 5864SOL    HW229229   3.976   3.679   0.397 -0.9626  1.1440 -0.1881
 5865SOL     OW29230   4.273   2.533   7.809  0.0640  0.0971 -0.4599
 5865SOL    HW129231   4.361   2.497   7.793 -0.3464 -1.3529  0.5568
 5865SOL    HW229232   4.234   2.462   7.860  2.1041 -0.4953  0.2877
 5866SOL     OW29233   0.211   2.892   0.213 -0.1912  0.0839  0.6706
 5866SOL    HW129234   0.170   2.977   0.227 -2.1921 -0.5873 -1.1192
 5866SOL    HW229235   0.282   2.916   0.154 -2.4049  1.7163 -1.3436
 5867SOL     OW29236   2.194   3.465   9.373 -0.1147  0.3682  0.0443
 5867SOL    HW129237   2.218   3.407   9.301  0.8512 -0.9256  1.4206
 5867SOL    HW229238   2.165   3.401   9.438  1.7154  0.6904  1.1706
 5868SOL     OW29239   3.388   4.291   8.797  0.4261 -0.2339  0.5024
 5868SOL    HW129240   3.451   4.315   8.729  0.5774 -2.2841 -0.0863
 5868SOL    HW229241   3.402   4.363   8.857 -0.9954 -0.0781  0.6435
 5869SOL     OW29242   4.261   1.226   7.091  0.0385  0.5438 -0.3498
 5869SOL    HW129243   4.331   1.224   7.156 -0.8653 -1.2055  0.5697
 5869SOL    HW229244   4.305   1.255   7.011  3.3595 -1.5945  0.7140
 5870SOL     OW29245   3.953   1.385  10.025  0.4536 -0.0698  0.1882
 5870SOL    HW129246   3.899   1.309  10.005 -0.1472 -0.5402  3.5429
 5870SOL    HW229247   4.006   1.352  10.098 -0.5266  1.2030  1.4690
 5871SOL     OW29248   2.125   2.984  12.933 -0.3027 -0.3387 -0.0508
 5871SOL    HW129249   2.138   3.005  12.840  1.8314  1.5972  0.6776
 5871SOL    HW229250   2.190   2.914  12.944 -1.6524 -1.6299 -0.3623
 5872SOL     OW29251   0.528   1.138   8.535  0.0120  0.1310  0.5684
 5872SOL    HW129252   0.578   1.201   8.483 -1.6023  1.7309  0.9284
 5872SOL    HW229253   0.554   1.166   8.623 -0.3456 -0.5501  0.8913
 5873SOL     OW29254   2.631   1.530   7.918 -0.5987  0.7113  0.2093
 5873SOL    HW129255   2.582   1.574   7.849 -0.2502  0.6857 -0.0576
 5873SOL    HW229256   2.712   1.581   7.916 -0.0714 -0.0478  1.5919
 5874SOL     OW29257   4.062   3.089   6.762 -0.2765  0.0457  0.0770
 5874SOL    HW129258   4.104   3.174   6.749  1.6433 -0.9335 -0.1627
 5874SOL    HW229259   4.136   3.029   6.760  1.1446  1.7793  1.0057
 5875SOL     OW29260   3.666   4.584  15.362 -0.1965 -0.2456 -0.0602
 5875SOL    HW129261   3.679   4.579  15.267 -1.4142 -1.3528 -0.1580
 5875SOL    HW229262   3.643   4.674  15.387  1.0320 -0.0131  0.2685
 5876SOL     OW29263   1.665   2.130   3.763  0.2322  0.1776  0.0572
 5876SOL    HW129264   1.576   2.156   3.741  0.6619  1.4095 -0.2093
 5876SOL    HW229265   1.642   2.064   3.829  3.3006 -2.3027 -1.3718
 5877SOL     OW29266   1.286   4.443  14.122  0.7487  0.2989  0.7100
 5877SOL    HW129267   1.251   4.361  14.088  1.3498  1.2025 -2.0736
 5877SOL    HW229268   1.363   4.416  14.171  1.4473  1.3181  0.1760
 5878SOL     OW29269   2.699   1.916   7.779 -0.6076  0.4223  0.1085
 5878SOL    HW129270   2.657   1.904   7.864 -0.7889  0.2906  0.0006
 5878SOL    HW229271   2.621   1.937   7.727 -0.2921 -0.9939 -0.9493
 5879SOL     OW29272   0.433   0.822   4.987  0.0155 -0.3968  0.2894
 5879SOL    HW129273   0.458   0.896   4.931  1.1808 -0.2237  1.0296
 5879SOL    HW229274   0.338   0.824   4.974 -0.0310 -1.0338  0.5334
 5880SOL     OW29275   3.713   4.515   6.003 -0.2552 -0.2417 -0.4983
 5880SOL    HW129276   3.675   4.560   6.079 -1.6551  0.7682 -1.7875
 5880SOL    HW229277   3.801   4.552   6.011 -0.7884  0.5912  1.5041
 5881SOL     OW29278   2.057   0.529   2.437  0.3495 -0.7394  0.3737
 5881SOL    HW129279   2.076   0.621   2.417 -1.9196 -0.6799 -1.4392
 5881SOL    HW229280   2.146   0.496   2.425  0.4091  0.4413 -2.4788
 5882SOL     OW29281   3.653   1.084   1.840  0.2889  0.3266  0.8487
 5882SOL    HW129282   3.700   1.000   1.846 -1.3551 -0.6522 -0.0251
 5882SOL    HW229283   3.563   1.052   1.834 -0.1013  2.0028 -2.3479
 5883SOL     OW29284   2.582   3.486  16.490  0.0017  0.0360 -0.1735
 5883SOL    HW129285   2.577   3.396  16.524  1.9668 -0.3295 -0.8279
 5883SOL    HW229286   2.631   3.525  16.562  2.5972  2.2248 -3.1474
 5884SOL     OW29287   4.699   3.273   7.639 -0.1889  0.1811  0.0456
 5884SOL    HW129288   0.034   3.214   7.648 -1.2697 -1.3200 -0.9265
 5884SOL    HW229289   4.629   3.224   7.681 -0.7988  0.6288 -0.4374
 5885SOL     OW29290   3.177   2.811   7.571 -0.6615 -0.4144 -0.2418
 5885SOL    HW129291   3.125   2.794   7.649  1.6066 -4.9363  0.2584
 5885SOL    HW229292   3.244   2.743   7.581  0.1203  0.1617 -1.6027
 5886SOL     OW29293   2.723   4.186   2.652 -0.1112  0.3708 -0.1108
 5886SOL    HW129294   2.736   4.267   2.701 -1.3903  0.0640  0.7477
 5886SOL    HW229295   2.789   4.127   2.687  0.6257  1.6175  0.6082
 5887SOL     OW29296   4.533   2.098   6.743  0.1632 -0.5410  0.4150
 5887SOL    HW129297   4.443   2.116   6.714  0.2320 -0.8663 -0.0027
 5887SOL    HW229298   4.536   2.002   6.743 -0.1954 -0.5585  0.1100
 5888SOL     OW29299   2.004   1.645   4.633 -0.5396 -0.1437 -0.0663
 5888SOL    HW129300   2.036   1.718   4.580 -2.4892  1.0022  0.3330
 5888SOL    HW229301   2.074   1.641   4.698  0.2640 -1.8749 -1.0376
 5889SOL     OW29302   1.902   0.982   0.048 -0.4326  0.3280 -0.3609
 5889SOL    HW129303   1.934   0.896   0.020 -1.9925 -0.3741  0.0093
 5889SOL    HW229304   1.815   0.984   0.009  0.4902 -0.4730 -2.4576
 5890SOL     OW29305   1.563   0.881  11.270  0.0472 -0.7700 -0.4026
 5890SOL    HW129306   1.629   0.832  11.319 -0.3041 -1.6098 -0.7866
 5890SOL    HW229307   1.492   0.822  11.292  0.4513 -0.4922  1.5945
 5891SOL     OW29308   2.830   3.838   3.871  0.0138  0.5951  0.3027
 5891SOL    HW129309   2.839   3.913   3.812  1.5705  1.1475  1.2602
 5891SOL    HW229310   2.819   3.760   3.815  0.6498  1.4570 -1.0130
 5892SOL     OW29311   3.285   4.121   2.519  0.4229  0.4126 -0.6240
 5892SOL    HW129312   3.354   4.054   2.524 -0.6240 -0.6814 -0.7183
 5892SOL    HW229313   3.206   4.070   2.537  0.0680  0.5893 -1.7044
 5893SOL     OW29314   1.739   4.629  15.876 -0.4796 -0.6107 -0.3470
 5893SOL    HW129315   1.701   4.576  15.946 -1.5883 -1.0729 -1.3088
 5893SOL    HW229316   1.668   4.691  15.858 -1.1692 -0.4327  2.8807
 5894SOL     OW29317   0.453   1.840   8.294  0.4183  0.2508 -0.2006
 5894SOL    HW129318   0.395   1.769   8.266 -0.3271  0.3748  1.0233
 5894SOL    HW229319   0.386   1.898   8.330 -1.1081 -0.1875 -2.3779
 5895SOL     OW29320   0.518   2.664  16.178 -0.8336  0.0022  0.5734
 5895SOL    HW129321   0.517   2.646  16.272  0.8615 -0.7666  0.4319
 5895SOL    HW229322   0.598   2.625  16.143 -1.5921 -1.7680  0.8015
 5896SOL     OW29323   4.236   3.465  15.314 -0.6738 -0.2328 -1.0967
 5896SOL    HW129324   4.158   3.415  15.289  0.6126 -2.6354 -0.2683
 5896SOL    HW229325   4.292   3.403  15.360  0.5473  0.7278 -1.2723
 5897SOL     OW29326   3.840   3.758  16.553  0.2237  0.4157  0.2971
 5897SOL    HW129327   3.933   3.757  16.529  0.1769  1.1267  0.0774
 5897SOL    HW229328   3.811   3.667  16.562 -0.9858  0.7646 -0.0152
 5898SOL     OW29329   1.171   4.424   7.557 -0.0951  0.4984  0.1470
 5898SOL    HW129330   1.079   4.432   7.580  0.1531  0.6014  1.0813
 5898SOL    HW229331   1.162   4.380   7.472 -0.9472  1.6051 -0.3241
 5899SOL     OW29332   2.428   2.327   6.393 -0.5020  0.6555 -0.1962
 5899SOL    HW129333   2.390   2.351   6.309 -0.7250  0.3470 -0.1846
 5899SOL    HW229334   2.399   2.391   6.458 -0.2335 -0.0200  0.5973
 5900SOL     OW29335   0.367   4.393   2.183 -0.1776 -0.2877 -0.3246
 5900SOL    HW129336   0.325   4.331   2.242  1.1114 -0.0061  0.9056
 5900SOL    HW229337   0.438   4.337   2.151  1.6193  2.6565 -1.5782
 5901SOL     OW29338   0.103   0.904  15.257 -0.0304  0.0479  0.2212
 5901SOL    HW129339   0.104   0.907  15.353  0.7002 -0.7892  0.2463
 5901SOL    HW229340   0.010   0.892  15.242 -0.6085  2.7418  1.6983
 5902SOL     OW29341   3.712   3.134  15.655  0.1565  0.0302  0.1712
 5902SOL    HW129342   3.624   3.172  15.654 -0.4970 -1.4298  1.5810
 5902SOL    HW229343   3.763   3.200  15.609  1.4777  0.2328  1.9487
 5903SOL     OW29344   0.987   4.660  15.808  0.3029  0.5286 -1.0428
 5903SOL    HW129345   1.034   4.628  15.730  0.5076 -0.5739 -0.4615
 5903SOL    HW229346   0.928   4.589  15.830  0.8874 -0.0189 -1.2265
 5904SOL     OW29347   4.219   2.094   7.790 -0.7874 -0.3946  0.3181
 5904SOL    HW129348   4.276   2.135   7.726  0.0574 -0.6819  0.8845
 5904SOL    HW229349   4.132   2.105   7.752  0.0400  0.3183 -1.3535
 5905SOL     OW29350   4.701   4.472  10.406  0.0816 -0.2072 -0.1171
 5905SOL    HW129351   4.694   4.567  10.410 -1.6400 -0.3054 -0.7508
 5905SOL    HW229352   0.054   4.451  10.400  0.3873  0.7128  1.6024
 5906SOL     OW29353   0.706   0.725   6.146  0.0268 -0.1095 -0.1136
 5906SOL    HW129354   0.800   0.720   6.159 -0.1692 -1.6564  0.6647
 5906SOL    HW229355   0.698   0.669   6.069 -0.3217  0.1349 -0.2548
 5907SOL     OW29356   3.678   2.805  16.881  0.4915  0.0426  0.0087
 5907SOL    HW129357   3.646   2.724  16.918  0.6281 -0.0451 -0.0636
 5907SOL    HW229358   3.771   2.785  16.887  0.1471 -1.2464  0.8569
 5908SOL     OW29359   2.403   2.911   1.708  0.0015  0.3346  0.0761
 5908SOL    HW129360   2.308   2.919   1.697 -0.1772 -0.1922  1.1909
 5908SOL    HW229361   2.417   2.894   1.801  2.7105  0.4169 -0.3186
 5909SOL     OW29362   2.694   2.758   7.140 -0.9192  0.0816 -0.3507
 5909SOL    HW129363   2.612   2.714   7.159 -0.8658  0.0301 -0.2430
 5909SOL    HW229364   2.706   2.722   7.052 -1.3178 -0.7888 -0.0385
 5910SOL     OW29365   3.812   0.066  10.163  0.1082 -0.2466 -0.4738
 5910SOL    HW129366   3.753   4.733  10.183  1.5465 -0.5898  2.5032
 5910SOL    HW229367   3.839   0.043  10.074  1.4401  0.1147 -0.1570
 5911SOL     OW29368   0.344   1.916   7.691  0.3437 -0.3854 -0.4823
 5911SOL    HW129369   0.328   1.934   7.598  2.4975  0.6035 -0.6439
 5911SOL    HW229370   0.250   1.909   7.706  0.3310  1.6578  0.3243
 5912SOL     OW29371   0.660   2.257   0.068 -0.4293  0.1737  0.4522
 5912SOL    HW129372   0.603   2.236  17.752  1.0977  0.4339 -0.8022
 5912SOL    HW229373   0.603   2.227   0.139 -0.1618 -1.0706  0.1377
 5913SOL     OW29374   1.735   0.371   2.944  0.0827  0.3883 -0.4461
 5913SOL    HW129375   1.792   0.314   2.893 -1.7180 -1.9283  0.1316
 5913SOL    HW229376   1.779   0.456   2.956  0.9434 -0.2489  0.9227
 5914SOL     OW29377   3.183   0.682   8.089  0.2728  0.4257 -0.2796
 5914SOL    HW129378   3.168   0.612   8.153 -2.3907  1.5906  0.3517
 5914SOL    HW229379   3.251   0.652   8.028 -1.3932 -0.6537 -1.6012
 5915SOL     OW29380   1.291   0.787   2.566  0.6546  0.1657  0.6021
 5915SOL    HW129381   1.282   0.882   2.570  2.1857  0.4097 -1.6170
 5915SOL    HW229382   1.206   0.757   2.598  1.2987  0.3175  2.4718
 5916SOL     OW29383   0.603   0.799   7.697 -0.1006  0.4541  0.9154
 5916SOL    HW129384   0.639   0.879   7.658 -2.3393  0.6171 -0.7720
 5916SOL    HW229385   0.556   0.759   7.624  0.4033  0.1325  0.7646
 5917SOL     OW29386   4.433   1.143  17.358  0.3186  0.0397 -0.1367
 5917SOL    HW129387   4.462   1.182  17.441  2.6282 -0.9997 -0.4581
 5917SOL    HW229388   4.339   1.144  17.374  0.3839  0.6264  0.2146
 5918SOL     OW29389   0.281   4.226   2.372  0.3364 -0.0447 -0.0541
 5918SOL    HW129390   0.225   4.257   2.443  0.2358 -0.5462  0.0856
 5918SOL    HW229391   0.286   4.133   2.393 -1.3227 -0.2511 -0.5525
 5919SOL     OW29392   3.088   1.058   6.860  0.3846  0.1532  0.4005
 5919SOL    HW129393   3.158   1.001   6.830  1.3709  1.9302 -0.7235
 5919SOL    HW229394   3.086   1.048   6.955  2.8389 -1.5980  0.2391
 5920SOL     OW29395   0.248   2.611  11.731  0.2404  0.0998 -0.2997
 5920SOL    HW129396   0.272   2.690  11.684 -0.2915  1.1751  1.2310
 5920SOL    HW229397   0.298   2.548  11.680  1.0722 -1.0874  1.9732
 5921SOL     OW29398   0.005   4.657   5.105 -0.0794  0.2003 -0.9504
 5921SOL    HW129399   0.080   4.715   5.101 -0.4514  0.8114  0.7447
 5921SOL    HW229400   4.724   4.661   5.012  0.6900  3.8227 -0.9786
 5922SOL     OW29401   0.822   2.537   9.958 -0.1028 -0.8265 -0.2571
 5922SOL    HW129402   0.844   2.563   9.869  0.4857 -1.4961 -0.3164
 5922SOL    HW229403   0.910   2.549   9.994 -0.2435  0.1589 -0.2329
 5923SOL     OW29404   1.265   2.699   9.479 -0.5403 -0.2476  0.1592
 5923SOL    HW129405   1.303   2.766   9.423 -0.9428  1.0882  1.4866
 5923SOL    HW229406   1.328   2.631   9.453 -2.7890 -2.4989  0.5221
 5924SOL     OW29407   1.790   1.262   4.439 -0.1161 -0.2262 -0.4546
 5924SOL    HW129408   1.832   1.347   4.424 -1.7391  0.9425  1.6736
 5924SOL    HW229409   1.863   1.200   4.440 -0.0022 -0.0775  0.0615
 5925SOL     OW29410   2.821   2.584   3.891 -0.1848  0.2677  0.1066
 5925SOL    HW129411   2.868   2.654   3.847  1.3753 -2.2028 -2.1240
 5925SOL    HW229412   2.876   2.569   3.968  5.0588  0.5859 -3.6480
 5926SOL     OW29413   0.713   2.896   7.086 -0.0581 -0.0285 -0.0366
 5926SOL    HW129414   0.710   2.875   7.180 -1.9588  1.6488  0.2759
 5926SOL    HW229415   0.721   2.991   7.085  0.3734 -0.0778 -1.3497
 5927SOL     OW29416   1.442   2.458   3.135 -0.5974 -0.3620  0.7348
 5927SOL    HW129417   1.532   2.493   3.129 -0.0558 -1.5269  2.1878
 5927SOL    HW229418   1.444   2.423   3.223  0.1080 -0.8887  0.5083
 5928SOL     OW29419   4.711   4.575   4.172  0.5228  0.2335  0.0777
 5928SOL    HW129420   4.723   4.658   4.127  0.1127 -0.0535 -0.5541
 5928SOL    HW229421   4.642   4.596   4.236  0.5178 -0.6403  0.3564
 5929SOL     OW29422   1.798   2.158   3.315  0.8088 -0.2425 -0.4915
 5929SOL    HW129423   1.805   2.214   3.238 -0.7823  0.5225 -0.0844
 5929SOL    HW229424   1.811   2.072   3.275  0.3250 -0.2563 -0.6200
 5930SOL     OW29425   0.974   0.062  10.735 -0.4290 -0.1274 -0.6558
 5930SOL    HW129426   0.948   4.713  10.710 -2.3746  0.8426 -2.0928
 5930SOL    HW229427   1.027   0.084  10.658  0.8730  0.9047  0.5358
 5931SOL     OW29428   1.662   4.704   2.574 -0.1956  0.1551 -0.3831
 5931SOL    HW129429   1.567   4.696   2.566 -0.2905  0.8192  0.1024
 5931SOL    HW229430   1.686   0.008   2.492 -0.2788 -0.4902 -0.7558
 5932SOL     OW29431   4.302   3.859   4.155 -0.0879 -0.4245 -0.4867
 5932SOL    HW129432   4.379   3.903   4.118 -0.4344  1.6186  1.2111
 5932SOL    HW229433   4.321   3.766   4.154  2.7141  0.1575 -1.4891
 5933SOL     OW29434   2.032   2.419   7.156  0.3248 -0.0321 -0.0797
 5933SOL    HW129435   1.995   2.460   7.078  3.3298 -1.3362 -2.1698
 5933SOL    HW229436   1.992   2.333   7.168  0.5595  0.0314  1.2569
 5934SOL     OW29437   3.943   0.177   8.905 -0.1827 -0.1368  0.0880
 5934SOL    HW129438   4.029   0.203   8.872 -0.8546  0.6366 -1.0458
 5934SOL    HW229439   3.948   0.084   8.882  1.0990 -0.1714  0.5202
 5935SOL     OW29440   4.254   0.498   8.356 -0.3682  0.0421 -0.0144
 5935SOL    HW129441   4.246   0.589   8.385  1.5681  0.8476 -2.0467
 5935SOL    HW229442   4.210   0.530   8.277  2.6362  0.2397 -1.5966
 5936SOL     OW29443   4.092   2.981   4.681  0.4141 -0.4601 -0.4696
 5936SOL    HW129444   4.175   3.026   4.662  0.1889 -0.0868 -0.5805
 5936SOL    HW229445   4.080   2.930   4.601 -0.7382 -2.4861  0.9990
 5937SOL     OW29446   1.740   1.651   6.605 -0.1353 -0.0940 -0.4741
 5937SOL    HW129447   1.652   1.634   6.641  0.6295  2.2163  2.4074
 5937SOL    HW229448   1.717   1.657   6.512  1.9081  1.4672 -0.8488
 5938SOL     OW29449   2.604   1.277   5.525 -0.0421  0.0889 -0.0162
 5938SOL    HW129450   2.582   1.235   5.442  0.8451  3.1677 -1.8286
 5938SOL    HW229451   2.558   1.228   5.593 -3.0454  1.8391 -0.7947
 5939SOL     OW29452   4.268   3.596   5.451 -0.0612  0.5794 -0.7777
 5939SOL    HW129453   4.202   3.660   5.479  0.8630  0.5851  1.4320
 5939SOL    HW229454   4.348   3.606   5.504 -1.0285 -0.7482  0.9492
 5940SOL     OW29455   0.002   3.187   3.824 -0.1083  0.0836 -0.1670
 5940SOL    HW129456   0.044   3.100   3.821 -0.0036  0.1430 -0.4905
 5940SOL    HW229457   4.663   3.172   3.771 -0.9849  1.8023  0.6711
 5941SOL     OW29458   3.590   0.329   6.553 -0.6414  0.3763  0.0726
 5941SOL    HW129459   3.583   0.338   6.648  0.6638  2.0458  0.0111
 5941SOL    HW229460   3.502   0.296   6.536  0.0426 -0.7747 -1.2166
 5942SOL     OW29461   3.677   2.062   4.841 -0.0198  0.3461  0.3534
 5942SOL    HW129462   3.591   2.101   4.828  0.7617  2.0429  0.1683
 5942SOL    HW229463   3.708   2.045   4.752 -0.7568  1.0916 -0.0486
 5943SOL     OW29464   3.828   1.439   6.459 -0.1938  0.2752 -0.6150
 5943SOL    HW129465   3.818   1.511   6.521  0.5179 -0.1057 -0.0490
 5943SOL    HW229466   3.889   1.475   6.394 -0.1110  0.3438 -0.4986
 5944SOL     OW29467   1.363   1.821   3.097 -0.4405 -0.4375 -0.1812
 5944SOL    HW129468   1.312   1.755   3.049 -0.0664  0.6962 -2.1651
 5944SOL    HW229469   1.299   1.892   3.107 -1.0222 -0.9962  0.0252
 5945SOL     OW29470   1.128   3.836   4.587 -0.1029 -0.1815 -0.0038
 5945SOL    HW129471   1.165   3.913   4.542  1.1454 -0.8636 -0.1534
 5945SOL    HW229472   1.111   3.779   4.512 -0.2806 -1.1372  0.7629
 5946SOL     OW29473   1.268   0.311   3.843  0.3757 -0.2380  0.4065
 5946SOL    HW129474   1.322   0.334   3.768 -0.6976 -1.4974 -0.7239
 5946SOL    HW229475   1.186   0.356   3.821  0.2785 -0.5776  0.0936
 5947SOL     OW29476   1.683   4.708   7.307  0.5187  0.1161  0.7254
 5947SOL    HW129477   1.777   4.717   7.290  0.2139  1.1879 -0.3853
 5947SOL    HW229478   1.674   0.018   7.388  0.7324  0.2012  0.6981
 5948SOL     OW29479   2.546   3.939  10.193 -0.4774 -0.3240 -0.1333
 5948SOL    HW129480   2.582   3.995  10.261 -1.5775 -0.2521  0.3808
 5948SOL    HW229481   2.626   3.911  10.147 -1.3220 -0.7161 -1.3671
 5949SOL     OW29482   3.535   3.998   5.479 -0.3263 -0.3452 -0.0866
 5949SOL    HW129483   3.587   4.045   5.544 -0.8560 -0.4975  0.4452
 5949SOL    HW229484   3.454   4.043   5.500 -0.3053 -0.2047 -0.3004
 5950SOL     OW29485   0.876   2.801   0.328  0.4820  0.1351  0.2253
 5950SOL    HW129486   0.892   2.873   0.266  0.7450  0.1254  0.2811
 5950SOL    HW229487   0.786   2.820   0.354  0.5881  2.4868 -1.1480
 5951SOL     OW29488   0.741   2.330  12.127 -0.0497 -0.7184 -0.0946
 5951SOL    HW129489   0.732   2.249  12.177 -1.1527 -0.2932  0.3943
 5951SOL    HW229490   0.669   2.378  12.167  1.2625  0.0641  1.3618
 5952SOL     OW29491   1.305   2.444   5.878  0.0469  0.1882 -0.6218
 5952SOL    HW129492   1.318   2.484   5.792  1.9011 -1.3219 -1.0523
 5952SOL    HW229493   1.398   2.434   5.900 -0.5358 -1.0510  1.3007
 5953SOL     OW29494   3.858   2.105   8.059  0.5283  0.7965 -0.0786
 5953SOL    HW129495   3.808   2.155   8.123  1.1596 -0.3222  1.2802
 5953SOL    HW229496   3.891   2.170   7.996  1.9211 -0.0812 -0.2482
 5954SOL     OW29497   1.732   0.718   1.434 -0.2425  0.5725 -0.3702
 5954SOL    HW129498   1.811   0.687   1.389 -0.6157 -0.1295 -0.5293
 5954SOL    HW229499   1.753   0.696   1.524 -2.0410 -1.0934 -0.3681
 5955SOL     OW29500   4.462   4.435  10.758  0.1269 -0.2705 -0.5485
 5955SOL    HW129501   4.448   4.424  10.853 -3.8417 -0.2531 -1.1156
 5955SOL    HW229502   4.375   4.442  10.719 -0.1613 -2.1821 -0.2512
 5956SOL     OW29503   1.891   1.484   8.676  0.2267  0.7455  0.0074
 5956SOL    HW129504   1.865   1.404   8.722  0.0975  0.3973 -0.6780
 5956SOL    HW229505   1.905   1.447   8.589 -1.1637 -0.7854  0.4341
 5957SOL     OW29506   3.136   3.713   8.941  0.4998  0.0629  0.1899
 5957SOL    HW129507   3.134   3.618   8.947 -0.8579 -0.0015 -1.3912
 5957SOL    HW229508   3.131   3.725   8.847  2.7383 -0.3871 -0.0068
 5958SOL     OW29509   4.527   0.483   4.470  0.1727  0.0348  0.1277
 5958SOL    HW129510   4.527   0.417   4.539  0.0062 -1.0753 -0.9439
 5958SOL    HW229511   4.619   0.510   4.474 -0.2655  1.6159 -0.5324
 5959SOL     OW29512   0.171   3.768   6.432 -0.2565 -0.1741  0.1654
 5959SOL    HW129513   0.130   3.814   6.505  0.5306  2.6931 -1.1859
 5959SOL    HW229514   0.101   3.772   6.368 -0.1510 -1.6006 -0.0281
 5960SOL     OW29515   1.596   3.809   3.359  0.0933  0.6635  0.1910
 5960SOL    HW129516   1.529   3.824   3.293  1.5622 -0.6478 -1.5798
 5960SOL    HW229517   1.674   3.838   3.312  0.7873  0.9427  1.5097
 5961SOL     OW29518   3.368   4.327   7.678  0.0956 -0.3454  0.6134
 5961SOL    HW129519   3.319   4.249   7.651  1.6514 -1.6370  1.5421
 5961SOL    HW229520   3.335   4.343   7.767  0.3982 -0.8506  0.8152
 5962SOL     OW29521   1.065   1.760   3.126  0.5819  0.1560  0.2930
 5962SOL    HW129522   0.987   1.766   3.070  0.8602 -1.5034 -0.2509
 5962SOL    HW229523   1.063   1.849   3.161  1.2132  0.4289 -0.3926
 5963SOL     OW29524   1.133   2.668   8.971  0.1906 -0.2752  0.5352
 5963SOL    HW129525   1.121   2.592   9.028 -0.5843 -1.1139 -0.7471
 5963SOL    HW229526   1.061   2.724   9.002  0.2861 -0.7430  1.6064
 5964SOL     OW29527   3.787   1.048   5.520 -0.4066 -0.2541  0.0830
 5964SOL    HW129528   3.839   1.009   5.591 -1.6413  1.6013  2.0099
 5964SOL    HW229529   3.759   0.966   5.481  0.1783  0.4970 -1.9517
 5965SOL     OW29530   1.463   0.053   4.337  0.8232 -0.1598 -0.3536
 5965SOL    HW129531   1.504   0.058   4.251  0.9996 -1.6275 -0.3473
 5965SOL    HW229532   1.406   4.718   4.318 -1.6363  2.1865 -2.2824
 5966SOL     OW29533   0.356   4.687   4.079 -0.6381  0.3419  0.2935
 5966SOL    HW129534   0.355   4.734   4.162 -0.0955 -1.3829  1.2659
 5966SOL    HW229535   0.370   0.025   4.026 -0.4921  0.4991  0.5665
 5967SOL     OW29536   1.247   2.940  16.125 -0.0177 -0.3101  0.4520
 5967SOL    HW129537   1.249   2.940  16.030  1.1006  1.8932  0.4704
 5967SOL    HW229538   1.194   2.864  16.147  0.0330 -0.0360  1.5223
 5968SOL     OW29539   2.906   1.240  13.289 -0.4199 -0.6770  0.2668
 5968SOL    HW129540   2.864   1.160  13.321 -1.7771 -0.4151 -0.8571
 5968SOL    HW229541   2.828   1.294  13.277 -1.4281 -1.7128  2.0525
 5969SOL     OW29542   2.515   1.407   5.145  0.2150 -0.1408  0.2566
 5969SOL    HW129543   2.439   1.438   5.096  0.5276 -0.8878 -0.7166
 5969SOL    HW229544   2.521   1.492   5.189  0.3300 -0.9962  1.8915
 5970SOL     OW29545   1.639   0.441   1.508  0.4138  0.0865 -0.2774
 5970SOL    HW129546   1.679   0.488   1.581  2.1514  2.3038 -2.6706
 5970SOL    HW229547   1.713   0.419   1.452 -0.7467 -2.0430 -0.9788
 5971SOL     OW29548   1.539   3.182   5.842  0.1643  0.2173 -0.2627
 5971SOL    HW129549   1.518   3.250   5.907  1.4718  1.0350 -0.6972
 5971SOL    HW229550   1.454   3.140   5.827  0.6960 -1.0736  0.3340
 5972SOL     OW29551   2.835   0.094   9.571 -0.2244 -0.1719  0.2331
 5972SOL    HW129552   2.860   0.134   9.488 -1.1568 -0.8456 -0.3617
 5972SOL    HW229553   2.923   0.076   9.606 -1.0505 -1.7177  1.5176
 5973SOL     OW29554   0.301   2.780   4.574 -0.8208 -0.4553  0.3212
 5973SOL    HW129555   0.242   2.725   4.626 -0.8349 -2.1410 -1.4869
 5973SOL    HW229556   0.378   2.784   4.630 -1.1855  1.8864  0.6662
 5974SOL     OW29557   0.835   3.459   5.967  0.7952 -0.2473  0.5073
 5974SOL    HW129558   0.835   3.363   5.967 -0.6295 -0.2443 -1.9037
 5974SOL    HW229559   0.904   3.468   5.901 -0.1040  2.5022 -0.0508
 5975SOL     OW29560   2.482   1.968   1.476 -0.1740  0.0718  0.5590
 5975SOL    HW129561   2.497   1.885   1.521 -0.3035  0.4250  1.2465
 5975SOL    HW229562   2.490   2.033   1.546  1.3870  0.2444  0.2131
 5976SOL     OW29563   0.608   3.323   9.218 -0.3210 -0.2988  0.0343
 5976SOL    HW129564   0.658   3.370   9.285  2.8174 -0.2288 -2.3499
 5976SOL    HW229565   0.659   3.328   9.138 -0.8567 -0.2477 -0.3051
 5977SOL     OW29566   4.531   3.553   5.572  0.3463 -0.3928 -0.6667
 5977SOL    HW129567   4.592   3.572   5.501  1.0111 -0.7330 -0.1832
 5977SOL    HW229568   4.551   3.628   5.628  3.4416 -1.7558  0.0576
 5978SOL     OW29569   1.635   1.913  15.566  0.1870  0.4050  0.4816
 5978SOL    HW129570   1.724   1.888  15.587  1.0633  3.5955  0.6205
 5978SOL    HW229571   1.599   1.845  15.622  0.7817  0.3043  0.7296
 5979SOL     OW29572   0.828   0.150   8.318  0.6918  0.4251 -0.2969
 5979SOL    HW129573   0.738   0.121   8.336 -0.1978  2.5092 -1.3918
 5979SOL    HW229574   0.808   0.215   8.250 -0.1135  0.8926  0.3811
 5980SOL     OW29575   3.507   2.077  10.950  0.3204  0.4523  0.0686
 5980SOL    HW129576   3.418   2.076  10.984  0.0452  0.0193 -0.6635
 5980SOL    HW229577   3.503   2.054  10.857  0.7464  1.6548 -0.2474
 5981SOL     OW29578   3.425   3.322   2.253  0.0745 -0.4255 -0.3476
 5981SOL    HW129579   3.385   3.401   2.218 -1.6830 -0.5301  1.4667
 5981SOL    HW229580   3.431   3.355   2.342  1.2362 -3.1172  0.5633
 5982SOL     OW29581   1.808   1.846   1.099 -0.0299 -0.0052  0.4007
 5982SOL    HW129582   1.845   1.890   1.175 -0.8356 -1.5768  1.7065
 5982SOL    HW229583   1.772   1.920   1.050  0.4595 -0.2494 -0.3279
 5983SOL     OW29584   1.533   2.636   4.893  0.5384  0.2213 -0.1976
 5983SOL    HW129585   1.475   2.699   4.851  1.0235 -0.3011 -1.6479
 5983SOL    HW229586   1.569   2.592   4.815  0.6481 -0.2013  0.0892
 5984SOL     OW29587   2.885   2.646   6.012 -0.0321 -0.0082  0.6384
 5984SOL    HW129588   2.891   2.696   6.093  1.6644 -1.1066  1.1745
 5984SOL    HW229589   2.811   2.689   5.968 -0.1080  0.4647  1.2376
 5985SOL     OW29590   3.143   1.558   7.753 -0.4976 -0.4356  0.2281
 5985SOL    HW129591   3.120   1.600   7.670 -0.4513 -1.7503 -0.4472
 5985SOL    HW229592   3.202   1.487   7.728  0.9274  1.5309 -2.0028
 5986SOL     OW29593   4.128   3.205   2.938  0.3069 -0.1348 -0.4584
 5986SOL    HW129594   4.083   3.255   2.870 -0.7451 -1.0054 -0.3955
 5986SOL    HW229595   4.094   3.116   2.931 -0.3441  0.1101 -0.3797
 5987SOL     OW29596   2.842   3.500   0.596  0.2449 -0.3097 -0.0086
 5987SOL    HW129597   2.904   3.527   0.663  1.1092 -2.9186  0.2259
 5987SOL    HW229598   2.868   3.408   0.592  0.2185 -0.2056 -2.6501
 5988SOL     OW29599   0.704   1.317   7.487  0.2225 -0.2028  0.0199
 5988SOL    HW129600   0.791   1.294   7.520  0.8563 -0.0204 -1.5537
 5988SOL    HW229601   0.710   1.412   7.498 -0.4127 -0.2097  0.4473
 5989SOL     OW29602   2.417   2.783   8.189 -0.6807  0.0074  0.2597
 5989SOL    HW129603   2.363   2.807   8.114  0.0494  0.7302 -0.0311
 5989SOL    HW229604   2.385   2.847   8.253 -0.2250 -0.2219  0.7182
 5990SOL     OW29605   4.334   3.346  12.985 -0.0931 -0.3642 -0.1891
 5990SOL    HW129606   4.333   3.400  12.906 -0.8359  3.3071  2.3541
 5990SOL    HW229607   4.295   3.414  13.040  2.6127  1.7342 -0.8492
 5991SOL     OW29608   1.897   3.634   7.708 -0.1598  0.4463  0.0528
 5991SOL    HW129609   1.937   3.610   7.625 -2.3727  1.7523 -1.4096
 5991SOL    HW229610   1.822   3.688   7.681 -0.3591 -0.3747 -1.0121
 5992SOL     OW29611   1.789   2.133  16.728  0.6262 -0.1259  0.4238
 5992SOL    HW129612   1.771   2.214  16.680  1.8316 -0.4110 -0.5242
 5992SOL    HW229613   1.722   2.134  16.796  0.5430  2.8557  0.3338
 5993SOL     OW29614   1.603   4.045   2.162  0.2833 -0.0065  0.2053
 5993SOL    HW129615   1.533   4.071   2.222  0.1447 -0.2298  0.1391
 5993SOL    HW229616   1.578   4.107   2.094  1.0033  2.2218  1.9833
 5994SOL     OW29617   2.905   0.277   0.664  0.3587 -0.0914  0.4755
 5994SOL    HW129618   2.988   0.237   0.691 -0.0349  0.1463  2.0282
 5994SOL    HW229619   2.888   0.233   0.580 -0.2579 -0.4496  0.7928
 5995SOL     OW29620   3.681   0.509   4.496 -0.1275 -0.2311  0.1656
 5995SOL    HW129621   3.620   0.480   4.564 -1.7509  0.7502 -0.8818
 5995SOL    HW229622   3.645   0.496   4.408 -1.5642  3.2659  0.2565
 5996SOL     OW29623   1.150   2.514   7.849  0.3237 -0.3551  0.7316
 5996SOL    HW129624   1.173   2.525   7.757  0.4070 -0.6186  0.7206
 5996SOL    HW229625   1.208   2.444   7.878  1.0472 -0.7282 -1.6338
 5997SOL     OW29626   4.186   2.520  16.745  0.4981  0.4384  0.5349
 5997SOL    HW129627   4.116   2.459  16.767 -0.5713  2.0150  1.5210
 5997SOL    HW229628   4.148   2.608  16.752 -0.0853  0.2028  0.3642
 5998SOL     OW29629   1.953   3.497   1.551 -0.2156  0.4016 -0.3075
 5998SOL    HW129630   1.890   3.568   1.541 -0.3485  0.3229 -0.0316
 5998SOL    HW229631   1.908   3.417   1.522 -1.8938 -0.5238  4.7340
 5999SOL     OW29632   1.662   3.486   3.296 -0.5776  0.3245 -0.4061
 5999SOL    HW129633   1.717   3.558   3.326 -1.6612  0.7941  0.4595
 5999SOL    HW229634   1.632   3.443   3.377 -2.3037  0.1888 -1.1195
 6000SOL     OW29635   1.779   1.976   2.170  0.4911 -0.0875  0.1609
 6000SOL    HW129636   1.813   1.967   2.081 -1.0731 -1.4958 -0.3032
 6000SOL    HW229637   1.835   1.915   2.218 -1.3007  0.3114  2.7825
 6001SOL     OW29638   4.326   0.149   2.494 -0.2805 -0.1517  0.4121
 6001SOL    HW129639   4.412   0.149   2.453 -0.7580 -0.9694 -0.6084
 6001SOL    HW229640   4.279   0.161   2.411 -2.1120  2.2103  1.7987
 6002SOL     OW29641   0.032   3.428  14.613 -0.5270  0.2523  0.6829
 6002SOL    HW129642   0.029   3.466  14.701  0.7040 -1.7462  1.5923
 6002SOL    HW229643   0.106   3.367  14.620 -0.8980  0.0071  2.4719
 6003SOL     OW29644   0.920   3.142   8.092  0.2678  0.1805  0.1097
 6003SOL    HW129645   0.848   3.176   8.039  0.4924 -1.2318 -1.0963
 6003SOL    HW229646   0.997   3.161   8.039 -1.6020  2.9391 -1.6222
 6004SOL     OW29647   2.716   2.959  16.937  0.1817 -0.2201 -0.0324
 6004SOL    HW129648   2.711   2.918  16.851  2.5970 -1.0703  0.2118
 6004SOL    HW229649   2.674   3.044  16.926  0.0613 -0.0983  1.3639
 6005SOL     OW29650   2.975   1.789   7.154  0.3790  0.0999 -0.1040
 6005SOL    HW129651   2.902   1.728   7.171  0.4690 -0.1151 -0.4936
 6005SOL    HW229652   2.957   1.855   7.222 -3.3506  0.0945 -1.0687
 6006SOL     OW29653   3.434   1.775  16.057  0.0015  0.0405 -0.1274
 6006SOL    HW129654   3.398   1.804  15.973  1.9567  1.4954 -0.4789
 6006SOL    HW229655   3.454   1.683  16.042 -3.1221 -0.5311 -0.6242
 6007SOL     OW29656   2.185   3.733   4.999  0.4341  0.0740  0.1609
 6007SOL    HW129657   2.214   3.642   4.986 -3.4719 -1.0140 -0.9821
 6007SOL    HW229658   2.096   3.705   4.979  0.1465  1.5835 -0.6569
 6008SOL     OW29659   3.315   3.408  15.016 -0.2331 -0.4024 -0.0973
 6008SOL    HW129660   3.375   3.409  14.941  1.3391  2.2357  1.1816
 6008SOL    HW229661   3.348   3.483  15.067  0.5282  0.2853 -1.5864
 6009SOL     OW29662   2.632   1.675  10.338  0.4958  0.0598 -0.2643
 6009SOL    HW129663   2.609   1.582  10.337  0.4265  0.0379  3.1711
 6009SOL    HW229664   2.556   1.714  10.381  2.5853  0.6741  2.9113
 6010SOL     OW29665   3.588   3.443   3.161 -0.2752 -0.1316  0.2624
 6010SOL    HW129666   3.634   3.413   3.240  0.6292  4.3194  1.4279
 6010SOL    HW229667   3.507   3.482   3.194 -0.0787  0.9033 -0.4999
 6011SOL     OW29668   3.381   4.041  17.029  0.1807 -0.0551  0.3218
 6011SOL    HW129669   3.414   3.953  17.008  1.1588 -0.1898  2.3933
 6011SOL    HW229670   3.290   4.039  16.999 -0.1171  0.0223  1.2094
 6012SOL     OW29671   2.620   3.973  11.083 -0.0002 -0.2662 -0.0484
 6012SOL    HW129672   2.597   4.065  11.074  0.6200  0.0535  1.6765
 6012SOL    HW229673   2.688   3.957  11.017 -1.4256  2.5281 -2.2086
 6013SOL     OW29674   0.973   4.651   4.003  0.7880  0.7512 -0.1655
 6013SOL    HW129675   1.053   4.686   3.963  0.0718  1.1607 -1.2196
 6013SOL    HW229676   0.934   4.722   4.054 -0.3541  0.1512 -0.2041
 6014SOL     OW29677   3.509   1.253   2.454  0.1765  1.0495 -0.3776
 6014SOL    HW129678   3.487   1.292   2.538  1.5084 -0.7593  0.8087
 6014SOL    HW229679   3.603   1.241   2.456 -0.0382 -0.6139 -0.3129
 6015SOL     OW29680   3.178   2.208  15.888 -0.1059  0.5398 -0.4003
 6015SOL    HW129681   3.102   2.236  15.838  0.3806  0.3354 -1.2541
 6015SOL    HW229682   3.151   2.236  15.975 -0.2412 -0.6285 -0.0580
 6016SOL     OW29683   3.658   0.837  12.104  0.4845 -0.3363  0.0985
 6016SOL    HW129684   3.590   0.779  12.137 -0.3665  0.4981 -0.1776
 6016SOL    HW229685   3.636   0.858  12.014 -1.3807  0.6554  0.7816
 6017SOL     OW29686   0.781   1.447   6.258 -0.5220 -0.3019  0.4988
 6017SOL    HW129687   0.707   1.393   6.286 -0.8514 -0.4303 -0.6152
 6017SOL    HW229688   0.856   1.411   6.305  0.2062 -1.9944 -1.9919
 6018SOL     OW29689   4.271   0.253   9.664 -0.0180 -0.5024 -0.6089
 6018SOL    HW129690   4.301   0.344   9.663  0.0909 -0.5383 -0.5602
 6018SOL    HW229691   4.354   0.208   9.655  1.1322  1.5239 -0.1256
 6019SOL     OW29692   4.219   1.211  16.761 -0.1966  1.0067  0.5782
 6019SOL    HW129693   4.278   1.212  16.686 -0.0730  0.2329  0.6630
 6019SOL    HW229694   4.149   1.154  16.728  0.1241  1.7056 -1.3281
 6020SOL     OW29695   0.427   1.297   7.690  0.5586  0.0534  0.2705
 6020SOL    HW129696   0.507   1.275   7.739 -0.4809 -1.7824  1.1430
 6020SOL    HW229697   0.465   1.284   7.603  0.5960 -1.0545  0.4611
 6021SOL     OW29698   1.248   3.989   7.836  0.4528  0.2106  0.4288
 6021SOL    HW129699   1.233   4.084   7.843 -1.2735 -0.0043 -0.3257
 6021SOL    HW229700   1.227   3.969   7.927  0.7852 -0.2114  0.4146
 6022SOL     OW29701   2.819   2.564   8.615 -0.5756  0.7555 -0.4696
 6022SOL    HW129702   2.855   2.531   8.532 -0.0060  1.7535 -0.6221
 6022SOL    HW229703   2.811   2.478   8.655  0.9468  0.4148 -0.9235
 6023SOL     OW29704   1.034   1.300   3.864 -0.1552  0.2390  0.5182
 6023SOL    HW129705   1.019   1.228   3.924 -1.9320 -1.7330 -2.2651
 6023SOL    HW229706   1.077   1.258   3.789  0.7790 -1.0012  1.7660
 6024SOL     OW29707   3.672   3.599   5.659  0.8496 -0.3550  0.1604
 6024SOL    HW129708   3.589   3.633   5.628  1.1568 -1.4588 -1.8583
 6024SOL    HW229709   3.652   3.506   5.656  0.6838 -0.2933 -0.5270
 6025SOL     OW29710   2.342   2.297   1.239  0.5139 -0.1574  0.4155
 6025SOL    HW129711   2.260   2.279   1.194  0.1670 -0.1526  1.0415
 6025SOL    HW229712   2.309   2.321   1.326 -0.6321  2.4244 -0.7413
 6026SOL     OW29713   3.309   4.532  16.810  0.4378  0.1775  0.6025
 6026SOL    HW129714   3.385   4.481  16.837  1.2779  0.9972 -0.2491
 6026SOL    HW229715   3.343   4.597  16.749  1.4263 -0.5409  0.3884
 6027SOL     OW29716   0.815   0.830   1.085 -0.0310  0.4960  0.2778
 6027SOL    HW129717   0.769   0.844   1.168  0.1960 -1.2362  0.7070
 6027SOL    HW229718   0.789   0.739   1.068  1.3755 -0.0128  0.8393
 6028SOL     OW29719   2.347   3.205   7.253  0.6337  0.2151  0.5432
 6028SOL    HW129720   2.367   3.133   7.193 -2.6494  0.7292 -1.1447
 6028SOL    HW229721   2.304   3.268   7.195 -2.1221 -1.1870  1.0810
 6029SOL     OW29722   2.115   4.429   8.168  0.3288  0.0830  0.1296
 6029SOL    HW129723   2.115   4.333   8.160  1.4844  0.2520 -1.8767
 6029SOL    HW229724   2.153   4.460   8.086  1.3304 -1.7644 -0.1218
 6030SOL     OW29725   2.805   2.958   8.840  0.0282 -0.2162  0.2444
 6030SOL    HW129726   2.853   2.947   8.758 -2.0646 -0.7285 -0.8997
 6030SOL    HW229727   2.767   2.871   8.853 -0.3750 -0.0400  0.2237
 6031SOL     OW29728   3.969   4.668   5.365  0.2692 -0.1220  0.2709
 6031SOL    HW129729   4.054   4.661   5.321  0.8930  0.9266  1.3006
 6031SOL    HW229730   3.921   4.616   5.300  0.9357  1.4570 -1.5086
 6032SOL     OW29731   0.348   3.478   9.552 -0.1066 -0.0869  0.6737
 6032SOL    HW129732   0.381   3.414   9.615  1.8735  0.5071  0.2449
 6032SOL    HW229733   0.435   3.512   9.532 -0.5396 -0.3545 -1.6616
 6033SOL     OW29734   4.103   2.208   4.957 -0.2935 -0.2534  0.3309
 6033SOL    HW129735   4.184   2.250   4.986 -0.5662  2.3314 -2.6777
 6033SOL    HW229736   4.042   2.280   4.944 -1.3705 -2.0387 -4.3221
 6034SOL     OW29737   0.583   1.019  12.795 -0.0646 -0.6444  0.2333
 6034SOL    HW129738   0.656   1.056  12.845 -0.0914  0.6348 -0.6886
 6034SOL    HW229739   0.631   0.993  12.716  0.1434  0.1700  0.0966
 6035SOL     OW29740   3.497   2.729   8.769  0.2811  0.5588 -0.5193
 6035SOL    HW129741   3.506   2.786   8.846 -1.0405  2.2661 -1.6322
 6035SOL    HW229742   3.585   2.691   8.761 -0.1525 -0.4566 -0.3572
 6036SOL     OW29743   0.235   3.048   5.577 -0.3053  0.2926  0.2041
 6036SOL    HW129744   0.187   3.041   5.494  0.2330 -1.5599  0.0224
 6036SOL    HW229745   0.237   3.136   5.613  3.0966  0.7605 -1.1079
 6037SOL     OW29746   1.072   0.444   5.262  0.1592 -0.4414  0.9093
 6037SOL    HW129747   1.043   0.439   5.171  1.8802 -0.1018  0.3495
 6037SOL    HW229748   1.058   0.537   5.280 -1.1198 -0.6926  1.2331
 6038SOL     OW29749   4.143   3.327   6.617 -0.4326 -0.2319  0.8688
 6038SOL    HW129750   4.127   3.376   6.536  0.7627 -1.0788  0.1064
 6038SOL    HW229751   4.238   3.328   6.626 -0.1254  0.2738 -2.2198
 6039SOL     OW29752   0.354   1.881  17.392  0.2968  0.5238  0.0356
 6039SOL    HW129753   0.285   1.941  17.364  0.0562  1.4474  2.5691
 6039SOL    HW229754   0.305   1.808  17.430  0.1954  0.6458  0.1403
 6040SOL     OW29755   4.044   3.883   3.359  0.1604  0.0062 -0.2398
 6040SOL    HW129756   3.957   3.884   3.398  1.0153  3.7883  1.5398
 6040SOL    HW229757   4.090   3.943   3.418  0.0138  0.0121 -0.1336
 6041SOL     OW29758   1.949   3.919  16.880 -0.0584 -0.6165  0.0261
 6041SOL    HW129759   1.985   3.868  16.808 -1.8298 -0.1112 -1.2283
 6041SOL    HW229760   2.008   3.992  16.900  0.7197 -0.9980 -0.8912
 6042SOL     OW29761   3.104   0.501   8.597 -0.1566  0.1213 -0.8894
 6042SOL    HW129762   3.168   0.517   8.666 -0.2676 -1.9987 -0.2883
 6042SOL    HW229763   3.111   0.583   8.549 -3.2030  2.0531  1.9256
 6043SOL     OW29764   2.492   3.221   6.489  0.0622 -0.4801 -0.0008
 6043SOL    HW129765   2.560   3.155   6.474  0.0341 -0.6318  0.5566
 6043SOL    HW229766   2.496   3.286   6.418  0.8376  0.3982  0.8581
 6044SOL     OW29767   1.938   1.816   4.383  0.0730 -0.1938 -0.2236
 6044SOL    HW129768   1.966   1.905   4.401  2.0646 -1.1026  1.1143
 6044SOL    HW229769   1.855   1.835   4.339  0.0242 -0.7916 -0.3909
 6045SOL     OW29770   2.830   1.810   2.117  0.0229  0.9230 -0.3571
 6045SOL    HW129771   2.901   1.868   2.144  0.1307  0.9191 -0.6262
 6045SOL    HW229772   2.754   1.859   2.148 -1.3539 -0.9859 -0.7072
 6046SOL     OW29773   0.757   1.257   2.290  0.3066  0.1531 -0.4284
 6046SOL    HW129774   0.687   1.253   2.225 -0.5602 -0.1641  0.5120
 6046SOL    HW229775   0.703   1.281   2.366  1.6491  1.1982  0.1951
 6047SOL     OW29776   3.629   1.337   5.868 -0.4867 -0.6049  0.0677
 6047SOL    HW129777   3.713   1.305   5.837 -0.2669  0.6214 -0.5969
 6047SOL    HW229778   3.575   1.321   5.790 -2.0613 -0.1144  1.0419
 6048SOL     OW29779   2.344   3.366  13.332  0.1060  0.5993 -0.3156
 6048SOL    HW129780   2.275   3.394  13.272  0.4759  1.1969 -0.4702
 6048SOL    HW229781   2.308   3.282  13.359  0.2318  1.4190  2.3967
 6049SOL     OW29782   3.893   2.003   1.810  0.5385  0.4044  0.0234
 6049SOL    HW129783   3.870   1.927   1.864 -0.9269  1.0065  0.2420
 6049SOL    HW229784   3.971   2.029   1.859  0.7697  0.0273 -0.1434
 6050SOL     OW29785   2.854   2.268  11.222 -0.1956 -0.0430 -0.6211
 6050SOL    HW129786   2.838   2.256  11.315  1.2936  5.3851  0.3329
 6050SOL    HW229787   2.933   2.321  11.211 -1.8945  2.5093 -0.4984
 6051SOL     OW29788   2.884   3.444   5.293  0.3568  0.1352 -0.0420
 6051SOL    HW129789   2.835   3.398   5.362 -2.2021 -0.3791 -2.2021
 6051SOL    HW229790   2.911   3.368   5.242 -0.6868  0.5366 -1.1778
 6052SOL     OW29791   1.688   1.536   2.021 -0.3621  0.2790 -0.1209
 6052SOL    HW129792   1.608   1.486   2.008 -0.4496  0.0486  1.3735
 6052SOL    HW229793   1.685   1.582   1.937  0.7199 -0.3008 -0.4808
 6053SOL     OW29794   1.026   2.707   5.458 -0.4163 -0.1548  0.1271
 6053SOL    HW129795   1.008   2.786   5.509  2.3117  0.7199 -0.2772
 6053SOL    HW229796   0.940   2.676   5.431 -1.8357  0.4463  3.8549
 6054SOL     OW29797   4.282   0.579  12.670  0.4195  0.2336  0.2383
 6054SOL    HW129798   4.227   0.616  12.602  0.6311  3.4517  1.7974
 6054SOL    HW229799   4.368   0.574  12.629  0.3676 -0.2967  0.1937
 6055SOL     OW29800   3.276   0.723  11.001 -0.1589 -0.3101 -0.2883
 6055SOL    HW129801   3.295   0.803  10.950  2.8225 -1.6711 -1.3170
 6055SOL    HW229802   3.215   0.762  11.064  0.3450 -0.9285  0.5807
 6056SOL     OW29803   3.394   0.578   6.286 -0.3408  0.1189  0.3667
 6056SOL    HW129804   3.404   0.671   6.305  0.7386  0.1940 -0.6157
 6056SOL    HW229805   3.449   0.530   6.347 -1.5086 -0.0472  1.2879
 6057SOL     OW29806   1.525   0.455   3.929 -0.3567 -0.2888 -0.9299
 6057SOL    HW129807   1.433   0.472   3.950  0.0480 -1.5156  1.9016
 6057SOL    HW229808   1.563   0.455   4.017  0.7294  1.2920 -1.4018
 6058SOL     OW29809   4.673   2.346   5.273  0.2164  0.1971  0.1267
 6058SOL    HW129810   4.663   2.441   5.265  2.0034  0.3909  0.3523
 6058SOL    HW229811   4.608   2.312   5.211  1.2728  0.3874 -1.0917
 6059SOL     OW29812   1.938   0.468  11.278 -0.4080  0.2778  0.0638
 6059SOL    HW129813   1.993   0.523  11.222  2.0419 -0.5342  1.6667
 6059SOL    HW229814   1.957   0.380  11.245  2.3171  0.4563  1.1610
 6060SOL     OW29815   2.534   2.565   2.676  0.0844 -0.0421 -0.9805
 6060SOL    HW129816   2.512   2.602   2.761 -0.3089 -1.1984 -0.5855
 6060SOL    HW229817   2.457   2.601   2.632 -2.4187 -1.8473  1.9335
 6061SOL     OW29818   4.030   4.595  16.105  0.1541 -0.0936 -0.0503
 6061SOL    HW129819   4.075   4.665  16.153  0.9585 -1.4454  1.1625
 6061SOL    HW229820   3.954   4.637  16.065  0.9839  0.8705 -0.6368
 6062SOL     OW29821   0.622   3.824   5.494 -0.0292 -0.0648  0.0729
 6062SOL    HW129822   0.574   3.888   5.547  2.2889  1.2720  0.5353
 6062SOL    HW229823   0.682   3.874   5.440  0.5669  0.9255  1.6402
 6063SOL     OW29824   4.184   3.744   7.834  0.1346  0.0105 -0.7644
 6063SOL    HW129825   4.135   3.719   7.755 -0.4720  0.2507 -0.4604
 6063SOL    HW229826   4.238   3.665   7.836 -1.1324 -0.7947  1.2401
 6064SOL     OW29827   0.495   0.559   9.287  0.5328  0.2211  0.1418
 6064SOL    HW129828   0.516   0.643   9.327  1.4399  0.0189  0.1125
 6064SOL    HW229829   0.537   0.500   9.350 -2.5044 -0.5598  1.3995
 6065SOL     OW29830   0.599   3.069  13.979  0.0931 -0.3659 -0.1958
 6065SOL    HW129831   0.649   3.124  14.039  0.1622 -1.5529  0.8358
 6065SOL    HW229832   0.512   3.103  14.001 -0.8333 -2.1905 -1.0200
 6066SOL     OW29833   3.834   0.932   6.862  0.1678  0.4038 -0.3381
 6066SOL    HW129834   3.746   0.961   6.838 -0.2612  1.7505  2.8188
 6066SOL    HW229835   3.891   1.009   6.856 -1.6346  1.8873  1.5638
 6067SOL     OW29836   0.073   1.936   6.032  0.6020 -0.1943  0.0284
 6067SOL    HW129837   4.724   1.919   6.063  0.2929  3.6843  1.2172
 6067SOL    HW229838   0.120   1.855   6.052  1.4633  0.9186  2.4854
 6068SOL     OW29839   0.228   2.394  11.172  0.4727 -0.2585 -0.1026
 6068SOL    HW129840   0.212   2.484  11.201  1.0650 -0.6211  1.3680
 6068SOL    HW229841   0.311   2.377  11.218 -0.2883 -1.7527  0.7348
 6069SOL     OW29842   1.999   2.102   7.461  0.0719  0.3319  0.1079
 6069SOL    HW129843   2.095   2.104   7.472  0.0466 -0.0417  0.3805
 6069SOL    HW229844   1.974   2.010   7.460  1.1640  0.0217  1.7410
 6070SOL     OW29845   0.679   1.448   0.880  0.1640  0.2617 -0.4114
 6070SOL    HW129846   0.606   1.507   0.898 -0.4410  0.0451 -2.1725
 6070SOL    HW229847   0.747   1.509   0.908 -0.7798  1.2251 -0.1808
 6071SOL     OW29848   1.557   0.123   8.842  0.1862  0.0647 -0.7990
 6071SOL    HW129849   1.595   0.035   8.838 -0.6440 -0.2991 -0.5665
 6071SOL    HW229850   1.640   0.171   8.844  0.3081 -0.1988  1.2067
 6072SOL     OW29851   3.891   3.990   5.819  0.4416  0.1532  0.2728
 6072SOL    HW129852   3.866   3.900   5.797  0.9157 -0.0311  0.4686
 6072SOL    HW229853   3.951   3.991   5.894 -0.4811  0.7187  0.9973
 6073SOL     OW29854   2.650   3.168   4.396  0.0335 -0.2514  0.1103
 6073SOL    HW129855   2.667   3.262   4.401  0.7873 -0.4558  1.2384
 6073SOL    HW229856   2.611   3.164   4.309  0.0319 -0.0273  0.0999
 6074SOL     OW29857   3.432   1.633  13.941  0.2571  0.4645 -0.2212
 6074SOL    HW129858   3.354   1.689  13.942 -1.1800 -1.5328  1.7583
 6074SOL    HW229859   3.432   1.580  13.862 -0.2490 -0.6796  0.5512
 6075SOL     OW29860   1.040   4.449   5.662  0.4798  0.1895  0.6365
 6075SOL    HW129861   1.065   4.534   5.625 -1.2045 -0.5861 -2.2884
 6075SOL    HW229862   0.966   4.427   5.604 -0.3154 -1.8622  2.4574
 6076SOL     OW29863   1.959   1.051   7.702 -0.1229 -0.2547 -0.4712
 6076SOL    HW129864   1.870   1.028   7.675 -0.9578  1.5430  0.7703
 6076SOL    HW229865   1.985   1.099   7.623  0.4391 -1.0750 -0.7823
 6077SOL     OW29866   3.521   2.393   1.931 -0.3833 -0.4284 -0.0542
 6077SOL    HW129867   3.494   2.446   1.856  0.9938  0.9564  0.4329
 6077SOL    HW229868   3.616   2.408   1.934 -0.7613  2.0418 -0.6143
 6078SOL     OW29869   2.902   3.915   1.363  0.6368 -0.5077  0.2916
 6078SOL    HW129870   2.949   3.932   1.282 -0.8413 -1.9197 -0.8442
 6078SOL    HW229871   2.902   3.820   1.357  2.2935 -0.3567 -1.9653
 6079SOL     OW29872   1.021   1.601   8.655 -0.1270 -0.0600 -0.3733
 6079SOL    HW129873   0.956   1.636   8.593 -2.5989 -1.6651  1.3159
 6079SOL    HW229874   1.106   1.623   8.617 -0.4521  3.2875  0.8560
 6080SOL     OW29875   0.218   0.109  13.796 -0.0028  0.2190 -0.1392
 6080SOL    HW129876   0.244   0.071  13.880 -1.6471 -1.4741 -0.4033
 6080SOL    HW229877   0.160   0.040  13.762 -0.0310  0.3853 -0.4326
 6081SOL     OW29878   1.437   3.906   7.456 -0.8994 -0.0590 -0.2518
 6081SOL    HW129879   1.406   3.878   7.543 -1.8223  0.0954 -0.5306
 6081SOL    HW229880   1.487   3.987   7.464  1.4512 -1.4300 -1.0056
 6082SOL     OW29881   0.718   1.037   0.942 -0.5837 -0.5204 -0.3913
 6082SOL    HW129882   0.743   0.958   0.990 -0.3325  1.7204  3.1761
 6082SOL    HW229883   0.744   1.116   0.991  0.1928 -1.6403  0.9965
 6083SOL     OW29884   1.922   1.230   2.834  0.3089  0.5315 -0.4194
 6083SOL    HW129885   1.967   1.291   2.892 -1.1760  0.9695  0.2716
 6083SOL    HW229886   1.892   1.171   2.904  2.6037 -0.4878 -0.3157
 6084SOL     OW29887   2.523   1.651   5.258  0.5115 -0.2167 -0.5581
 6084SOL    HW129888   2.476   1.656   5.341 -0.7689  0.4302 -1.3299
 6084SOL    HW229889   2.522   1.740   5.224  0.0195 -0.7925 -2.0684
 6085SOL     OW29890   4.114   2.856   8.393 -0.5809  0.1824 -0.0038
 6085SOL    HW129891   4.086   2.896   8.311 -0.0209 -0.2434 -0.4034
 6085SOL    HW229892   4.029   2.824   8.424  0.1780 -1.0465  0.7952
 6086SOL     OW29893   2.419   1.058   5.910 -0.3850 -0.2535 -0.6125
 6086SOL    HW129894   2.434   1.001   5.835  1.2884  0.6726 -1.0053
 6086SOL    HW229895   2.506   1.093   5.932 -1.2004  0.7684  0.9734
 6087SOL     OW29896   0.237   4.054  14.181  0.2182 -0.0192 -0.6889
 6087SOL    HW129897   0.316   4.004  14.161  0.6637  0.3053  0.2821
 6087SOL    HW229898   0.205   4.011  14.260  1.4502  0.1209 -0.1145
 6088SOL     OW29899   2.764   3.280   5.532  0.1042 -0.7394  0.6199
 6088SOL    HW129900   2.779   3.261   5.625  1.3000  0.6423  0.7317
 6088SOL    HW229901   2.690   3.341   5.536 -0.2987 -1.3244  1.9928
 6089SOL     OW29902   0.511   4.169   9.350  0.5358  0.1928 -0.2444
 6089SOL    HW129903   0.590   4.142   9.398 -0.2421 -2.2223 -0.3285
 6089SOL    HW229904   0.483   4.084   9.317 -2.4860  0.0895  2.5777
 6090SOL     OW29905   3.730   2.864   7.710  0.6389  0.1182  0.1870
 6090SOL    HW129906   3.757   2.923   7.640  0.0482 -0.5232 -0.5736
 6090SOL    HW229907   3.809   2.859   7.764  0.8925 -0.5995 -0.2466
 6091SOL     OW29908   4.081   1.121  14.997  0.0582 -0.5525 -0.4234
 6091SOL    HW129909   4.117   1.045  14.951 -1.7198 -1.4935 -0.2928
 6091SOL    HW229910   3.999   1.131  14.949 -0.3284  0.9060  0.5386
 6092SOL     OW29911   3.348   0.112   8.575 -0.1260 -0.1291 -0.6503
 6092SOL    HW129912   3.267   0.124   8.625  0.5544  1.7961 -0.0258
 6092SOL    HW229913   3.400   0.192   8.574 -1.0462  0.4900  2.3433
 6093SOL     OW29914   4.509   3.122   6.965  0.6790 -0.0112  0.4188
 6093SOL    HW129915   4.537   3.032   6.981 -4.2044 -1.6591 -0.2290
 6093SOL    HW229916   4.522   3.125   6.870 -1.7202  3.5123  0.1809
 6094SOL     OW29917   1.545   4.703  12.232 -0.0500  0.1382 -0.2985
 6094SOL    HW129918   1.555   4.691  12.327  0.4095 -0.2208 -0.3940
 6094SOL    HW229919   1.457   0.001  12.228 -0.7883 -1.6048 -0.3910
 6095SOL     OW29920   2.207   0.499   7.804 -0.1966  0.0149 -0.0574
 6095SOL    HW129921   2.294   0.511   7.767  0.0530  0.5449  0.7117
 6095SOL    HW229922   2.153   0.463   7.734 -0.9692  0.0929  0.4992
 6096SOL     OW29923   0.911   1.485   5.405 -0.3190  0.1391 -0.0037
 6096SOL    HW129924   0.816   1.482   5.393 -0.4670 -0.5930  1.3376
 6096SOL    HW229925   0.924   1.431   5.483 -3.1623  0.6694  0.8400
 6097SOL     OW29926   2.590   4.592   8.563  0.4431 -0.2514 -0.0619
 6097SOL    HW129927   2.499   4.569   8.544  0.6770  0.3341 -1.8933
 6097SOL    HW229928   2.578   4.661   8.629 -0.2520 -0.1684 -0.2754
 6098SOL     OW29929   4.346   1.744  17.743 -0.0988 -0.2506 -0.1062
 6098SOL    HW129930   4.346   1.701   0.071 -2.4020  1.5505  0.7887
 6098SOL    HW229931   4.277   1.690  17.704 -2.0141  2.0709  0.0350
 6099SOL     OW29932   4.616   2.394   7.520 -0.1529 -0.3872 -0.2208
 6099SOL    HW129933   4.575   2.451   7.585  1.3879  0.3407  0.1131
 6099SOL    HW229934   4.653   2.328   7.579 -1.4613 -1.0548 -0.1436
 6100SOL     OW29935   2.005   0.060   3.350 -0.0943  0.2991 -0.4482
 6100SOL    HW129936   2.046   0.043   3.265 -0.9208 -1.3795 -0.5316
 6100SOL    HW229937   1.914   0.057   3.321  0.7925  0.9532 -3.3114
 6101SOL     OW29938   4.348   2.049  15.548 -0.0795  0.0507 -0.4666
 6101SOL    HW129939   4.373   2.010  15.464  0.7447 -1.3374  0.4464
 6101SOL    HW229940   4.276   2.112  15.533  1.6278  1.5341 -2.4090
 6102SOL     OW29941   2.362   0.946   6.414  0.2263  0.0408  0.0325
 6102SOL    HW129942   2.441   0.896   6.431 -0.3875 -0.2355  2.0196
 6102SOL    HW229943   2.394   1.009   6.348  1.1870  0.0305  0.4856
 6103SOL     OW29944   2.192   0.600   0.441 -0.1405  0.8606 -0.3847
 6103SOL    HW129945   2.141   0.537   0.492  0.5665 -0.1103 -0.8918
 6103SOL    HW229946   2.133   0.636   0.375 -0.7252  0.0597 -0.2944
 6104SOL     OW29947   3.812   3.898  15.011  0.3364  0.4973 -0.0400
 6104SOL    HW129948   3.798   3.944  15.094 -0.7843  3.0450 -1.6243
 6104SOL    HW229949   3.767   3.954  14.949  1.0816  1.8235  0.5971
 6105SOL     OW29950   4.228   3.969  17.015  0.3914  0.1596  0.3408
 6105SOL    HW129951   4.207   4.062  17.013 -1.5509 -0.3039 -1.4614
 6105SOL    HW229952   4.172   3.935  16.945  2.9851 -2.4180 -0.4879
 6106SOL     OW29953   2.285   4.065  10.832  0.0033  0.2881  0.2761
 6106SOL    HW129954   2.301   3.988  10.778  1.2530 -1.3792  3.0530
 6106SOL    HW229955   2.356   4.125  10.810  1.0933 -1.1598 -0.0968
 6107SOL     OW29956   4.562   4.708   3.562  0.2280  0.1541  0.1028
 6107SOL    HW129957   4.546   0.008   3.647  1.2277  0.6478  0.0589
 6107SOL    HW229958   4.517   0.029   3.503  1.2096  1.9004  1.1533
 6108SOL     OW29959   3.749   3.719   8.918  0.3023 -0.0753 -0.1890
 6108SOL    HW129960   3.771   3.811   8.904  1.1722 -0.0993  1.0270
 6108SOL    HW229961   3.656   3.724   8.893  0.3376  1.3822 -0.0175
 6109SOL     OW29962   0.398   2.175   7.319 -0.2624  0.4837 -0.1679
 6109SOL    HW129963   0.338   2.247   7.298  0.2734  0.5696 -1.3849
 6109SOL    HW229964   0.343   2.126   7.380  0.3086  0.8092  0.6040
 6110SOL     OW29965   1.307   0.618   1.897  0.3000  0.2079 -0.0895
 6110SOL    HW129966   1.328   0.666   1.978  0.3386  1.1160 -0.6389
 6110SOL    HW229967   1.381   0.558   1.907  0.3686  0.2698 -0.2289
 6111SOL     OW29968   4.344   3.047   1.611  0.2218 -0.6222  0.2458
 6111SOL    HW129969   4.385   3.004   1.686  1.3530 -1.1750 -0.6974
 6111SOL    HW229970   4.401   3.014   1.542 -0.4076 -1.5784  0.1809
 6112SOL     OW29971   1.148   2.320   4.369 -0.0803 -0.5479  0.1367
 6112SOL    HW129972   1.212   2.331   4.439  0.6340  0.2138 -0.6292
 6112SOL    HW229973   1.106   2.406   4.373 -1.2283 -1.1517  0.9197
 6113SOL     OW29974   1.748   0.035   9.524  0.0707 -0.3930 -0.4512
 6113SOL    HW129975   1.817   4.710   9.529  2.1142  1.6838 -1.5505
 6113SOL    HW229976   1.676   0.010   9.582 -0.0625 -0.3733 -0.6092
 6114SOL     OW29977   0.169   2.467   3.414  0.1608  0.2319 -0.2113
 6114SOL    HW129978   0.220   2.548   3.420  0.0285  0.3687 -0.8913
 6114SOL    HW229979   0.231   2.405   3.377 -2.2520 -1.4419 -1.4807
 6115SOL     OW29980   2.237   2.262   5.084  0.2500  0.3504  0.1683
 6115SOL    HW129981   2.149   2.236   5.110  1.3387 -1.3286  2.1704
 6115SOL    HW229982   2.227   2.356   5.072 -1.3217 -0.0163 -1.3934
 6116SOL     OW29983   2.426   1.647   1.864 -0.3073  0.3507 -0.4783
 6116SOL    HW129984   2.442   1.737   1.893 -1.4509  0.1392  0.8077
 6116SOL    HW229985   2.363   1.643   1.792 -1.7263  0.2111  0.7938
 6117SOL     OW29986   0.390   4.623   9.585 -0.1481 -0.3471 -0.0853
 6117SOL    HW129987   0.477   4.583   9.592 -0.5964 -1.4243 -0.7198
 6117SOL    HW229988   0.381   4.673   9.666  0.5843  1.0478 -0.8737
 6118SOL     OW29989   0.969   0.586   4.776  0.6438 -0.2772 -0.1223
 6118SOL    HW129990   1.014   0.633   4.706 -0.2505 -1.4213 -1.4784
 6118SOL    HW229991   0.893   0.640   4.795  0.2384 -1.2532  1.0605
 6119SOL     OW29992   2.156   1.589  14.738 -0.4548 -0.6664  0.4652
 6119SOL    HW129993   2.188   1.560  14.824 -1.0169 -3.9298 -0.4179
 6119SOL    HW229994   2.062   1.576  14.753 -0.3210 -1.0982  0.9360
 6120SOL     OW29995   1.072   0.343   6.532  0.0729 -0.7651 -0.3614
 6120SOL    HW129996   1.152   0.290   6.532 -0.1508 -1.1017 -0.4977
 6120SOL    HW229997   1.075   0.390   6.615  3.4383 -2.8942  0.7387
 6121SOL     OW29998   3.083   1.672   5.683  0.1994 -0.1543 -0.9309
 6121SOL    HW129999   3.157   1.650   5.628  0.4685 -2.6620  0.4245
 6121SOL    HW230000   3.073   1.758   5.643 -1.0010 -0.7880 -2.0112
 6122SOL     OW30001   2.896   4.509   8.147 -0.0508 -0.2989 -0.2646
 6122SOL    HW130002   2.829   4.477   8.207 -0.8293 -0.3805 -1.1786
 6122SOL    HW230003   2.913   4.595   8.186  1.4359 -1.0208  0.6689
 6123SOL     OW30004   2.757   1.612  13.674 -0.1260  0.0854 -0.1262
 6123SOL    HW130005   2.664   1.599  13.658 -0.2189  0.0426  0.4810
 6123SOL    HW230006   2.785   1.524  13.700  0.0607 -1.2199 -4.7087
 6124SOL     OW30007   2.863   2.159  11.477 -0.2825  0.4812  0.3804
 6124SOL    HW130008   2.935   2.097  11.467  0.7486  1.3931  2.0049
 6124SOL    HW230009   2.838   2.114  11.558 -1.5651 -0.6392 -0.6460
 6125SOL     OW30010   1.198   2.479   1.985 -0.0902  0.5456  0.6170
 6125SOL    HW130011   1.132   2.411   1.998  0.3991 -0.3152 -1.5310
 6125SOL    HW230012   1.263   2.417   1.955  0.4500  2.0557 -1.3937
 6126SOL     OW30013   3.436   0.024   7.360 -0.1810 -0.1960 -0.3811
 6126SOL    HW130014   3.429   4.691   7.422  0.6436  0.4819  0.5257
 6126SOL    HW230015   3.372   0.077   7.407 -1.0342 -0.9448 -0.7059
 6127SOL     OW30016   0.020   0.102   7.676  0.2789  0.1602 -0.2811
 6127SOL    HW130017   0.095   0.160   7.661 -0.7312  1.4584 -0.3350
 6127SOL    HW230018   0.065   0.020   7.655  1.0591  0.6613 -0.5689
 6128SOL     OW30019   0.417   3.469   8.966  0.4992 -0.4416  0.3203
 6128SOL    HW130020   0.457   3.469   9.053 -1.0763  0.1987  1.0328
 6128SOL    HW230021   0.325   3.475   8.991  0.5121 -0.0828  0.2765
 6129SOL     OW30022   4.640   3.180   2.826 -0.5831  0.3380  0.4962
 6129SOL    HW130023   4.708   3.191   2.760 -0.1565 -1.1989  0.7042
 6129SOL    HW230024   4.571   3.135   2.777 -0.7740 -0.4400  1.4771
 6130SOL     OW30025   4.540   4.333  13.607  0.8774  0.4483  0.0582
 6130SOL    HW130026   4.502   4.340  13.694  0.6611  0.3145 -0.0268
 6130SOL    HW230027   4.617   4.282  13.634 -0.0450 -2.3609 -2.6668
 6131SOL     OW30028   1.357   2.897  14.578 -0.2187  0.0425  0.8228
 6131SOL    HW130029   1.280   2.949  14.554  0.4019 -0.1199 -1.5299
 6131SOL    HW230030   1.321   2.811  14.599  1.4970 -1.2758 -1.6248
 6132SOL     OW30031   3.447   4.154  11.034 -0.2629 -0.2804 -0.4812
 6132SOL    HW130032   3.486   4.082  10.985  1.6151  0.5891 -0.2332
 6132SOL    HW230033   3.463   4.115  11.120  0.9577 -0.0938 -0.6292
 6133SOL     OW30034   2.364   4.518   6.038 -0.6294  0.6444 -0.3185
 6133SOL    HW130035   2.288   4.518   6.096  0.5881  0.0221  1.2820
 6133SOL    HW230036   2.436   4.474   6.082  0.3521  1.3919 -1.1925
 6134SOL     OW30037   1.215   1.138  17.489  0.0445  0.1898 -0.4836
 6134SOL    HW130038   1.286   1.139  17.554  0.5565  0.7760 -1.0508
 6134SOL    HW230039   1.171   1.221  17.507 -0.6911 -0.3266  0.0922
 6135SOL     OW30040   2.441   0.256   9.556 -0.6850 -0.5625  0.5490
 6135SOL    HW130041   2.466   0.174   9.514 -0.0084  0.8362 -1.7595
 6135SOL    HW230042   2.354   0.269   9.520  0.3946  1.1230 -1.4637
 6136SOL     OW30043   3.045   4.477   5.814  0.5507 -0.1868  0.5044
 6136SOL    HW130044   3.059   4.438   5.727  0.1351 -0.1317  0.4142
 6136SOL    HW230045   3.009   4.562   5.787 -0.2585  0.3566  3.3111
 6137SOL     OW30046   0.096   2.597   2.825 -0.0140  0.0927 -0.1806
 6137SOL    HW130047   0.165   2.661   2.843  0.3194  0.1276 -1.5641
 6137SOL    HW230048   0.139   2.546   2.756 -1.1566 -0.3433 -0.5582
 6138SOL     OW30049   2.449   0.047   6.025  0.2289 -0.5858 -0.5132
 6138SOL    HW130050   2.467   0.042   6.119 -0.4568 -1.7275 -0.4500
 6138SOL    HW230051   2.427   4.696   6.010  0.2752 -1.2349  3.5110
 6139SOL     OW30052   3.107   2.302   3.457  0.1122 -0.0112  0.0802
 6139SOL    HW130053   3.073   2.388   3.480 -0.8104 -0.7990  1.6391
 6139SOL    HW230054   3.201   2.312   3.438  0.0548  1.6972  0.7205
 6140SOL     OW30055   3.474   3.773   5.890  0.5466 -0.0532 -0.3069
 6140SOL    HW130056   3.487   3.864   5.916 -0.0068 -0.3188  0.9494
 6140SOL    HW230057   3.464   3.784   5.796 -4.3816  2.9058  0.5769
 6141SOL     OW30058   4.296   2.868   4.956 -0.4652 -0.1549 -0.3711
 6141SOL    HW130059   4.259   2.947   4.917  1.6325  0.3977 -1.2358
 6141SOL    HW230060   4.318   2.830   4.871 -1.8348  1.3813 -1.4238
 6142SOL     OW30061   4.084   3.562   3.480 -0.5864  0.1445 -0.4863
 6142SOL    HW130062   4.151   3.556   3.412 -0.2871 -0.3070 -0.1575
 6142SOL    HW230063   4.051   3.651   3.472 -0.5491 -0.0576 -2.8298
 6143SOL     OW30064   3.808   3.202  13.693 -0.4053  0.2890  0.4309
 6143SOL    HW130065   3.795   3.136  13.761  0.1184 -0.6625 -0.3990
 6143SOL    HW230066   3.723   3.214  13.650  0.6275  0.5088 -1.5303
 6144SOL     OW30067   1.665   2.968  15.983  0.2471  0.2425 -0.2591
 6144SOL    HW130068   1.620   3.039  16.027  0.3060  0.5025 -0.6186
 6144SOL    HW230069   1.620   2.967  15.899  1.1501  2.4505 -0.7740
 6145SOL     OW30070   2.830   3.727   7.554  0.1054  0.3943 -0.1903
 6145SOL    HW130071   2.809   3.811   7.514  2.2982  1.9143  1.9378
 6145SOL    HW230072   2.739   3.697   7.562  0.0799  0.5877  0.2349
 6146SOL     OW30073   2.766   4.453   9.499 -0.0952  0.7787  0.3357
 6146SOL    HW130074   2.816   4.377   9.470 -2.1316 -2.0131  4.1795
 6146SOL    HW230075   2.811   4.524   9.452  3.6985 -1.2233  0.9240
 6147SOL     OW30076   0.608   3.279   3.450 -0.5275  1.0295  0.4873
 6147SOL    HW130077   0.573   3.362   3.483 -1.4600  1.4740 -1.6327
 6147SOL    HW230078   0.689   3.256   3.496 -1.4560  1.1317  2.2106
 6148SOL     OW30079   1.424   2.668   7.907 -0.5206  1.0394  0.2310
 6148SOL    HW130080   1.333   2.664   7.881 -0.4373  1.6571 -0.1420
 6148SOL    HW230081   1.458   2.741   7.856  2.2251 -0.3372  0.0523
 6149SOL     OW30082   0.440   3.637  13.170  0.2583 -0.1189  0.0159
 6149SOL    HW130083   0.401   3.606  13.252  0.7548 -0.5634  0.0791
 6149SOL    HW230084   0.534   3.626  13.184  0.3642 -1.1387 -1.5311
 6150SOL     OW30085   0.082   3.490  12.596  0.0575  0.3983 -0.7621
 6150SOL    HW130086   0.156   3.483  12.535 -0.6255 -0.4027 -1.4985
 6150SOL    HW230087   0.038   3.408  12.571 -0.2713  0.9929 -2.1856
 6151SOL     OW30088   3.980   3.501   8.196  0.2088  0.0205 -0.4457
 6151SOL    HW130089   3.972   3.589   8.159 -1.7794  0.0196 -0.0398
 6151SOL    HW230090   3.893   3.462   8.187 -0.1208  0.7843 -0.6061
 6152SOL     OW30091   0.758   1.586   3.824 -0.3790 -0.5398 -0.7477
 6152SOL    HW130092   0.852   1.599   3.813 -0.0960 -1.7913  0.1287
 6152SOL    HW230093   0.748   1.509   3.880  1.4569 -1.7384 -2.0405
 6153SOL     OW30094   2.453   3.679   6.719 -0.1369 -0.3439 -0.2510
 6153SOL    HW130095   2.482   3.662   6.809  0.2534  0.0020 -0.3172
 6153SOL    HW230096   2.455   3.774   6.714 -0.0260 -0.2569  1.3801
 6154SOL     OW30097   2.035   1.387   3.557 -0.3516  0.1907 -0.1125
 6154SOL    HW130098   2.040   1.432   3.472  4.7883  2.7199  1.4913
 6154SOL    HW230099   2.050   1.463   3.613 -2.4820  1.6698 -1.5321
 6155SOL     OW30100   3.282   3.372   4.757  0.0391 -0.0166 -0.3617
 6155SOL    HW130101   3.267   3.442   4.820  0.7339 -0.6109  0.4574
 6155SOL    HW230102   3.220   3.407   4.692  0.8306  1.3694 -0.3857
 6156SOL     OW30103   0.704   0.496   7.720 -0.7527  0.1182 -0.3630
 6156SOL    HW130104   0.687   0.590   7.708 -0.8143  0.2017  0.3721
 6156SOL    HW230105   0.795   0.497   7.691 -0.8637 -1.5946 -0.7954
 6157SOL     OW30106   1.030   2.991   3.180 -0.6784  0.3869  0.3414
 6157SOL    HW130107   0.985   3.045   3.115 -0.1559 -0.9828 -1.1788
 6157SOL    HW230108   1.115   2.977   3.137  0.2938 -0.8471  2.6604
 6158SOL     OW30109   2.036   1.394   3.150 -0.6587  0.6116  0.1899
 6158SOL    HW130110   2.001   1.327   3.209  1.7662 -0.2948  0.5891
 6158SOL    HW230111   1.962   1.453   3.139  1.0253  2.2878 -2.1243
 6159SOL     OW30112   2.512   2.103   6.542 -0.3313 -0.9702 -0.1495
 6159SOL    HW130113   2.569   2.163   6.590 -0.5924 -0.7830 -0.0733
 6159SOL    HW230114   2.476   2.169   6.483 -1.4996 -1.3124  0.1786
 6160SOL     OW30115   2.664   1.495  15.331  0.5230 -0.3059  0.0789
 6160SOL    HW130116   2.584   1.547  15.333  1.4674  1.2046 -1.2282
 6160SOL    HW230117   2.645   1.427  15.396  1.4476 -0.6297  0.0065
 6161SOL     OW30118   3.107   3.367   5.053 -0.2407  0.1234  0.2651
 6161SOL    HW130119   3.024   3.414   5.047 -1.0350 -1.3764 -0.3249
 6161SOL    HW230120   3.175   3.433   5.037  0.6036 -0.2385  2.2875
 6162SOL     OW30121   0.494   3.890   8.437 -0.5934 -0.2494 -0.3020
 6162SOL    HW130122   0.531   3.928   8.517 -1.7253 -3.1838  1.6287
 6162SOL    HW230123   0.419   3.834   8.455  0.2698 -1.2020  0.3318
 6163SOL     OW30124   0.351   2.718  10.021 -0.7550 -0.3239  0.3256
 6163SOL    HW130125   0.286   2.786  10.033 -0.3581 -0.0278  0.8187
 6163SOL    HW230126   0.351   2.693  10.114 -2.4895 -2.3952 -0.2481
 6164SOL     OW30127   2.510   2.444   6.133 -0.7012  0.6306 -0.4842
 6164SOL    HW130128   2.605   2.434   6.131 -0.9193 -1.1367 -1.5148
 6164SOL    HW230129   2.505   2.523   6.187  2.3571 -0.4869  1.4153
 6165SOL     OW30130   0.534   0.823   5.236 -0.3084 -0.5817 -0.4039
 6165SOL    HW130131   0.447   0.801   5.267 -1.0964  2.0174 -0.7214
 6165SOL    HW230132   0.510   0.831   5.144  1.8036  0.4144 -0.8845
 6166SOL     OW30133   0.866   2.730  17.272 -0.7542  0.6054  0.0795
 6166SOL    HW130134   0.918   2.698  17.198 -0.2299 -2.5445  1.8468
 6166SOL    HW230135   0.928   2.709  17.342  0.9223  0.8143 -1.3381
 6167SOL     OW30136   2.897   2.264   3.225 -0.3047 -0.2221  0.4551
 6167SOL    HW130137   2.977   2.253   3.277 -1.3359  1.2917  2.3474
 6167SOL    HW230138   2.828   2.229   3.280 -0.6381 -1.9813 -1.0806
 6168SOL     OW30139   3.562   2.714   2.836  0.3222 -0.3368 -0.0219
 6168SOL    HW130140   3.615   2.711   2.756  1.4418 -1.2126  0.7636
 6168SOL    HW230141   3.629   2.745   2.897  1.7154 -1.7166 -0.8441
 6169SOL     OW30142   4.400   2.590   8.610 -0.1154  0.2207 -0.4477
 6169SOL    HW130143   4.318   2.635   8.631 -0.1398 -0.3186  0.6090
 6169SOL    HW230144   4.370   2.499   8.608  1.9638 -0.5059  0.7654
 6170SOL     OW30145   0.344   0.198   6.212 -0.2808  0.6725  0.6857
 6170SOL    HW130146   0.428   0.237   6.236 -0.5787  0.8978  1.3507
 6170SOL    HW230147   0.356   0.194   6.117  1.5918 -1.0589  1.0060
 6171SOL     OW30148   1.588   0.841   7.033  0.7583  0.3718  0.4481
 6171SOL    HW130149   1.529   0.908   6.999 -0.4149 -2.0181 -2.1855
 6171SOL    HW230150   1.557   0.759   6.995  2.2140  0.3521 -0.6939
 6172SOL     OW30151   0.559   3.323   2.127  0.2103 -0.4017 -0.1409
 6172SOL    HW130152   0.554   3.267   2.205 -0.2361 -1.2232 -0.7601
 6172SOL    HW230153   0.594   3.257   2.068  0.9695 -0.3267  0.2267
 6173SOL     OW30154   3.581   3.452   2.462 -0.4732 -0.0356  0.4676
 6173SOL    HW130155   3.592   3.359   2.481  1.5363  0.0296 -0.3741
 6173SOL    HW230156   3.648   3.490   2.519  0.3102 -2.3722  1.1296
 6174SOL     OW30157   3.229   3.528   7.273  0.5410  0.1652  0.4248
 6174SOL    HW130158   3.168   3.533   7.347 -3.3994 -0.2327 -2.7742
 6174SOL    HW230159   3.291   3.459   7.297  0.3599 -0.4409 -0.8198
 6175SOL     OW30160   2.132   2.273   2.346 -0.3155  0.2558 -0.1619
 6175SOL    HW130161   2.175   2.222   2.414  0.3794  0.6006 -0.3397
 6175SOL    HW230162   2.042   2.282   2.377  0.0854  0.0011  1.0632
 6176SOL     OW30163   0.905   3.230   4.120 -0.0701 -0.3575 -0.2429
 6176SOL    HW130164   0.960   3.173   4.067 -0.9393 -1.1310 -0.3290
 6176SOL    HW230165   0.863   3.173   4.185  1.1737 -2.2211 -1.0773
 6177SOL     OW30166   2.006   3.920   5.227 -0.3766 -0.9556 -0.4375
 6177SOL    HW130167   1.981   3.867   5.151  0.2770 -0.0776 -1.2666
 6177SOL    HW230168   2.008   4.013   5.204 -0.6541 -1.5874 -3.0986
 6178SOL     OW30169   1.968   0.711   0.312  0.6753  0.4227  0.6165
 6178SOL    HW130170   1.967   0.704   0.216  0.8579  0.5747  0.6044
 6178SOL    HW230171   1.878   0.728   0.339  1.0265  0.9848  1.4052
 6179SOL     OW30172   1.465   2.626   8.278 -0.0105  0.1314 -0.5989
 6179SOL    HW130173   1.405   2.694   8.247 -0.1063  0.1220 -0.4333
 6179SOL    HW230174   1.445   2.623   8.372 -1.5296 -2.1677 -1.0077
 6180SOL     OW30175   4.384   4.517   4.100 -0.9348  0.3554  0.0992
 6180SOL    HW130176   4.361   4.587   4.162  1.4445 -0.9769  2.4777
 6180SOL    HW230177   4.400   4.568   4.020  1.9326 -1.3490 -0.3855
 6181SOL     OW30178   3.154   0.272   2.416 -0.1953  0.0735  0.5070
 6181SOL    HW130179   3.161   0.292   2.322 -2.5392 -0.0483  0.3012
 6181SOL    HW230180   3.228   0.319   2.455 -2.2981  1.9111  2.2351
 6182SOL     OW30181   4.155   1.787   5.257  0.2933  0.6469 -0.0038
 6182SOL    HW130182   4.234   1.841   5.259 -0.5784  1.9904 -1.9376
 6182SOL    HW230183   4.130   1.800   5.165 -0.2232 -0.3025  0.0027
 6183SOL     OW30184   0.931   3.768   7.785 -0.1888  0.0611 -0.5589
 6183SOL    HW130185   1.020   3.731   7.786 -0.0879  0.3225  0.7093
 6183SOL    HW230186   0.924   3.796   7.694  1.7964  0.1959 -0.6825
 6184SOL     OW30187   1.042   4.663   2.003  0.4690  0.0095 -0.5156
 6184SOL    HW130188   1.004   4.662   2.090  1.5474 -0.5994 -0.0543
 6184SOL    HW230189   1.027   0.014   1.974  0.0888 -0.0754 -0.5775
 6185SOL     OW30190   0.049   0.124  12.376 -0.1640 -0.4545 -0.3092
 6185SOL    HW130191   0.083   0.193  12.319  2.1317 -1.3858 -0.0686
 6185SOL    HW230192   0.095   0.128  12.460  2.5511  0.3490 -1.8206
 6186SOL     OW30193   0.393   1.429   7.077 -0.2640  0.3709  0.5794
 6186SOL    HW130194   0.404   1.334   7.072 -0.2688  0.3817  0.3610
 6186SOL    HW230195   0.333   1.445   7.150  0.6524  1.1141  1.1724
 6187SOL     OW30196   1.970   4.704   7.297 -0.2938 -1.1802  0.4637
 6187SOL    HW130197   2.002   4.735   7.212 -2.3037  1.8268  0.7892
 6187SOL    HW230198   2.037   4.652   7.341 -0.5301 -1.4056  0.5561
 6188SOL     OW30199   2.241   1.424   6.959  0.3454  0.2463  0.3475
 6188SOL    HW130200   2.250   1.454   6.868  0.4333  2.0222  0.9327
 6188SOL    HW230201   2.271   1.334   6.951  1.3164  0.9461 -3.7180
 6189SOL     OW30202   4.736   0.624   5.645 -0.2857 -0.3832 -0.2851
 6189SOL    HW130203   0.008   0.684   5.571 -0.4047 -0.3427 -0.2721
 6189SOL    HW230204   0.063   0.661   5.703 -0.1861 -0.6653 -0.2182
 6190SOL     OW30205   2.886   3.543   2.362 -0.2287  0.6264 -0.0642
 6190SOL    HW130206   2.908   3.450   2.358 -0.4708  0.5735 -0.1280
 6190SOL    HW230207   2.970   3.587   2.378 -0.1734  0.8474 -0.9619
 6191SOL     OW30208   0.832   1.076   1.499 -0.0551  0.0755 -0.3848
 6191SOL    HW130209   0.854   1.135   1.427  1.3602  0.5137  0.4124
 6191SOL    HW230210   0.853   0.989   1.464  0.4471  0.2980 -0.6302
 6192SOL     OW30211   0.467   4.686   5.680  0.1274 -0.0694 -0.3090
 6192SOL    HW130212   0.426   4.638   5.608  0.7074 -1.1323  0.0637
 6192SOL    HW230213   0.492   0.029   5.638 -0.0534 -0.5857 -1.4520
 6193SOL     OW30214   3.420   3.754  16.981 -0.0542  0.6646 -0.0525
 6193SOL    HW130215   3.509   3.733  17.010  0.1097 -0.4896 -1.4156
 6193SOL    HW230216   3.424   3.766  16.886  1.0367 -0.1106 -0.1008
 6194SOL     OW30217   1.452   3.805   9.340  0.2222 -0.0635  0.5292
 6194SOL    HW130218   1.535   3.817   9.295 -0.4883  0.2157 -0.7061
 6194SOL    HW230219   1.442   3.710   9.354 -0.3394 -0.1928 -0.7616
 6195SOL     OW30220   3.744   3.200   9.659 -0.6319  0.1191  0.1313
 6195SOL    HW130221   3.764   3.153   9.740 -3.5891 -0.4935  0.5224
 6195SOL    HW230222   3.691   3.130   9.621 -0.0430 -0.1207 -0.2429
 6196SOL     OW30223   2.003   0.363   3.172  0.2206 -0.3780 -0.5326
 6196SOL    HW130224   2.044   0.416   3.240 -1.3837 -0.5466  0.5450
 6196SOL    HW230225   2.078   0.356   3.113  0.4467 -0.4681 -0.2330
 6197SOL     OW30226   2.558   0.090   1.351  0.5867  0.1061 -0.1217
 6197SOL    HW130227   2.522   0.174   1.322 -0.1656 -0.3004 -0.3518
 6197SOL    HW230228   2.554   0.083   1.446 -1.5965 -0.5926 -0.2672
 6198SOL     OW30229   1.998   0.710   7.926 -0.4752 -0.3651 -0.7876
 6198SOL    HW130230   2.074   0.693   7.870  0.5033 -1.2659  0.8393
 6198SOL    HW230231   1.949   0.629   7.915 -0.6611 -0.4960  1.1619
 6199SOL     OW30232   3.998   1.172   8.074 -0.3757  0.1645 -0.1867
 6199SOL    HW130233   4.026   1.083   8.097  0.1998 -0.1070 -1.9936
 6199SOL    HW230234   4.003   1.210   8.162  0.9089  4.0706 -1.9541
 6200SOL     OW30235   3.720   3.627   6.794 -0.1442  0.3400  0.8061
 6200SOL    HW130236   3.774   3.548   6.794 -0.6080  0.0164 -0.5923
 6200SOL    HW230237   3.664   3.620   6.717  0.5714 -1.5570  0.4412
 6201SOL     OW30238   0.287   2.408   6.644 -0.3261 -0.1031 -0.3573
 6201SOL    HW130239   0.370   2.423   6.598  0.4623  0.3652  1.2019
 6201SOL    HW230240   0.302   2.324   6.687  1.2957  0.0683 -0.5773
 6202SOL     OW30241   4.111   1.401  10.391 -0.9265  0.2950 -0.0607
 6202SOL    HW130242   4.083   1.485  10.354  0.6782 -0.1664 -2.3492
 6202SOL    HW230243   4.195   1.414  10.436  0.8690 -1.9565 -2.7383
 6203SOL     OW30244   1.387   4.691   3.362  0.3787  0.5757 -0.3660
 6203SOL    HW130245   1.305   4.680   3.313 -0.0477 -2.3171  1.0170
 6203SOL    HW230246   1.449   4.722   3.297 -0.9031  1.5343 -1.1264
 6204SOL     OW30247   1.118   2.025   7.778  0.0573 -0.1661 -0.3009
 6204SOL    HW130248   1.123   2.095   7.713  0.9279  0.5129  0.5021
 6204SOL    HW230249   1.032   2.035   7.819 -0.6934 -1.6887 -1.5094
 6205SOL     OW30250   2.550   1.039   1.770  0.3703 -0.1886 -0.6474
 6205SOL    HW130251   2.580   1.120   1.730  0.5862 -0.2575 -0.6253
 6205SOL    HW230252   2.547   1.065   1.862 -3.1844  0.1732 -0.8871
 6206SOL     OW30253   3.518   4.163   0.090  0.2256 -0.2988  0.2100
 6206SOL    HW130254   3.543   4.245   0.046  2.2762 -1.5787 -0.9715
 6206SOL    HW230255   3.606   4.138   0.119 -0.2512 -2.1220  0.0757
 6207SOL     OW30256   4.387   0.327   2.685  0.3923 -0.0954 -0.2584
 6207SOL    HW130257   4.356   0.250   2.637  1.7565 -0.8696  0.1072
 6207SOL    HW230258   4.339   0.325   2.768 -0.5276 -1.7202 -0.8259
 6208SOL     OW30259   0.180   3.260   4.723  0.1195 -0.3116  0.1785
 6208SOL    HW130260   0.268   3.296   4.719 -0.5498  1.4837  1.4143
 6208SOL    HW230261   0.182   3.197   4.651 -1.6100 -1.7306  1.3713
 6209SOL     OW30262   3.375   4.289   4.793  0.0884  0.2532  0.0671
 6209SOL    HW130263   3.307   4.231   4.758 -0.4448 -0.2823  1.9957
 6209SOL    HW230264   3.429   4.312   4.718 -1.6260  1.5046 -0.7896
 6210SOL     OW30265   2.273   4.655   9.104  0.4889  0.1759 -0.1870
 6210SOL    HW130266   2.265   0.006   9.134  2.3485 -0.5166  2.3804
 6210SOL    HW230267   2.194   4.620   9.144  1.1362 -0.9981  0.0467
 6211SOL     OW30268   4.067   2.941   2.919  0.3299  0.2716 -0.6589
 6211SOL    HW130269   4.151   2.896   2.907 -0.1425 -0.8875  0.3991
 6211SOL    HW230270   4.009   2.869   2.941  1.3638 -0.8827 -1.7358
 6212SOL     OW30271   0.505   3.532   1.933  0.1614  0.3959  0.2816
 6212SOL    HW130272   0.537   3.443   1.949  0.4069  0.7859  1.9338
 6212SOL    HW230273   0.436   3.510   1.995  0.4966 -1.2099  0.0896
 6213SOL     OW30274   3.723   4.067   8.600 -0.3004 -0.2393 -0.1553
 6213SOL    HW130275   3.726   3.997   8.534 -2.2428 -0.4828  0.0297
 6213SOL    HW230276   3.628   4.068   8.612 -0.0390  0.4554  1.8369
 6214SOL     OW30277   4.261   2.140   6.433  0.3165  0.0376  0.1387
 6214SOL    HW130278   4.343   2.151   6.385 -0.1292  0.9983 -0.4050
 6214SOL    HW230279   4.231   2.231   6.423 -0.6876 -0.0196  2.7699
 6215SOL     OW30280   0.760   4.353  14.363 -0.5564 -0.1044 -0.7587
 6215SOL    HW130281   0.815   4.294  14.312  0.2639  1.6470 -1.9095
 6215SOL    HW230282   0.678   4.304  14.376 -0.1257 -0.5946  0.0784
 6216SOL     OW30283   2.107   3.805  17.087  0.1964  0.4504 -0.1711
 6216SOL    HW130284   2.057   3.834  17.011  0.1126  0.5643 -0.0709
 6216SOL    HW230285   2.100   3.875  17.152 -1.3238  0.9331 -0.8604
 6217SOL     OW30286   1.411   3.306   8.534 -0.0353 -0.2807  0.4172
 6217SOL    HW130287   1.390   3.340   8.447 -0.7246 -0.6887  0.4215
 6217SOL    HW230288   1.386   3.380   8.589 -1.0885  0.8212 -1.5219
 6218SOL     OW30289   3.478   4.672   0.654  0.4976 -0.0941  0.0189
 6218SOL    HW130290   3.449   4.588   0.688  1.4219  0.4361  2.1061
 6218SOL    HW230291   3.570   4.649   0.638  1.6308  0.9891  5.1528
 6219SOL     OW30292   0.672   1.861   4.327  0.3148  0.0203  0.0969
 6219SOL    HW130293   0.589   1.905   4.346 -0.5534 -1.7351  0.3067
 6219SOL    HW230294   0.640   1.775   4.303  0.1587  0.2570 -0.5395
 6220SOL     OW30295   1.162   1.409   9.360 -0.7327 -0.1375  0.5378
 6220SOL    HW130296   1.205   1.406   9.275 -0.9595  1.1453  0.3778
 6220SOL    HW230297   1.107   1.486   9.348 -0.7314  0.0795  1.9015
 6221SOL     OW30298   3.921   1.690   3.023  0.4679 -0.7790 -0.4098
 6221SOL    HW130299   3.901   1.774   2.982 -0.8184 -0.4828  0.8128
 6221SOL    HW230300   3.853   1.646   2.972 -0.8650  3.1173 -1.9151
 6222SOL     OW30301   3.397   3.132   5.177 -0.2298 -0.7237 -0.2330
 6222SOL    HW130302   3.399   3.119   5.082  0.8400  2.1691 -0.5822
 6222SOL    HW230303   3.489   3.124   5.200 -0.2670 -1.3862 -0.3244
 6223SOL     OW30304   2.892   4.256   6.597 -0.6869  0.4409  0.2085
 6223SOL    HW130305   2.930   4.316   6.533 -1.2831  0.6120  0.0087
 6223SOL    HW230306   2.838   4.316   6.649  0.9129  0.8046  1.4406
 6224SOL     OW30307   0.848   1.159   6.849 -0.0543 -0.1190  0.2443
 6224SOL    HW130308   0.865   1.109   6.929 -0.8076 -0.8475 -0.0578
 6224SOL    HW230309   0.917   1.132   6.788 -0.8283 -2.5078  0.4465
 6225SOL     OW30310   3.642   1.884  13.302 -0.0230  0.0348 -0.5545
 6225SOL    HW130311   3.605   1.823  13.239 -2.1272  0.4221  0.2827
 6225SOL    HW230312   3.669   1.965  13.258  2.4718 -1.1471 -1.1793
 6226SOL     OW30313   0.627   2.765   5.127  0.5696 -0.1295  0.9905
 6226SOL    HW130314   0.586   2.680   5.112 -0.1669  0.1248  1.5951
 6226SOL    HW230315   0.554   2.814   5.165 -0.4796 -1.0984  0.2522
 6227SOL     OW30316   0.459   0.144   8.700 -0.3145 -0.0577  0.5506
 6227SOL    HW130317   0.452   0.240   8.702 -2.0147 -0.1511 -1.1926
 6227SOL    HW230318   0.514   0.137   8.778  0.7505  1.0219 -0.0930
 6228SOL     OW30319   1.312   3.297   3.803 -0.4085  0.1204  0.9129
 6228SOL    HW130320   1.300   3.220   3.746  0.5349 -0.5986  1.6680
 6228SOL    HW230321   1.408   3.300   3.812 -0.4151  0.4941  0.8312
 6229SOL     OW30322   0.623   2.478   6.477  0.3212  0.9458 -0.1920
 6229SOL    HW130323   0.686   2.458   6.547 -0.5917  0.8895  0.6166
 6229SOL    HW230324   0.693   2.484   6.412 -0.3602  1.7004 -0.8500
 6230SOL     OW30325   3.957   1.773   3.930 -0.0990 -0.0551  0.2698
 6230SOL    HW130326   4.027   1.824   3.888  0.4644  0.5552  1.9580
 6230SOL    HW230327   3.987   1.765   4.020  3.3581  1.5668 -0.6989
 6231SOL     OW30328   0.003   3.569  14.375 -0.8081 -0.6831  0.1421
 6231SOL    HW130329   0.058   3.499  14.339  0.5506  0.5987 -0.2496
 6231SOL    HW230330   4.740   3.544  14.467 -0.2760  1.8926  0.8646
 6232SOL     OW30331   0.658   1.023   7.557 -0.3015  0.0509  0.0622
 6232SOL    HW130332   0.582   1.068   7.519 -0.5497 -0.2809  0.1590
 6232SOL    HW230333   0.686   1.089   7.620  1.3461 -0.0506 -0.5734
 6233SOL     OW30334   0.544   4.198   6.810  0.1918 -0.1030 -0.2245
 6233SOL    HW130335   0.565   4.118   6.763  0.1095  0.7738 -1.7627
 6233SOL    HW230336   0.583   4.274   6.765  1.1477  0.3085  1.2682
 6234SOL     OW30337   1.841   0.659  11.010 -0.0099 -0.0575 -0.8009
 6234SOL    HW130338   1.862   0.719  11.081  1.6547 -0.2068 -1.1566
 6234SOL    HW230339   1.767   0.701  10.966 -1.3230 -0.6330  0.8515
 6235SOL     OW30340   2.586   2.937  16.492 -1.2294 -0.3987  0.4392
 6235SOL    HW130341   2.594   2.973  16.403  1.3645  2.8660  1.9654
 6235SOL    HW230342   2.534   2.859  16.472  0.0095 -0.2396 -3.4329
 6236SOL     OW30343   2.595   3.325   2.639  0.2240 -0.3709 -0.0046
 6236SOL    HW130344   2.671   3.345   2.693 -0.1761 -0.6478  0.6631
 6236SOL    HW230345   2.571   3.409   2.602  0.3255 -0.9053 -1.2818
 6237SOL     OW30346   1.264   4.215   7.356  0.0015  0.0153  0.1876
 6237SOL    HW130347   1.247   4.235   7.264  1.8987  1.7484  0.2203
 6237SOL    HW230348   1.357   4.205   7.336 -0.7595 -1.0706 -2.7650
 6238SOL     OW30349   3.484   4.322  11.864  0.1499  0.1849  1.1711
 6238SOL    HW130350   3.568   4.368  11.861  1.1179 -1.8340 -2.3352
 6238SOL    HW230351   3.517   4.249  11.916 -1.3747 -0.5632  1.0656
 6239SOL     OW30352   3.931   2.563   4.410 -0.4109 -0.2437 -0.0196
 6239SOL    HW130353   3.845   2.523   4.426 -1.2033  0.6242 -2.0882
 6239SOL    HW230354   3.914   2.609   4.328  2.2212  0.4302 -0.1881
 6240SOL     OW30355   4.582   1.578  13.141  0.3275 -0.6814  0.5752
 6240SOL    HW130356   4.590   1.551  13.050 -0.6758 -1.9943  0.8721
 6240SOL    HW230357   4.658   1.533  13.178 -0.5768  0.0949  3.3868
 6241SOL     OW30358   3.147   2.076   5.900  0.6871  0.2322 -0.5980
 6241SOL    HW130359   3.218   2.019   5.928  0.2691 -0.3998 -0.8224
 6241SOL    HW230360   3.187   2.146   5.848 -1.7186  0.9312 -1.5279
 6242SOL     OW30361   4.069   0.085   3.865  0.5138  0.0513 -0.8745
 6242SOL    HW130362   4.001   0.150   3.848 -0.5285 -0.7295  0.2932
 6242SOL    HW230363   4.010   0.013   3.887  1.1858 -0.6713 -1.4419
 6243SOL     OW30364   0.560   0.267   1.955  0.0572 -0.1848  0.7562
 6243SOL    HW130365   0.535   0.317   2.033 -0.6456 -1.1095  1.1253
 6243SOL    HW230366   0.614   0.200   1.996 -0.6838 -2.6122 -2.2373
 6244SOL     OW30367   3.136   4.120   4.602  0.0382 -0.2549  0.1091
 6244SOL    HW130368   3.122   4.026   4.592  0.7132 -0.0877 -2.4078
 6244SOL    HW230369   3.189   4.138   4.524 -1.1425  1.2282 -0.3426
 6245SOL     OW30370   2.137   3.156   8.238 -0.6506  0.1147 -0.4158
 6245SOL    HW130371   2.190   3.233   8.217  0.9835 -1.1423 -0.8394
 6245SOL    HW230372   2.125   3.122   8.150 -0.2933 -3.3423  0.8720
 6246SOL     OW30373   0.361   1.471   0.588  0.0447  0.2249  0.0038
 6246SOL    HW130374   0.317   1.386   0.590 -0.7099  0.5879 -1.5156
 6246SOL    HW230375   0.298   1.526   0.542 -1.9613 -1.4839  0.7096
 6247SOL     OW30376   2.884   0.879   8.556  0.2404  0.6399 -0.4158
 6247SOL    HW130377   2.927   0.903   8.637 -1.3683  0.8677  0.3769
 6247SOL    HW230378   2.944   0.813   8.522 -2.1647 -2.4969  1.4324
 6248SOL     OW30379   1.900   0.649   5.292  0.5387  0.2418 -0.2919
 6248SOL    HW130380   1.969   0.715   5.292  0.2673  0.5247  0.0933
 6248SOL    HW230381   1.836   0.697   5.240  2.8667 -0.4767 -3.8632
 6249SOL     OW30382   2.683   0.344   9.468 -0.3169  0.0985  0.0967
 6249SOL    HW130383   2.597   0.317   9.501 -1.1929 -1.1411 -3.1564
 6249SOL    HW230384   2.683   0.431   9.507 -0.2705 -0.9847  2.5304
 6250SOL     OW30385   3.475   0.853  15.624 -0.3193 -0.5469 -0.0828
 6250SOL    HW130386   3.455   0.770  15.666  2.3827 -0.2243  1.8063
 6250SOL    HW230387   3.520   0.824  15.545  0.2312 -1.9959  0.7682
 6251SOL     OW30388   0.398   2.221   5.653  0.4848 -0.5537  0.5054
 6251SOL    HW130389   0.472   2.173   5.617  0.9893  0.8929 -0.3549
 6251SOL    HW230390   0.334   2.199   5.586 -0.9972  1.0902  1.3713
 6252SOL     OW30391   4.561   1.101   7.794 -0.3333  0.5335  0.1674
 6252SOL    HW130392   4.488   1.103   7.856 -1.9203 -1.4147 -1.6386
 6252SOL    HW230393   4.536   1.165   7.728  0.7060  0.5612 -0.1950
 6253SOL     OW30394   2.700   4.379   9.767  0.1714 -0.3481 -0.5470
 6253SOL    HW130395   2.608   4.356   9.777  0.2318  0.0232  0.8820
 6253SOL    HW230396   2.710   4.402   9.674  0.7388 -1.9339 -0.8787
 6254SOL     OW30397   1.558   1.506   2.714 -0.1642 -0.0885  0.1930
 6254SOL    HW130398   1.491   1.490   2.648 -0.5804  1.6085  0.2028
 6254SOL    HW230399   1.584   1.591   2.678  0.9991 -0.3839  0.3247
 6255SOL     OW30400   3.003   1.030   5.607  0.2185 -0.0934  0.5641
 6255SOL    HW130401   3.036   1.112   5.569 -2.9681  1.0874  0.3235
 6255SOL    HW230402   3.025   0.971   5.535 -0.4972  0.9762 -0.5381
 6256SOL     OW30403   2.651   3.492   8.065 -0.5137 -0.2689 -0.4568
 6256SOL    HW130404   2.570   3.447   8.042 -1.2728  1.9225 -2.0853
 6256SOL    HW230405   2.629   3.528   8.151  1.3428 -2.6812  1.0333
 6257SOL     OW30406   0.407   1.690   6.703  0.8860  0.5616  0.1942
 6257SOL    HW130407   0.446   1.683   6.789  0.1987  0.9182  0.5366
 6257SOL    HW230408   0.401   1.785   6.686  1.7574  0.5283 -0.3098
 6258SOL     OW30409   3.599   1.352   8.895 -0.4702  0.0144  0.2369
 6258SOL    HW130410   3.550   1.387   8.820 -1.0202 -2.4159 -0.5438
 6258SOL    HW230411   3.637   1.279   8.846 -0.6783 -0.6623  1.0808
 6259SOL     OW30412   1.527   3.031   9.505 -0.6013  0.3647  0.1579
 6259SOL    HW130413   1.466   3.021   9.578  1.1747 -0.2192  1.5344
 6259SOL    HW230414   1.477   2.980   9.441  1.3536 -0.0581 -1.0212
 6260SOL     OW30415   3.773   0.136   5.406 -0.1483 -0.0281  0.3710
 6260SOL    HW130416   3.693   0.090   5.432  0.8478 -0.9430  1.8156
 6260SOL    HW230417   3.822   0.062   5.372 -1.8976 -2.1144  2.3536
 6261SOL     OW30418   2.665   3.859   5.913 -0.4562 -0.4464 -0.7020
 6261SOL    HW130419   2.671   3.816   5.999 -1.4906  1.7223  0.4800
 6261SOL    HW230420   2.759   3.855   5.898 -0.3439  0.2103 -0.2061
 6262SOL     OW30421   0.660   0.808   8.662 -0.0156  0.1056 -0.4130
 6262SOL    HW130422   0.648   0.713   8.654  0.9339 -0.1905  1.6344
 6262SOL    HW230423   0.717   0.813   8.585  0.4104 -0.0085 -0.1040
 6263SOL     OW30424   3.269   0.712   2.677 -0.0393  0.1773 -0.5405
 6263SOL    HW130425   3.265   0.797   2.632 -1.9125  0.5825  0.3852
 6263SOL    HW230426   3.190   0.712   2.732  1.0158 -1.3194  0.9743
 6264SOL     OW30427   4.034   0.309  14.056  0.1415 -0.2990  0.1735
 6264SOL    HW130428   3.977   0.347  13.990 -0.3671 -1.2334  0.0778
 6264SOL    HW230429   4.116   0.295  14.009  0.7470  1.3911  0.7373
 6265SOL     OW30430   3.647   3.586   6.202  0.1917 -0.4056 -0.4319
 6265SOL    HW130431   3.638   3.681   6.191  1.1717 -0.1510  0.9415
 6265SOL    HW230432   3.659   3.575   6.296  1.1319 -0.1977 -0.5289
 6266SOL     OW30433   3.447   2.727  14.866  0.2505 -0.2786 -0.2886
 6266SOL    HW130434   3.484   2.814  14.852 -1.2782  0.5291  0.7033
 6266SOL    HW230435   3.356   2.742  14.891  0.6244  2.0662 -0.3529
 6267SOL     OW30436   2.775   0.782   5.300  0.1446  0.2725  0.1146
 6267SOL    HW130437   2.717   0.858   5.302 -0.7317 -0.4319  2.0258
 6267SOL    HW230438   2.702   0.726   5.275 -0.3563  2.5694 -3.4685
 6268SOL     OW30439   3.055   1.235   2.697  0.2552  0.0054  0.4463
 6268SOL    HW130440   3.054   1.329   2.682 -0.0678 -0.2411 -1.1290
 6268SOL    HW230441   3.136   1.219   2.648  0.6815  0.9363  0.8473
 6269SOL     OW30442   1.046   1.355   8.780  0.1834 -0.1223 -0.1187
 6269SOL    HW130443   1.105   1.343   8.854  2.0653  0.0303 -1.5940
 6269SOL    HW230444   1.057   1.448   8.760  1.1130 -0.1459  0.2622
 6270SOL     OW30445   3.537   3.933   3.887 -0.5300  0.6684 -0.1348
 6270SOL    HW130446   3.589   3.914   3.965 -1.2959  0.1478  0.2476
 6270SOL    HW230447   3.468   3.867   3.884  0.0551 -0.0639  2.7252
 6271SOL     OW30448   3.516   4.319   0.585 -0.0982  0.4326 -0.2270
 6271SOL    HW130449   3.470   4.237   0.605 -0.8905  0.5947 -1.3976
 6271SOL    HW230450   3.519   4.361   0.671 -1.5930  0.1672 -0.0399
 6272SOL     OW30451   0.419   3.141   9.615  0.2550 -0.0111  0.4525
 6272SOL    HW130452   0.379   3.070   9.664  1.4866  1.3221  3.3876
 6272SOL    HW230453   0.463   3.083   9.553  0.2233  1.5277 -1.0312
 6273SOL     OW30454   2.954   2.707   6.775 -0.1139 -0.0528  0.0016
 6273SOL    HW130455   2.999   2.631   6.813  0.0159  0.5170  0.9936
 6273SOL    HW230456   2.901   2.730   6.851 -1.5659  0.0017 -1.0269
 6274SOL     OW30457   4.327   4.389   8.881  0.8558 -0.4826  0.1564
 6274SOL    HW130458   4.370   4.391   8.966 -1.5074  3.0291  1.2685
 6274SOL    HW230459   4.237   4.415   8.900  1.0039  1.7616 -2.2691
 6275SOL     OW30460   1.890   1.217   2.356 -0.0132 -0.2485  0.3169
 6275SOL    HW130461   1.869   1.265   2.436 -1.0129 -1.1990  0.6194
 6275SOL    HW230462   1.868   1.288   2.295 -0.8238  0.7039  1.7218
 6276SOL     OW30463   2.716   1.610  15.829  0.0939 -0.1143 -0.0881
 6276SOL    HW130464   2.760   1.677  15.882  0.2638 -1.9616  2.0842
 6276SOL    HW230465   2.785   1.583  15.769 -0.8832 -1.4208 -0.6304
 6277SOL     OW30466   1.463   0.520   8.926  0.3526 -0.2658  0.2506
 6277SOL    HW130467   1.509   0.509   8.843 -1.4174 -0.9629 -0.6415
 6277SOL    HW230468   1.435   0.431   8.945 -0.1257 -0.5777 -1.8606
 6278SOL     OW30469   1.800   3.117   9.494 -0.2487 -0.5027  0.6390
 6278SOL    HW130470   1.794   3.122   9.589  1.3819 -1.9197  0.8105
 6278SOL    HW230471   1.706   3.109   9.478 -0.0569  0.5032 -0.9592
 6279SOL     OW30472   3.023   0.767  13.334 -0.6355 -0.5731 -0.6140
 6279SOL    HW130473   3.029   0.838  13.271  0.4838  1.5503  1.8499
 6279SOL    HW230474   2.959   0.709  13.293 -1.2872  0.2130 -0.7012
 6280SOL     OW30475   0.963   3.113  12.701 -0.5309  0.2370  0.1191
 6280SOL    HW130476   0.909   3.119  12.622 -2.1188 -1.2758  1.0948
 6280SOL    HW230477   0.911   3.070  12.768  1.0842 -1.1280  0.4865
 6281SOL     OW30478   3.545   4.009  16.723 -0.8083  0.3576 -0.0303
 6281SOL    HW130479   3.492   3.934  16.749 -0.0198 -1.5485 -3.8594
 6281SOL    HW230480   3.600   3.965  16.657 -2.3766 -1.6510  0.0010
 6282SOL     OW30481   1.210   2.767   3.470  0.1559 -0.2859  0.2376
 6282SOL    HW130482   1.125   2.777   3.426 -0.4150 -0.0131  1.4046
 6282SOL    HW230483   1.233   2.678   3.443  0.9177 -0.1802  0.5472
 6283SOL     OW30484   1.647   4.724   6.618  0.4230 -0.2671 -0.5473
 6283SOL    HW130485   1.604   0.068   6.600 -0.3645 -0.4467  0.5013
 6283SOL    HW230486   1.645   4.736   6.713  0.3581  0.3830 -0.6296
 6284SOL     OW30487   0.778   1.343  15.211 -0.1963  0.1501 -0.6907
 6284SOL    HW130488   0.823   1.311  15.289  1.1055  0.5649 -1.2620
 6284SOL    HW230489   0.839   1.413  15.187 -1.7211  0.8673 -2.4482
 6285SOL     OW30490   4.103   0.923   3.410 -0.1983  0.4431 -0.4956
 6285SOL    HW130491   4.103   1.001   3.466 -1.3683  0.0110  0.1251
 6285SOL    HW230492   4.018   0.894   3.444 -0.0858 -2.2682 -2.4961
 6286SOL     OW30493   4.203   1.346   4.831  0.1346  0.2206 -0.1089
 6286SOL    HW130494   4.197   1.378   4.922  0.0056 -0.4846  0.1306
 6286SOL    HW230495   4.236   1.256   4.837 -1.8373 -0.5182 -0.4647
 6287SOL     OW30496   3.174   3.289   6.321 -0.7420  0.0524 -0.0474
 6287SOL    HW130497   3.203   3.377   6.295  2.1231 -0.6416  0.7640
 6287SOL    HW230498   3.260   3.251   6.341  0.5108  2.1709 -1.2913
 6288SOL     OW30499   0.153   4.151   6.942 -0.2004  0.0804  0.0064
 6288SOL    HW130500   0.057   4.152   6.934 -0.3231 -0.8764  1.1996
 6288SOL    HW230501   0.172   4.061   6.914  2.9244  1.5884 -2.6250
 6289SOL     OW30502   0.127   3.836   3.420 -0.6877  0.5310 -0.4212
 6289SOL    HW130503   0.157   3.903   3.482 -0.0024 -0.6328  0.5149
 6289SOL    HW230504   0.186   3.761   3.426  1.5997  2.2944 -0.9165
 6290SOL     OW30505   2.649   4.215   6.461 -0.1187 -0.0633 -0.3455
 6290SOL    HW130506   2.719   4.243   6.519 -1.9629  1.6506  1.0692
 6290SOL    HW230507   2.696   4.152   6.407  0.3898  1.6171 -1.8437
 6291SOL     OW30508   2.896   3.450   1.997  0.0640 -0.4085  0.0603
 6291SOL    HW130509   2.808   3.444   1.959 -0.2083  0.7633  0.4924
 6291SOL    HW230510   2.907   3.361   2.030  1.6213  0.0956  0.9169
 6292SOL     OW30511   0.979   3.426   3.018  0.2456 -0.4336 -0.0677
 6292SOL    HW130512   1.050   3.428   3.082  0.7878 -0.7626 -0.6566
 6292SOL    HW230513   0.937   3.511   3.032 -0.3764 -0.7944  0.2825
 6293SOL     OW30514   0.962   1.379   4.873 -0.2917  1.0761  0.6503
 6293SOL    HW130515   1.042   1.383   4.821 -1.2605 -1.3716 -1.0235
 6293SOL    HW230516   0.986   1.415   4.959 -0.0261  0.7275  0.7216
 6294SOL     OW30517   2.950   4.603   5.548  0.4626 -0.0205 -0.4625
 6294SOL    HW130518   2.860   4.587   5.520 -0.0182  0.2387  0.9101
 6294SOL    HW230519   2.927   4.632   5.636  2.8702 -1.8027  0.7529
 6295SOL     OW30520   2.348   1.764   9.708 -0.2898 -0.0405  0.3558
 6295SOL    HW130521   2.421   1.704   9.694 -0.4199 -0.3183  0.8964
 6295SOL    HW230522   2.383   1.798   9.790 -0.8671 -1.3656  1.1461
 6296SOL     OW30523   2.072   3.568   2.827  0.1058 -0.0428 -0.1491
 6296SOL    HW130524   2.049   3.574   2.734 -0.6751  0.6137  0.0835
 6296SOL    HW230525   2.091   3.660   2.846  1.0013 -0.1062 -0.7822
 6297SOL     OW30526   3.490   1.129   9.260 -0.3421 -0.0728  0.2662
 6297SOL    HW130527   3.478   1.141   9.354  1.5740 -0.0030  0.5119
 6297SOL    HW230528   3.399   1.125   9.231  0.1332 -2.1825 -0.8872
 6298SOL     OW30529   1.860   2.183  17.020  0.2578  0.0459 -0.7617
 6298SOL    HW130530   1.918   2.192  16.944  0.9098  0.2085 -0.2509
 6298SOL    HW230531   1.866   2.090  17.039  1.2794 -0.3698 -3.0604
 6299SOL     OW30532   3.104   0.246   5.850 -0.1296 -0.1038 -0.0068
 6299SOL    HW130533   3.113   0.306   5.775  1.8726 -0.6428 -0.2026
 6299SOL    HW230534   3.048   0.306   5.899  3.0537  2.5624  0.4279
 6300SOL     OW30535   4.347   0.267   7.051  0.0885 -0.1848  0.4657
 6300SOL    HW130536   4.319   0.317   7.128 -2.0032 -0.3397 -0.1800
 6300SOL    HW230537   4.264   0.262   7.004  0.4762 -0.7525 -0.1489
 6301SOL     OW30538   2.071   0.281   5.328 -0.1544 -0.1610  0.0971
 6301SOL    HW130539   2.160   0.262   5.355 -0.3158 -2.4051 -0.9350
 6301SOL    HW230540   2.045   0.202   5.282 -1.6207  0.7311 -0.6390
 6302SOL     OW30541   1.146   2.046   7.243  0.1811  0.0751 -0.5935
 6302SOL    HW130542   1.159   2.055   7.149  0.4764 -0.4412 -0.6017
 6302SOL    HW230543   1.052   2.063   7.246  0.3258  1.0349 -1.4137
 6303SOL     OW30544   0.942   3.913   5.659 -0.2489 -0.4151 -0.0629
 6303SOL    HW130545   0.861   3.959   5.680  0.0993 -0.8662  2.2434
 6303SOL    HW230546   1.005   3.981   5.635 -2.2972  0.6316 -2.4648
 6304SOL     OW30547   1.702   3.509   8.308  0.2404  0.7143 -0.0888
 6304SOL    HW130548   1.749   3.426   8.314 -2.0814 -0.5273  0.6486
 6304SOL    HW230549   1.744   3.552   8.383  2.3975  1.3027 -1.6367
 6305SOL     OW30550   0.790   4.245   9.984  0.5520 -0.0301 -0.5562
 6305SOL    HW130551   0.745   4.183  10.042  0.1626  0.1141 -0.7062
 6305SOL    HW230552   0.798   4.322  10.039 -0.0682 -0.5588  0.2725
 6306SOL     OW30553   0.217   3.158   6.120 -0.3210 -0.8791 -0.6403
 6306SOL    HW130554   0.136   3.136   6.166  0.4013  0.0831  1.0831
 6306SOL    HW230555   0.264   3.074   6.116 -1.4150 -1.4708 -0.9692
 6307SOL     OW30556   0.253   2.065   6.960  0.1780  0.2320  0.3148
 6307SOL    HW130557   0.345   2.064   6.985 -0.2251 -0.6808  1.7772
 6307SOL    HW230558   0.213   2.022   7.035 -0.9508 -0.0712 -0.4629
 6308SOL     OW30559   4.328   2.505   6.778 -0.0502 -0.4870 -1.0496
 6308SOL    HW130560   4.402   2.526   6.720  1.2206 -1.5577  0.2038
 6308SOL    HW230561   4.365   2.454   6.850  0.9147  1.3977 -0.2112
 6309SOL     OW30562   2.427   2.830  14.454 -0.5909  0.1592  0.0627
 6309SOL    HW130563   2.353   2.890  14.449 -0.5308  0.4985  3.2163
 6309SOL    HW230564   2.497   2.889  14.481  1.0515 -1.6169 -0.2836
 6310SOL     OW30565   3.959   3.758   9.277  0.3468  0.1622  0.1660
 6310SOL    HW130566   3.971   3.664   9.290 -2.4706  0.0974  2.2527
 6310SOL    HW230567   3.935   3.777   9.368  0.7174 -0.1427  0.3316
 6311SOL     OW30568   4.200   0.616  13.397  0.0475 -0.3560 -0.5982
 6311SOL    HW130569   4.214   0.525  13.424  1.3189  0.5106  1.6451
 6311SOL    HW230570   4.291   0.645  13.403 -0.6637  1.6768  0.1863
 6312SOL     OW30571   1.547   1.491  12.223  0.3998 -0.3093 -0.2826
 6312SOL    HW130572   1.617   1.518  12.282 -0.5070 -0.1602  0.7309
 6312SOL    HW230573   1.574   1.524  12.137  1.4818  2.2793  1.0270
 6313SOL     OW30574   1.497   1.422   0.964 -0.6760 -0.7207 -0.0521
 6313SOL    HW130575   1.413   1.458   0.993  0.0011  0.7073  0.1151
 6313SOL    HW230576   1.560   1.480   1.006  0.3310  0.2972 -2.9545
 6314SOL     OW30577   2.517   0.147   7.583 -0.2745 -0.0804 -0.5623
 6314SOL    HW130578   2.479   0.158   7.496 -0.2197  4.0731 -0.0734
 6314SOL    HW230579   2.597   0.099   7.561 -0.4149 -0.6105  0.0774
 6315SOL     OW30580   4.682   1.590   5.293  0.0443  0.0178  0.6844
 6315SOL    HW130581   4.693   1.594   5.388  1.2882  0.6569  0.5065
 6315SOL    HW230582   4.696   1.495   5.285 -1.7858 -0.0411 -1.7338
 6316SOL     OW30583   1.122   3.158  12.926 -0.5132 -0.1990 -0.0116
 6316SOL    HW130584   1.043   3.112  12.954  0.7457 -1.6954  1.0697
 6316SOL    HW230585   1.093   3.163  12.835 -0.2322  2.6654  0.0556
 6317SOL     OW30586   2.016   1.896  16.940 -0.7228 -0.1580 -0.3674
 6317SOL    HW130587   1.922   1.889  16.957 -0.3826 -0.5746  1.3996
 6317SOL    HW230588   2.052   1.819  16.985 -1.4783 -0.2485  0.0696
 6318SOL     OW30589   1.938   0.032   2.666 -0.2896 -0.3109 -0.2388
 6318SOL    HW130590   1.959   0.120   2.636 -2.1443  0.2245  0.0367
 6318SOL    HW230591   1.868   0.044   2.730 -0.7913 -0.6286 -0.7277
 6319SOL     OW30592   3.978   2.718   7.279 -0.7860  0.3198  0.2814
 6319SOL    HW130593   4.015   2.790   7.227  1.1288 -0.3991  0.6628
 6319SOL    HW230594   3.996   2.640   7.226  0.2586  1.3678 -0.9013
 6320SOL     OW30595   2.382   4.592   1.505  0.0564  0.0834  0.1366
 6320SOL    HW130596   2.376   4.688   1.506 -1.5224 -0.0154 -1.3399
 6320SOL    HW230597   2.420   4.581   1.593 -0.6759  2.1307  0.7251
 6321SOL     OW30598   1.966   4.157   4.170 -0.0733 -0.3900  0.5196
 6321SOL    HW130599   1.934   4.236   4.127 -1.0464 -0.6726  0.7238
 6321SOL    HW230600   2.057   4.176   4.193 -0.9864  1.7678  2.2340
 6322SOL     OW30601   4.161   0.319   3.596  0.1333 -0.3381 -0.9043
 6322SOL    HW130602   4.221   0.254   3.560  1.3665 -0.1449  0.7615
 6322SOL    HW230603   4.211   0.395   3.628 -0.1410  0.1889 -1.7183
 6323SOL     OW30604   1.164   3.643  11.304  0.1672  0.3921 -0.1662
 6323SOL    HW130605   1.171   3.733  11.336  0.2030 -0.3378  1.8532
 6323SOL    HW230606   1.222   3.606  11.370  0.2557 -1.4059 -1.2458
 6324SOL     OW30607   2.764   4.456   9.027 -0.1967  0.2732  0.2067
 6324SOL    HW130608   2.778   4.447   8.933  0.6843 -0.3483  0.3894
 6324SOL    HW230609   2.677   4.496   9.031  0.0905  0.9017  0.1826
 6325SOL     OW30610   2.521   2.554   8.102 -0.4903  0.3495  0.1572
 6325SOL    HW130611   2.481   2.634   8.138 -3.0538 -0.9619  0.2215
 6325SOL    HW230612   2.578   2.522   8.172  0.2144  3.2638  0.9531
 6326SOL     OW30613   0.535   0.516   2.150 -0.0605 -0.3428  0.2037
 6326SOL    HW130614   0.596   0.444   2.162 -0.4964 -0.7207  0.1435
 6326SOL    HW230615   0.451   0.481   2.180  0.9094 -2.7010  0.1641
 6327SOL     OW30616   0.114   4.038   2.709  0.2631 -0.1854 -0.5417
 6327SOL    HW130617   0.191   4.069   2.757  0.1500  0.2404 -0.6352
 6327SOL    HW230618   0.148   4.006   2.625  0.4865 -1.6954  0.1186
 6328SOL     OW30619   1.456   1.603   6.640 -0.1614  0.4469 -0.0846
 6328SOL    HW130620   1.405   1.523   6.654 -0.3626  0.2842 -1.7762
 6328SOL    HW230621   1.432   1.622   6.550 -1.0074 -1.1447 -0.1973
 6329SOL     OW30622   1.140   3.349   2.807 -0.4861  0.4434  0.5885
 6329SOL    HW130623   1.084   3.350   2.885 -1.5947 -0.1306 -0.2012
 6329SOL    HW230624   1.222   3.327   2.851 -1.6873 -2.6032  1.2698
 6330SOL     OW30625   2.582   3.598   7.623 -0.4281  0.2355  0.2291
 6330SOL    HW130626   2.514   3.564   7.565 -1.1169 -0.4311  1.4281
 6330SOL    HW230627   2.529   3.618   7.700 -0.0043  0.5359  0.4460
 6331SOL     OW30628   0.233   3.078   4.535 -0.3248  0.0628  0.4393
 6331SOL    HW130629   0.254   2.991   4.569 -1.0259  0.5594  2.1327
 6331SOL    HW230630   0.234   3.060   4.441  0.1303  2.6463 -0.0677
 6332SOL     OW30631   2.634   3.239   3.099 -0.1645  0.2754  0.5771
 6332SOL    HW130632   2.668   3.150   3.115 -2.5161 -0.6892  0.1920
 6332SOL    HW230633   2.657   3.247   3.007  3.7251 -2.9637  1.2673
 6333SOL     OW30634   0.274   4.084   0.932 -0.0340 -0.0300  0.1351
 6333SOL    HW130635   0.367   4.068   0.920  0.3977  2.7753 -0.1701
 6333SOL    HW230636   0.257   4.142   0.858 -2.6647 -0.8711  0.0753
 6334SOL     OW30637   4.655   0.123  11.181  0.0638  0.7718 -0.1621
 6334SOL    HW130638   4.674   0.128  11.088  0.8760 -2.1262 -0.1391
 6334SOL    HW230639   4.573   0.173  11.191  0.3556  1.2073  0.0640
 6335SOL     OW30640   0.938   3.188  12.205  0.0134  0.1060  0.6217
 6335SOL    HW130641   1.025   3.188  12.165 -0.6595 -2.6357 -0.8485
 6335SOL    HW230642   0.901   3.275  12.190 -0.7473 -0.2894  0.1717
 6336SOL     OW30643   4.673   0.772  11.376  0.2013 -0.1105 -0.4021
 6336SOL    HW130644   4.679   0.820  11.458  0.1697  0.4170 -0.7074
 6336SOL    HW230645   0.014   0.806  11.337  1.5271 -0.8689  1.6961
 6337SOL     OW30646   2.702   3.176   8.453 -0.2230 -0.3754  0.0052
 6337SOL    HW130647   2.771   3.195   8.516 -0.8424 -0.4044  0.6852
 6337SOL    HW230648   2.743   3.202   8.370  0.8062  0.7030  0.8457
 6338SOL     OW30649   3.808   3.411  13.985 -0.3718 -0.1046 -0.0299
 6338SOL    HW130650   3.853   3.327  13.981 -0.8788 -0.4027  0.6314
 6338SOL    HW230651   3.866   3.454  14.047  0.1844 -1.1007  0.1249
 6339SOL     OW30652   2.318   2.900   5.577 -0.1675  0.1069  0.2370
 6339SOL    HW130653   2.319   2.993   5.556  0.7406  0.1767  0.5801
 6339SOL    HW230654   2.366   2.865   5.502  0.1158 -1.3887  1.1144
 6340SOL     OW30655   4.632   3.322   8.624 -0.4383  0.0539 -0.3041
 6340SOL    HW130656   4.604   3.384   8.691  1.3953  2.5701 -1.8593
 6340SOL    HW230657   4.585   3.344   8.543 -0.8949  0.7052  0.1454
 6341SOL     OW30658   2.490   1.386   8.126  0.3578  0.5992  0.0754
 6341SOL    HW130659   2.563   1.371   8.186  0.3438 -1.2265 -0.3783
 6341SOL    HW230660   2.535   1.450   8.070 -0.6325 -0.8342 -2.3981
 6342SOL     OW30661   3.079   0.728  17.615 -0.3324 -0.1175  0.1093
 6342SOL    HW130662   2.987   0.751  17.622 -0.1400  1.1979 -1.8895
 6342SOL    HW230663   3.108   0.750  17.704 -0.8657 -1.8271  0.7077
 6343SOL     OW30664   0.515   2.309  15.949 -0.3920  0.5225  0.2091
 6343SOL    HW130665   0.450   2.273  15.888 -1.6617  0.0589  1.8239
 6343SOL    HW230666   0.497   2.251  16.023  1.0437 -0.5459 -0.2969
 6344SOL     OW30667   1.284   4.600   3.613  0.0033  0.1820 -0.5338
 6344SOL    HW130668   1.293   4.637   3.525 -0.6930 -1.4880 -1.2919
 6344SOL    HW230669   1.308   4.675   3.667  0.1811  1.8824 -2.9403
 6345SOL     OW30670   4.678   1.585   7.272 -0.8323  0.8487  0.6002
 6345SOL    HW130671   4.709   1.644   7.341 -0.1938  1.8270 -0.5122
 6345SOL    HW230672   4.602   1.555   7.321  0.7552  0.2419  2.7180
 6346SOL     OW30673   1.653   4.469   6.078 -0.3237  0.5571 -0.8582
 6346SOL    HW130674   1.691   4.546   6.120 -1.3622  0.1664  0.7971
 6346SOL    HW230675   1.730   4.429   6.039 -1.5041 -1.0969 -1.4907
 6347SOL     OW30676   1.403   3.606   4.060 -0.1906  0.2636 -0.3128
 6347SOL    HW130677   1.419   3.698   4.078 -1.3484  0.6497 -1.2676
 6347SOL    HW230678   1.311   3.612   4.037 -0.0686 -1.6411 -1.3021
 6348SOL     OW30679   0.064   3.894   9.570 -0.0774 -0.2735 -0.4159
 6348SOL    HW130680   0.145   3.864   9.610  0.9502  0.8437 -1.6669
 6348SOL    HW230681   0.091   3.961   9.508  2.7244  0.3820  1.5315
 6349SOL     OW30682   1.028   3.180   4.718  0.2012  0.2832 -0.1526
 6349SOL    HW130683   0.970   3.235   4.771  2.1588  0.5893  1.6313
 6349SOL    HW230684   1.045   3.239   4.645  1.8806  0.0159  0.0227
 6350SOL     OW30685   2.260   3.366   7.688  0.1376  0.4571  0.3379
 6350SOL    HW130686   2.299   3.400   7.607  2.6027 -1.8312  0.5700
 6350SOL    HW230687   2.242   3.273   7.672  0.8628  0.4703 -0.5741
 6351SOL     OW30688   0.611   3.706  16.134  0.5441 -1.1420 -0.5284
 6351SOL    HW130689   0.530   3.712  16.184  1.0070 -1.1066  0.2196
 6351SOL    HW230690   0.668   3.770  16.176  1.3288 -1.6734 -0.7656
 6352SOL     OW30691   3.591   2.839   5.652 -0.2175  0.5768 -0.1809
 6352SOL    HW130692   3.529   2.842   5.580  0.0555  1.2590 -0.3877
 6352SOL    HW230693   3.599   2.933   5.671  1.8329  0.7115 -1.7184
 6353SOL     OW30694   0.428   4.368   1.656 -0.4008 -0.4100 -0.2376
 6353SOL    HW130695   0.402   4.309   1.726  3.0550  1.4218  2.6295
 6353SOL    HW230696   0.519   4.378   1.684 -1.0266 -1.0262  1.9866
 6354SOL     OW30697   0.165   4.454   3.945  0.0179 -0.4817  0.5685
 6354SOL    HW130698   0.106   4.513   3.898 -0.5379 -0.8558  0.8011
 6354SOL    HW230699   0.217   4.517   3.996 -0.8081 -2.0046  3.3149
 6355SOL     OW30700   0.743   1.630   1.207  0.4885  0.1839 -0.3755
 6355SOL    HW130701   0.818   1.578   1.235 -0.8888 -0.7540  1.5782
 6355SOL    HW230702   0.766   1.629   1.114 -0.3811 -0.4525 -0.5872
 6356SOL     OW30703   3.837   3.053   0.684  0.2415  0.4688  0.6259
 6356SOL    HW130704   3.921   3.052   0.638 -0.1863  0.8345 -0.1674
 6356SOL    HW230705   3.857   3.035   0.775 -2.8693 -0.0053  1.2321
 6357SOL     OW30706   0.260   2.141   5.997  0.1159 -0.4344  0.4046
 6357SOL    HW130707   0.193   2.073   5.990 -2.0712  1.8175 -0.7479
 6357SOL    HW230708   0.283   2.136   6.090  1.7685 -2.8990 -0.1434
 6358SOL     OW30709   1.478   3.342   4.109 -0.5514  0.2539 -0.2843
 6358SOL    HW130710   1.571   3.362   4.119 -1.1476  1.7183  2.2897
 6358SOL    HW230711   1.443   3.428   4.086  0.1576  0.4478 -0.6136
 6359SOL     OW30712   2.653   1.827   7.409 -0.9263  0.0677 -0.4060
 6359SOL    HW130713   2.710   1.777   7.468  1.4035  1.4718 -1.5124
 6359SOL    HW230714   2.688   1.805   7.323 -0.9073  2.1257 -0.9293
 6360SOL     OW30715   0.448   3.383  12.903  0.3884 -0.4654  0.2338
 6360SOL    HW130716   0.368   3.359  12.856  1.6854 -1.2031 -1.6081
 6360SOL    HW230717   0.438   3.478  12.910 -3.5448 -1.0268  2.3733
 6361SOL     OW30718   0.734   1.250  12.691 -0.4014  0.9918  0.2762
 6361SOL    HW130719   0.818   1.275  12.651  0.0534  0.6076  0.9898
 6361SOL    HW230720   0.718   1.171  12.641  0.8119  0.3716  0.8616
 6362SOL     OW30721   4.063   2.873   5.330  0.1993 -0.1238  0.4737
 6362SOL    HW130722   4.025   2.872   5.242 -0.6024 -0.0962  0.8105
 6362SOL    HW230723   3.995   2.920   5.379 -0.6180 -0.0187 -0.7644
 6363SOL     OW30724   0.503   1.432   2.743 -0.2677  0.5172  0.1533
 6363SOL    HW130725   0.415   1.455   2.714 -1.1511  1.3856  3.5945
 6363SOL    HW230726   0.495   1.459   2.834  1.0466 -1.2612  0.7982
 6364SOL     OW30727   0.404   4.629   8.722 -0.4960  0.0103 -0.2098
 6364SOL    HW130728   0.309   4.634   8.721 -0.4493  1.0415  0.9634
 6364SOL    HW230729   0.430   4.720   8.709 -0.4258 -0.6184 -4.5475
 6365SOL     OW30730   3.787   1.395  16.913  0.3253  0.1201 -0.2104
 6365SOL    HW130731   3.820   1.394  16.823  2.4605  3.7647  0.5233
 6365SOL    HW230732   3.872   1.424  16.948 -0.2591  1.6574 -0.0421
 6366SOL     OW30733   3.003   4.219   7.446  0.1898  0.4863  0.1083
 6366SOL    HW130734   2.931   4.241   7.386 -0.0300 -0.4890  0.0130
 6366SOL    HW230735   3.013   4.308   7.479 -0.8553  0.6084  0.1061
 6367SOL     OW30736   2.335   1.837   7.846  1.0650  0.0866  0.0169
 6367SOL    HW130737   2.288   1.913   7.811 -0.5964 -1.1428 -0.4470
 6367SOL    HW230738   2.273   1.815   7.916 -0.1416  1.3598 -0.6397
 6368SOL     OW30739   1.045   2.488   7.299  0.1955 -0.1907 -0.3546
 6368SOL    HW130740   0.975   2.450   7.351  0.6377 -0.3763  0.1002
 6368SOL    HW230741   0.998   2.515   7.220 -0.0670 -3.2568 -1.2520
 6369SOL     OW30742   3.036   2.933   4.023  0.5873  0.0334  0.9512
 6369SOL    HW130743   3.114   2.890   3.989  0.0252  1.0896 -1.7373
 6369SOL    HW230744   3.075   3.005   4.073 -0.2461 -0.6617  2.5832
 6370SOL     OW30745   1.986   2.529   4.654  0.0266  0.0982  0.0440
 6370SOL    HW130746   1.899   2.545   4.617 -0.8142 -2.6583  0.8606
 6370SOL    HW230747   2.032   2.609   4.626  1.7393 -0.6929  0.6130
 6371SOL     OW30748   0.275   2.437  16.129  0.1711 -0.0826 -0.4408
 6371SOL    HW130749   0.350   2.399  16.083  0.2552  0.1331 -0.4822
 6371SOL    HW230750   0.219   2.362  16.148  1.3734 -1.2660 -1.5630
 6372SOL     OW30751   2.187   1.736   8.826  0.3764  0.8348 -0.2104
 6372SOL    HW130752   2.267   1.761   8.873  0.0054  2.7290 -0.5652
 6372SOL    HW230753   2.221   1.737   8.737  1.3188  1.4021  0.1487
 6373SOL     OW30754   2.797   1.785  10.542  0.2717 -0.5546 -0.2439
 6373SOL    HW130755   2.746   1.744  10.472 -1.7794 -0.1114  0.9827
 6373SOL    HW230756   2.732   1.820  10.603  2.9485  0.6555  1.8919
 6374SOL     OW30757   3.713   3.507  12.149  0.1923 -0.0857 -0.3916
 6374SOL    HW130758   3.731   3.479  12.239  1.6743  1.2856 -0.2755
 6374SOL    HW230759   3.696   3.422  12.107 -0.0983 -0.9836  1.5381
 6375SOL     OW30760   3.650   3.214   7.307  0.3376  0.0619 -0.0122
 6375SOL    HW130761   3.741   3.232   7.287  0.6495 -1.7112 -0.2080
 6375SOL    HW230762   3.605   3.239   7.226  0.0977 -0.6570 -0.1106
 6376SOL     OW30763   3.416   1.731  16.323  0.0591  0.0513 -0.1127
 6376SOL    HW130764   3.375   1.794  16.383 -0.1271 -1.8297  1.7531
 6376SOL    HW230765   3.403   1.775  16.239  1.3774  1.1730  0.2696
 6377SOL     OW30766   1.286   2.985   5.843  0.0942 -0.2259 -0.2243
 6377SOL    HW130767   1.199   3.022   5.827 -1.1349 -1.9767  2.4546
 6377SOL    HW230768   1.270   2.929   5.919 -1.5855 -0.4955 -0.7716
 6378SOL     OW30769   2.584   2.982   4.954 -0.1836 -0.1601  0.1147
 6378SOL    HW130770   2.652   2.986   4.887  0.6839  1.8795  1.1430
 6378SOL    HW230771   2.540   2.898   4.940  1.9128 -1.3815  0.8870
 6379SOL     OW30772   1.793   4.201   2.288 -0.1163  0.3416 -0.1402
 6379SOL    HW130773   1.801   4.238   2.200  0.5598 -1.2329 -0.7340
 6379SOL    HW230774   1.748   4.123   2.255  1.2502 -0.6122  0.2385
 6380SOL     OW30775   1.169   0.464  16.678 -0.0199  0.6336 -0.3933
 6380SOL    HW130776   1.136   0.550  16.704 -1.8445 -0.1591 -0.1619
 6380SOL    HW230777   1.125   0.419  16.750  0.9988 -1.2205 -0.9268
 6381SOL     OW30778   3.764   3.052  11.306 -0.2110 -0.2212 -0.7375
 6381SOL    HW130779   3.757   2.965  11.345 -1.2973  0.2317  0.0840
 6381SOL    HW230780   3.831   3.098  11.357 -1.4941 -1.7719  2.2953
 6382SOL     OW30781   0.506   3.384  11.946  0.1205  0.0523  0.0710
 6382SOL    HW130782   0.413   3.361  11.951  0.1090  0.3924  1.3642
 6382SOL    HW230783   0.501   3.471  11.906  1.7841 -0.7028 -1.7601
 6383SOL     OW30784   4.263   2.342   2.949  0.3273  0.4503  0.5388
 6383SOL    HW130785   4.345   2.319   2.905  1.4283  0.4910  2.5441
 6383SOL    HW230786   4.219   2.257   2.947 -0.7421  1.0932 -2.1634
 6384SOL     OW30787   1.837   4.730  12.548  0.3170  0.0845 -0.0631
 6384SOL    HW130788   1.836   0.069  12.602  3.6486  1.1688 -1.6261
 6384SOL    HW230789   1.848   0.030  12.461 -1.0489 -1.0152 -0.7456
 6385SOL     OW30790   2.695   2.824  12.325 -0.1813 -0.0708  0.0525
 6385SOL    HW130791   2.714   2.912  12.358 -1.1882 -0.0666  0.6029
 6385SOL    HW230792   2.752   2.825  12.248  1.6145 -0.2518  1.3623
 6386SOL     OW30793   0.075   0.925   0.323 -0.4542  0.3270 -0.2618
 6386SOL    HW130794   0.027   0.850   0.288  1.3311 -0.4003 -1.1417
 6386SOL    HW230795   0.070   0.902   0.416  0.2797 -1.7599 -0.7454
 6387SOL     OW30796   3.105   1.669  11.419  0.9133 -0.1643 -0.0818
 6387SOL    HW130797   3.058   1.639  11.497 -1.5156 -1.1208 -1.9065
 6387SOL    HW230798   3.128   1.585  11.378 -2.0531 -0.0937 -1.8843
 6388SOL     OW30799   2.404   1.370  13.812 -0.0716  0.2223 -0.1586
 6388SOL    HW130800   2.322   1.420  13.814  0.3007  0.7426  1.9796
 6388SOL    HW230801   2.448   1.423  13.745  1.5556  1.3972  1.8415
 6389SOL     OW30802   0.186   0.952   7.337  0.7560  0.4203 -0.2840
 6389SOL    HW130803   0.123   1.019   7.366 -0.7960 -1.2670  0.2331
 6389SOL    HW230804   0.188   0.988   7.248 -1.7261  2.0379  0.3110
 6390SOL     OW30805   3.595   2.192   8.488 -0.2169  0.2780 -0.0679
 6390SOL    HW130806   3.652   2.205   8.565 -0.1854 -0.0799 -0.0286
 6390SOL    HW230807   3.536   2.265   8.504  1.0021  0.6663  2.7827
 6391SOL     OW30808   4.154   3.445   0.417 -0.1721  0.2659  0.1240
 6391SOL    HW130809   4.100   3.373   0.449  0.1438  0.2640  0.6425
 6391SOL    HW230810   4.087   3.506   0.383 -1.3236 -2.1804 -1.9759
 6392SOL     OW30811   0.006   0.148   6.087  0.1688  0.0281  0.0462
 6392SOL    HW130812   4.680   0.109   6.030  2.5338 -1.1373 -1.8695
 6392SOL    HW230813   0.081   0.089   6.075 -0.3328 -0.2110 -1.9929
 6393SOL     OW30814   3.056   1.233   3.581 -0.0138  0.0808 -0.1484
 6393SOL    HW130815   3.100   1.317   3.572 -3.2873  1.7038 -0.9978
 6393SOL    HW230816   3.045   1.210   3.488 -1.0434  2.1794 -0.5448
 6394SOL     OW30817   3.003   4.280  11.642 -0.3824 -0.6366 -0.0621
 6394SOL    HW130818   2.935   4.330  11.689  0.7123  0.7728  0.0153
 6394SOL    HW230819   3.079   4.327  11.676 -0.0680 -1.1669 -0.0350
 6395SOL     OW30820   2.777   0.129   7.896  0.7260  0.5794  0.1856
 6395SOL    HW130821   2.797   0.207   7.845  0.3804 -0.1950 -1.1473
 6395SOL    HW230822   2.845   0.069   7.862 -0.0036  0.2963 -0.7937
 6396SOL     OW30823   2.668   0.601   3.099 -0.1013  0.2724 -0.3331
 6396SOL    HW130824   2.679   0.565   3.011 -0.0342  1.1006 -0.6621
 6396SOL    HW230825   2.735   0.543   3.136  1.8150  0.7451 -3.0973
 6397SOL     OW30826   0.669   0.873  10.314 -0.4044  0.6900 -0.7577
 6397SOL    HW130827   0.602   0.933  10.280 -0.6900  0.1855 -1.0940
 6397SOL    HW230828   0.649   0.788  10.275 -2.0242  1.7924 -2.3549
 6398SOL     OW30829   4.046   2.150   2.833  0.4369  0.2528 -0.2543
 6398SOL    HW130830   3.999   2.233   2.837  1.8226  0.9671  1.0711
 6398SOL    HW230831   4.129   2.176   2.792 -0.0966  1.1226 -0.7973
 6399SOL     OW30832   1.784   3.627   6.114 -0.5673 -0.6218 -0.4501
 6399SOL    HW130833   1.709   3.639   6.172  0.4602 -2.1168  1.2021
 6399SOL    HW230834   1.783   3.711   6.069  1.1890 -0.2206  0.2381
 6400SOL     OW30835   1.258   1.409  10.107 -0.5221  0.0540  0.4862
 6400SOL    HW130836   1.193   1.446  10.166 -1.0847 -0.4996  0.2183
 6400SOL    HW230837   1.240   1.315  10.103  0.1135 -0.0366 -0.3911
 6401SOL     OW30838   0.748   1.248   2.790  0.4593  0.2817  0.5695
 6401SOL    HW130839   0.792   1.269   2.873  1.5437  2.2898 -0.5112
 6401SOL    HW230840   0.669   1.298   2.808  0.5635  0.0793  1.6240
 6402SOL     OW30841   2.714   1.731   6.161 -0.0179  0.5432  0.3937
 6402SOL    HW130842   2.710   1.807   6.219 -0.1621  1.8470 -1.3440
 6402SOL    HW230843   2.790   1.757   6.109 -0.3506 -1.1357 -0.9562
 6403SOL     OW30844   4.529   2.315   0.573  0.1844 -0.6189  0.6761
 6403SOL    HW130845   4.618   2.338   0.600 -0.1490  1.4227  0.0007
 6403SOL    HW230846   4.499   2.265   0.649  2.5917 -3.3123 -0.1544
 6404SOL     OW30847   3.410   3.168  10.712 -0.0661  1.0164 -0.0613
 6404SOL    HW130848   3.469   3.182  10.638  1.0814  2.5126  1.1352
 6404SOL    HW230849   3.459   3.105  10.763  0.9831  1.2830 -0.7408
 6405SOL     OW30850   2.178   0.014   8.843  0.1086 -0.2508 -0.1450
 6405SOL    HW130851   2.124   0.086   8.876  1.3725 -0.1254  1.6827
 6405SOL    HW230852   2.186   4.690   8.914  0.5083  0.8998  0.8584
 6406SOL     OW30853   4.609   1.467  10.554  0.2134 -0.0262  0.6666
 6406SOL    HW130854   4.567   1.421  10.481  2.9989 -0.6623 -0.5090
 6406SOL    HW230855   4.703   1.464  10.536 -0.3277 -0.8952 -2.0183
 6407SOL     OW30856   2.177   3.271  17.726 -0.3011 -0.0722  0.8845
 6407SOL    HW130857   2.092   3.292  17.687  0.9892  0.6685 -1.5148
 6407SOL    HW230858   2.209   3.360  17.739 -1.9421  0.4021  1.5639
 6408SOL     OW30859   2.709   2.618  14.402  0.8219 -0.0499 -0.6141
 6408SOL    HW130860   2.742   2.588  14.486 -0.3124  0.1997 -0.0731
 6408SOL    HW230861   2.674   2.703  14.427  0.6921 -0.3817  0.3289
 6409SOL     OW30862   2.502   2.198   7.379 -0.4292  0.2844  0.0935
 6409SOL    HW130863   2.453   2.177   7.299 -0.3749 -0.3405  0.2279
 6409SOL    HW230864   2.592   2.217   7.352 -0.0979  0.9852  1.6883
 6410SOL     OW30865   3.508   2.038  10.662 -0.4285 -0.7366  0.1363
 6410SOL    HW130866   3.520   1.965  10.601 -1.6520 -0.3997 -0.5070
 6410SOL    HW230867   3.422   2.003  10.683 -0.2967 -0.1778  1.6005
 6411SOL     OW30868   1.673   1.402   2.941 -0.1498  0.1788  0.0053
 6411SOL    HW130869   1.647   1.424   2.851  1.0350  0.4809 -0.2599
 6411SOL    HW230870   1.598   1.426   2.995 -0.0185  1.2076 -0.2736
 6412SOL     OW30871   0.243   0.443  13.914  0.0437  0.4690  0.5162
 6412SOL    HW130872   0.160   0.394  13.913 -0.1675  0.8027  2.0348
 6412SOL    HW230873   0.261   0.458  14.007 -0.5081  1.7452  0.4087
 6413SOL     OW30874   1.255   0.214   8.972 -0.4009  0.7310  0.0534
 6413SOL    HW130875   1.242   0.144   9.036  0.0033 -1.8501 -2.6556
 6413SOL    HW230876   1.345   0.185   8.957 -0.6188 -0.5876  1.2723
 6414SOL     OW30877   0.233   0.748   6.857 -0.3150  0.3550 -0.7531
 6414SOL    HW130878   0.149   0.743   6.810 -1.2811  1.6824  0.8549
 6414SOL    HW230879   0.209   0.726   6.947  2.7196  0.5564  0.1109
 6415SOL     OW30880   0.076   2.271   7.370 -0.6479 -0.0413 -0.2958
 6415SOL    HW130881   0.123   2.338   7.320  1.4195  0.7568  2.6817
 6415SOL    HW230882   0.031   2.330   7.431 -1.0521 -0.0149 -0.6220
 6416SOL     OW30883   3.386   0.489  11.053 -0.0210 -0.3977  0.2585
 6416SOL    HW130884   3.353   0.577  11.031 -0.7947 -0.7829 -0.1018
 6416SOL    HW230885   3.340   0.428  10.995 -1.2281 -0.6386  1.4842
 6417SOL     OW30886   0.985   3.446   7.126 -0.2745  0.0526  0.0618
 6417SOL    HW130887   0.976   3.356   7.094 -1.2196 -0.7688  2.5915
 6417SOL    HW230888   1.070   3.464   7.085  0.6411 -2.4826  0.7995
 6418SOL     OW30889   0.044   4.606  17.502 -0.3007  0.3132 -0.0270
 6418SOL    HW130890   0.009   4.684  17.461 -1.0135  0.1782  0.3193
 6418SOL    HW230891   0.112   4.579  17.440 -1.3552  0.9684 -1.4401
 6419SOL     OW30892   3.371   1.706  15.792  0.6892 -0.2438 -0.0267
 6419SOL    HW130893   3.411   1.697  15.706  0.2088 -1.5487 -0.1102
 6419SOL    HW230894   3.367   1.801  15.805  0.1796 -0.6062  2.3947
 6420SOL     OW30895   3.390   1.956   6.015 -0.2296  0.5180 -0.1224
 6420SOL    HW130896   3.391   1.997   6.102  0.0569 -0.7052  0.4497
 6420SOL    HW230897   3.406   1.864   6.034 -0.8404  0.2832 -0.7489
 6421SOL     OW30898   0.593   1.557   3.249  0.5067  0.1002  0.8238
 6421SOL    HW130899   0.671   1.610   3.264  0.1556  0.6190  0.8029
 6421SOL    HW230900   0.564   1.553   3.340  0.9898 -0.0218  0.9742
 6422SOL     OW30901   3.904   4.451   7.429 -0.3402  0.5361  0.3247
 6422SOL    HW130902   3.971   4.387   7.407 -0.3589  0.4464  0.5265
 6422SOL    HW230903   3.955   4.530   7.416 -1.0290  0.8982 -0.1895
 6423SOL     OW30904   1.552   1.218   4.836 -0.2298 -0.6455  0.3615
 6423SOL    HW130905   1.597   1.212   4.921  0.9318  0.1651 -0.1932
 6423SOL    HW230906   1.620   1.170   4.789 -0.6779 -2.0716  1.1667
 6424SOL     OW30907   0.262   2.440   7.255 -0.0741  0.4460 -0.1611
 6424SOL    HW130908   0.335   2.499   7.240  0.3217  0.2797  1.1252
 6424SOL    HW230909   0.228   2.428   7.166 -2.2836  0.1082  0.7239
 6425SOL     OW30910   2.191   3.350   7.072  0.1902  0.7444 -1.1140
 6425SOL    HW130911   2.148   3.435   7.061 -0.8569  0.3914  0.2430
 6425SOL    HW230912   2.117   3.290   7.079  0.5622  0.6112  1.7430
 6426SOL     OW30913   0.956   1.490   7.626  0.3235  0.0259 -0.3167
 6426SOL    HW130914   1.003   1.565   7.590  0.2300  0.3045  0.1427
 6426SOL    HW230915   0.883   1.537   7.665  1.0209 -1.9149  3.3463
 6427SOL     OW30916   2.403   2.889   2.630  0.1316  0.4497  0.4955
 6427SOL    HW130917   2.470   2.950   2.599 -0.1219  0.7481  0.5415
 6427SOL    HW230918   2.377   2.919   2.717  0.4462  1.0344  0.3826
 6428SOL     OW30919   3.730   3.157   1.902  0.0244  0.3251  0.3752
 6428SOL    HW130920   3.647   3.181   1.942  0.0550  1.6877 -0.3739
 6428SOL    HW230921   3.739   3.062   1.901  1.8142  0.4804  1.5086
 6429SOL     OW30922   4.198   1.396   7.856  0.5476 -0.0507  0.2011
 6429SOL    HW130923   4.146   1.345   7.917  1.7017  0.1461  1.3569
 6429SOL    HW230924   4.263   1.417   7.923  0.3190  0.7128  0.1779
 6430SOL     OW30925   0.571   3.599  13.531  0.6840 -0.1402  0.1518
 6430SOL    HW130926   0.563   3.632  13.621  2.2806  1.7619 -0.3991
 6430SOL    HW230927   0.595   3.676  13.479 -0.6445 -0.4780 -0.9903
 6431SOL     OW30928   1.534   3.503  13.191  0.0574  0.2952  0.0797
 6431SOL    HW130929   1.601   3.479  13.255  1.4583 -0.7736 -1.7823
 6431SOL    HW230930   1.526   3.595  13.218  0.5017  0.2263  0.4388
 6432SOL     OW30931   3.332   1.574   5.461 -0.3933 -0.0767 -0.2905
 6432SOL    HW130932   3.397   1.644   5.448  1.1670 -2.0589 -3.2308
 6432SOL    HW230933   3.324   1.543   5.371 -1.4582 -2.3509  0.5793
 6433SOL     OW30934   2.208   3.475  16.113  0.6004 -0.0328 -0.3136
 6433SOL    HW130935   2.287   3.449  16.159  0.9108  0.7924 -0.3747
 6433SOL    HW230936   2.226   3.567  16.095 -1.3268 -0.2271 -3.1992
 6434SOL     OW30937   4.312   2.157  15.813  0.3481 -0.0791 -0.7486
 6434SOL    HW130938   4.327   2.102  15.736 -0.0609 -2.2839  0.7502
 6434SOL    HW230939   4.323   2.249  15.789 -0.1423  0.3139  0.5237
 6435SOL     OW30940   4.331   0.267   7.758 -0.1764  0.2647  0.1630
 6435SOL    HW130941   4.366   0.178   7.758  0.3459  0.4696 -2.2324
 6435SOL    HW230942   4.413   0.316   7.752 -0.2511  0.4893  1.0338
 6436SOL     OW30943   2.006   2.176   7.858  0.1382  0.1472  0.1847
 6436SOL    HW130944   1.915   2.198   7.838  0.0478  0.4129  0.9038
 6436SOL    HW230945   2.053   2.256   7.883 -0.8549  0.1815  1.9178
 6437SOL     OW30946   3.149   3.090   2.420  1.1200  0.0023  0.6574
 6437SOL    HW130947   3.193   3.026   2.365  1.1597 -0.1546  0.8739
 6437SOL    HW230948   3.146   3.048   2.506  0.3845 -1.3090 -0.0197
 6438SOL     OW30949   1.489   2.271   5.422 -0.4220 -0.0177  0.0839
 6438SOL    HW130950   1.487   2.300   5.330 -2.3171 -1.7410 -0.4096
 6438SOL    HW230951   1.410   2.309   5.459 -0.6246  0.1470 -0.5166
 6439SOL     OW30952   0.191   3.196  15.960 -0.1651 -0.3057 -0.6282
 6439SOL    HW130953   0.161   3.105  15.970  0.2708 -0.5980 -2.0510
 6439SOL    HW230954   0.108   3.237  15.984  0.8093  0.6645  1.0670
 6440SOL     OW30955   4.107   2.616   5.137 -0.2199 -0.1102  0.1740
 6440SOL    HW130956   4.016   2.623   5.166  0.2844  0.9238  1.4806
 6440SOL    HW230957   4.096   2.614   5.042  0.1870  1.5739  0.0890
 6441SOL     OW30958   1.283   2.563  13.088  0.0918 -0.4734  0.0958
 6441SOL    HW130959   1.345   2.608  13.145  0.0841  0.8267 -0.9295
 6441SOL    HW230960   1.283   2.624  13.014 -0.4822 -0.1645  0.3487
 6442SOL     OW30961   3.073   3.454   8.981 -0.4279  0.4051  0.0091
 6442SOL    HW130962   2.985   3.424   9.001 -0.2727  0.8720  1.3892
 6442SOL    HW230963   3.089   3.406   8.900 -0.4533  0.7808 -0.2165
 6443SOL     OW30964   2.549   0.392   8.277  0.1996 -0.9244 -0.0111
 6443SOL    HW130965   2.484   0.340   8.325 -0.7699 -1.1071 -1.5294
 6443SOL    HW230966   2.502   0.413   8.197 -2.4940 -0.7911  1.6183
 6444SOL     OW30967   3.371   3.974  15.306 -0.0925  0.0785 -0.0925
 6444SOL    HW130968   3.432   3.902  15.289  1.0395  1.0383 -0.1475
 6444SOL    HW230969   3.397   4.004  15.393 -2.1570  1.8347 -0.0819
 6445SOL     OW30970   2.920   1.596  13.968  0.0364 -0.4473  0.3344
 6445SOL    HW130971   2.895   1.540  13.894 -0.4117 -0.5546  0.5649
 6445SOL    HW230972   2.925   1.532  14.039 -1.7157 -2.0982 -1.0129
 6446SOL     OW30973   4.550   1.867   7.663 -0.2207 -0.2860 -0.0986
 6446SOL    HW130974   4.463   1.857   7.701  1.0061 -1.2565  2.4360
 6446SOL    HW230975   4.546   1.950   7.615 -1.0850 -0.5746 -0.5329
 6447SOL     OW30976   2.674   0.520   6.029 -0.2487 -0.6386 -0.1124
 6447SOL    HW130977   2.679   0.567   6.112 -0.0594 -0.5764 -0.1571
 6447SOL    HW230978   2.660   0.593   5.969 -1.5427  0.3381  1.3803
 6448SOL     OW30979   3.206   2.782  14.928  0.0014 -0.4314  0.1717
 6448SOL    HW130980   3.132   2.761  14.870 -0.5059 -1.5527  1.2153
 6448SOL    HW230981   3.200   2.876  14.912  2.3543 -0.5052 -1.1352
 6449SOL     OW30982   3.559   3.645   2.250  0.1574 -0.3580 -0.1710
 6449SOL    HW130983   3.514   3.595   2.182 -0.1927 -1.9354  1.2403
 6449SOL    HW230984   3.572   3.575   2.314 -1.3009 -0.9550 -0.5396
 6450SOL     OW30985   4.119   3.847   9.077 -0.0892  0.6696 -0.6077
 6450SOL    HW130986   4.066   3.831   9.154  1.4503  2.1275  0.7526
 6450SOL    HW230987   4.206   3.815   9.102 -0.7674 -0.8932 -0.2530
 6451SOL     OW30988   4.463   2.159   6.236 -0.5455 -0.2353  0.0616
 6451SOL    HW130989   4.522   2.222   6.195 -0.2148 -0.8791 -0.4514
 6451SOL    HW230990   4.399   2.168   6.165  1.7927  0.4588 -1.9471
 6452SOL     OW30991   1.054   0.199   8.461 -1.0565  0.3163  0.5830
 6452SOL    HW130992   0.963   0.192   8.432 -0.9403  0.8407  0.1037
 6452SOL    HW230993   1.086   0.263   8.397  0.7306  0.2599  1.4037
 6453SOL     OW30994   0.965   3.376   6.719  0.0071 -0.4993 -0.1423
 6453SOL    HW130995   1.027   3.328   6.773  0.6491  0.4746  0.0016
 6453SOL    HW230996   1.008   3.462   6.727  0.0227 -0.4559 -0.6537
 6454SOL     OW30997   3.981   1.773   6.167 -0.2053 -0.3933 -0.0483
 6454SOL    HW130998   4.028   1.851   6.137  0.2518 -0.8527 -0.5319
 6454SOL    HW230999   3.998   1.764   6.261 -0.5379  1.1191  0.1644
 6455SOL     OW31000   0.123   1.423  10.509 -0.1733  0.5771  0.1841
 6455SOL    HW131001   0.185   1.493  10.491 -0.4195  0.5939 -0.5915
 6455SOL    HW231002   0.162   1.401  10.594 -2.3384  2.5761  1.6807
 6456SOL     OW31003   2.058   0.084   7.702 -0.0296  0.3490  0.1545
 6456SOL    HW131004   1.983   0.140   7.722  0.6884  1.2853  0.2776
 6456SOL    HW231005   2.113   0.113   7.776 -1.2340  0.1279  1.1368
 6457SOL     OW31006   0.376   1.176   6.410  0.2825  0.1100  0.1999
 6457SOL    HW131007   0.458   1.132   6.387 -0.7584 -2.0143  0.4744
 6457SOL    HW231008   0.372   1.254   6.355 -1.0299  0.3033  0.5618
 6458SOL     OW31009   1.569   0.330   5.366  0.5693 -0.3185  0.3950
 6458SOL    HW131010   1.576   0.379   5.284 -2.4013  0.7158  0.7540
 6458SOL    HW231011   1.661   0.335   5.392  0.2889  0.0431  1.3166
 6459SOL     OW31012   3.174   1.548  12.384 -0.5282 -0.0595  0.1224
 6459SOL    HW131013   3.237   1.560  12.313 -1.3864  1.0418 -0.4452
 6459SOL    HW231014   3.117   1.619  12.357  2.2912  1.7111 -1.2199
 6460SOL     OW31015   3.091   2.984   2.687 -0.3503  0.2835  0.3508
 6460SOL    HW131016   3.143   2.904   2.680  2.1714  2.1078 -1.4752
 6460SOL    HW231017   3.002   2.947   2.694 -0.1387 -0.6054 -1.8414
 6461SOL     OW31018   0.173   2.073  17.315  0.5006  0.2555 -0.2611
 6461SOL    HW131019   0.186   2.163  17.285  0.8950  0.0458 -0.7198
 6461SOL    HW231020   0.107   2.072  17.385  1.1081  1.4154  0.3219
 6462SOL     OW31021   2.683   1.253   2.552  1.0872 -0.3870  0.1910
 6462SOL    HW131022   2.649   1.212   2.472  2.2650 -2.1879  0.6054
 6462SOL    HW231023   2.599   1.242   2.597  0.4135 -0.2480 -1.0272
 6463SOL     OW31024   1.694   1.823   3.775 -0.0926 -0.2960  0.3665
 6463SOL    HW131025   1.710   1.742   3.823  2.7847  1.3328  2.1837
 6463SOL    HW231026   1.599   1.834   3.785 -0.3745 -3.1900  0.8556
 6464SOL     OW31027   3.087   1.430  12.126  0.1029  0.8265 -0.0140
 6464SOL    HW131028   3.168   1.456  12.081  0.2802  0.6036  0.1707
 6464SOL    HW231029   3.108   1.338  12.142  0.5428  1.4475  2.9060
 6465SOL     OW31030   1.177   1.252   3.632 -0.3949  0.3481 -0.9143
 6465SOL    HW131031   1.190   1.344   3.611  0.5282  0.1854 -1.0313
 6465SOL    HW231032   1.154   1.205   3.552  4.4102 -2.2449 -0.7413
 6466SOL     OW31033   3.183   1.273  16.417  0.2362 -0.2041  0.1977
 6466SOL    HW131034   3.121   1.279  16.345 -0.4997  1.0649  0.9286
 6466SOL    HW231035   3.166   1.359  16.456 -1.7104 -1.2301  1.5922
 6467SOL     OW31036   0.899   2.255   9.091  0.4772 -0.4038 -0.1838
 6467SOL    HW131037   0.856   2.256   9.005  0.3023 -2.4246 -0.1356
 6467SOL    HW231038   0.912   2.160   9.100  1.2043 -0.3833 -1.0353
 6468SOL     OW31039   4.022   4.445   1.335  0.2584 -0.0264  0.2277
 6468SOL    HW131040   3.947   4.498   1.362  1.1911  2.1390 -1.3847
 6468SOL    HW231041   3.988   4.389   1.266  0.3411 -0.6904  0.7249
 6469SOL     OW31042   4.629   4.258   2.428  0.2151  0.7335  0.0434
 6469SOL    HW131043   4.585   4.312   2.363  0.8673  0.1420 -0.8912
 6469SOL    HW231044   4.553   4.240   2.484 -1.4416  0.5351 -2.2493
 6470SOL     OW31045   2.761   0.714   2.534  0.5044  0.8176 -0.6701
 6470SOL    HW131046   2.822   0.652   2.575 -0.6232  0.8168  0.9910
 6470SOL    HW231047   2.747   0.779   2.602  0.0937  0.9617 -0.8948
 6471SOL     OW31048   4.715   1.383   7.522  0.8180 -0.4426  0.0815
 6471SOL    HW131049   4.689   1.468   7.555 -0.6187 -0.6458 -0.5430
 6471SOL    HW231050   4.699   1.391   7.428 -1.2810  0.6590  0.5359
 6472SOL     OW31051   1.358   0.796   3.678 -0.1762 -0.1639  0.0325
 6472SOL    HW131052   1.403   0.871   3.640  0.0041 -0.3795 -0.1807
 6472SOL    HW231053   1.285   0.792   3.617  0.8249  1.7260 -1.2755
 6473SOL     OW31054   3.273   4.138   5.559  0.6350 -0.4858  0.5027
 6473SOL    HW131055   3.192   4.178   5.590  0.5292  0.0163 -0.4344
 6473SOL    HW231056   3.274   4.165   5.467  1.5300 -0.8838  0.3923
 6474SOL     OW31057   0.657   3.400   3.198  0.5373 -0.4242  0.9193
 6474SOL    HW131058   0.575   3.447   3.180  1.1351  0.9109  1.6415
 6474SOL    HW231059   0.635   3.356   3.280 -1.6352 -0.8994  0.0753
 6475SOL     OW31060   0.637   0.952   1.281 -0.2020 -0.0851 -0.1094
 6475SOL    HW131061   0.609   1.039   1.252  0.7550 -0.2592 -1.5894
 6475SOL    HW231062   0.665   0.969   1.371  2.0970 -1.8390 -0.4902
 6476SOL     OW31063   1.281   1.528   1.113 -0.3097  0.2808  0.4369
 6476SOL    HW131064   1.226   1.472   1.168 -0.7753 -2.7361 -3.0654
 6476SOL    HW231065   1.216   1.564   1.052  0.4751  1.3788  0.2361
 6477SOL     OW31066   1.067   1.916   4.048  0.3316  0.4751  0.5155
 6477SOL    HW131067   0.999   1.897   3.983 -0.6488  3.7246  0.6386
 6477SOL    HW231068   1.002   1.952   4.107  0.5501 -4.1589  3.6179
 6478SOL     OW31069   0.653   3.968   4.458 -0.3036 -0.6082 -0.0128
 6478SOL    HW131070   0.634   3.974   4.552  0.8305  0.8467  0.1077
 6478SOL    HW231071   0.747   3.951   4.452  0.1293  1.2286  1.6454
 6479SOL     OW31072   1.517   4.227   6.091 -0.0745 -0.2610  0.1980
 6479SOL    HW131073   1.546   4.313   6.061 -0.5297 -0.8484 -1.9218
 6479SOL    HW231074   1.518   4.243   6.186  1.2447  0.1685  0.1135
 6480SOL     OW31075   1.019   3.104  16.444  0.3447  0.2782  0.1444
 6480SOL    HW131076   1.052   3.193  16.456  1.0103 -0.0205  0.4711
 6480SOL    HW231077   1.018   3.077  16.535 -1.4729  1.0597  0.3573
 6481SOL     OW31078   1.860   2.895   3.965 -0.5230  0.6011  0.2699
 6481SOL    HW131079   1.928   2.914   3.901  0.0821 -2.3229  0.0472
 6481SOL    HW231080   1.883   2.804   3.985 -0.5214  0.6766  0.6167
 6482SOL     OW31081   0.609   2.167  12.972  0.3073  0.3097  0.2946
 6482SOL    HW131082   0.687   2.149  12.920  0.8058 -1.4130  1.6415
 6482SOL    HW231083   0.555   2.222  12.916 -0.4741  0.1232  0.8617
 6483SOL     OW31084   1.446   1.111  13.470  0.4831  0.4426  0.1273
 6483SOL    HW131085   1.447   1.038  13.531 -4.0129  0.6312  0.4651
 6483SOL    HW231086   1.352   1.120  13.451  0.6540  1.1872 -0.3662
 6484SOL     OW31087   3.192   2.661   8.143  0.1998  0.5395  0.1483
 6484SOL    HW131088   3.235   2.634   8.225  0.4266  1.5116  0.3507
 6484SOL    HW231089   3.243   2.618   8.075 -1.5429 -0.7416 -0.3444
 6485SOL     OW31090   1.651   3.463   5.727  0.1065  0.2114  0.3402
 6485SOL    HW131091   1.684   3.399   5.790  0.9422  0.1953 -0.1209
 6485SOL    HW231092   1.700   3.545   5.738  0.5824 -0.0082 -0.1295
 6486SOL     OW31093   1.260   4.694   3.994  0.5102  0.1832 -0.2662
 6486SOL    HW131094   1.273   4.678   4.087 -2.3846 -0.6552 -0.0184
 6486SOL    HW231095   1.287   4.608   3.962 -2.9865 -1.1491  0.3736
 6487SOL     OW31096   1.367   2.702   2.089 -0.0437 -0.5031 -0.0520
 6487SOL    HW131097   1.298   2.641   2.062 -0.4602 -0.1536  0.2198
 6487SOL    HW231098   1.315   2.765   2.139  1.1168  1.9873 -1.9773
 6488SOL     OW31099   2.519   2.169   7.773  0.3198 -0.1053  0.2104
 6488SOL    HW131100   2.427   2.159   7.798 -0.7042  0.2860 -3.3736
 6488SOL    HW231101   2.515   2.109   7.699  1.7658  2.9496 -2.3023
 6489SOL     OW31102   0.406   3.788   0.860 -0.2131 -0.2979  0.3070
 6489SOL    HW131103   0.493   3.828   0.856 -0.1511 -0.3729  0.8210
 6489SOL    HW231104   0.382   3.794   0.768  1.7191 -0.9645 -0.2297
 6490SOL     OW31105   2.464   1.819   8.896 -0.0460  0.0298  0.2853
 6490SOL    HW131106   2.442   1.886   8.831 -2.6630 -1.4178 -0.3279
 6490SOL    HW231107   2.502   1.747   8.846 -0.8429 -0.3882  0.2825
 6491SOL     OW31108   4.338   1.244   2.304 -0.6438  0.0289  0.2700
 6491SOL    HW131109   4.262   1.301   2.289 -0.6415 -0.3121 -1.0599
 6491SOL    HW231110   4.300   1.181   2.364  0.0652  0.5927  1.3124
 6492SOL     OW31111   4.275   0.151  11.313 -0.5245 -0.1957 -0.0752
 6492SOL    HW131112   4.222   0.107  11.246  0.1180  2.0844 -2.0833
 6492SOL    HW231113   4.307   0.224  11.260 -2.4011  2.3684  2.3046
 6493SOL     OW31114   0.688   3.126   1.997  0.3648  0.5485 -0.0734
 6493SOL    HW131115   0.645   3.113   1.913 -0.2542 -0.2913  0.3678
 6493SOL    HW231116   0.768   3.072   1.992 -2.3907 -3.5666  0.1778
 6494SOL     OW31117   1.741   0.896   6.784 -0.2181 -0.5176 -0.1464
 6494SOL    HW131118   1.827   0.861   6.806  0.0137  1.1143  1.5751
 6494SOL    HW231119   1.713   0.919   6.873 -1.8568 -2.5782 -0.1163
 6495SOL     OW31120   4.358   0.646   9.099 -0.2530  0.1458  0.4489
 6495SOL    HW131121   4.423   0.577   9.110 -0.7024 -0.3817 -0.1300
 6495SOL    HW231122   4.386   0.717   9.156 -1.6300  2.1982 -1.4118
 6496SOL     OW31123   3.051   0.810  17.340  0.1970 -0.0866 -0.2543
 6496SOL    HW131124   3.068   0.788  17.432 -0.0355 -0.4973 -0.3051
 6496SOL    HW231125   3.016   0.898  17.352 -0.1092  0.2363 -3.4138
 6497SOL     OW31126   2.244   0.566   5.939 -0.2603 -0.0194 -0.2329
 6497SOL    HW131127   2.312   0.578   5.872 -1.4676  0.6327 -1.3526
 6497SOL    HW231128   2.253   0.476   5.971  0.7031 -0.8110 -2.7038
 6498SOL     OW31129   0.079   2.641   6.345 -0.8184 -0.1732 -0.2657
 6498SOL    HW131130   0.171   2.640   6.318 -0.3236 -3.2497  1.5989
 6498SOL    HW231131   0.059   2.554   6.378 -0.5013  0.3042  1.1964
 6499SOL     OW31132   1.690   3.018  11.115 -0.1445 -0.3720 -0.2022
 6499SOL    HW131133   1.774   3.000  11.157  0.7311  1.1723 -1.3181
 6499SOL    HW231134   1.645   3.069  11.183  0.5644 -3.6903  2.7820
 6500SOL     OW31135   1.202   3.949   8.923  0.1488 -0.5328 -0.3160
 6500SOL    HW131136   1.262   4.013   8.960 -0.5858 -1.1762  2.0169
 6500SOL    HW231137   1.133   4.004   8.885 -0.6196 -1.6500 -0.5490
 6501SOL     OW31138   0.784   3.985   5.346  0.4145  0.5112 -0.4470
 6501SOL    HW131139   0.708   4.027   5.305  0.8022  1.3795 -0.2803
 6501SOL    HW231140   0.848   4.055   5.335 -0.7782  1.6164 -0.4200
 6502SOL     OW31141   1.795   2.556   0.969  0.1203  1.0883 -0.3199
 6502SOL    HW131142   1.777   2.633   0.916 -2.5271  0.5899 -0.1588
 6502SOL    HW231143   1.891   2.555   0.965  0.3395 -0.9580  4.3735
 6503SOL     OW31144   2.176   3.700   4.546 -0.1315 -0.6816  0.0545
 6503SOL    HW131145   2.155   3.627   4.604 -0.5152 -0.2237  0.4920
 6503SOL    HW231146   2.235   3.755   4.598 -0.2133 -1.0323  0.5257
 6504SOL     OW31147   3.736   4.686   8.837 -0.0253  0.5131  0.2166
 6504SOL    HW131148   3.783   4.622   8.783 -1.3854 -2.4119  2.4770
 6504SOL    HW231149   3.704   0.000   8.765  1.7778  1.3592  0.0703
 6505SOL     OW31150   2.438   1.701   2.617 -0.1687  0.2126 -0.0095
 6505SOL    HW131151   2.351   1.739   2.604 -0.3596 -0.2958 -0.2358
 6505SOL    HW231152   2.447   1.633   2.550  1.7704 -1.3392  1.8348
 6506SOL     OW31153   1.337   3.196   9.643  0.5565 -0.0813 -0.5423
 6506SOL    HW131154   1.416   3.221   9.596  1.1566  1.3848  1.2175
 6506SOL    HW231155   1.320   3.270   9.702 -0.8682 -0.7796 -0.0661
 6507SOL     OW31156   1.449   3.699  17.497  0.1939  0.2432 -0.2112
 6507SOL    HW131157   1.474   3.610  17.520  2.3677  1.3498  1.6645
 6507SOL    HW231158   1.354   3.692  17.493  0.3096 -1.0379 -0.7893
 6508SOL     OW31159   0.408   1.270   9.410  0.3095  0.2957 -0.0725
 6508SOL    HW131160   0.429   1.362   9.426  0.2665  0.5602 -1.4848
 6508SOL    HW231161   0.469   1.251   9.339  0.0434 -0.6714 -0.0516
 6509SOL     OW31162   4.707   3.245  12.796  0.2609  0.5693 -0.7698
 6509SOL    HW131163   4.706   3.172  12.735 -2.7640 -0.9508  1.1003
 6509SOL    HW231164   4.659   3.314  12.751 -1.6005  1.4202  2.5481
 6510SOL     OW31165   1.703   3.812   4.482  0.1029 -0.1800  0.0679
 6510SOL    HW131166   1.773   3.837   4.421 -1.1987  0.9156 -0.9766
 6510SOL    HW231167   1.625   3.803   4.426  0.5257 -0.2490 -0.5101
 6511SOL     OW31168   1.981   3.978  15.054 -0.7301 -0.4634 -0.4731
 6511SOL    HW131169   2.025   4.058  15.081  1.2046 -1.1782 -1.4268
 6511SOL    HW231170   1.892   4.010  15.047 -1.0233 -1.2695 -0.4915
 6512SOL     OW31171   2.693   3.955   4.367  0.4257  0.2559  0.0304
 6512SOL    HW131172   2.668   4.043   4.339 -1.7020 -0.2196  0.4469
 6512SOL    HW231173   2.720   3.969   4.457  2.2419  0.9261 -0.6108
 6513SOL     OW31174   4.603   0.081   2.382 -0.1974 -0.1191 -0.2843
 6513SOL    HW131175   4.624   4.729   2.369  1.7929  0.8109 -3.5635
 6513SOL    HW231176   4.629   0.114   2.296 -1.3293 -2.2512 -1.4550
 6514SOL     OW31177   0.453   0.769   7.482  0.2820  0.1969  0.0446
 6514SOL    HW131178   0.478   0.768   7.390  0.2702 -2.7884  0.0970
 6514SOL    HW231179   0.427   0.861   7.489  2.3254  0.8289 -0.6474
 6515SOL     OW31180   0.510   3.316   2.641  0.4273  0.1883  0.1449
 6515SOL    HW131181   0.464   3.352   2.565 -1.3824 -1.5538  0.4154
 6515SOL    HW231182   0.444   3.342   2.705 -2.4746 -0.5818 -2.5441
 6516SOL     OW31183   0.210   1.247   0.449 -0.2186  0.0160 -0.7067
 6516SOL    HW131184   0.288   1.268   0.399 -0.5724 -0.8127 -1.6110
 6516SOL    HW231185   0.238   1.163   0.487 -3.7664 -0.7853  0.1231
 6517SOL     OW31186   3.670   2.515   7.097 -0.1194 -0.0214 -0.1282
 6517SOL    HW131187   3.663   2.478   7.185  0.0464  2.1094  0.7828
 6517SOL    HW231188   3.692   2.607   7.112 -1.3164  0.7154 -3.0351
 6518SOL     OW31189   3.341   2.514   7.939  0.0407  0.0274  0.2823
 6518SOL    HW131190   3.413   2.489   7.997  0.0323  0.5965  0.5432
 6518SOL    HW231191   3.386   2.542   7.860 -0.7542  0.1927 -0.1091
 6519SOL     OW31192   2.563   1.891   7.093  0.4963 -0.1024  0.1287
 6519SOL    HW131193   2.626   1.824   7.119 -0.1801  0.3749  3.0245
 6519SOL    HW231194   2.516   1.856   7.017 -0.8262 -0.8226  1.2662
 6520SOL     OW31195   3.304   2.656   3.125  0.2168 -0.4353 -0.5675
 6520SOL    HW131196   3.270   2.576   3.085  0.9160 -1.1426  0.2510
 6520SOL    HW231197   3.374   2.625   3.183  0.2044 -0.7827 -0.7407
 6521SOL     OW31198   2.388   1.503  17.099 -0.3220  0.3527 -0.0541
 6521SOL    HW131199   2.357   1.529  17.012 -0.4776  0.2759 -0.0208
 6521SOL    HW231200   2.301   1.505  17.139 -0.3112  2.9462 -0.1606
 6522SOL     OW31201   0.495   3.588   6.353 -0.0708 -0.4462 -0.1729
 6522SOL    HW131202   0.464   3.618   6.267 -1.0614 -0.7913  0.0677
 6522SOL    HW231203   0.410   3.573   6.393  0.8635  0.0206  1.9650
 6523SOL     OW31204   0.477   1.530   9.364  0.1236 -0.3397 -0.6175
 6523SOL    HW131205   0.501   1.606   9.416  1.4024 -0.9293 -0.3309
 6523SOL    HW231206   0.478   1.565   9.275 -0.5531 -0.9475 -0.8677
 6524SOL     OW31207   2.579   1.184   7.729  0.0511  0.1631 -0.4146
 6524SOL    HW131208   2.514   1.119   7.755  0.6976 -1.0186 -1.7352
 6524SOL    HW231209   2.522   1.257   7.705 -2.1128 -1.4439 -0.0548
 6525SOL     OW31210   0.408   0.420   5.215  0.0781 -0.6174 -0.1611
 6525SOL    HW131211   0.495   0.457   5.231  0.5812 -2.1145  0.5618
 6525SOL    HW231212   0.385   0.385   5.301  2.8754 -3.1289 -0.4366
 6526SOL     OW31213   0.796   2.921   8.399  0.2631  0.3780 -0.0914
 6526SOL    HW131214   0.784   2.881   8.485 -1.9324  2.4943  0.5777
 6526SOL    HW231215   0.758   3.009   8.398  2.5015  1.3224 -2.1478
 6527SOL     OW31216   0.570   3.530   8.748 -0.1378  0.4377 -0.0893
 6527SOL    HW131217   0.506   3.520   8.819 -0.2560  0.8416 -0.1376
 6527SOL    HW231218   0.634   3.583   8.795  2.5627 -0.3320 -2.9376
 6528SOL     OW31219   3.491   2.058   7.636 -0.1021  0.6722 -0.1028
 6528SOL    HW131220   3.544   1.978   7.635 -0.0650  0.6911  0.3868
 6528SOL    HW231221   3.398   2.036   7.644  0.0468  0.1589  0.2595
 6529SOL     OW31222   0.492   0.195   3.418 -0.1003 -0.0044  0.3817
 6529SOL    HW131223   0.586   0.177   3.416 -0.2160 -0.7023  1.3495
 6529SOL    HW231224   0.472   0.200   3.325  1.6415 -1.1260 -0.0456
 6530SOL     OW31225   2.379   2.365   8.330  0.3167  0.1273 -0.0760
 6530SOL    HW131226   2.343   2.354   8.242  0.2524  0.8286 -0.1351
 6530SOL    HW231227   2.449   2.425   8.306  1.6866 -2.0411 -1.5760
 6531SOL     OW31228   0.812   4.458  13.783  0.4755  0.7212 -0.0404
 6531SOL    HW131229   0.734   4.453  13.839  0.6638  1.7375  0.3120
 6531SOL    HW231230   0.878   4.424  13.843 -1.4608  1.1956  2.3387
 6532SOL     OW31231   4.522   1.492   4.614  0.2950  0.6016 -0.4816
 6532SOL    HW131232   4.456   1.492   4.683 -0.8210 -3.1164 -1.5599
 6532SOL    HW231233   4.601   1.514   4.663  0.7812 -1.5222 -0.3373
 6533SOL     OW31234   3.904   4.391   6.757  0.5412 -0.1074  0.7682
 6533SOL    HW131235   3.902   4.345   6.841  1.6448 -2.0828 -0.2977
 6533SOL    HW231236   3.987   4.437   6.770 -0.3039  1.7445 -0.4904
 6534SOL     OW31237   2.198   1.174   6.594  0.4501  0.7912  0.1567
 6534SOL    HW131238   2.225   1.226   6.519  0.2957  0.7162  0.0491
 6534SOL    HW231239   2.256   1.214   6.658  1.0711 -0.5515  0.4402
 6535SOL     OW31240   3.867   3.948   7.594  0.3292  0.2000 -0.0483
 6535SOL    HW131241   3.958   3.971   7.579 -0.0553  1.9437  0.3164
 6535SOL    HW231242   3.830   4.036   7.593  2.1906  0.9883  1.0444
 6536SOL     OW31243   4.493   1.834  14.249 -0.0473 -0.2967  0.1788
 6536SOL    HW131244   4.424   1.768  14.241 -0.3361 -0.0295  0.4501
 6536SOL    HW231245   4.440   1.911  14.227 -0.8069 -0.5418  1.1103
 6537SOL     OW31246   1.057   2.249   8.630 -0.3390  0.0266  0.3433
 6537SOL    HW131247   1.077   2.213   8.543 -0.0133  1.1422 -0.0527
 6537SOL    HW231248   1.012   2.176   8.672 -3.0085  1.4025 -0.1238
 6538SOL     OW31249   2.792   0.204  16.724  0.0156  0.6262 -0.6339
 6538SOL    HW131250   2.829   0.254  16.797  0.1058  1.3423 -1.1704
 6538SOL    HW231251   2.699   0.199  16.747  0.4572  1.3085  1.3294
 6539SOL     OW31252   2.185   3.408   8.130 -0.3001 -0.3909 -0.0837
 6539SOL    HW131253   2.116   3.469   8.104 -1.2219 -0.0997  3.0914
 6539SOL    HW231254   2.206   3.452   8.212  0.4139 -2.3723  0.7826
 6540SOL     OW31255   0.544   1.577   6.908  0.0968  0.5923 -0.0336
 6540SOL    HW131256   0.503   1.507   6.959  1.1831 -1.9787 -2.6396
 6540SOL    HW231257   0.633   1.565   6.943 -0.5993  0.7493  1.7494
 6541SOL     OW31258   1.565   0.889   6.295 -1.0613  0.6010  0.4371
 6541SOL    HW131259   1.532   0.888   6.385 -1.5782 -1.0338  0.2322
 6541SOL    HW231260   1.639   0.948   6.306 -2.6102  2.7807 -0.8168
 6542SOL     OW31261   3.697   2.616   3.413  0.3164 -0.1582  0.8490
 6542SOL    HW131262   3.741   2.536   3.383  0.0747 -0.5035  1.4141
 6542SOL    HW231263   3.750   2.676   3.361 -0.1584 -0.5532 -0.0758
 6543SOL     OW31264   1.703   2.502  10.157 -0.4205  0.3942 -0.1560
 6543SOL    HW131265   1.720   2.547  10.239 -1.7640  0.7452 -0.0696
 6543SOL    HW231266   1.772   2.435  10.159 -0.1230  0.8020  2.3417
 6544SOL     OW31267   0.265   4.057   5.779  0.2409  0.5579 -0.3878
 6544SOL    HW131268   0.213   4.085   5.703  0.9271  1.2978 -0.5848
 6544SOL    HW231269   0.207   4.073   5.853 -0.9616  2.5986 -1.7432
 6545SOL     OW31270   1.200   1.299  11.429  0.2679  0.2047 -0.8261
 6545SOL    HW131271   1.163   1.304  11.341  1.2059 -1.1313 -1.2905
 6545SOL    HW231272   1.125   1.263  11.476  2.1951  1.1115  2.9489
 6546SOL     OW31273   2.632   2.000  10.081  0.0168  0.0026  0.1426
 6546SOL    HW131274   2.651   2.089  10.110 -1.2649  0.4551 -0.3920
 6546SOL    HW231275   2.709   1.953  10.111 -0.7580 -1.8603 -0.7675
 6547SOL     OW31276   0.089   0.422   2.660 -0.6486 -0.2365 -0.5097
 6547SOL    HW131277   0.030   0.429   2.734  1.2671  3.4546  0.6713
 6547SOL    HW231278   0.078   0.334   2.624  1.5288 -0.7309  0.0086
 6548SOL     OW31279   0.361   2.117   9.010  0.0444  0.6190  0.0463
 6548SOL    HW131280   0.340   2.122   9.103 -1.5148 -1.8256 -0.2036
 6548SOL    HW231281   0.405   2.202   9.001 -0.2435  0.6141 -1.5768
 6549SOL     OW31282   4.306   0.112   3.453 -0.0197  0.0880  0.3280
 6549SOL    HW131283   4.249   0.079   3.523 -1.5603  0.2226 -0.8686
 6549SOL    HW231284   4.260   0.081   3.375  0.9860 -1.3381  0.2951
 6550SOL     OW31285   1.260   0.415   6.991  0.0047 -0.2437  0.0601
 6550SOL    HW131286   1.343   0.424   7.038 -0.5566 -1.0417  1.1971
 6550SOL    HW231287   1.243   0.321   6.983  1.4393 -0.6962  2.1520
 6551SOL     OW31288   0.266   2.042   0.240 -0.5326 -0.1218  0.1920
 6551SOL    HW131289   0.354   2.077   0.225 -0.6938 -0.2386 -1.0546
 6551SOL    HW231290   0.249   2.012   0.151  0.6326  0.4815 -0.2327
 6552SOL     OW31291   2.850   2.260  15.309 -0.3643  0.1372 -0.5351
 6552SOL    HW131292   2.793   2.217  15.372  0.0381 -0.3952 -0.5326
 6552SOL    HW231293   2.931   2.264  15.360 -1.2858 -0.2380  0.9686
 6553SOL     OW31294   3.386   3.809  12.235 -0.4962  0.2677  0.7737
 6553SOL    HW131295   3.345   3.889  12.204 -2.3419 -0.2032  1.9768
 6553SOL    HW231296   3.398   3.768  12.149  2.9486  0.8921  0.9485
 6554SOL     OW31297   4.588   0.909   6.045 -0.1772 -0.1630  0.1410
 6554SOL    HW131298   4.606   0.986   5.991  2.3834 -0.3231  0.7599
 6554SOL    HW231299   4.677   0.891   6.075 -0.6628 -3.7184 -0.4694
 6555SOL     OW31300   3.807   4.206   7.507  0.1705  0.1547  0.1949
 6555SOL    HW131301   3.714   4.228   7.506 -0.2452 -1.3945  3.1350
 6555SOL    HW231302   3.847   4.292   7.491 -0.9279  0.2146 -2.2792
 6556SOL     OW31303   3.079   3.651   3.469 -0.5688  0.1072 -0.4774
 6556SOL    HW131304   3.101   3.683   3.381  4.4587  1.4865  1.2830
 6556SOL    HW231305   2.993   3.689   3.488  0.6776  2.8133 -0.2659
 6557SOL     OW31306   0.905   0.558  15.505 -0.2829  0.7425  0.0139
 6557SOL    HW131307   0.994   0.524  15.512 -0.6544 -0.2275  0.1592
 6557SOL    HW231308   0.873   0.540  15.593 -0.7612  2.9979  0.2945
 6558SOL     OW31309   1.661   0.964   5.484 -0.5166  0.1975  0.3302
 6558SOL    HW131310   1.595   0.931   5.546 -2.4093 -0.0989 -1.8208
 6558SOL    HW231311   1.738   0.970   5.540 -0.2551  0.9895 -0.1234
 6559SOL     OW31312   2.518   1.988   7.563  0.2881 -0.0567  0.3119
 6559SOL    HW131313   2.478   2.028   7.486  1.5514  1.1068  0.2591
 6559SOL    HW231314   2.582   1.938   7.512  0.6666  0.5984  0.1327
 6560SOL     OW31315   4.238   1.435  17.719 -0.7858 -0.1072 -0.0055
 6560SOL    HW131316   4.302   1.439  17.648  0.3225 -1.0564  0.9432
 6560SOL    HW231317   4.190   1.513  17.690  1.6515  1.1104 -0.8157
 6561SOL     OW31318   4.709   1.497   8.446  0.4969  0.4304  0.0914
 6561SOL    HW131319   4.661   1.420   8.416  1.1645  0.2373 -0.4834
 6561SOL    HW231320   0.058   1.476   8.419 -0.1927 -0.1827 -1.7052
 6562SOL     OW31321   4.649   1.348   1.125 -0.5203 -0.4122 -0.2581
 6562SOL    HW131322   4.589   1.341   1.200 -1.1983  1.1527 -0.6435
 6562SOL    HW231323   4.711   1.419   1.145 -0.3639 -0.4647 -0.5633
 6563SOL     OW31324   2.607   3.664   5.699  0.2758 -0.0821 -0.4263
 6563SOL    HW131325   2.514   3.670   5.677  0.6249  0.9674 -1.6421
 6563SOL    HW231326   2.608   3.696   5.789 -0.9525  0.4087 -0.5894
 6564SOL     OW31327   3.108   4.447   7.734  0.1122 -0.4005  0.4597
 6564SOL    HW131328   3.094   4.446   7.639 -1.5835 -0.6770  0.7059
 6564SOL    HW231329   3.075   4.363   7.766  1.7363 -1.9127 -1.8271
 6565SOL     OW31330   0.011   3.627   8.392  0.0664 -0.6982 -0.0494
 6565SOL    HW131331   4.686   3.602   8.458  1.1860 -1.0494  0.9170
 6565SOL    HW231332   4.728   3.584   8.310 -0.5718  0.4520 -0.4766
 6566SOL     OW31333   4.261   1.379  11.678 -0.4132  0.2093  0.6098
 6566SOL    HW131334   4.201   1.442  11.638 -0.6614  0.6544  1.6698
 6566SOL    HW231335   4.219   1.373  11.765 -3.3507  1.9718 -0.6803
 6567SOL     OW31336   0.897   1.876   3.831  0.1681  0.0484 -0.5773
 6567SOL    HW131337   0.919   1.832   3.749 -2.2125  0.1613 -1.2659
 6567SOL    HW231338   0.805   1.886   3.806  0.4671  1.2903 -1.2120
 6568SOL     OW31339   1.559   1.274   7.815  0.0726  0.2880  0.0212
 6568SOL    HW131340   1.639   1.221   7.813  0.8806  1.6078 -1.9627
 6568SOL    HW231341   1.570   1.356   7.767 -0.9802 -0.2207 -1.0921
 6569SOL     OW31342   0.026   4.629  12.936  0.0373  0.6848  0.2681
 6569SOL    HW131343   4.706   4.703  12.936 -0.8482 -0.0466 -1.5011
 6569SOL    HW231344   0.114   4.668  12.930  0.1139  0.5502  0.4795
 6570SOL     OW31345   2.888   4.012   1.607  0.4781  0.0582  0.6975
 6570SOL    HW131346   2.869   3.963   1.526 -1.6579 -1.1531  1.9353
 6570SOL    HW231347   2.819   3.966   1.656  1.3790 -1.6246  0.3742
 6571SOL     OW31348   4.557   3.610   2.277  0.2418 -0.1826  0.0317
 6571SOL    HW131349   4.608   3.534   2.250  0.2643 -1.0858  2.5536
 6571SOL    HW231350   4.507   3.571   2.349  0.0942 -0.0765 -0.0140
 6572SOL     OW31351   1.903   2.629   8.827 -0.0543 -0.6069  0.0451
 6572SOL    HW131352   1.950   2.559   8.872  1.6713  0.5292 -0.0220
 6572SOL    HW231353   1.950   2.639   8.744 -1.4308  0.5942 -0.5855
 6573SOL     OW31354   3.810   1.197   7.100 -0.3195  0.1732  0.2576
 6573SOL    HW131355   3.737   1.229   7.154 -0.0215  0.9905  0.1703
 6573SOL    HW231356   3.819   1.106   7.129 -1.0843 -0.3460 -1.1192
 6574SOL     OW31357   0.241   1.717   4.206 -0.2303 -0.1851  0.0609
 6574SOL    HW131358   0.212   1.775   4.276 -1.8064  0.9401 -1.5188
 6574SOL    HW231359   0.334   1.733   4.194 -0.3474 -0.5635 -1.3738
 6575SOL     OW31360   4.622   0.891   3.632  0.3286 -0.2583 -1.1281
 6575SOL    HW131361   4.626   0.986   3.623  1.7820 -0.0254  2.2356
 6575SOL    HW231362   4.647   0.859   3.545 -0.8102 -1.2617 -1.0886
 6576SOL     OW31363   0.566   1.745   9.489  0.5178 -0.8495  0.3611
 6576SOL    HW131364   0.592   1.815   9.549  0.3404  2.3939 -3.4048
 6576SOL    HW231365   0.646   1.737   9.437  0.1732 -0.4292 -0.2223
 6577SOL     OW31366   0.769   1.407   3.048  0.3114 -0.4619 -1.0571
 6577SOL    HW131367   0.822   1.470   2.999  0.5964 -0.9761 -1.4102
 6577SOL    HW231368   0.714   1.470   3.095  1.0355 -1.5624  1.2369
 6578SOL     OW31369   4.379   4.194  11.511 -0.1949 -0.2865  0.1444
 6578SOL    HW131370   4.399   4.107  11.476 -0.9974 -0.4014 -0.0127
 6578SOL    HW231371   4.464   4.230  11.536 -0.1007 -1.1958  1.1248
 6579SOL     OW31372   4.362   3.207   0.752 -0.9075 -0.5619  0.1494
 6579SOL    HW131373   4.372   3.295   0.716 -0.6628 -0.5121  0.3393
 6579SOL    HW231374   4.379   3.224   0.845 -0.6781  1.4356 -0.2485
 6580SOL     OW31375   0.855   4.364   1.973  0.0855  0.0711  0.1899
 6580SOL    HW131376   0.853   4.321   2.059 -1.8846 -0.5980 -0.1843
 6580SOL    HW231377   0.786   4.429   1.987 -2.1425 -2.1552 -0.4523
 6581SOL     OW31378   4.174   3.929   8.250  0.0470  0.1106  0.0948
 6581SOL    HW131379   4.143   4.011   8.287 -0.2934  0.0263 -0.0015
 6581SOL    HW231380   4.250   3.964   8.203  0.8371 -0.6101  0.8410
 6582SOL     OW31381   3.736   1.464  15.727  0.4761 -0.7144  0.4768
 6582SOL    HW131382   3.723   1.545  15.777 -0.9112 -0.7542  0.1566
 6582SOL    HW231383   3.789   1.496  15.654  0.9007 -2.5218 -0.0068
 6583SOL     OW31384   1.035   0.172   5.386  0.1881  0.1232 -0.2115
 6583SOL    HW131385   1.059   0.262   5.366 -1.0890  0.5305  0.0462
 6583SOL    HW231386   1.120   0.130   5.372 -0.9088 -3.0094  2.3015
 6584SOL     OW31387   3.626   0.299   3.383  0.0471  0.1924  0.7515
 6584SOL    HW131388   3.684   0.291   3.308 -2.6302  1.3473 -1.4658
 6584SOL    HW231389   3.550   0.335   3.336  0.0101 -1.7035 -0.6691
 6585SOL     OW31390   3.593   0.716   8.574 -0.0804 -0.6667 -0.3425
 6585SOL    HW131391   3.578   0.681   8.662  2.8104 -2.1167 -0.4305
 6585SOL    HW231392   3.559   0.805   8.582  0.9703 -0.4128  1.1564
 6586SOL     OW31393   3.867   0.993   2.709 -0.3163 -0.2718  0.4567
 6586SOL    HW131394   3.865   0.992   2.613  0.1269  0.3952  0.4390
 6586SOL    HW231395   3.777   1.024   2.713 -0.9944 -2.0423 -1.2594
 6587SOL     OW31396   3.876   4.094  15.231  0.2085 -0.3061  0.4269
 6587SOL    HW131397   3.913   4.145  15.159  0.5658 -1.2913 -0.0830
 6587SOL    HW231398   3.872   4.150  15.308 -0.6684  0.6095 -0.2874
 6588SOL     OW31399   3.029   1.582  10.211 -0.1580  0.1022  0.3226
 6588SOL    HW131400   3.024   1.664  10.162 -0.0086 -2.0898 -3.3104
 6588SOL    HW231401   2.981   1.517  10.160 -1.1869  0.6141  0.6277
 6589SOL     OW31402   3.051   1.261   4.762 -0.2552 -0.3048 -0.4428
 6589SOL    HW131403   3.007   1.327   4.817 -0.5213 -0.5164 -0.4026
 6589SOL    HW231404   3.139   1.267   4.800  0.2358  2.0089 -1.9032
 6590SOL     OW31405   0.207   1.245   5.481  0.0524  0.2656 -0.1951
 6590SOL    HW131406   0.164   1.201   5.554  1.7423 -3.2737 -1.3337
 6590SOL    HW231407   0.291   1.261   5.523  0.7384 -2.0431 -0.6628
 6591SOL     OW31408   4.491   4.105  12.366 -0.4992 -0.2451  0.0972
 6591SOL    HW131409   4.570   4.052  12.377 -0.2346 -0.2366 -1.7403
 6591SOL    HW231410   4.502   4.121  12.272 -1.1758  1.5388  0.3187
 6592SOL     OW31411   3.118   3.987   9.027  0.1510 -0.5072 -0.5126
 6592SOL    HW131412   3.194   4.017   8.976  1.1859 -0.7226  0.9123
 6592SOL    HW231413   3.130   3.893   9.017  0.2307 -0.5637  0.1364
 6593SOL     OW31414   3.152   0.246   6.754 -0.6428 -0.1742  0.7324
 6593SOL    HW131415   3.127   0.259   6.663 -0.5736 -1.8203  0.4835
 6593SOL    HW231416   3.192   0.162   6.734  1.0151  0.9621 -0.7365
 6594SOL     OW31417   0.158   1.264   7.716 -0.1379 -0.1854  0.3725
 6594SOL    HW131418   0.253   1.272   7.708 -0.2408 -0.4718 -1.1566
 6594SOL    HW231419   0.122   1.331   7.658  0.1214  0.2982  0.7795
 6595SOL     OW31420   0.772   4.110   9.432  0.3780 -0.2639  0.2892
 6595SOL    HW131421   0.854   4.094   9.385 -1.1493 -3.2401 -1.3717
 6595SOL    HW231422   0.798   4.168   9.503 -1.3406  1.0084 -0.1182
 6596SOL     OW31423   0.640   3.031   5.979 -0.3947  0.3771  0.1929
 6596SOL    HW131424   0.720   3.083   5.968 -1.5788  2.3579  0.9932
 6596SOL    HW231425   0.582   3.089   5.930 -1.5860  0.1364  1.3467
 6597SOL     OW31426   3.186   0.239   6.309 -0.4478  0.0716  0.1474
 6597SOL    HW131427   3.237   0.200   6.238 -1.2755  1.3164 -1.1566
 6597SOL    HW231428   3.115   0.280   6.259 -1.2380 -0.3014  0.9826
 6598SOL     OW31429   1.677   4.601   3.508 -0.1506 -0.3132 -0.6016
 6598SOL    HW131430   1.615   4.673   3.515 -3.3403 -3.3624  2.0072
 6598SOL    HW231431   1.702   4.626   3.419  0.1053 -2.0889 -1.0210
 6599SOL     OW31432   3.660   2.620  17.078 -0.7034  0.3778 -0.4217
 6599SOL    HW131433   3.633   2.609  17.169  1.6083 -3.1765 -0.1782
 6599SOL    HW231434   3.750   2.590  17.084 -0.9341 -0.4248 -0.9233
 6600SOL     OW31435   0.572   1.768   3.867  0.5675  0.0368  0.0711
 6600SOL    HW131436   0.635   1.705   3.833 -0.9691 -1.0159 -0.7908
 6600SOL    HW231437   0.493   1.722   3.841  0.5162  1.0835 -1.5785
 6601SOL     OW31438   2.383   3.181   9.411 -0.3734  0.2084 -0.3421
 6601SOL    HW131439   2.352   3.255   9.464 -0.2640 -1.1451  1.6321
 6601SOL    HW231440   2.455   3.147   9.464  0.1299  0.4772 -0.8532
 6602SOL     OW31441   3.872   3.355  17.237 -0.0643  0.3017  0.1165
 6602SOL    HW131442   3.968   3.356  17.232 -0.1362  1.7491 -1.2745
 6602SOL    HW231443   3.853   3.449  17.240 -0.8436  0.2108 -1.7701
 6603SOL     OW31444   2.876   4.286   1.577 -0.1358  0.0629 -0.7911
 6603SOL    HW131445   2.885   4.318   1.667  2.1745 -2.5450 -0.1012
 6603SOL    HW231446   2.895   4.193   1.579 -0.5468 -0.0577 -2.7011
 6604SOL     OW31447   3.023   4.585  16.055  0.0358 -0.2760 -0.1073
 6604SOL    HW131448   3.036   4.490  16.057  0.0450 -0.2310  1.5413
 6604SOL    HW231449   3.051   4.606  15.966 -1.4649  2.3502  0.0671
 6605SOL     OW31450   2.857   1.368  13.798  0.1543 -0.5025  0.4011
 6605SOL    HW131451   2.881   1.299  13.737 -1.2899 -0.0042 -0.7481
 6605SOL    HW231452   2.780   1.338  13.846 -0.0906  0.4301  0.5968
 6606SOL     OW31453   2.592   0.323  16.972 -0.1463 -0.2662 -0.6798
 6606SOL    HW131454   2.579   0.243  17.023 -1.0002 -1.8548 -3.3722
 6606SOL    HW231455   2.637   0.384  17.030  1.3797 -1.1785 -0.8999
 6607SOL     OW31456   0.728   0.510   9.874 -0.1365  0.2726  0.0639
 6607SOL    HW131457   0.720   0.575   9.804  0.3908 -0.2568 -0.4832
 6607SOL    HW231458   0.726   0.433   9.817  1.0232  0.0951  0.2795
 6608SOL     OW31459   2.053   0.972   7.931  0.1065  0.1782 -0.1373
 6608SOL    HW131460   2.037   0.878   7.922  0.5421 -0.1298  2.4201
 6608SOL    HW231461   2.032   1.004   7.843  1.4325  1.8778  0.1668
 6609SOL     OW31462   0.071   3.663  11.629  0.0468  0.2309 -0.7987
 6609SOL    HW131463   0.105   3.661  11.718 -1.9396  1.3492 -0.0327
 6609SOL    HW231464   4.725   3.624  11.648  0.8571 -1.5584 -0.7808
 6610SOL     OW31465   2.275   1.601   7.487  0.1068 -0.1034  0.6990
 6610SOL    HW131466   2.259   1.582   7.394  1.8668 -1.9400  0.7636
 6610SOL    HW231467   2.196   1.559   7.521  0.0628 -0.8492 -0.3021
 6611SOL     OW31468   1.657   4.656   3.896  0.5163 -0.1171  0.3134
 6611SOL    HW131469   1.573   4.654   3.849  1.0022  0.5070 -0.5861
 6611SOL    HW231470   1.641   4.728   3.958 -0.5672  1.2925 -1.5917
 6612SOL     OW31471   2.724   0.524   8.709  0.4750  0.2540  0.0792
 6612SOL    HW131472   2.771   0.523   8.625  0.2173  2.0924 -0.0868
 6612SOL    HW231473   2.677   0.443   8.690  0.7025 -0.2274  1.6115
 6613SOL     OW31474   4.612   1.035   4.603  0.3870  0.3254 -0.2592
 6613SOL    HW131475   4.621   1.054   4.696  1.6258  0.0269 -0.3180
 6613SOL    HW231476   4.615   0.939   4.610  0.5989  0.1442 -2.7628
 6614SOL     OW31477   4.109   3.160   3.207 -0.8400 -0.8225  0.4641
 6614SOL    HW131478   4.103   3.154   3.111  1.0087  1.3989  0.1987
 6614SOL    HW231479   4.172   3.230   3.222  0.9784 -2.1614 -0.7728
 6615SOL     OW31480   1.878   4.094  12.893  0.1590  0.6107 -0.1201
 6615SOL    HW131481   1.862   4.110  12.986  0.0357 -0.0179 -0.0346
 6615SOL    HW231482   1.944   4.025  12.899 -3.2844 -2.7033 -0.1994
 6616SOL     OW31483   2.321   3.756   4.180  0.2356  0.5592 -0.3145
 6616SOL    HW131484   2.393   3.800   4.135  1.7647 -0.4664  1.1059
 6616SOL    HW231485   2.298   3.681   4.126 -0.4497  2.7508 -3.0232
 6617SOL     OW31486   1.337   1.149   5.727  0.9931 -0.0231 -0.1851
 6617SOL    HW131487   1.281   1.102   5.665  0.8591 -1.1704  0.8218
 6617SOL    HW231488   1.369   1.080   5.784 -0.9597 -0.2018  0.6605
 6618SOL     OW31489   0.987   3.483  16.731  0.6364  0.0311 -0.8122
 6618SOL    HW131490   1.064   3.464  16.677  0.8770 -0.6436 -0.2377
 6618SOL    HW231491   1.002   3.418  16.800  0.3273 -0.0130 -0.7893
 6619SOL     OW31492   2.940   2.182   0.780 -0.0658 -0.4479 -0.1368
 6619SOL    HW131493   2.924   2.263   0.731 -0.2707 -0.3433  0.1091
 6619SOL    HW231494   3.008   2.214   0.839  0.2941 -0.8272 -0.3366
 6620SOL     OW31495   4.223   0.679  13.947  0.1295 -0.4624 -0.0442
 6620SOL    HW131496   4.318   0.688  13.943  0.0885  1.1653  2.3921
 6620SOL    HW231497   4.201   0.620  13.875 -0.9318 -0.5577  0.3567
 6621SOL     OW31498   2.870   0.324   6.358 -0.2526 -0.0657 -0.4834
 6621SOL    HW131499   2.865   0.260   6.287 -1.5586 -2.1389  1.5010
 6621SOL    HW231500   2.830   0.398   6.312 -1.5203 -0.6960 -0.4133
 6622SOL     OW31501   1.491   4.285  14.321 -0.3775 -0.0631  0.0142
 6622SOL    HW131502   1.433   4.310  14.393  0.5846 -0.1813  0.8239
 6622SOL    HW231503   1.573   4.327  14.346 -0.3126  0.9065 -1.8275
 6623SOL     OW31504   1.009   2.842  16.731 -0.2053  0.5170  0.2639
 6623SOL    HW131505   1.013   2.938  16.728  0.8725  0.5012  1.4993
 6623SOL    HW231506   1.049   2.825  16.646  0.6714  1.8571  0.4129
 6624SOL     OW31507   3.759   3.085   7.555  0.4881  0.1146  1.0105
 6624SOL    HW131508   3.803   3.170   7.546  2.2884 -0.9115  0.1830
 6624SOL    HW231509   3.747   3.067   7.462  2.6960  2.0167  0.3611
 6625SOL     OW31510   1.550   2.059  17.728 -0.5193 -0.3314  0.0581
 6625SOL    HW131511   1.456   2.043  17.716 -0.6941 -0.0185  1.0087
 6625SOL    HW231512   1.555   2.129  17.663 -1.4647 -0.0980  0.2384
 6626SOL     OW31513   0.119   0.552   3.051 -0.0940 -0.1412  0.0220
 6626SOL    HW131514   0.147   0.482   2.991 -0.7366 -1.8245  1.6918
 6626SOL    HW231515   0.096   0.503   3.129  0.9017  2.6518  2.0669
 6627SOL     OW31516   3.974   2.282  10.467 -0.1933  0.4105  0.1953
 6627SOL    HW131517   3.889   2.315  10.497 -0.4678  0.6046 -0.8128
 6627SOL    HW231518   3.982   2.339  10.391 -0.0624 -3.0145 -2.3629
 6628SOL     OW31519   4.184   0.749  15.812 -0.2864  0.0498  0.1596
 6628SOL    HW131520   4.279   0.748  15.820 -0.3840  1.6859  1.3862
 6628SOL    HW231521   4.160   0.820  15.871 -2.4962 -1.6828  1.3568
 6629SOL     OW31522   0.393   4.079   4.898 -0.1809  0.3581 -0.2777
 6629SOL    HW131523   0.347   4.071   4.814 -0.8778  1.3575  0.0134
 6629SOL    HW231524   0.485   4.057   4.885 -0.0900  0.8157 -0.4361
 6630SOL     OW31525   2.664   1.496  17.156  0.8437  0.3110 -0.4414
 6630SOL    HW131526   2.656   1.443  17.077 -2.0337 -0.1642  0.1533
 6630SOL    HW231527   2.572   1.524  17.160  0.5088 -0.9789  0.6351
 6631SOL     OW31528   3.594   1.520   2.309  0.0344 -0.2785 -0.2858
 6631SOL    HW131529   3.567   1.571   2.385 -1.5329 -0.4686 -0.7197
 6631SOL    HW231530   3.602   1.434   2.351  1.3907  0.9156  1.8505
 6632SOL     OW31531   1.394   2.766   4.449 -0.4507  0.2379  0.1480
 6632SOL    HW131532   1.377   2.825   4.376 -1.3981  2.4640  2.1788
 6632SOL    HW231533   1.420   2.833   4.512 -0.7047  0.6219 -0.1532
 6633SOL     OW31534   4.541   2.570   5.309  0.5366 -0.5742  0.4516
 6633SOL    HW131535   4.483   2.582   5.385  0.5378 -0.2813  0.4069
 6633SOL    HW231536   4.481   2.609   5.245  0.1197  1.0937  1.8510
 6634SOL     OW31537   2.295   2.222   5.847 -0.2267 -0.5099 -0.3872
 6634SOL    HW131538   2.371   2.202   5.793  1.5226  1.0238  1.5235
 6634SOL    HW231539   2.343   2.247   5.926  0.8915 -1.5704 -0.7285
 6635SOL     OW31540   3.019   4.636   8.830 -0.7890  0.0108 -0.0016
 6635SOL    HW131541   3.066   4.632   8.746 -2.3695  1.8605 -0.9828
 6635SOL    HW231542   2.951   4.571   8.811  0.9088 -1.2004 -1.8770
 6636SOL     OW31543   3.815   0.024  17.370 -0.0762  0.3796  0.6829
 6636SOL    HW131544   3.820   4.685  17.316 -0.5258 -0.9082  2.4852
 6636SOL    HW231545   3.908   0.045  17.367  0.1428 -0.8312 -0.9265
 6637SOL     OW31546   0.539   2.585   7.783  0.4888  0.7479 -0.8598
 6637SOL    HW131547   0.462   2.636   7.759  0.4654  0.1027 -2.1532
 6637SOL    HW231548   0.521   2.559   7.873 -1.3570  1.7996 -0.9175
 6638SOL     OW31549   2.941   2.523  12.396 -0.3207  0.1760  0.2356
 6638SOL    HW131550   2.995   2.575  12.455 -0.1479 -0.3233  0.5149
 6638SOL    HW231551   2.899   2.475  12.468 -1.0755  1.2738  0.5297
 6639SOL     OW31552   4.367   2.226   3.328 -0.0407 -0.5383 -0.0409
 6639SOL    HW131553   4.410   2.289   3.270  0.5867  0.7146  1.7761
 6639SOL    HW231554   4.435   2.160   3.339 -0.5458 -0.7532  1.6753
 6640SOL     OW31555   0.058   2.600   7.345 -0.2238 -0.0032  0.0682
 6640SOL    HW131556   0.133   2.555   7.306  0.4785  0.1141  1.2733
 6640SOL    HW231557   0.003   2.616   7.268 -1.2705  0.3576  0.9010
 6641SOL     OW31558   3.472   4.281   1.307 -0.0462  0.4817  0.3731
 6641SOL    HW131559   3.437   4.200   1.270 -0.7620  0.3968  1.2236
 6641SOL    HW231560   3.548   4.250   1.355  1.5047  0.8715 -1.8452
 6642SOL     OW31561   0.365   3.430   5.268  0.9383 -0.3247  0.7950
 6642SOL    HW131562   0.416   3.511   5.261 -0.9976  0.9771  1.7413
 6642SOL    HW231563   0.296   3.465   5.324 -0.0724 -2.1453  0.6883
 6643SOL     OW31564   0.817   2.391   5.184  0.4237  1.0836  0.1546
 6643SOL    HW131565   0.819   2.450   5.259  2.8128  1.4714 -0.2373
 6643SOL    HW231566   0.877   2.320   5.204 -0.0669  0.6198 -0.0081
 6644SOL     OW31567   0.748   2.320   6.246  0.0366  0.6211 -0.7248
 6644SOL    HW131568   0.669   2.314   6.192  0.4770 -0.7661 -1.2173
 6644SOL    HW231569   0.778   2.231   6.263 -0.8588  1.1677  3.8622
 6645SOL     OW31570   0.240   0.741  10.794  0.0185 -0.0459  0.0615
 6645SOL    HW131571   0.189   0.670  10.755 -1.6052  0.5109  1.1394
 6645SOL    HW231572   0.332   0.716  10.799 -0.2800 -0.9859  0.7421
 6646SOL     OW31573   4.723   0.188  13.257  0.4154 -0.5436  0.1147
 6646SOL    HW131574   0.054   0.147  13.208  0.4342 -0.6785  0.2538
 6646SOL    HW231575   4.650   0.131  13.231 -0.3626 -0.0690  1.2263
 6647SOL     OW31576   1.368   3.492   9.125 -0.3297  0.1099  0.4469
 6647SOL    HW131577   1.415   3.565   9.083 -0.0585 -0.7339 -0.7056
 6647SOL    HW231578   1.367   3.508   9.219 -2.1686 -2.1364  0.8133
 6648SOL     OW31579   3.320   3.834   2.091  0.1051 -0.6359  0.8643
 6648SOL    HW131580   3.292   3.925   2.078  0.8528 -0.6384 -0.6784
 6648SOL    HW231581   3.279   3.799   2.012  0.6994 -0.3175  0.4170
 6649SOL     OW31582   0.984   2.756  12.588 -0.5700 -0.6388 -0.3407
 6649SOL    HW131583   0.992   2.664  12.565  1.5218 -0.8509  1.2307
 6649SOL    HW231584   1.039   2.798  12.522 -2.1149  1.6430 -0.1791
 6650SOL     OW31585   3.879   0.810   3.519 -0.9996  0.4073 -0.4000
 6650SOL    HW131586   3.808   0.874   3.527 -0.5033  0.5641  2.7919
 6650SOL    HW231587   3.841   0.723   3.511  1.7688 -0.6616 -1.6745
 6651SOL     OW31588   0.967   4.076   7.698  0.0373  0.1176  0.0393
 6651SOL    HW131589   1.061   4.062   7.704 -0.3913 -1.5131  3.0365
 6651SOL    HW231590   0.950   4.034   7.614 -0.2528  0.2291  0.0406
 6652SOL     OW31591   2.148   4.702   0.863 -0.4812 -0.3331  0.7573
 6652SOL    HW131592   2.194   4.652   0.931 -0.5916 -1.7862 -0.2473
 6652SOL    HW231593   2.059   4.669   0.875 -1.7122  2.0248 -1.9223
 6653SOL     OW31594   1.123   2.411   3.769 -0.4665 -0.0626 -0.3376
 6653SOL    HW131595   1.073   2.336   3.736  1.2781 -1.1458 -0.5353
 6653SOL    HW231596   1.190   2.411   3.700 -1.1530  1.3879 -0.9854
 6654SOL     OW31597   4.203   2.503  17.041 -0.6454 -0.0519  0.0219
 6654SOL    HW131598   4.228   2.429  17.096  0.6562  0.1923 -0.2460
 6654SOL    HW231599   4.251   2.493  16.960  3.9059  1.1670  2.5656
 6655SOL     OW31600   1.502   0.207  14.076 -0.1083  0.3452  0.3657
 6655SOL    HW131601   1.479   0.141  14.141 -1.0060 -0.7603 -1.0893
 6655SOL    HW231602   1.446   0.282  14.093  0.4457  1.0327 -0.8532
 6656SOL     OW31603   1.675   0.722  12.671 -0.4685 -0.0843  0.0641
 6656SOL    HW131604   1.762   0.732  12.634 -0.1294  2.1824  1.4795
 6656SOL    HW231605   1.686   0.637  12.713  1.8916 -0.0859 -0.5554
 6657SOL     OW31606   3.890   0.212   2.033 -0.1109 -0.3834 -0.1915
 6657SOL    HW131607   3.843   0.263   2.099 -0.5327 -0.2023 -0.6260
 6657SOL    HW231608   3.963   0.174   2.082  1.8472  1.7526 -1.4416
 6658SOL     OW31609   3.522   2.800  12.382 -0.1873  0.3077  0.4632
 6658SOL    HW131610   3.501   2.802  12.288 -0.2724  0.3154  0.4819
 6658SOL    HW231611   3.438   2.840  12.407  0.4290  1.2785  0.9577
 6659SOL     OW31612   2.014   4.646   5.418 -0.2873 -0.2489  0.3896
 6659SOL    HW131613   2.017   4.699   5.498 -1.0971  0.1655  0.1457
 6659SOL    HW231614   2.031   4.710   5.349 -0.6403 -1.9329 -1.2528
 6660SOL     OW31615   1.464   1.406   5.956  0.1174  0.0423 -0.2222
 6660SOL    HW131616   1.503   1.355   6.027 -0.9247 -0.4937 -0.0323
 6660SOL    HW231617   1.540   1.417   5.899  0.2036 -1.9481 -0.4834
 6661SOL     OW31618   2.142   0.397   3.778  0.2975 -0.0817  0.0489
 6661SOL    HW131619   2.223   0.361   3.742  0.1733 -1.3714  1.0593
 6661SOL    HW231620   2.080   0.355   3.717 -1.4314  0.4853  1.4186
 6662SOL     OW31621   3.841   2.180   7.402 -0.1693 -0.3487  0.4440
 6662SOL    HW131622   3.840   2.171   7.307  1.7217 -0.6959  0.4444
 6662SOL    HW231623   3.829   2.275   7.400 -0.3613 -0.3145  2.8987
 6663SOL     OW31624   3.125   1.083   4.336 -0.0806  0.5957  0.4381
 6663SOL    HW131625   3.098   0.991   4.335  0.9400  0.2872  1.0809
 6663SOL    HW231626   3.083   1.105   4.419 -1.4448  0.8071 -0.2938
 6664SOL     OW31627   0.184   1.683   6.032 -0.2687 -0.1481  0.1259
 6664SOL    HW131628   0.122   1.633   6.085 -1.3172 -1.0012 -1.8692
 6664SOL    HW231629   0.269   1.641   6.047 -0.4785 -0.3953  0.6041
 6665SOL     OW31630   4.203   0.795   2.518  0.0476 -0.0414  0.3920
 6665SOL    HW131631   4.153   0.732   2.466 -0.2535  0.1078  0.4980
 6665SOL    HW231632   4.277   0.811   2.459 -0.4632  0.5434 -0.0897
 6666SOL     OW31633   1.674   4.605   4.217 -0.2376  0.2177 -0.1976
 6666SOL    HW131634   1.745   4.554   4.177 -0.1141  1.8580 -2.1110
 6666SOL    HW231635   1.676   4.679   4.156  1.6227 -0.6773 -1.2179
 6667SOL     OW31636   3.680   4.586   0.298  0.3239 -0.3609 -0.1588
 6667SOL    HW131637   3.607   4.629   0.255  1.0392 -1.8529 -2.8635
 6667SOL    HW231638   3.675   4.496   0.267 -2.4721 -0.5756  0.8391
 6668SOL     OW31639   3.479   0.415   8.246  0.3217  0.0700 -0.0861
 6668SOL    HW131640   3.409   0.373   8.195  0.4784 -2.2580  1.5870
 6668SOL    HW231641   3.477   0.503   8.209 -0.1077 -0.8216 -2.1789
 6669SOL     OW31642   3.840   3.230   7.887 -0.0634 -0.0216  0.1415
 6669SOL    HW131643   3.828   3.282   7.967  1.5263 -2.8141  2.2094
 6669SOL    HW231644   3.765   3.172   7.896 -1.5544  1.4062 -3.3473
 6670SOL     OW31645   2.110   2.080   0.193  0.1377 -0.2964  0.3293
 6670SOL    HW131646   2.176   2.070   0.261 -0.7985  3.7432  1.8621
 6670SOL    HW231647   2.072   2.167   0.208  1.1101  0.3683 -1.0565
 6671SOL     OW31648   0.436   0.202  14.973 -0.5635  0.6435  0.2472
 6671SOL    HW131649   0.344   0.179  14.980  0.0346 -1.3846  1.5472
 6671SOL    HW231650   0.435   0.281  15.026 -2.3835  0.6090  0.2535
 6672SOL     OW31651   2.271   2.515   4.954 -0.8878  0.0990 -0.7577
 6672SOL    HW131652   2.190   2.566   4.946 -1.5178 -1.0560 -1.6979
 6672SOL    HW231653   2.318   2.537   4.873 -0.8558  0.3336 -0.6765
 6673SOL     OW31654   2.825   2.267   4.086 -0.1153  0.1671 -0.3902
 6673SOL    HW131655   2.761   2.291   4.152 -0.3302  1.3961 -1.0429
 6673SOL    HW231656   2.770   2.259   4.008  1.2492  0.9451 -1.4488
 6674SOL     OW31657   1.446   3.670   2.705 -0.3461 -0.5951 -0.6367
 6674SOL    HW131658   1.526   3.721   2.719 -0.3620 -1.4926  2.8960
 6674SOL    HW231659   1.423   3.668   2.798 -0.1586  2.1836 -0.5146
 6675SOL     OW31660   2.209   4.604  10.768 -0.5430  0.0458  1.0870
 6675SOL    HW131661   2.202   4.657  10.847 -0.7415  0.8921  0.5045
 6675SOL    HW231662   2.131   4.637  10.723 -1.5306 -2.3955  1.0104
 6676SOL     OW31663   3.778   1.873  17.462  0.0557 -0.1875 -0.3373
 6676SOL    HW131664   3.828   1.951  17.439  0.3197 -0.9001 -2.1065
 6676SOL    HW231665   3.693   1.915  17.477 -0.1277 -0.6225 -0.1583
 6677SOL     OW31666   0.074   0.571   3.965 -0.4067 -0.0183 -0.0866
 6677SOL    HW131667   0.020   0.607   3.895 -0.0350 -3.5309 -2.1934
 6677SOL    HW231668   0.035   0.610   4.043 -0.5346  1.0635 -0.6996
 6678SOL     OW31669   0.214   4.385   7.675 -0.1888  0.1410 -0.4427
 6678SOL    HW131670   0.233   4.426   7.591  0.7466 -0.7388 -0.6656
 6678SOL    HW231671   0.120   4.400   7.679 -0.2494  0.2195 -2.2635
 6679SOL     OW31672   1.250   4.290   9.770  0.5426 -0.1431  0.3310
 6679SOL    HW131673   1.312   4.221   9.745  0.5947 -0.2314  0.6939
 6679SOL    HW231674   1.220   4.299   9.680 -0.1213  1.2608  0.7005
 6680SOL     OW31675   3.815   1.403   1.614 -0.1152  0.4039  0.4391
 6680SOL    HW131676   3.726   1.398   1.649  0.3910  3.1882  2.0712
 6680SOL    HW231677   3.832   1.309   1.605 -1.3125  0.1657  0.6400
 6681SOL     OW31678   4.172   0.626   7.358  0.0837  0.2650 -0.4686
 6681SOL    HW131679   4.156   0.582   7.442  0.2051 -1.0917 -1.1484
 6681SOL    HW231680   4.214   0.563   7.299 -1.4737 -0.2027 -1.0761
 6682SOL     OW31681   2.734   3.789   1.116  0.0612 -0.2073 -0.1577
 6682SOL    HW131682   2.806   3.730   1.141 -0.2026 -0.7041 -0.5859
 6682SOL    HW231683   2.702   3.823   1.199 -1.9812 -1.4545 -0.4313
 6683SOL     OW31684   0.218   3.024   4.280  0.3360  0.0193 -0.4978
 6683SOL    HW131685   0.179   3.092   4.226 -2.6823 -1.4213 -0.1045
 6683SOL    HW231686   0.290   3.001   4.221 -1.2231 -0.3385 -2.2761
 6684SOL     OW31687   3.703   2.520   3.038  0.4262 -0.0806 -0.0431
 6684SOL    HW131688   3.794   2.515   3.067  0.8197 -0.0587 -1.2749
 6684SOL    HW231689   3.676   2.607   3.069  0.3155  0.0093 -0.3978
 6685SOL     OW31690   2.065   2.219  12.572 -0.7065  0.2090 -0.3785
 6685SOL    HW131691   2.148   2.174  12.589 -0.5092  0.8847  0.4800
 6685SOL    HW231692   2.054   2.197  12.480  0.5494 -1.9420 -0.0068
 6686SOL     OW31693   1.760   4.159   5.512 -0.6525  0.5345 -0.4040
 6686SOL    HW131694   1.767   4.157   5.417 -1.4316  2.0225 -0.4964
 6686SOL    HW231695   1.671   4.193   5.520 -2.6907 -4.8957  0.0495
 6687SOL     OW31696   1.483   0.748  14.090 -0.0466  0.3812  0.0538
 6687SOL    HW131697   1.406   0.769  14.036 -1.1064 -1.9108  0.6660
 6687SOL    HW231698   1.514   0.676  14.036 -1.8056  0.6843 -1.3743
 6688SOL     OW31699   0.227   1.582   7.584  0.7875 -0.0441 -0.2209
 6688SOL    HW131700   0.178   1.664   7.596  1.6566  0.7610 -2.2857
 6688SOL    HW231701   0.256   1.573   7.675  0.2541 -0.8502 -0.1240
 6689SOL     OW31702   1.045   0.797   4.171 -0.5332 -0.0419  0.0950
 6689SOL    HW131703   1.011   0.866   4.228  1.8688  0.7882  0.5028
 6689SOL    HW231704   0.966   0.743   4.159 -0.6499  0.0166  0.5569
 6690SOL     OW31705   0.149   3.496   4.267  0.0370  0.0874  0.0941
 6690SOL    HW131706   0.182   3.460   4.185 -1.3517 -0.5442 -0.1817
 6690SOL    HW231707   0.235   3.516   4.305 -0.2596  2.8582 -0.6681
 6691SOL     OW31708   0.245   4.003  13.139  0.0366  0.2456 -0.2809
 6691SOL    HW131709   0.241   4.085  13.188  3.0509  1.4032 -1.9751
 6691SOL    HW231710   0.340   3.997  13.129  0.3601  3.3223  0.7804
 6692SOL     OW31711   2.318   4.586   8.524  0.3578 -0.1863  0.1577
 6692SOL    HW131712   2.284   4.603   8.436  1.0886  0.2443 -0.0424
 6692SOL    HW231713   2.265   4.657   8.561 -0.0020  0.2654 -1.2347
 6693SOL     OW31714   3.614   4.669   6.219  0.6717 -0.0566 -0.5543
 6693SOL    HW131715   3.565   4.699   6.296 -0.1111 -0.8554 -0.7402
 6693SOL    HW231716   3.685   4.733   6.230  0.3496  0.2427 -0.1957
 6694SOL     OW31717   2.725   3.239   0.193 -0.5303 -0.1781  0.2342
 6694SOL    HW131718   2.637   3.204   0.208 -0.7474  0.6692  0.9255
 6694SOL    HW231719   2.790   3.176   0.226 -0.6993 -0.2518  0.4245
 6695SOL     OW31720   1.213   0.716   7.793  0.2900  0.0930 -0.1579
 6695SOL    HW131721   1.264   0.715   7.712 -0.6489  1.5483 -0.7717
 6695SOL    HW231722   1.247   0.638   7.837  2.3089  0.3873 -1.1823
 6696SOL     OW31723   4.176   2.824   9.340  0.2147 -0.1191  0.0271
 6696SOL    HW131724   4.127   2.819   9.258  0.4266  3.6042 -0.3209
 6696SOL    HW231725   4.241   2.893   9.327 -0.1777  0.2592  0.0749
 6697SOL     OW31726   1.188   0.420   8.839 -0.4216  0.2901  0.2881
 6697SOL    HW131727   1.108   0.378   8.808  0.7621 -0.7457 -1.3685
 6697SOL    HW231728   1.210   0.358   8.908 -0.1108  0.3211  0.2142
 6698SOL     OW31729   4.119   3.825  16.808  0.2864 -1.2087 -0.2618
 6698SOL    HW131730   4.032   3.867  16.805  0.3493 -0.9339  1.6394
 6698SOL    HW231731   4.164   3.870  16.736  0.1951  0.4122  0.6817
 6699SOL     OW31732   0.281   1.039   1.902 -0.1839 -0.1485 -0.2987
 6699SOL    HW131733   0.306   0.996   1.983 -0.4454  3.0222  1.4731
 6699SOL    HW231734   0.352   1.012   1.845  2.0012  3.0749  0.8799
 6700SOL     OW31735   3.201   4.384   1.973  0.5558 -0.7551  0.3859
 6700SOL    HW131736   3.214   4.449   2.043 -1.1677 -0.9176  0.8678
 6700SOL    HW231737   3.106   4.376   1.983  0.2785  1.5506 -0.2693
 6701SOL     OW31738   4.412   3.491   7.188  0.0731  0.4163  0.3938
 6701SOL    HW131739   4.499   3.455   7.173  0.0914 -0.0138  1.5872
 6701SOL    HW231740   4.438   3.583   7.186  0.3461  0.3709  2.7219
 6702SOL     OW31741   1.790   1.513   7.937 -0.1008 -0.0652  0.6185
 6702SOL    HW131742   1.789   1.417   7.935  0.2582 -0.0577  0.0744
 6702SOL    HW231743   1.726   1.543   7.871 -1.7234  0.0971  2.2706
 6703SOL     OW31744   4.481   3.048  10.354  0.1833 -0.7820 -0.0014
 6703SOL    HW131745   4.522   3.060  10.268  1.5124 -0.7517  0.6379
 6703SOL    HW231746   4.432   2.967  10.340 -0.0741 -0.8948  1.4959
 6704SOL     OW31747   4.510   2.440   4.061 -0.0814 -0.2841  0.0368
 6704SOL    HW131748   4.593   2.449   4.014  0.2682 -2.5350  0.1780
 6704SOL    HW231749   4.533   2.458   4.153 -1.8090  1.6412  0.0691
 6705SOL     OW31750   3.092   0.491   5.240 -0.0542  0.4221 -0.2088
 6705SOL    HW131751   3.149   0.418   5.264  0.6325  1.4804  1.3709
 6705SOL    HW231752   3.138   0.558   5.191  1.1232 -1.4777 -1.6666
 6706SOL     OW31753   1.323   2.298  15.613 -0.1933  0.5681 -0.2105
 6706SOL    HW131754   1.320   2.258  15.526  0.3147  0.0376  0.0180
 6706SOL    HW231755   1.268   2.238  15.664  0.6733  0.2098  0.2992
 6707SOL     OW31756   2.641   4.419  14.708 -0.0750  0.1703  0.3599
 6707SOL    HW131757   2.658   4.495  14.653  0.6798  0.3360  0.8135
 6707SOL    HW231758   2.559   4.441  14.750  1.1012 -0.7023  3.1240
 6708SOL     OW31759   4.682   3.423   3.983  0.4671  0.1999 -0.0979
 6708SOL    HW131760   4.691   3.358   3.914 -0.7324  1.3629 -1.3484
 6708SOL    HW231761   4.641   3.367   4.048 -1.9619  0.7138 -1.1827
 6709SOL     OW31762   3.742   3.588   5.390  0.0510  0.6300  0.0836
 6709SOL    HW131763   3.790   3.666   5.364 -1.4798  1.6743  0.4546
 6709SOL    HW231764   3.741   3.597   5.485  0.3091 -1.5750  0.3082
 6710SOL     OW31765   3.533   3.456   0.475  0.2301  0.2699 -0.0056
 6710SOL    HW131766   3.552   3.389   0.541  3.8577  0.7045 -0.6186
 6710SOL    HW231767   3.446   3.484   0.504  0.4641 -0.0299  1.0068
 6711SOL     OW31768   4.218   4.173  12.221  0.4306  0.1681 -0.0724
 6711SOL    HW131769   4.150   4.124  12.175 -0.9178  1.7233  0.2820
 6711SOL    HW231770   4.245   4.248  12.169 -0.5500  0.2147 -0.5195
 6712SOL     OW31771   4.680   2.778   5.752  0.5965 -1.0628 -0.1440
 6712SOL    HW131772   4.687   2.710   5.685  0.1603 -0.9319 -0.3274
 6712SOL    HW231773   4.668   2.853   5.694  1.7528 -0.7964 -0.0274
 6713SOL     OW31774   3.676   1.823   3.836  0.2540 -0.5626 -0.5806
 6713SOL    HW131775   3.753   1.783   3.875  0.7906  1.2704  0.2298
 6713SOL    HW231776   3.630   1.740   3.819  1.1167 -0.9677 -0.9263
 6714SOL     OW31777   1.844   0.408   0.330  0.1726  1.1294 -0.1237
 6714SOL    HW131778   1.922   0.444   0.287  1.4206 -1.4136 -0.0160
 6714SOL    HW231779   1.827   0.485   0.385 -2.3837  1.1616 -0.9926
 6715SOL     OW31780   1.976   1.346   6.086  0.0972  0.0693 -0.1828
 6715SOL    HW131781   1.908   1.279   6.086 -1.8488  2.0471  0.4789
 6715SOL    HW231782   1.921   1.423   6.072 -1.1589 -0.5970  1.0979
 6716SOL     OW31783   2.572   3.035  10.872 -0.3221  0.0562  0.1665
 6716SOL    HW131784   2.562   2.940  10.866 -0.5433  0.0909 -0.0202
 6716SOL    HW231785   2.543   3.037  10.964 -0.2753  1.8849  0.1504
 6717SOL     OW31786   3.936   2.492   5.913 -0.0629  0.1024 -0.4211
 6717SOL    HW131787   4.009   2.512   5.854  2.0846 -3.2985  1.0475
 6717SOL    HW231788   3.866   2.540   5.870  0.0742  1.4676  0.8727
 6718SOL     OW31789   3.872   3.039   2.717  0.3079  0.7468 -0.0066
 6718SOL    HW131790   3.953   3.061   2.670  0.1548 -1.4162 -1.2503
 6718SOL    HW231791   3.895   3.029   2.809 -2.9225 -0.5995  0.6680
 6719SOL     OW31792   0.744   1.043   1.791  0.0184  0.7971  0.2476
 6719SOL    HW131793   0.771   1.050   1.699 -1.5844  0.5444 -0.2534
 6719SOL    HW231794   0.653   1.016   1.778  0.1211  0.0140  1.2001
 6720SOL     OW31795   3.931   3.269   1.490  0.2033 -0.2439  0.0843
 6720SOL    HW131796   3.921   3.339   1.555  1.1597  1.3189 -1.4760
 6720SOL    HW231797   3.961   3.319   1.414 -0.9969  0.3004 -0.0300
 6721SOL     OW31798   3.573   2.963  14.818  0.2244  0.0963 -0.1732
 6721SOL    HW131799   3.556   3.052  14.787 -0.4335 -0.0800 -0.3187
 6721SOL    HW231800   3.667   2.956  14.834  0.0784  0.0931  0.6572
 6722SOL     OW31801   4.460   4.544  13.023  0.1007 -0.5870 -1.0102
 6722SOL    HW131802   4.437   4.610  12.957 -1.9042 -0.7676 -0.4803
 6722SOL    HW231803   4.429   4.468  12.973  1.6254 -1.8398 -0.0499
 6723SOL     OW31804   1.976   4.384   0.800  0.7402 -0.0017  0.5411
 6723SOL    HW131805   1.945   4.469   0.829 -1.2397 -1.1405  1.7291
 6723SOL    HW231806   1.947   4.404   0.711 -2.7080  0.1983  1.7269
 6724SOL     OW31807   3.712   2.320   9.585 -0.1767  0.4306  0.1431
 6724SOL    HW131808   3.781   2.253   9.594  0.7826  1.1466 -1.9334
 6724SOL    HW231809   3.657   2.275   9.520 -1.2887  2.3711 -0.2582
 6725SOL     OW31810   3.478   4.452  17.293 -0.6072  0.5077  0.5036
 6725SOL    HW131811   3.411   4.488  17.351 -1.9205  0.0345 -0.7227
 6725SOL    HW231812   3.439   4.434  17.207  3.5852 -1.3444 -1.0091
 6726SOL     OW31813   1.142   0.707   6.634 -0.2599 -0.2864 -0.1646
 6726SOL    HW131814   1.160   0.615   6.653  1.4783  0.0613 -0.1083
 6726SOL    HW231815   1.047   0.705   6.639 -0.1738 -1.0607  1.1317
 6727SOL     OW31816   2.999   1.317   3.006 -0.2806 -0.0047  0.1519
 6727SOL    HW131817   3.049   1.236   3.006  1.6512  1.1586 -2.1799
 6727SOL    HW231818   2.925   1.285   2.955 -0.6684  1.1693 -0.0176
 6728SOL     OW31819   3.641   3.920   2.532  0.1876  0.0535 -0.1780
 6728SOL    HW131820   3.684   3.955   2.610 -0.4424  0.1236  0.1418
 6728SOL    HW231821   3.718   3.910   2.476 -0.2951 -0.3664 -0.7586
 6729SOL     OW31822   1.481   1.404  13.960  0.0872  1.0343  0.3592
 6729SOL    HW131823   1.467   1.386  14.053  2.6600 -0.6358  0.4243
 6729SOL    HW231824   1.573   1.379  13.956  0.5939  2.8674  0.4936
 6730SOL     OW31825   2.689   0.478  16.019 -0.2372 -0.3018 -0.0608
 6730SOL    HW131826   2.738   0.529  15.954  0.5192 -0.3217  0.4916
 6730SOL    HW231827   2.731   0.392  16.013 -0.4628 -0.2795 -1.9760
 6731SOL     OW31828   3.044   4.581   3.223 -0.3165  0.2669 -0.6817
 6731SOL    HW131829   3.105   4.655   3.220 -0.9059  0.6955 -2.1493
 6731SOL    HW231830   2.965   4.634   3.225  0.5563  1.5785 -0.9699
 6732SOL     OW31831   3.293   1.905  15.013 -0.2197  0.0214 -0.3395
 6732SOL    HW131832   3.318   1.888  14.923  0.2758 -0.6082 -0.0846
 6732SOL    HW231833   3.369   1.882  15.067 -0.8234 -0.1360  0.4444
 6733SOL     OW31834   1.252   0.173   7.545  0.7701 -0.3415 -0.1797
 6733SOL    HW131835   1.240   0.121   7.465 -0.6492 -1.5201  0.7976
 6733SOL    HW231836   1.178   0.141   7.597  1.6257  0.3022  1.4208
 6734SOL     OW31837   3.106   3.167   4.870  0.4483 -0.4002  0.0459
 6734SOL    HW131838   3.107   3.246   4.925 -0.3504 -0.5787  0.3113
 6734SOL    HW231839   3.200   3.172   4.852  0.3612  1.2645  0.0515
 6735SOL     OW31840   1.429   4.038   3.793  0.0158 -0.1109 -0.0414
 6735SOL    HW131841   1.419   3.983   3.716 -0.4875 -0.5439  0.3306
 6735SOL    HW231842   1.523   4.028   3.809  0.4489  0.9125 -2.0207
 6736SOL     OW31843   3.655   2.726   8.011  0.4127  0.6536 -0.1905
 6736SOL    HW131844   3.673   2.646   7.962 -1.0289 -0.3767  0.9784
 6736SOL    HW231845   3.577   2.762   7.968 -0.5198  1.7814  2.4756
 6737SOL     OW31846   3.145   1.162   5.136 -0.0904  0.4058  0.7009
 6737SOL    HW131847   3.214   1.174   5.200  0.1040 -0.4341  0.6576
 6737SOL    HW231848   3.188   1.205   5.062  0.6097 -1.9181 -0.2539
 6738SOL     OW31849   1.102   1.404   7.326 -0.5629 -0.0486 -0.3392
 6738SOL    HW131850   1.035   1.453   7.373  0.0360  1.0825 -0.6775
 6738SOL    HW231851   1.155   1.477   7.294 -0.1015  0.6221  2.0190
 6739SOL     OW31852   1.161   0.258   1.714 -0.2179  0.1805  0.5801
 6739SOL    HW131853   1.207   0.214   1.643  0.1998  0.5888  0.6015
 6739SOL    HW231854   1.195   0.214   1.792 -0.0809 -3.2990 -1.4777
 6740SOL     OW31855   3.410   1.053   8.828  0.0617  0.4163 -0.0821
 6740SOL    HW131856   3.387   1.067   8.920  1.2938  1.9576 -0.0133
 6740SOL    HW231857   3.479   0.986   8.834  2.7445  3.0923 -1.0802
 6741SOL     OW31858   0.664   0.817   3.677 -0.6735  0.4631  0.2838
 6741SOL    HW131859   0.623   0.880   3.737  1.9050  1.0816  1.3869
 6741SOL    HW231860   0.605   0.822   3.602  1.9897 -1.0090 -1.8903
 6742SOL     OW31861   3.316   1.408  17.729  0.2978 -0.3131  0.3381
 6742SOL    HW131862   3.271   1.325  17.713  0.3021 -0.5045  1.3301
 6742SOL    HW231863   3.384   1.387   0.036  0.3277 -3.7881 -0.8160
 6743SOL     OW31864   4.651   2.723   8.729 -0.3832 -0.0767 -0.2938
 6743SOL    HW131865   4.650   2.818   8.726  1.1878 -0.0979 -1.3583
 6743SOL    HW231866   4.582   2.697   8.667  1.0802  0.9331 -2.3381
 6744SOL     OW31867   0.152   1.071  16.531  0.1751 -0.4211 -0.8009
 6744SOL    HW131868   0.161   1.104  16.621  1.8205  0.4006 -1.2650
 6744SOL    HW231869   0.080   1.119  16.492  1.1585  0.0013 -2.0992
 6745SOL     OW31870   2.729   1.262  11.258  0.1499  0.2853  0.0469
 6745SOL    HW131871   2.825   1.264  11.254  0.0253  0.5651 -3.0447
 6745SOL    HW231872   2.710   1.350  11.292 -2.2507 -0.2850  0.1718
 6746SOL     OW31873   2.213   0.142   1.196 -0.4390  0.1726 -0.2845
 6746SOL    HW131874   2.245   0.068   1.143 -1.4757 -0.0379 -0.6119
 6746SOL    HW231875   2.185   0.084   1.267 -0.2766  1.4135  0.7797
 6747SOL     OW31876   0.393   2.208   8.187 -0.5328 -0.0511  0.1878
 6747SOL    HW131877   0.347   2.124   8.185  0.6644 -0.6707 -0.7239
 6747SOL    HW231878   0.321   2.270   8.176  0.4870  0.8129 -1.5993
 6748SOL     OW31879   2.410   3.642   5.947 -0.0002 -0.3346  0.0670
 6748SOL    HW131880   2.329   3.669   5.989  0.3692 -0.0606  0.6038
 6748SOL    HW231881   2.477   3.682   6.002 -0.0200  1.2788 -1.0830
 6749SOL     OW31882   2.463   4.607   5.695 -0.1903 -0.2456  0.2912
 6749SOL    HW131883   2.513   4.538   5.739  2.3848  1.9505  0.8698
 6749SOL    HW231884   2.376   4.602   5.734 -0.0653 -4.0566  0.0720
 6750SOL     OW31885   4.156   2.857   2.152 -0.1736  0.4339  0.5107
 6750SOL    HW131886   4.149   2.801   2.230 -0.1363 -0.2095  0.0514
 6750SOL    HW231887   4.190   2.794   2.088 -2.3083  0.1733 -0.3686
 6751SOL     OW31888   4.539   3.403  12.639  0.4783  0.0111 -0.0845
 6751SOL    HW131889   4.507   3.489  12.668  2.8073  0.9976 -0.3783
 6751SOL    HW231890   4.455   3.361  12.622 -0.3670  1.4473  0.5393
 6752SOL     OW31891   1.034   3.875   1.886  0.0426  0.3250  0.2481
 6752SOL    HW131892   1.057   3.815   1.957 -3.1872  0.2191  1.1889
 6752SOL    HW231893   1.010   3.816   1.815 -0.1341 -0.9892  1.4104
 6753SOL     OW31894   0.465   0.488  16.807  0.4599 -0.2623  0.3326
 6753SOL    HW131895   0.408   0.426  16.762  1.1559 -1.8130  1.5866
 6753SOL    HW231896   0.424   0.494  16.893 -1.9871 -1.1741 -0.7686
 6754SOL     OW31897   3.802   0.017  16.617 -0.5904  0.7316  0.2414
 6754SOL    HW131898   3.784   0.107  16.591 -2.5862 -0.1170 -1.2806
 6754SOL    HW231899   3.868   0.036  16.684  0.2865 -1.2738 -0.0421
 6755SOL     OW31900   1.775   0.792   6.530 -0.0854  0.3983  0.2397
 6755SOL    HW131901   1.700   0.732   6.532  0.3367 -0.0373  2.6786
 6755SOL    HW231902   1.777   0.841   6.612  0.9811  0.6299  0.0797
 6756SOL     OW31903   2.083   4.226   9.929  0.2866 -0.0633  0.6193
 6756SOL    HW131904   2.165   4.268   9.904  0.1088  0.2437  0.5555
 6756SOL    HW231905   2.115   4.147   9.972  1.3180 -0.2060 -0.3989
 6757SOL     OW31906   1.001   3.855   2.616  0.1410 -0.0350  0.1454
 6757SOL    HW131907   1.060   3.830   2.687  0.3724 -0.0881 -0.0627
 6757SOL    HW231908   0.911   3.842   2.647  1.0250  2.9616  3.9272
 6758SOL     OW31909   0.935   4.306   2.620 -0.4758  0.1480  0.6969
 6758SOL    HW131910   0.977   4.320   2.704 -3.6245 -0.6262  2.4273
 6758SOL    HW231911   0.843   4.310   2.646 -0.6222 -1.1090  0.3893
 6759SOL     OW31912   1.124   0.506   3.715  0.0081  0.5047 -0.6263
 6759SOL    HW131913   1.036   0.503   3.752  0.1481  0.8032 -0.2587
 6759SOL    HW231914   1.092   0.520   3.626  0.2128 -1.5080 -1.0157
 6760SOL     OW31915   1.458   1.456   8.612  0.1008 -0.2921 -0.3551
 6760SOL    HW131916   1.477   1.548   8.632  2.5185 -0.5661 -1.3830
 6760SOL    HW231917   1.545   1.426   8.589  0.9810  1.5316  0.6146
 6761SOL     OW31918   0.724   4.023  10.191  0.2221  0.5229 -0.3449
 6761SOL    HW131919   0.666   3.954  10.221 -0.0584  0.1582 -1.7304
 6761SOL    HW231920   0.670   4.096  10.221 -0.1038 -0.2385  0.9417
 6762SOL     OW31921   1.891   2.787   5.741 -0.4687 -0.3132 -0.5747
 6762SOL    HW131922   1.971   2.763   5.693  1.0602 -1.3267  2.4645
 6762SOL    HW231923   1.919   2.778   5.832 -2.0487 -0.5045 -0.1102
 6763SOL     OW31924   4.490   1.267   5.969  0.2635  0.9845 -0.1503
 6763SOL    HW131925   4.510   1.347   5.920  0.1089 -0.9536 -3.3629
 6763SOL    HW231926   4.401   1.296   5.988 -1.0756 -3.0747 -0.4483
 6764SOL     OW31927   1.691   2.124   6.608  0.2224  0.0319 -0.3931
 6764SOL    HW131928   1.727   2.166   6.530  0.6881  1.7879  0.7655
 6764SOL    HW231929   1.600   2.130   6.579 -0.4511  1.1779  1.9318
 6765SOL     OW31930   4.289   4.283   9.277 -0.4941 -0.3648  0.3042
 6765SOL    HW131931   4.259   4.373   9.267 -0.0399 -0.0468  1.7762
 6765SOL    HW231932   4.382   4.287   9.254  0.3082  0.8132  3.7140
 6766SOL     OW31933   2.736   3.161   6.942  0.4291 -0.5964 -0.1127
 6766SOL    HW131934   2.660   3.104   6.940  0.0713 -0.1410  0.5989
 6766SOL    HW231935   2.744   3.175   7.036  0.0354  0.9767 -0.3028
 6767SOL     OW31936   3.576   2.033  15.725  0.5235 -0.1538 -0.0370
 6767SOL    HW131937   3.567   2.119  15.766 -1.2921 -0.8461  1.0208
 6767SOL    HW231938   3.568   2.042  15.630 -2.2359 -4.5667 -0.2370
 6768SOL     OW31939   3.421   4.175   4.105  0.7644 -0.2777 -0.4047
 6768SOL    HW131940   3.450   4.091   4.142 -0.8862  0.6508  2.9393
 6768SOL    HW231941   3.454   4.232   4.174  1.3055 -1.0044 -0.0635
 6769SOL     OW31942   2.927   3.834   5.875  0.1619  0.7158 -0.0603
 6769SOL    HW131943   2.961   3.891   5.807  2.7823 -0.1982  0.5077
 6769SOL    HW231944   2.992   3.764   5.871 -2.1408 -1.3837 -0.6533
 6770SOL     OW31945   0.318   2.634   6.194  0.5259 -0.2242  0.3583
 6770SOL    HW131946   0.310   2.594   6.107  2.3558 -4.5592  2.1797
 6770SOL    HW231947   0.414   2.625   6.199  0.6343  1.4908  1.3278
 6771SOL     OW31948   3.492   1.186   7.880  0.2581 -0.1438  0.4596
 6771SOL    HW131949   3.571   1.220   7.922 -1.1929  2.0293  1.4077
 6771SOL    HW231950   3.496   1.097   7.916  1.6179 -0.8987 -1.5535
 6772SOL     OW31951   4.283   1.962   9.924 -0.0331 -0.1341  0.3924
 6772SOL    HW131952   4.207   1.976   9.981  1.5905  1.5885  2.1191
 6772SOL    HW231953   4.312   2.052   9.910  2.4597 -0.9521  0.2984
 6773SOL     OW31954   3.031   0.268  11.884  0.2138  0.6253  0.0974
 6773SOL    HW131955   3.077   0.328  11.944  1.7598  0.1470 -0.6164
 6773SOL    HW231956   3.044   0.185  11.930  0.4501  1.3241  1.3069
 6774SOL     OW31957   0.478   4.698   6.984 -0.3356 -0.2268  0.2022
 6774SOL    HW131958   0.420   4.671   7.056  0.5821  1.7059  1.6479
 6774SOL    HW231959   0.533   4.620   6.977  0.3551  0.2899 -0.0867
 6775SOL     OW31960   2.670   4.000   6.274  0.3359 -0.4998 -0.1159
 6775SOL    HW131961   2.591   3.955   6.302  0.3553 -0.3816  0.1308
 6775SOL    HW231962   2.729   3.931   6.245  0.2834 -0.9871  0.9368
 6776SOL     OW31963   3.203   3.778  17.138 -0.2477  0.4633 -0.2248
 6776SOL    HW131964   3.293   3.781  17.107 -0.1474 -0.3378 -0.0131
 6776SOL    HW231965   3.170   3.731  17.062 -1.4952 -2.4554  2.1178
 6777SOL     OW31966   3.930   4.122   3.184 -0.0271  0.1581  0.0042
 6777SOL    HW131967   3.981   4.091   3.259  3.0261  2.2009 -1.2175
 6777SOL    HW231968   3.846   4.106   3.226 -0.1683 -1.8221 -0.9888
 6778SOL     OW31969   3.629   2.778   4.118  0.0925 -0.2017 -0.2753
 6778SOL    HW131970   3.602   2.820   4.200  1.4882 -1.1232  0.6639
 6778SOL    HW231971   3.691   2.845   4.089 -0.3607  0.0995 -0.5349
 6779SOL     OW31972   0.955   2.597   5.048 -0.2584 -0.1908  0.1836
 6779SOL    HW131973   0.897   2.531   5.085 -2.5518  1.5262 -0.3142
 6779SOL    HW231974   1.027   2.534   5.037  0.1633  0.0851  1.3929
 6780SOL     OW31975   2.244   2.097   7.736  0.2217 -0.0513 -0.3872
 6780SOL    HW131976   2.229   2.187   7.707 -0.9498  0.6064  2.2346
 6780SOL    HW231977   2.167   2.084   7.792 -1.2772 -0.3144 -2.5238
 6781SOL     OW31978   3.567   0.612   2.594 -0.2155  0.9646  0.1012
 6781SOL    HW131979   3.471   0.611   2.602  0.0589  0.4656  3.2003
 6781SOL    HW231980   3.586   0.619   2.688 -0.7305 -0.9894  0.3437
 6782SOL     OW31981   1.094   2.195   0.886  0.2997  0.3207  0.3726
 6782SOL    HW131982   1.111   2.279   0.927  1.2430  0.9204 -1.2553
 6782SOL    HW231983   1.024   2.166   0.944 -0.2894  0.0321 -0.4837
 6783SOL     OW31984   2.924   4.473   3.671  0.1567  0.3358  0.3466
 6783SOL    HW131985   2.998   4.416   3.694  0.9351  1.0348 -0.4055
 6783SOL    HW231986   2.856   4.419   3.711 -0.6268 -0.1375 -1.6260
 6784SOL     OW31987   3.072   0.467   8.220 -0.3752 -0.8020 -0.5154
 6784SOL    HW131988   3.084   0.396   8.283 -2.4347 -0.1958  0.5579
 6784SOL    HW231989   3.081   0.435   8.130 -2.6102 -0.1460 -0.9748
 6785SOL     OW31990   2.657   0.233   4.397 -0.3310 -0.0635  0.5163
 6785SOL    HW131991   2.673   0.176   4.472 -1.3806 -0.2051  0.6355
 6785SOL    HW231992   2.730   0.294   4.392  0.5033 -0.9395  1.9752
 6786SOL     OW31993   2.573   2.387   3.288 -0.2041 -0.0466 -1.0863
 6786SOL    HW131994   2.582   2.301   3.245 -2.2187 -0.6950 -0.2023
 6786SOL    HW231995   2.478   2.382   3.287 -0.2328  0.5522 -1.3531
 6787SOL     OW31996   2.229   4.657   4.744 -0.0041  0.1355  0.1199
 6787SOL    HW131997   2.135   4.667   4.760  0.0370 -0.2714  0.6157
 6787SOL    HW231998   2.234   4.575   4.694 -2.2445  0.1954 -0.2175
 6788SOL     OW31999   3.512   3.523  11.780 -0.4333  0.3947  0.1225
 6788SOL    HW132000   3.512   3.438  11.823  0.1674 -0.2585 -1.2016
 6788SOL    HW232001   3.467   3.506  11.697  1.8906 -1.4393 -0.7333
 6789SOL     OW32002   3.491   0.400  17.550 -0.6387  0.0031  0.3659
 6789SOL    HW132003   3.543   0.357  17.482  1.1506  1.4374  0.8357
 6789SOL    HW232004   3.417   0.442  17.506 -0.1928 -1.0662 -1.3917
 6790SOL     OW32005   1.378   3.971   2.962  0.7052  0.3449 -0.3043
 6790SOL    HW132006   1.354   4.061   2.941 -2.7346 -0.3030  0.8620
 6790SOL    HW232007   1.360   3.918   2.883  0.1231 -0.7776  0.5806
 6791SOL     OW32008   1.020   3.519   8.917  0.1875  0.1358  0.2487
 6791SOL    HW132009   1.008   3.531   8.822  1.6334  2.0961  0.3282
 6791SOL    HW232010   1.103   3.563   8.934 -1.0893  1.6442  2.5434
 6792SOL     OW32011   3.181   1.776   6.555  0.1683  0.5436  0.4512
 6792SOL    HW132012   3.147   1.808   6.471  0.2378 -0.4960  0.0261
 6792SOL    HW232013   3.208   1.686   6.537 -1.6885 -0.0305  0.5102
 6793SOL     OW32014   0.048   1.576   5.553  0.5494 -0.1910 -0.7391
 6793SOL    HW132015   0.033   1.593   5.646 -0.2658 -2.9996 -0.3704
 6793SOL    HW232016   0.011   1.488   5.555 -0.6473  0.2895 -1.7292
 6794SOL     OW32017   1.483   2.842   3.438 -0.0928  0.2140  0.1494
 6794SOL    HW132018   1.392   2.829   3.464 -0.2171  2.1869  0.7494
 6794SOL    HW232019   1.521   2.755   3.452 -1.4003 -0.4907 -0.7366
 6795SOL     OW32020   2.345   0.416   2.380  0.4508 -0.4294 -0.2166
 6795SOL    HW132021   2.425   0.465   2.399 -2.1174  2.9882  1.6996
 6795SOL    HW232022   2.369   0.368   2.301 -0.0937 -0.8369 -0.1293
 6796SOL     OW32023   1.072   4.113   6.048 -0.0591 -0.2609 -0.0495
 6796SOL    HW132024   1.117   4.037   6.012 -1.4123 -0.4567 -1.3131
 6796SOL    HW232025   1.123   4.177   5.998  0.1124 -0.0592  0.3794
 6797SOL     OW32026   1.750   2.556   4.026 -0.1526 -0.0618  0.4533
 6797SOL    HW132027   1.841   2.579   4.007 -0.0583  0.0521  1.0236
 6797SOL    HW232028   1.761   2.475   4.075 -0.2702 -1.2824 -1.5828
 6798SOL     OW32029   3.207   2.891   4.986 -0.3736 -0.2160  0.0121
 6798SOL    HW132030   3.292   2.874   4.944  0.3030  3.7745 -0.2977
 6798SOL    HW232031   3.221   2.983   5.008 -0.1450 -0.0525 -0.7966
 6799SOL     OW32032   1.689   1.005   7.542 -0.1355  0.5840 -0.6287
 6799SOL    HW132033   1.695   1.052   7.458  2.3153  1.6751  0.1557
 6799SOL    HW232034   1.613   1.040   7.587 -1.4719 -1.0822 -1.5973
 6800SOL     OW32035   2.692   4.280   3.032 -0.3274  0.2847 -0.0744
 6800SOL    HW132036   2.716   4.221   3.103  1.8553  0.3399 -0.7779
 6800SOL    HW232037   2.762   4.277   2.967  0.8090 -1.5680  1.2551
 6801SOL     OW32038   1.026   0.141   8.005 -0.5034 -0.1913 -0.5490
 6801SOL    HW132039   1.090   0.203   8.041  0.0889 -1.7717  1.1402
 6801SOL    HW232040   0.956   0.148   8.070  0.4271 -0.4696  0.4824
 6802SOL     OW32041   1.423   3.632   5.929 -0.9031 -0.7223  1.1811
 6802SOL    HW132042   1.407   3.689   5.854  1.0343 -0.8236  0.6969
 6802SOL    HW232043   1.331   3.610   5.944 -1.2702  0.5710  0.8275
 6803SOL     OW32044   3.499   0.821   4.296  0.0879 -0.0491  0.5067
 6803SOL    HW132045   3.576   0.868   4.327  0.4752  0.8073 -1.7706
 6803SOL    HW232046   3.466   0.797   4.383 -1.7539  1.0483  0.1097
 6804SOL     OW32047   4.694   0.977  13.385  0.3701 -0.0495  0.1315
 6804SOL    HW132048   4.610   1.022  13.381  0.0266 -0.4821  2.5195
 6804SOL    HW232049   4.685   0.938  13.472 -1.4895 -1.8640 -0.8851
 6805SOL     OW32050   3.607   1.024   2.668 -0.4632 -0.5431  0.2672
 6805SOL    HW132051   3.554   0.973   2.729 -2.5430  0.4877 -0.6950
 6805SOL    HW232052   3.579   0.991   2.583  1.3386 -3.0715  0.6595
 6806SOL     OW32053   1.383   2.180  10.304  0.2088 -0.5350  0.3866
 6806SOL    HW132054   1.366   2.273  10.295  1.5202 -0.2091  1.2422
 6806SOL    HW232055   1.394   2.170  10.398  1.8724  0.3414  0.2983
 6807SOL     OW32056   2.687   1.352  15.914  0.1617 -0.1735  0.1925
 6807SOL    HW132057   2.780   1.373  15.919  0.2685 -0.4416 -0.6561
 6807SOL    HW232058   2.650   1.440  15.915  0.5570  0.0097 -1.2122
 6808SOL     OW32059   4.344   0.047  17.240  0.5965 -0.3806 -0.9204
 6808SOL    HW132060   4.348   0.136  17.274  0.7301 -0.5197 -0.5766
 6808SOL    HW232061   4.394   0.044  17.158 -0.3108 -0.0378 -1.4933
 6809SOL     OW32062   2.241   1.556   4.827  0.1164 -0.1687 -0.1994
 6809SOL    HW132063   2.219   1.505   4.905 -1.2172 -1.4509 -1.4113
 6809SOL    HW232064   2.235   1.644   4.864 -1.0920 -1.4988  2.7676
 6810SOL     OW32065   1.370   1.920   7.596  0.5283  0.1188 -0.0820
 6810SOL    HW132066   1.326   1.884   7.673 -0.9156  0.5882 -0.6820
 6810SOL    HW232067   1.384   2.011   7.621  1.0731 -0.3276  1.1924
 6811SOL     OW32068   3.970   3.429   2.815  0.3132  0.0400 -0.1342
 6811SOL    HW132069   3.931   3.515   2.833  2.6149  0.7717  1.4028
 6811SOL    HW232070   3.902   3.376   2.773  0.7467  1.9010 -3.1832
 6812SOL     OW32071   4.631   3.547   6.894 -0.1360  0.1094  0.6801
 6812SOL    HW132072   4.691   3.506   6.831 -2.3329 -1.3121 -0.5058
 6812SOL    HW232073   4.652   3.495   6.972 -0.2947 -0.9799 -0.0076
 6813SOL     OW32074   1.617   1.548   2.368 -0.2210 -0.1431  0.4057
 6813SOL    HW132075   1.542   1.570   2.312  1.0478  1.2402 -0.7332
 6813SOL    HW232076   1.605   1.615   2.435  0.4100  1.5259 -1.1637
 6814SOL     OW32077   2.409   4.038   2.121 -0.3419  0.2384 -0.2443
 6814SOL    HW132078   2.397   4.118   2.171 -0.3993  0.0506  0.0380
 6814SOL    HW232079   2.498   4.010   2.139 -0.0912  0.2070 -1.5400
 6815SOL     OW32080   4.420   1.575   6.748  0.2510  0.1951  0.2472
 6815SOL    HW132081   4.443   1.551   6.838 -0.5394  0.2168  0.4557
 6815SOL    HW232082   4.340   1.524   6.737 -0.8367  1.4547  2.4381
 6816SOL     OW32083   4.357   1.127  13.649 -0.2680 -0.0211 -0.4414
 6816SOL    HW132084   4.407   1.206  13.670  0.8740 -0.9033  0.1492
 6816SOL    HW232085   4.278   1.150  13.698  0.8607  0.0766  1.2912
 6817SOL     OW32086   3.963   2.366   2.204 -0.4509 -0.8265  0.5959
 6817SOL    HW132087   3.939   2.274   2.213 -0.8930 -0.5051  2.9359
 6817SOL    HW232088   3.936   2.393   2.117  0.6959 -0.7961  0.2429
 6818SOL     OW32089   1.403   2.669  11.803 -0.8649  0.5187  0.6611
 6818SOL    HW132090   1.308   2.669  11.813 -0.7764  0.1465  1.4937
 6818SOL    HW232091   1.429   2.653  11.893 -1.3905  1.0404  0.9074
 6819SOL     OW32092   1.594   0.913  16.987 -0.2614  0.3348  0.0425
 6819SOL    HW132093   1.684   0.900  16.956 -1.2074  0.1326 -2.5777
 6819SOL    HW232094   1.560   0.834  16.945 -0.8868  0.1320  0.9386
 6820SOL     OW32095   2.359   0.732  13.565  0.6367  0.0190  0.0065
 6820SOL    HW132096   2.285   0.766  13.515  1.3909 -0.4019 -1.3917
 6820SOL    HW232097   2.427   0.794  13.539 -0.1997  0.8539 -0.1923
 6821SOL     OW32098   1.666   0.675   2.742 -0.3289  0.2531  0.6126
 6821SOL    HW132099   1.684   0.599   2.687 -1.0275 -0.2568  1.0836
 6821SOL    HW232100   1.724   0.741   2.703 -0.6856  0.4483  0.4136
 6822SOL     OW32101   0.909   2.900   8.993 -0.5801  0.4154 -0.3242
 6822SOL    HW132102   0.977   2.965   8.977  1.6800 -1.7985  0.2927
 6822SOL    HW232103   0.855   2.912   8.915 -3.9525  0.4429  2.0149
 6823SOL     OW32104   4.636   4.115   9.655  0.0610  0.0128 -0.2275
 6823SOL    HW132105   4.716   4.063   9.642 -1.1003 -2.1231  1.1237
 6823SOL    HW232106   4.612   4.129   9.564  2.6887 -0.4694 -1.0049
 6824SOL     OW32107   2.393   2.052   8.189  0.4145 -0.1166 -0.0737
 6824SOL    HW132108   2.357   2.119   8.130 -3.5601 -1.3457  0.9615
 6824SOL    HW232109   2.344   2.059   8.271  2.0978  0.5278  0.8893
 6825SOL     OW32110   2.336   1.533   3.719  0.1237 -0.2506 -0.2803
 6825SOL    HW132111   2.262   1.572   3.673 -0.0708  0.7519  0.8842
 6825SOL    HW232112   2.393   1.506   3.647 -0.2485  0.2239 -0.7529
 6826SOL     OW32113   3.574   1.941   2.614 -0.0815  0.5242  1.1858
 6826SOL    HW132114   3.578   1.852   2.649 -1.8599 -0.0794 -0.1985
 6826SOL    HW232115   3.493   1.971   2.656 -1.1659 -1.6326  0.6266
 6827SOL     OW32116   0.240   0.764  15.057  0.2989 -0.7107  0.0717
 6827SOL    HW132117   0.190   0.804  15.129  0.1848 -1.0137  0.1612
 6827SOL    HW232118   0.293   0.832  15.017  1.0640 -0.7188  1.0549
 6828SOL     OW32119   3.029   1.581   3.383  0.0899  0.1495  0.1368
 6828SOL    HW132120   3.023   1.670   3.419 -0.2304  0.3553 -0.4249
 6828SOL    HW232121   2.936   1.559   3.374 -0.0043  1.0952 -1.1501
 6829SOL     OW32122   1.191   2.451   0.899 -0.4368 -0.1044 -0.1534
 6829SOL    HW132123   1.210   2.494   0.815  0.0743 -2.4966 -1.2581
 6829SOL    HW232124   1.115   2.507   0.918 -2.3069 -2.4688 -0.5625
 6830SOL     OW32125   4.691   3.033   5.282  0.1882  0.5671  0.5936
 6830SOL    HW132126   4.670   3.099   5.216 -0.1502 -0.2770 -0.1241
 6830SOL    HW232127   0.017   2.981   5.237 -1.3299 -0.9443  0.1568
 6831SOL     OW32128   0.377   4.348   2.942  0.3977 -0.0355 -0.3411
 6831SOL    HW132129   0.427   4.394   3.010 -1.0331  3.2057 -1.4856
 6831SOL    HW232130   0.305   4.307   2.990 -0.4933  1.9700  0.0571
 6832SOL     OW32131   1.692   2.151  10.987 -0.1095  0.2327  0.4225
 6832SOL    HW132132   1.613   2.121  11.031 -0.4298 -2.1530 -1.8007
 6832SOL    HW232133   1.660   2.196  10.909  1.9083 -0.6990 -0.9528
 6833SOL     OW32134   0.855   4.207   8.973  0.6500 -0.4752  0.1427
 6833SOL    HW132135   0.930   4.202   8.913  0.5213 -0.8428  0.0098
 6833SOL    HW232136   0.842   4.116   8.997  0.6639 -0.8675 -1.3290
 6834SOL     OW32137   0.023   3.130   1.391 -0.1430 -0.2193  0.5598
 6834SOL    HW132138   0.072   3.125   1.309  0.6760 -0.6773  1.0785
 6834SOL    HW232139   0.094   3.134   1.455 -0.0853 -0.6375  0.5226
 6835SOL     OW32140   2.788   0.647  17.387 -0.3042  0.1073  0.1642
 6835SOL    HW132141   2.766   0.733  17.423  0.0049  0.5487 -0.6974
 6835SOL    HW232142   2.880   0.637  17.410 -0.3318 -0.3066  0.0964
 6836SOL     OW32143   3.345   4.463   7.276 -0.2493  0.1165  0.1121
 6836SOL    HW132144   3.390   4.506   7.203 -2.3909  1.2659 -0.5180
 6836SOL    HW232145   3.346   4.369   7.257  0.6680  0.5938 -2.2369
 6837SOL     OW32146   1.199   2.608   4.870 -0.1048  0.0690  0.2711
 6837SOL    HW132147   1.243   2.681   4.825  1.6103 -1.9885 -1.3525
 6837SOL    HW232148   1.192   2.643   4.959 -0.0946 -1.1805  0.7615
 6838SOL     OW32149   2.494   4.213   1.814 -0.4990 -0.0934  0.5295
 6838SOL    HW132150   2.433   4.232   1.743  1.0112 -1.9555 -1.2246
 6838SOL    HW232151   2.473   4.124   1.842 -0.4728 -0.5452 -0.9386
 6839SOL     OW32152   0.340   0.870   2.178 -0.1677 -0.3223 -0.5466
 6839SOL    HW132153   0.305   0.811   2.245  2.2885 -2.5481 -1.1998
 6839SOL    HW232154   0.429   0.887   2.209  0.4049 -1.3732 -1.5883
 6840SOL     OW32155   3.075   2.212   2.201  0.0131  0.7257 -0.0579
 6840SOL    HW132156   3.162   2.245   2.181  0.9947 -0.8871  1.5498
 6840SOL    HW232157   3.031   2.271   2.140 -0.0062 -1.0089 -1.7087
 6841SOL     OW32158   1.580   1.735   5.758  0.1590 -0.3878 -0.4849
 6841SOL    HW132159   1.521   1.669   5.722 -0.0416 -1.1561  1.2368
 6841SOL    HW232160   1.649   1.682   5.796  0.9280 -1.1789 -2.9931
 6842SOL     OW32161   2.070   3.520   4.703  0.4151 -0.4047 -0.5017
 6842SOL    HW132162   2.150   3.488   4.746  0.2430  1.6534  1.3810
 6842SOL    HW232163   2.002   3.475   4.753 -0.6043  2.4321  0.6553
 6843SOL     OW32164   0.120   1.287   6.636  0.2145  0.0978  0.2595
 6843SOL    HW132165   0.198   1.335   6.606 -0.0351  1.2491  1.4750
 6843SOL    HW232166   0.142   1.195   6.624  3.1480  0.9034 -0.7484
 6844SOL     OW32167   0.437   0.028   2.962  0.2422 -0.0130  0.3416
 6844SOL    HW132168   0.409   4.687   3.005 -0.2538  0.6355  1.2434
 6844SOL    HW232169   0.372   0.046   2.894  0.7297 -1.6998 -0.5646
 6845SOL     OW32170   1.984   3.984  12.421  0.3069  0.3405 -0.1915
 6845SOL    HW132171   1.943   4.027  12.495 -1.9790 -5.0591  1.7187
 6845SOL    HW232172   2.038   4.049  12.375 -0.9614 -0.3331 -2.6477
 6846SOL     OW32173   3.820   0.794  13.306 -0.2834  0.0969  0.7795
 6846SOL    HW132174   3.841   0.734  13.378 -1.8491 -1.6829 -0.2433
 6846SOL    HW232175   3.725   0.782  13.300 -0.5037  2.5253 -0.5017
 6847SOL     OW32176   0.682   2.970   1.552  0.3823 -0.5346  0.2345
 6847SOL    HW132177   0.751   2.995   1.490 -1.4318  0.4507 -1.4082
 6847SOL    HW232178   0.687   2.874   1.549  0.6377 -0.4937 -0.6341
 6848SOL     OW32179   3.038   1.856   3.474 -0.1280 -0.4177  0.6065
 6848SOL    HW132180   3.022   1.918   3.546  0.1636  1.8362 -1.2637
 6848SOL    HW232181   2.953   1.856   3.430  1.2074 -0.6299 -1.9830
 6849SOL     OW32182   0.132   4.606  12.469  0.2334  0.5766  0.5264
 6849SOL    HW132183   0.075   4.561  12.531  1.4607  1.3952  2.2546
 6849SOL    HW232184   0.129   4.697  12.499 -0.2866  0.5620  0.5218
 6850SOL     OW32185   4.680   0.785   7.942 -0.3418  0.2560 -0.1053
 6850SOL    HW132186   4.674   0.799   7.847  2.5605 -3.9747 -0.9021
 6850SOL    HW232187   0.034   0.771   7.950 -0.3273  0.7364  0.5999
 6851SOL     OW32188   1.917   4.714   2.042 -0.5809  0.2203 -0.2549
 6851SOL    HW132189   1.947   4.628   2.012  1.3404  1.1365 -0.9756
 6851SOL    HW232190   1.971   4.731   2.120 -1.0743  1.8045 -0.2540
 6852SOL     OW32191   2.160   3.756  10.576  0.3428  0.0147 -0.2168
 6852SOL    HW132192   2.153   3.660  10.577  0.9727 -0.0275  0.2223
 6852SOL    HW232193   2.208   3.769  10.495  0.5014  0.9206  0.0220
 6853SOL     OW32194   2.270   2.121  14.815 -0.2624 -0.0615  0.3177
 6853SOL    HW132195   2.324   2.197  14.839  1.3828 -1.2418  0.3858
 6853SOL    HW232196   2.312   2.088  14.735 -2.0358  0.4991 -0.8420
 6854SOL     OW32197   0.309   3.924   1.170  0.0574 -0.0291  0.6224
 6854SOL    HW132198   0.234   3.866   1.188 -0.0030  0.2267  1.1956
 6854SOL    HW232199   0.284   3.973   1.092 -0.8252  0.6469  1.3314
 6855SOL     OW32200   4.417   4.191   6.595 -0.0384 -0.1226  0.0116
 6855SOL    HW132201   4.469   4.113   6.576  1.2323  0.2049  2.1989
 6855SOL    HW232202   4.415   4.237   6.511  0.4504 -1.5820 -0.7985
 6856SOL     OW32203   0.552   4.718   7.300  0.6726 -0.4034  0.0548
 6856SOL    HW132204   0.503   4.643   7.264 -3.0713  2.0892 -0.0889
 6856SOL    HW232205   0.632   4.666   7.308 -0.0380 -1.2672  1.5807
 6857SOL     OW32206   4.560   4.727   9.196  0.1985 -0.3381  0.3181
 6857SOL    HW132207   4.650   0.007   9.171  1.5217 -0.7642  4.7363
 6857SOL    HW232208   4.530   0.074   9.222  0.4373 -0.1905  0.1033
 6858SOL     OW32209   3.306   1.900   7.318 -0.2094 -0.1104  0.4453
 6858SOL    HW132210   3.268   1.925   7.402  0.2968  1.0836  0.3155
 6858SOL    HW232211   3.241   1.929   7.253  0.8820 -0.9756 -1.0398
 6859SOL     OW32212   0.480   1.439   4.298  0.3706  0.6523  0.1047
 6859SOL    HW132213   0.422   1.390   4.356  1.5030 -0.0790  0.6033
 6859SOL    HW232214   0.549   1.462   4.360 -0.7536 -3.1179  2.7502
 6860SOL     OW32215   4.274   1.828   1.380 -0.4686  0.2141  0.3488
 6860SOL    HW132216   4.272   1.732   1.377  2.8865  0.0770  2.7167
 6860SOL    HW232217   4.340   1.845   1.447  0.3357 -1.0188 -0.1363
 6861SOL     OW32218   2.192   0.865  10.198 -0.2024 -0.4369 -0.0708
 6861SOL    HW132219   2.165   0.911  10.278 -2.2746 -3.5853  1.0219
 6861SOL    HW232220   2.161   0.777  10.220  5.1060 -2.6316 -1.2873
 6862SOL     OW32221   2.884   1.505   1.740  0.1400 -0.1430 -0.0567
 6862SOL    HW132222   2.869   1.592   1.779 -2.7396 -0.9096  0.5889
 6862SOL    HW232223   2.898   1.520   1.646  0.9680 -1.9773 -0.2307
 6863SOL     OW32224   1.273   2.758   2.328 -0.6554 -0.0548 -0.0345
 6863SOL    HW132225   1.224   2.730   2.406 -0.7595 -0.3562 -0.2098
 6863SOL    HW232226   1.345   2.809   2.364 -0.7609  0.6125 -0.7597
 6864SOL     OW32227   1.074   3.631   6.734  0.5786  0.0464 -0.0034
 6864SOL    HW132228   1.023   3.651   6.813 -0.6812  0.5901 -0.9620
 6864SOL    HW232229   1.117   3.713   6.710  1.0993 -0.1653  0.2108
 6865SOL     OW32230   1.026   4.328   8.640 -0.1578  0.1023 -0.3417
 6865SOL    HW132231   1.047   4.420   8.656 -0.9296  0.1238  0.5352
 6865SOL    HW232232   0.949   4.329   8.584 -0.5503 -0.7918  0.1819
 6866SOL     OW32233   2.301   2.615   0.319 -0.4397 -0.5122  0.0964
 6866SOL    HW132234   2.375   2.595   0.377 -1.2235  2.0607  1.9597
 6866SOL    HW232235   2.232   2.652   0.374 -0.0843 -0.6496  0.6315
 6867SOL     OW32236   0.076   4.369  15.652 -0.5189  0.1339  0.4827
 6867SOL    HW132237   0.156   4.325  15.624 -1.3087  0.0345 -1.5939
 6867SOL    HW232238   0.053   4.416  15.573  2.3698 -1.4254 -1.2981
 6868SOL     OW32239   2.381   4.682  10.523 -0.2320  0.4831 -0.1513
 6868SOL    HW132240   2.328   0.005  10.572  2.0872  0.1641  2.7927
 6868SOL    HW232241   2.373   4.730  10.440 -2.0154  0.1817 -0.1644
 6869SOL     OW32242   0.731   0.191  14.870 -0.4928 -0.1350  0.1121
 6869SOL    HW132243   0.636   0.198  14.878 -0.1097  1.3827  3.0196
 6869SOL    HW232244   0.758   0.118  14.926 -2.9836 -0.6426  0.6882
 6870SOL     OW32245   1.985   3.835   1.352  0.1199  0.3796 -0.5989
 6870SOL    HW132246   2.010   3.858   1.442 -1.0835 -1.3852  0.1816
 6870SOL    HW232247   2.018   3.748   1.333 -1.8438 -0.9581  2.1631
 6871SOL     OW32248   3.644   4.175   2.143  0.1392 -0.1681  0.2879
 6871SOL    HW132249   3.608   4.259   2.113  0.1033 -0.2242  0.1751
 6871SOL    HW232250   3.564   4.137   2.179  0.2388 -0.0807  0.5999
 6872SOL     OW32251   1.298   0.413   4.311  0.0195 -0.3578  0.8623
 6872SOL    HW132252   1.285   0.487   4.252  1.6768 -2.1314 -1.7122
 6872SOL    HW232253   1.316   0.345   4.247  0.7034 -0.0800  0.7525
 6873SOL     OW32254   1.245   0.891  17.343 -0.2668 -0.3477 -0.6053
 6873SOL    HW132255   1.212   0.967  17.390  1.5158  0.2553 -0.3104
 6873SOL    HW232256   1.322   0.925  17.297 -0.6666  1.0640 -0.2227
 6874SOL     OW32257   2.881   0.697   7.102  0.5434  0.2295 -0.0426
 6874SOL    HW132258   2.870   0.620   7.158  0.4271 -0.4567 -1.0096
 6874SOL    HW232259   2.831   0.759   7.155  0.2344 -0.1205  0.0791
 6875SOL     OW32260   2.911   1.094  16.117 -0.2731 -0.1464  0.3537
 6875SOL    HW132261   2.971   1.168  16.113  0.3097 -0.7239 -1.7914
 6875SOL    HW232262   2.969   1.019  16.106  0.7136  0.4737  1.4508
 6876SOL     OW32263   2.461   3.408  13.014  0.2341  0.5376  0.2498
 6876SOL    HW132264   2.485   3.471  13.082  1.0866 -0.2369  0.6677
 6876SOL    HW232265   2.549   3.398  12.978 -1.2769 -1.2561 -2.9494
 6877SOL     OW32266   0.273   3.815  12.037  0.3266  0.4379  0.1615
 6877SOL    HW132267   0.332   3.865  12.094 -1.0686  0.0907  1.9048
 6877SOL    HW232268   0.244   3.746  12.096 -0.2276 -0.1770 -0.8369
 6878SOL     OW32269   2.504   4.292  14.033  0.0885  0.4608 -0.0407
 6878SOL    HW132270   2.496   4.204  14.071  0.9650  0.7204  0.7273
 6878SOL    HW232271   2.519   4.273  13.940  2.7727  3.4321 -0.2068
 6879SOL     OW32272   1.571   0.505  17.717 -0.1411  0.1430 -0.4504
 6879SOL    HW132273   1.483   0.501  17.680 -0.9223  0.4096  1.3851
 6879SOL    HW232274   1.567   0.573   0.026  1.4654  0.4050 -0.6352
 6880SOL     OW32275   0.805   1.157   6.293  0.2756 -0.0097 -0.1011
 6880SOL    HW132276   0.872   1.090   6.301 -0.2002 -0.7086 -1.9720
 6880SOL    HW232277   0.766   1.163   6.380  3.3374 -0.1665  1.2418
 6881SOL     OW32278   0.940   3.867   7.522  0.2214  0.2581  0.2683
 6881SOL    HW132279   1.030   3.892   7.503 -0.8822  2.9825 -1.4890
 6881SOL    HW232280   0.911   3.851   7.432 -0.9704 -1.8457  1.0265
 6882SOL     OW32281   1.234   0.400   9.278 -0.7021 -0.0640  0.3786
 6882SOL    HW132282   1.299   0.468   9.261 -0.9157 -0.3087 -1.4181
 6882SOL    HW232283   1.281   0.325   9.243 -3.8122 -1.9895  0.3301
 6883SOL     OW32284   3.320   1.275   2.276  0.1137 -0.0488  0.1259
 6883SOL    HW132285   3.379   1.241   2.342  0.3243  0.8290  0.3933
 6883SOL    HW232286   3.372   1.253   2.199  0.6562 -0.0343  0.4860
 6884SOL     OW32287   0.253   4.256  13.297  0.1459 -0.0729 -0.1547
 6884SOL    HW132288   0.346   4.247  13.315 -0.4954  0.2508  3.3368
 6884SOL    HW232289   0.251   4.344  13.334  0.8940  0.9727 -2.6030
 6885SOL     OW32290   1.198   2.282   4.792 -0.0751  0.3321 -0.0194
 6885SOL    HW132291   1.182   2.336   4.870  0.2744 -0.4923  0.6282
 6885SOL    HW232292   1.266   2.222   4.822  1.7581  2.5511  0.2835
 6886SOL     OW32293   2.838   2.976  10.586 -0.2438  0.3031 -0.2507
 6886SOL    HW132294   2.811   2.973  10.678  0.8230  0.0097  0.0503
 6886SOL    HW232295   2.900   2.903  10.577 -0.9812 -0.7867  3.6667
 6887SOL     OW32296   2.852   2.771   6.511  0.5312 -0.4391 -0.0120
 6887SOL    HW132297   2.886   2.744   6.597  1.3420  2.7703  0.6750
 6887SOL    HW232298   2.794   2.698   6.489 -1.7150  2.2709 -3.0838
 6888SOL     OW32299   1.878   4.310  14.860 -0.7168  0.5255  0.3446
 6888SOL    HW132300   1.867   4.403  14.882 -1.1378  0.6607 -0.4162
 6888SOL    HW232301   1.971   4.303  14.840 -0.8403  2.3702 -0.8479
 6889SOL     OW32302   1.395   0.232  17.098 -0.2508 -0.8482 -0.4568
 6889SOL    HW132303   1.383   0.303  17.161 -1.9895 -1.2765 -0.3071
 6889SOL    HW232304   1.303   0.221  17.072 -1.4943  1.0386  3.1391
 6890SOL     OW32305   0.640   1.066  11.119 -0.2299 -0.2742  0.0297
 6890SOL    HW132306   0.634   0.970  11.120 -0.2812 -0.2647  0.6997
 6890SOL    HW232307   0.683   1.080  11.035  0.6490  0.1705  0.5459
 6891SOL     OW32308   3.025   1.336  16.179 -0.1011  0.5168  0.5578
 6891SOL    HW132309   2.952   1.371  16.229  0.8034  3.5626 -0.2310
 6891SOL    HW232310   3.016   1.383  16.096 -1.9662 -0.9663 -0.0733
 6892SOL     OW32311   1.855   3.358   6.872  0.0401  0.2246  0.2858
 6892SOL    HW132312   1.888   3.314   6.950  0.9167  0.7755  0.2192
 6892SOL    HW232313   1.805   3.290   6.827  0.7871 -0.5413  0.6184
 6893SOL     OW32314   0.093   1.672  16.307 -0.1819 -0.3337 -0.1987
 6893SOL    HW132315   0.172   1.619  16.310 -1.0202 -1.5433  0.5334
 6893SOL    HW232316   0.028   1.603  16.296 -0.8852 -0.0329  1.9991
 6894SOL     OW32317   0.618   4.021   7.448  0.3249 -0.1982 -0.0862
 6894SOL    HW132318   0.537   4.003   7.400 -0.9268 -0.0135  1.9988
 6894SOL    HW232319   0.596   4.062   7.531  1.2573  2.1321 -0.9642
 6895SOL     OW32320   3.781   0.236  15.217 -0.5443 -0.6155 -0.0602
 6895SOL    HW132321   3.787   0.218  15.123 -2.6403 -2.5337  0.1656
 6895SOL    HW232322   3.697   0.207  15.250 -0.9992  0.2962 -0.4209
 6896SOL     OW32323   0.517   3.893   1.985 -0.3311 -0.1991 -0.1271
 6896SOL    HW132324   0.502   3.829   1.915 -0.2546  1.4354 -1.6513
 6896SOL    HW232325   0.607   3.923   1.971  0.6353 -1.6368  3.1133
 6897SOL     OW32326   4.466   0.480   3.651 -0.3781  0.0596  0.2495
 6897SOL    HW132327   4.479   0.564   3.694 -0.8976  1.3237 -2.0530
 6897SOL    HW232328   4.538   0.473   3.588  1.1694 -0.2602  2.0676
 6898SOL     OW32329   3.989   0.668  12.049 -0.3730  0.3194 -0.6638
 6898SOL    HW132330   3.972   0.603  12.117  0.0837 -0.5325 -1.3598
 6898SOL    HW232331   4.081   0.652  12.029 -0.6842 -1.1582 -0.9218
 6899SOL     OW32332   1.808   3.466   1.258 -0.3344 -0.3129 -0.5397
 6899SOL    HW132333   1.740   3.466   1.191 -0.4191  1.4142 -0.4522
 6899SOL    HW232334   1.816   3.375   1.288  1.2802  0.2375  0.6891
 6900SOL     OW32335   1.375   3.814   3.176 -0.2103 -0.9024  0.1148
 6900SOL    HW132336   1.383   3.877   3.104 -0.5889 -0.5511  0.3762
 6900SOL    HW232337   1.283   3.834   3.196 -0.0691 -0.5156  0.3782
 6901SOL     OW32338   1.814   3.943   4.924  0.7062  1.0507 -0.1735
 6901SOL    HW132339   1.812   4.000   4.847  0.6411  1.1678 -0.0852
 6901SOL    HW232340   1.729   3.960   4.964  1.5165  0.4489  1.8171
 6902SOL     OW32341   4.713   1.963   3.915  0.1594  0.6068 -0.2044
 6902SOL    HW132342   0.005   2.053   3.922  2.0607  0.1067 -2.4456
 6902SOL    HW232343   0.047   1.936   3.861  0.5486 -0.7909  1.0416
 6903SOL     OW32344   3.408   1.932  14.748 -0.6434 -0.3093  0.9010
 6903SOL    HW132345   3.355   1.978  14.684 -0.3743 -1.0691  0.1249
 6903SOL    HW232346   3.469   2.002  14.772 -0.8287 -0.0599  0.6417
 6904SOL     OW32347   1.173   1.674  15.681 -0.4570 -1.0424  0.1960
 6904SOL    HW132348   1.154   1.598  15.736 -1.2336 -0.8994  0.1347
 6904SOL    HW232349   1.088   1.688  15.638  1.0024  2.3253 -1.5917
 6905SOL     OW32350   1.899   0.575   0.794 -0.1655 -0.3809  0.1385
 6905SOL    HW132351   1.920   0.665   0.767 -0.5304 -0.9325 -1.9671
 6905SOL    HW232352   1.820   0.593   0.846 -1.1060  1.2569 -1.8406
 6906SOL     OW32353   3.574   3.020  17.452  0.0732  0.0048 -0.3753
 6906SOL    HW132354   3.627   2.951  17.490  1.1241 -0.0036 -1.8553
 6906SOL    HW232355   3.633   3.031  17.377  0.2471  1.0666 -0.0899
 6907SOL     OW32356   3.188   2.632   1.272  0.0478  0.0934 -0.0163
 6907SOL    HW132357   3.165   2.705   1.329  1.4191 -0.9744  1.8734
 6907SOL    HW232358   3.118   2.637   1.207 -1.1372 -1.8256  1.1223
 6908SOL     OW32359   4.161   0.937   5.462 -1.0901 -0.0762 -0.1454
 6908SOL    HW132360   4.238   0.947   5.406 -2.0208 -1.7242 -1.7250
 6908SOL    HW232361   4.106   0.869   5.423  1.4181 -1.5285 -1.1709
 6909SOL     OW32362   1.202   0.629  17.028 -0.2053  0.0496  0.3824
 6909SOL    HW132363   1.156   0.560  16.981 -0.2792  1.2434 -1.3264
 6909SOL    HW232364   1.180   0.621  17.120 -0.2046  1.0074  0.4617
 6910SOL     OW32365   2.075   0.408   1.870 -0.1796 -0.1547 -0.3161
 6910SOL    HW132366   2.079   0.493   1.913  1.0321  0.0307 -0.7922
 6910SOL    HW232367   2.099   0.354   1.945 -2.1938  0.7874  0.9883
 6911SOL     OW32368   1.283   3.551   6.315 -0.2974  0.4161  0.2298
 6911SOL    HW132369   1.194   3.578   6.294 -0.7610 -2.8470 -2.0657
 6911SOL    HW232370   1.265   3.507   6.398  1.3251 -0.6173  0.0362
 6912SOL     OW32371   2.752   0.512   4.080 -0.4976 -0.4495 -0.9138
 6912SOL    HW132372   2.803   0.568   4.021 -0.8298 -1.0513 -1.7862
 6912SOL    HW232373   2.701   0.580   4.125 -0.8883 -1.6177  0.4010
 6913SOL     OW32374   4.702   4.312   4.056  0.0167 -0.6001 -0.9372
 6913SOL    HW132375   4.680   4.395   4.098 -0.4716 -1.0318 -0.3418
 6913SOL    HW232376   0.041   4.351   4.018 -0.4532  0.2847 -0.9987
 6914SOL     OW32377   0.541   4.672  13.653  0.3996 -0.1477  0.6307
 6914SOL    HW132378   0.542   0.005  13.590  1.1464 -0.8517 -0.1857
 6914SOL    HW232379   0.606   4.708  13.713  0.7618 -0.9689  0.7285
 6915SOL     OW32380   1.733   3.125   3.970 -0.5486  0.2641 -0.6886
 6915SOL    HW132381   1.752   3.032   3.979 -1.2029  0.1001 -1.0120
 6915SOL    HW232382   1.770   3.170   4.046 -0.9199 -1.3931  0.4541
 6916SOL     OW32383   2.289   2.557   9.470 -0.1856 -0.6072  0.0614
 6916SOL    HW132384   2.213   2.503   9.446 -1.4818  0.6538  1.3238
 6916SOL    HW232385   2.312   2.517   9.554 -0.8354 -1.5871 -0.2354
 6917SOL     OW32386   4.317   0.312  13.966  0.0408  0.2779 -0.4188
 6917SOL    HW132387   4.384   0.248  13.990  1.0617  1.5879  0.2095
 6917SOL    HW232388   4.373   0.378  13.925 -0.8082  1.7299  0.7646
 6918SOL     OW32389   2.161   2.261   6.205  0.2369  0.1451  0.2990
 6918SOL    HW132390   2.100   2.329   6.179  0.9343 -0.1908 -2.2145
 6918SOL    HW232391   2.098   2.197   6.240  1.5241 -1.1842  0.1990
 6919SOL     OW32392   1.146   2.945   8.415 -0.4219  0.8148  0.7270
 6919SOL    HW132393   1.233   2.962   8.451 -0.4449  1.0562  0.6692
 6919SOL    HW232394   1.136   2.851   8.431  0.2083  0.5445 -0.4879
 6920SOL     OW32395   4.130   1.049  15.628 -0.3184 -0.4103 -0.5388
 6920SOL    HW132396   4.164   1.078  15.713  2.7014 -1.4726 -1.3934
 6920SOL    HW232397   4.036   1.042  15.644 -0.4540 -1.0255 -1.6101
 6921SOL     OW32398   3.167   1.460   2.063 -0.0611  0.0366  0.6384
 6921SOL    HW132399   3.123   1.429   2.142 -1.8601 -0.8483 -0.7071
 6921SOL    HW232400   3.259   1.468   2.086  0.1204 -1.0137  0.2741
 6922SOL     OW32401   3.078   0.590  16.146 -0.0059  0.0899 -0.0584
 6922SOL    HW132402   3.104   0.558  16.232  0.4827 -0.2320 -0.3264
 6922SOL    HW232403   2.999   0.538  16.131  1.7431 -2.2485 -1.0500
 6923SOL     OW32404   3.939   2.427  16.392  0.8163  0.2020  0.2698
 6923SOL    HW132405   3.982   2.513  16.401  1.6636 -0.3098  1.0999
 6923SOL    HW232406   3.949   2.395  16.481 -0.8242 -0.6933  0.1315
 6924SOL     OW32407   3.015   0.377   4.897 -0.8900 -0.4501  0.1362
 6924SOL    HW132408   3.079   0.340   4.959 -0.5083 -0.2571 -0.1401
 6924SOL    HW232409   3.045   0.316   4.830  3.4017  1.5702  0.1699
 6925SOL     OW32410   0.748   2.554   2.904 -0.0700 -0.0340 -0.6736
 6925SOL    HW132411   0.707   2.631   2.865  0.2383  0.4668 -0.0196
 6925SOL    HW232412   0.749   2.577   2.997  3.5611 -0.7118 -0.5531
 6926SOL     OW32413   0.667   3.036  11.680 -0.1261 -0.0867  0.2414
 6926SOL    HW132414   0.678   3.022  11.774 -4.1764  1.5895  0.9641
 6926SOL    HW232415   0.586   3.086  11.669 -1.0577 -1.6915 -0.1997
 6927SOL     OW32416   2.922   1.411   7.704  0.0611  0.6343  0.2887
 6927SOL    HW132417   2.876   1.481   7.751 -1.1169  1.1462 -1.6463
 6927SOL    HW232418   3.014   1.434   7.714  0.4498 -1.5051  1.8429
 6928SOL     OW32419   0.376   2.647   3.859 -0.3398  0.1490 -0.2506
 6928SOL    HW132420   0.349   2.591   3.786  0.7724  2.7024 -2.6336
 6928SOL    HW232421   0.317   2.623   3.930  0.0763  0.4417  0.1882
 6929SOL     OW32422   1.726   1.717   9.221  0.8415 -0.1953 -0.0883
 6929SOL    HW132423   1.754   1.806   9.241  0.3558  0.5014 -2.4937
 6929SOL    HW232424   1.792   1.678   9.278  1.5590  0.1152 -0.6916
 6930SOL     OW32425   0.095   1.384   2.857 -0.4745 -0.6360 -0.5162
 6930SOL    HW132426   0.099   1.291   2.877  3.7582 -0.1181  1.1255
 6930SOL    HW232427   0.166   1.381   2.792  2.1951  0.5505  2.3571
 6931SOL     OW32428   1.053   1.379   6.384  0.0894 -0.6690 -0.2605
 6931SOL    HW132429   1.034   1.360   6.475  0.0153 -1.0703 -0.3611
 6931SOL    HW232430   1.082   1.470   6.398  0.9167 -0.9540 -0.1063
 6932SOL     OW32431   4.440   3.377   4.766  0.3243 -0.2923  0.2520
 6932SOL    HW132432   4.464   3.399   4.856 -0.3749  2.4113 -0.2235
 6932SOL    HW232433   4.504   3.420   4.709 -0.5946 -0.0151 -0.5724
 6933SOL     OW32434   2.409   3.805   4.746  0.0460  0.0069 -0.3038
 6933SOL    HW132435   2.366   3.888   4.725 -0.1618  0.3681  1.4828
 6933SOL    HW232436   2.481   3.829   4.805  1.6984 -1.3467 -1.7960
 6934SOL     OW32437   3.319   3.949   6.226 -0.5089  0.4096 -0.2153
 6934SOL    HW132438   3.346   3.996   6.148  0.6043 -0.3088 -0.2593
 6934SOL    HW232439   3.342   4.016   6.290  2.1874 -1.1934  0.4905
 6935SOL     OW32440   1.854   1.241   7.891  0.1861  0.1175  0.2903
 6935SOL    HW132441   1.895   1.191   7.821 -0.5999  0.8693 -0.7003
 6935SOL    HW232442   1.793   1.175   7.922  0.0503  0.3603  0.5492
 6936SOL     OW32443   3.064   2.299  10.234 -0.3881 -0.3893 -0.0630
 6936SOL    HW132444   3.050   2.257  10.319 -0.9044  1.1395  0.6191
 6936SOL    HW232445   3.003   2.256  10.175 -0.7320  0.1746 -0.1220
 6937SOL     OW32446   1.667   4.249   4.223  0.1236  0.4432  0.1365
 6937SOL    HW132447   1.721   4.328   4.213  0.4883  0.1567 -0.1744
 6937SOL    HW232448   1.580   4.284   4.207 -0.3816 -0.2306  1.4378
 6938SOL     OW32449   3.846   3.122  17.704  0.2596  0.7059  0.3685
 6938SOL    HW132450   3.824   3.159   0.031 -2.1198 -0.7875  0.4000
 6938SOL    HW232451   3.763   3.145  17.662 -0.4438 -1.7375  0.4442
 6939SOL     OW32452   0.188   2.725   4.874  0.0185 -0.2949  0.0311
 6939SOL    HW132453   0.218   2.665   4.942  1.9268 -2.7988 -3.0256
 6939SOL    HW232454   0.106   2.685   4.846 -1.5386  2.5112  0.5528
 6940SOL     OW32455   1.841   0.645   2.973  0.0192 -0.2319  0.3739
 6940SOL    HW132456   1.792   0.649   2.891 -0.5591 -1.5505  0.6438
 6940SOL    HW232457   1.914   0.702   2.951 -0.6242  0.4118 -0.1146
 6941SOL     OW32458   0.503   1.704  10.286 -0.2791 -0.0219 -0.1238
 6941SOL    HW132459   0.453   1.747  10.217  0.2122  1.5795  0.5332
 6941SOL    HW232460   0.545   1.627  10.246 -0.2069 -0.8583  1.5336
 6942SOL     OW32461   1.705   0.770   1.852 -0.0133 -0.5874  0.2597
 6942SOL    HW132462   1.646   0.842   1.831  2.9737  2.0113  0.8973
 6942SOL    HW232463   1.715   0.785   1.946 -1.6257 -1.9651  0.6595
 6943SOL     OW32464   0.935   2.374   2.200 -0.3019 -0.3271 -0.3746
 6943SOL    HW132465   0.933   2.417   2.286 -0.9004  0.7097 -0.9130
 6943SOL    HW232466   0.938   2.448   2.140  0.9637 -0.9866 -1.1335
 6944SOL     OW32467   1.439   1.966   5.810 -0.6762  0.3654 -0.3249
 6944SOL    HW132468   1.488   2.047   5.827 -0.5748  0.5415 -1.4444
 6944SOL    HW232469   1.506   1.901   5.789  1.1275  1.9593  0.4234
 6945SOL     OW32470   0.619   2.199   6.999 -0.4767  0.0157  0.6097
 6945SOL    HW132471   0.661   2.232   7.078 -1.7037  1.3663  0.6948
 6945SOL    HW232472   0.558   2.132   7.030 -0.2817  0.0390  1.0424
 6946SOL     OW32473   2.391   0.901  14.530  0.0164  0.1022 -0.3633
 6946SOL    HW132474   2.420   0.826  14.478  3.2071  0.4083  1.0031
 6946SOL    HW232475   2.443   0.884  14.609 -1.6412 -2.0275  0.2743
 6947SOL     OW32476   1.359   0.884   5.341  0.6334  0.1804  0.0833
 6947SOL    HW132477   1.310   0.812   5.301 -0.2760 -0.5914  2.5753
 6947SOL    HW232478   1.371   0.860   5.433  0.4627  0.8575  0.2810
 6948SOL     OW32479   2.041   0.609   8.559  0.0607 -0.4626  0.4353
 6948SOL    HW132480   2.131   0.633   8.533 -0.7278  0.6554 -1.2783
 6948SOL    HW232481   2.005   0.694   8.582  0.6290 -0.0921 -0.0365
 6949SOL     OW32482   0.165   0.700   1.978 -0.3200 -0.5737  0.2883
 6949SOL    HW132483   0.169   0.679   1.885  0.5034 -1.2599  0.4834
 6949SOL    HW232484   0.255   0.716   2.006  0.1902  0.6575 -2.0984
 6950SOL     OW32485   2.451   2.555   4.752  0.7359 -0.1915  0.1263
 6950SOL    HW132486   2.429   2.505   4.673  1.4604  0.6232 -0.5952
 6950SOL    HW232487   2.544   2.574   4.743  0.3463  1.5938 -0.1818
 6951SOL     OW32488   1.083   3.088   3.976 -0.1743  0.7641 -0.7231
 6951SOL    HW132489   1.082   2.997   3.948 -0.4926  0.8572 -1.0243
 6951SOL    HW232490   1.169   3.103   4.014  0.2528 -1.6584 -0.7598
 6952SOL     OW32491   4.575   2.522   3.092  0.2139  0.2267  0.4124
 6952SOL    HW132492   4.664   2.558   3.095  0.3865 -0.2173  0.5188
 6952SOL    HW232493   4.577   2.465   3.015  0.8328 -1.5652  1.7697
 6953SOL     OW32494   2.593   0.051   3.956  0.2342  0.4473  0.2229
 6953SOL    HW132495   2.635   0.124   4.001 -2.5165  1.9908  0.2601
 6953SOL    HW232496   2.559   0.009   4.035  2.8179 -2.1892 -0.0813
 6954SOL     OW32497   0.145   1.005   7.680 -0.0116 -0.0079 -0.4807
 6954SOL    HW132498   0.147   1.100   7.694 -1.4964 -0.0148 -0.2239
 6954SOL    HW232499   0.073   1.002   7.617 -0.2207 -2.1360 -0.1125
 6955SOL     OW32500   1.624   1.124   6.700 -0.0415  0.4080 -0.2174
 6955SOL    HW132501   1.588   1.109   6.612 -0.6173 -1.6969  0.3941
 6955SOL    HW232502   1.655   1.035   6.717  0.9761  0.7549 -0.2580
 6956SOL     OW32503   4.151   3.939  13.761 -0.0547  0.3145  0.1309
 6956SOL    HW132504   4.074   3.882  13.754 -1.1609  1.5087  2.7766
 6956SOL    HW232505   4.216   3.869  13.757  0.0535  0.4014  0.3704
 6957SOL     OW32506   0.593   2.146   5.467  1.1521  0.1251  0.5858
 6957SOL    HW132507   0.653   2.076   5.440 -0.3635 -0.0512 -2.3204
 6957SOL    HW232508   0.582   2.198   5.388 -0.6123  0.4819  1.0643
 6958SOL     OW32509   4.701   2.843   4.136 -0.3544  0.0997  0.4079
 6958SOL    HW132510   4.719   2.877   4.224 -3.2783 -0.3828  1.1876
 6958SOL    HW232511   4.606   2.845   4.140 -0.4072 -2.0987  0.1648
 6959SOL     OW32512   3.625   3.843   8.491  0.4552  0.5477 -0.3659
 6959SOL    HW132513   3.551   3.897   8.518 -0.7551 -0.5883 -1.3976
 6959SOL    HW232514   3.599   3.791   8.414  0.1126  0.6044 -0.2877
 6960SOL     OW32515   4.392   3.793   7.616 -0.4612  0.8338 -0.5752
 6960SOL    HW132516   4.475   3.747   7.603  0.3157  1.8358  0.8498
 6960SOL    HW232517   4.352   3.739   7.685  1.4853 -0.4331 -0.4350
 6961SOL     OW32518   3.477   3.329   0.777  0.3490  0.0957 -0.4493
 6961SOL    HW132519   3.529   3.274   0.720  0.6368 -1.1044  0.9681
 6961SOL    HW232520   3.532   3.328   0.856 -1.4819  0.4774  0.8451
 6962SOL     OW32521   2.029   3.254   9.000 -0.6083 -0.0301  0.2211
 6962SOL    HW132522   1.987   3.208   9.074 -0.4393 -1.1127 -0.3587
 6962SOL    HW232523   1.953   3.304   8.969 -1.5462 -1.0706  0.8246
 6963SOL     OW32524   0.877   1.076  12.897 -0.1492  0.1274 -0.4002
 6963SOL    HW132525   0.912   1.146  12.841 -2.0410  0.6481 -0.9120
 6963SOL    HW232526   0.955   1.023  12.915  0.2612  1.0083  0.4538
 6964SOL     OW32527   0.401   2.221   9.466  0.7330 -0.0711 -0.4196
 6964SOL    HW132528   0.476   2.278   9.487  0.8021 -0.2830 -0.0986
 6964SOL    HW232529   0.366   2.196   9.551  0.0830  2.5614  0.0936
 6965SOL     OW32530   2.837   1.448  11.972  0.1587 -0.1146 -0.0760
 6965SOL    HW132531   2.832   1.366  11.923 -2.3542  0.5153 -0.8720
 6965SOL    HW232532   2.923   1.444  12.014 -0.5611  0.4096  1.4553
 6966SOL     OW32533   4.366   4.248  10.958 -0.1561 -0.0555 -0.2079
 6966SOL    HW132534   4.349   4.199  11.039  0.4568 -0.7677 -0.5077
 6966SOL    HW232535   4.380   4.179  10.893  1.2856 -0.2628  0.3303
 6967SOL     OW32536   2.666   4.327   5.098 -0.7413 -0.2158  0.4538
 6967SOL    HW132537   2.610   4.257   5.133  0.0003 -1.9908 -1.9017
 6967SOL    HW232538   2.607   4.394   5.064 -3.7628 -2.3687  1.4118
 6968SOL     OW32539   2.493   3.550  13.222  0.7330  0.0420  0.4646
 6968SOL    HW132540   2.442   3.594  13.290  0.3148  2.6787 -1.5107
 6968SOL    HW232541   2.474   3.462  13.253 -2.4902  0.7667  0.5373
 6969SOL     OW32542   0.304   3.569   1.692  0.0513  0.4597  0.2132
 6969SOL    HW132543   0.355   3.638   1.734 -1.1523 -0.1728  2.7197
 6969SOL    HW232544   0.328   3.502   1.757 -1.1870 -1.5208 -1.3642
 6970SOL     OW32545   0.289   3.262   8.172 -0.1819  1.1309  0.3234
 6970SOL    HW132546   0.331   3.204   8.235 -1.1424 -0.2556 -0.2892
 6970SOL    HW232547   0.370   3.302   8.142  0.3768 -0.9758 -1.0115
 6971SOL     OW32548   4.124   1.218   5.499 -0.0121  0.2477 -0.7474
 6971SOL    HW132549   4.120   1.122   5.500  0.0872  0.2666  1.3644
 6971SOL    HW232550   4.216   1.229   5.520 -0.3672 -0.6262  1.3709
 6972SOL     OW32551   2.197   3.531   4.098  0.2406  0.5615 -0.0909
 6972SOL    HW132552   2.170   3.498   4.183  2.1173 -3.1631 -0.9166
 6972SOL    HW232553   2.155   3.465   4.043  0.9230 -0.8640  1.1052
 6973SOL     OW32554   0.454   4.403  11.621  0.1608 -0.4564  0.5421
 6973SOL    HW132555   0.537   4.365  11.650  0.7382  1.7281  1.8144
 6973SOL    HW232556   0.476   4.495  11.602 -0.8929  0.2373  2.7482
 6974SOL     OW32557   2.922   4.210   2.475 -0.3647 -0.1411 -0.3832
 6974SOL    HW132558   2.928   4.117   2.497  1.6474  0.2824  0.8337
 6974SOL    HW232559   2.828   4.216   2.493 -0.4273  1.1461 -1.1596
 6975SOL     OW32560   4.701   2.903  12.010  0.2188 -0.1437  0.4750
 6975SOL    HW132561   0.018   2.977  11.986  1.2006 -0.7902  0.7964
 6975SOL    HW232562   0.026   2.832  12.008  0.0757 -0.2909  1.4357
 6976SOL     OW32563   1.315   1.074   6.756  0.5781 -0.2819 -0.1389
 6976SOL    HW132564   1.345   1.000   6.703 -0.7238 -1.1466  0.3232
 6976SOL    HW232565   1.367   1.056   6.834  2.4120  2.7751 -0.6603
 6977SOL     OW32566   3.712   4.206   4.763 -0.4315 -0.3791 -0.0457
 6977SOL    HW132567   3.704   4.180   4.671  1.9808 -0.3162 -0.2689
 6977SOL    HW232568   3.663   4.289   4.767 -0.5566 -0.5736  2.4941
 6978SOL     OW32569   4.212   4.022   0.874 -0.5244  0.4209 -0.5582
 6978SOL    HW132570   4.281   3.961   0.897 -0.5459  0.6162  0.0226
 6978SOL    HW232571   4.258   4.103   0.895  0.6096 -0.1536 -0.8090
 6979SOL     OW32572   3.092   0.705  17.083  0.1964 -1.1191 -0.1246
 6979SOL    HW132573   3.078   0.682  17.175  1.2460 -0.6997  0.1411
 6979SOL    HW232574   3.012   0.754  17.060 -0.1809 -1.7195 -0.0900
 6980SOL     OW32575   2.525   2.671   2.925 -0.0404  0.2122  0.1234
 6980SOL    HW132576   2.476   2.634   2.999  0.7316 -1.3935 -0.1670
 6980SOL    HW232577   2.606   2.626   2.951 -1.0337 -1.1457  0.9190
 6981SOL     OW32578   2.754   1.151   6.934 -0.5142 -0.4402  0.4961
 6981SOL    HW132579   2.759   1.221   6.869 -0.4433 -1.2409 -0.3699
 6981SOL    HW232580   2.824   1.090   6.910 -1.2987 -2.6047  3.6897
 6982SOL     OW32581   3.158   0.403   9.440  0.1723 -0.2604 -0.4589
 6982SOL    HW132582   3.085   0.462   9.420  0.0351 -0.1537  0.3389
 6982SOL    HW232583   3.198   0.443   9.517 -1.6265 -1.0507  0.8982
 6983SOL     OW32584   1.883   2.118   3.571  0.8699  0.1782  0.3717
 6983SOL    HW132585   1.822   2.134   3.643  0.6004 -0.0186  0.1814
 6983SOL    HW232586   1.824   2.090   3.502  0.1316  0.5543  0.8471
 6984SOL     OW32587   1.110   2.708  16.175 -0.6330  0.0807  0.2066
 6984SOL    HW132588   1.030   2.759  16.187 -0.0572  0.0487  4.3099
 6984SOL    HW232589   1.103   2.633  16.234 -0.4017  0.9386  1.3334
 6985SOL     OW32590   2.965   3.888   7.180  0.0478 -0.2522  0.6144
 6985SOL    HW132591   2.885   3.889   7.233 -0.8854  0.8038 -0.7963
 6985SOL    HW232592   2.994   3.798   7.171  0.3747 -0.0524 -0.3016
 6986SOL     OW32593   1.536   0.902  10.155  0.1012  0.4757  0.2434
 6986SOL    HW132594   1.483   0.891  10.234  2.5376  0.8389  1.9314
 6986SOL    HW232595   1.604   0.960  10.191  0.6818  0.0548 -0.1733
 6987SOL     OW32596   2.025   3.337  16.870  0.1261  0.2828  0.1309
 6987SOL    HW132597   1.998   3.426  16.848 -0.7717 -0.6151 -2.3894
 6987SOL    HW232598   1.944   3.285  16.879 -1.5581  2.5017 -2.2571
 6988SOL     OW32599   0.978   4.531  10.652 -0.1476  0.5578  0.1509
 6988SOL    HW132600   0.921   4.454  10.646 -0.0581  0.2865  2.7347
 6988SOL    HW232601   1.065   4.500  10.676 -0.2300 -0.0792 -0.3573
 6989SOL     OW32602   3.440   3.855   4.692 -0.6069 -0.3067  0.5389
 6989SOL    HW132603   3.361   3.810   4.662 -1.2714 -0.6562  2.8260
 6989SOL    HW232604   3.494   3.778   4.709 -1.7002 -1.5571 -1.5735
 6990SOL     OW32605   0.680   3.856   9.405 -0.1444 -0.5338 -0.3699
 6990SOL    HW132606   0.712   3.946   9.416 -1.4804 -0.0682 -0.2515
 6990SOL    HW232607   0.740   3.836   9.334  0.9924  0.0682  0.4279
 6991SOL     OW32608   0.843   1.059   7.798  0.1022 -0.1763  0.2481
 6991SOL    HW132609   0.867   1.089   7.710  0.4844 -3.2911 -0.7310
 6991SOL    HW232610   0.907   1.104   7.852 -0.0279 -0.4379  0.6211
 6992SOL     OW32611   4.449   2.309   9.411  0.0654  0.5446 -0.3804
 6992SOL    HW132612   4.366   2.353   9.427  0.3696  0.8309  0.3782
 6992SOL    HW232613   4.448   2.257   9.491 -1.2131  0.2857 -0.5515
 6993SOL     OW32614   3.020   2.136   3.656  0.2195 -0.5827 -0.4274
 6993SOL    HW132615   3.044   2.199   3.588 -0.4596  0.4239  0.2581
 6993SOL    HW232616   2.927   2.129   3.633  0.7277  0.9159 -2.9288
 6994SOL     OW32617   2.688   2.690   8.929 -0.6089 -0.7056  0.1467
 6994SOL    HW132618   2.594   2.671   8.920 -0.8073 -0.0823  0.9099
 6994SOL    HW232619   2.731   2.605   8.929  0.1074 -0.3384 -0.3217
 6995SOL     OW32620   1.463   4.543   7.270 -0.5247 -0.4309  0.1139
 6995SOL    HW132621   1.482   4.465   7.217 -0.3998  0.2443 -0.8361
 6995SOL    HW232622   1.549   4.586   7.266 -0.9938  0.5735  0.8502
 6996SOL     OW32623   0.248   0.406   3.720  0.6486 -0.0734  0.3920
 6996SOL    HW132624   0.191   0.482   3.709  1.0305 -0.0115 -1.1905
 6996SOL    HW232625   0.272   0.399   3.627 -2.5455  1.1598 -0.5430
 6997SOL     OW32626   1.670   3.201  11.738 -0.0693  0.3348  0.1774
 6997SOL    HW132627   1.716   3.244  11.665  0.1277 -1.4752 -0.7723
 6997SOL    HW232628   1.724   3.129  11.769 -2.2800 -1.3711  0.1156
 6998SOL     OW32629   2.521   1.281  16.682  0.8421 -0.2378 -0.3392
 6998SOL    HW132630   2.492   1.256  16.769  2.5064  0.2878  0.3748
 6998SOL    HW232631   2.468   1.224  16.626  0.9057  0.1622 -0.8031
 6999SOL     OW32632   3.613   4.552   7.998 -0.4234  0.0367  0.0404
 6999SOL    HW132633   3.626   4.464   7.962  1.5545 -0.2152  1.3923
 6999SOL    HW232634   3.570   4.606   7.932 -2.1513 -1.2912  0.0570
 7000SOL     OW32635   2.874   4.239  17.216 -0.7518  0.2268 -0.2951
 7000SOL    HW132636   2.926   4.168  17.179 -0.4189 -0.6133  1.7985
 7000SOL    HW232637   2.833   4.196  17.291  0.3587  3.9603  2.5039
 7001SOL     OW32638   3.548   0.699   9.334  0.2988  0.5386  0.4782
 7001SOL    HW132639   3.538   0.739   9.248 -1.0110 -1.7162 -0.4306
 7001SOL    HW232640   3.478   0.633   9.333 -0.3556  1.2441  0.3557
 7002SOL     OW32641   2.330   2.696   9.892 -0.0556  0.2117  0.8152
 7002SOL    HW132642   2.378   2.719   9.972  0.6948  0.1877  0.3688
 7002SOL    HW232643   2.271   2.628   9.923 -1.8336  1.2851 -0.2613
 7003SOL     OW32644   1.858   3.452   6.420  0.8404 -0.0727  0.2492
 7003SOL    HW132645   1.890   3.451   6.510  0.4116 -1.0891  0.3888
 7003SOL    HW232646   1.837   3.363   6.391  0.2603  0.6325 -1.4571
 7004SOL     OW32647   0.476   1.529   2.306  0.4681  0.2765  0.1794
 7004SOL    HW132648   0.425   1.480   2.370  1.0301 -1.4716 -0.7069
 7004SOL    HW232649   0.515   1.460   2.253  1.6941 -0.3586  1.8968
 7005SOL     OW32650   1.028   1.700   5.183 -0.2424 -0.0544 -0.3397
 7005SOL    HW132651   1.076   1.782   5.176 -0.5139  0.0347 -1.1925
 7005SOL    HW232652   0.967   1.727   5.251  0.5523  0.6294  0.1025
 7006SOL     OW32653   0.592   2.247   5.200  0.0111 -0.2482  0.0320
 7006SOL    HW132654   0.661   2.314   5.200 -0.7935  0.5774 -0.5527
 7006SOL    HW232655   0.614   2.190   5.126  3.3887 -0.7012  1.3722
 7007SOL     OW32656   3.980   2.955  17.266  0.3228 -0.7302  0.2320
 7007SOL    HW132657   3.889   2.978  17.251 -0.4553 -3.0391  1.3758
 7007SOL    HW232658   3.978   2.936  17.360  1.0418 -0.6167  0.2766
 7008SOL     OW32659   1.355   4.709  17.750 -0.2429 -0.0405  0.7746
 7008SOL    HW132660   1.347   4.621   0.029 -0.3301  0.0702  1.0245
 7008SOL    HW232661   1.307   0.021   0.057  1.9295  2.4571  0.3535
 7009SOL     OW32662   4.170   0.352   4.192 -0.7593 -0.0237 -0.4264
 7009SOL    HW132663   4.246   0.312   4.151  0.0372 -1.7098  2.6646
 7009SOL    HW232664   4.126   0.380   4.112 -0.4947  2.1938  0.1965
 7010SOL     OW32665   2.051   1.007   8.201 -0.3112  0.3201  1.0772
 7010SOL    HW132666   2.144   0.998   8.179 -0.9614  0.0072 -1.5836
 7010SOL    HW232667   2.017   1.018   8.112  0.1532 -0.1591  0.8322
 7011SOL     OW32668   0.918   0.910   0.040 -0.2342 -0.2254 -0.0362
 7011SOL    HW132669   0.986   0.878   0.101 -0.0386 -0.1210 -0.2009
 7011SOL    HW232670   0.837   0.907   0.092 -0.0621  1.5076  0.3379
 7012SOL     OW32671   4.535   0.498  13.927 -0.6001  0.1747 -0.1368
 7012SOL    HW132672   4.584   0.491  14.009 -2.4697 -2.3320  0.7545
 7012SOL    HW232673   4.587   0.482  13.848 -1.7653 -1.8604 -0.5004
 7013SOL     OW32674   3.604   1.040   6.789 -0.4038 -0.0109  0.2907
 7013SOL    HW132675   3.635   1.119   6.745  0.1137 -0.4027 -0.0426
 7013SOL    HW232676   3.515   1.068   6.807 -0.8594 -1.8853  1.0074
 7014SOL     OW32677   0.069   0.694   8.869  0.0583  0.2655 -0.2760
 7014SOL    HW132678   4.719   0.709   8.840  0.1691  0.0740 -0.7165
 7014SOL    HW232679   0.049   0.672   8.960  0.7355  0.7176 -0.0184
 7015SOL     OW32680   3.899   4.376   8.443 -0.2152  0.5427 -1.2408
 7015SOL    HW132681   3.857   4.449   8.398 -1.2632  1.8754  1.8601
 7015SOL    HW232682   3.989   4.408   8.447 -0.2298  0.5029 -0.6407
 7016SOL     OW32683   2.312   0.284   5.728  0.1445 -0.1146  0.2290
 7016SOL    HW132684   2.378   0.352   5.716 -0.0897  0.0899  0.1142
 7016SOL    HW232685   2.300   0.272   5.823  3.1947  1.0832  0.7691
 7017SOL     OW32686   2.198   3.212  15.449  0.3345 -0.9649 -0.6384
 7017SOL    HW132687   2.111   3.215  15.410 -0.7983 -3.0453  1.7189
 7017SOL    HW232688   2.202   3.301  15.482  0.2951 -1.1164 -0.2230
 7018SOL     OW32689   2.216   0.475   9.464  0.0953 -0.5257  0.3261
 7018SOL    HW132690   2.146   0.485   9.399  1.3324 -0.7542 -1.0423
 7018SOL    HW232691   2.191   0.391   9.504 -0.8239 -1.4934 -2.2681
 7019SOL     OW32692   2.886   3.430   6.603  0.2793  0.4023 -0.1979
 7019SOL    HW132693   2.937   3.377   6.664 -1.7390 -1.1173  0.1608
 7019SOL    HW232694   2.936   3.407   6.525  0.3533  0.7303 -0.2467
 7020SOL     OW32695   2.379   4.221   7.874 -0.0806  0.3131 -0.5464
 7020SOL    HW132696   2.430   4.280   7.818  0.5277 -0.4142 -0.7522
 7020SOL    HW232697   2.417   4.238   7.960  0.7826 -1.0203 -0.6637
 7021SOL     OW32698   4.449   3.762   6.118 -0.2214 -0.4196  0.0206
 7021SOL    HW132699   4.419   3.811   6.194 -0.2470  0.0168 -0.2683
 7021SOL    HW232700   4.371   3.765   6.062 -0.9148  3.3723  1.2253
 7022SOL     OW32701   4.696   4.072   3.914  0.1630  0.4345  0.4962
 7022SOL    HW132702   0.038   4.101   3.874  0.4745 -1.3242 -0.1540
 7022SOL    HW232703   4.684   4.147   3.972  0.2970  0.4893  0.4542
 7023SOL     OW32704   4.144   3.158   1.755  0.7155  0.0431  0.0584
 7023SOL    HW132705   4.074   3.093   1.760  0.6716 -0.1780 -3.5646
 7023SOL    HW232706   4.200   3.123   1.686  1.3632 -1.3894  1.2999
 7024SOL     OW32707   2.517   3.252  10.445  0.3745  0.4468 -0.2884
 7024SOL    HW132708   2.593   3.198  10.422  2.2349  2.4434  1.1961
 7024SOL    HW232709   2.554   3.335  10.415 -0.9549  0.4068 -2.0521
 7025SOL     OW32710   0.625   2.794   2.819  0.6216  0.3377 -0.1081
 7025SOL    HW132711   0.558   2.739   2.777  2.0388 -0.4817 -1.3210
 7025SOL    HW232712   0.668   2.830   2.741  1.2947  0.0043  0.1080
 7026SOL     OW32713   3.865   1.497   7.900 -0.0038 -0.4175 -0.5178
 7026SOL    HW132714   3.794   1.553   7.869  1.6270  1.0262 -1.6408
 7026SOL    HW232715   3.821   1.443   7.966 -0.8088  0.2279 -0.5314
 7027SOL     OW32716   2.817   4.164   4.890  0.5083  0.5245  0.2163
 7027SOL    HW132717   2.767   4.217   4.952 -0.7131  0.9866 -1.1777
 7027SOL    HW232718   2.884   4.229   4.867 -0.1925  1.6244  1.2758
 7028SOL     OW32719   2.394   1.364   7.723 -0.0702 -0.7031  0.0890
 7028SOL    HW132720   2.305   1.395   7.707 -0.1426 -0.0893  1.7057
 7028SOL    HW232721   2.430   1.449   7.750  0.1548 -0.4517 -0.9755
 7029SOL     OW32722   4.295   4.630   6.903 -0.0578  0.2368  0.3959
 7029SOL    HW132723   4.230   4.640   6.972 -0.5417  0.8776 -0.1565
 7029SOL    HW232724   4.369   4.664   6.953  0.5798 -2.2085  1.1402
 7030SOL     OW32725   0.141   3.164  14.421 -0.2061 -0.0808 -0.4454
 7030SOL    HW132726   0.079   3.121  14.361 -0.8068  0.8123 -0.4748
 7030SOL    HW232727   0.100   3.124  14.498  1.7595 -0.5906  0.3220
 7031SOL     OW32728   2.715   2.669   4.746 -0.6142 -0.2002 -0.1411
 7031SOL    HW132729   2.734   2.726   4.820  1.6583 -0.9370 -0.1500
 7031SOL    HW232730   2.801   2.627   4.745  0.3201  1.6860 -0.1155
 7032SOL     OW32731   0.281   2.781   2.882  0.4902 -0.2623 -0.3666
 7032SOL    HW132732   0.282   2.873   2.857 -1.4132  0.0183  0.5833
 7032SOL    HW232733   0.307   2.793   2.973  0.7137  2.3301 -0.7782
 7033SOL     OW32734   3.237   0.633  12.258  0.7821 -0.3730 -0.0892
 7033SOL    HW132735   3.173   0.590  12.315  1.4260  0.3386  1.1711
 7033SOL    HW232736   3.180   0.685  12.202  0.7258 -1.0577 -0.6584
 7034SOL     OW32737   1.033   1.504  10.294 -0.5751  0.0585  0.1033
 7034SOL    HW132738   0.970   1.458  10.238  0.6244 -0.7409 -0.5914
 7034SOL    HW232739   0.977   1.575  10.326  1.3481  0.9072  1.5761
 7035SOL     OW32740   4.425   2.302  10.002  0.0457 -0.2142  0.3348
 7035SOL    HW132741   4.408   2.225  10.056 -0.0159 -0.1118  0.4610
 7035SOL    HW232742   4.368   2.368  10.041 -1.0564 -0.5550 -0.7152
 7036SOL     OW32743   0.152   3.544   7.034 -0.3773 -0.0338  0.2774
 7036SOL    HW132744   0.229   3.541   6.977  0.0637  1.8543  0.7751
 7036SOL    HW232745   0.109   3.619   6.993  0.0782  1.2140  2.0756
 7037SOL     OW32746   0.878   0.831   6.566 -0.7177 -0.2678 -0.3610
 7037SOL    HW132747   0.813   0.890   6.602 -2.2037 -0.2269 -3.1147
 7037SOL    HW232748   0.901   0.885   6.491  0.5249 -0.5504 -0.1817
 7038SOL     OW32749   2.788   4.425   5.303  0.2125  0.4361 -0.1944
 7038SOL    HW132750   2.776   4.373   5.223  3.1326 -0.8915  0.2138
 7038SOL    HW232751   2.760   4.364   5.372 -1.5798 -1.4760 -2.6097
 7039SOL     OW32752   2.223   2.186   6.897  0.3905  0.0499 -0.2305
 7039SOL    HW132753   2.153   2.134   6.937 -0.2043  0.8191 -0.2758
 7039SOL    HW232754   2.276   2.211   6.973  1.4037  1.4150 -1.3933
 7040SOL     OW32755   2.387   2.304  10.886 -0.4371  0.2482 -0.2274
 7040SOL    HW132756   2.439   2.384  10.883  0.5730 -0.4048 -0.3604
 7040SOL    HW232757   2.313   2.323  10.943 -0.7357  0.2591 -0.6204
 7041SOL     OW32758   3.265   4.308   3.716  0.3289 -0.6774 -0.2741
 7041SOL    HW132759   3.276   4.402   3.731  3.5023 -1.1125  0.0723
 7041SOL    HW232760   3.230   4.299   3.805 -0.0570  1.1100 -0.2435
 7042SOL     OW32761   2.870   2.421   2.134 -0.3638  0.0868  0.0390
 7042SOL    HW132762   2.829   2.339   2.106  1.5859 -0.0928 -2.2695
 7042SOL    HW232763   2.832   2.484   2.074 -0.1857 -0.6014 -0.8092
 7043SOL     OW32764   2.364   3.450   1.928 -0.1853  0.5028  0.6582
 7043SOL    HW132765   2.323   3.443   2.015 -1.5560 -1.8099 -0.1724
 7043SOL    HW232766   2.288   3.473   1.875  1.1818  2.3296 -0.4945
 7044SOL     OW32767   3.912   3.535   8.794 -0.0176 -0.1358  0.3934
 7044SOL    HW132768   3.994   3.576   8.823  0.7875 -1.0183 -0.6245
 7044SOL    HW232769   3.853   3.590   8.846 -1.2077  0.6853 -1.8091
 7045SOL     OW32770   4.191   1.574   6.437  0.3456 -0.3286 -0.4206
 7045SOL    HW132771   4.178   1.515   6.512  1.3292  1.8610  1.4653
 7045SOL    HW232772   4.131   1.539   6.371  1.5190 -0.4564 -1.4052
 7046SOL     OW32773   2.432   3.267   8.375 -0.5953  0.5016 -0.3158
 7046SOL    HW132774   2.431   3.352   8.418 -2.6755  0.3782 -0.1650
 7046SOL    HW232775   2.522   3.241   8.396 -0.5758  1.2851  0.5353
 7047SOL     OW32776   3.740   3.116   1.361  0.1438 -0.0956 -0.3796
 7047SOL    HW132777   3.662   3.171   1.367  0.6967  0.4665  1.4820
 7047SOL    HW232778   3.798   3.167   1.417 -1.4033  1.1904  0.0701
 7048SOL     OW32779   2.139   0.606   4.481 -0.2469 -0.0224  0.3806
 7048SOL    HW132780   2.144   0.534   4.419 -2.9756  0.3014 -0.1911
 7048SOL    HW232781   2.207   0.661   4.441  0.0935  1.1285  2.5263
 7049SOL     OW32782   1.810   3.780   3.951 -0.2712  0.2116  0.0697
 7049SOL    HW132783   1.750   3.852   3.933  0.2721  0.4239 -0.8866
 7049SOL    HW232784   1.813   3.728   3.872 -1.0574  1.0984 -0.5422
 7050SOL     OW32785   1.538   4.707   0.531 -0.2801  0.0218  0.1021
 7050SOL    HW132786   1.619   4.721   0.580  0.3178 -0.9904 -0.5963
 7050SOL    HW232787   1.526   4.614   0.548  0.2871 -0.2483 -0.9679
 7051SOL     OW32788   1.736   3.016   6.097  0.3056  0.3454  0.7388
 7051SOL    HW132789   1.691   3.067   6.164 -1.3175 -0.3875  0.2227
 7051SOL    HW232790   1.665   2.997   6.035 -0.0850  1.3258  0.8891
 7052SOL     OW32791   0.385   2.978   0.029 -0.0187 -0.2417 -0.2354
 7052SOL    HW132792   0.430   2.910   0.079  2.2330  2.6034  1.6772
 7052SOL    HW232793   0.322   2.926  17.738  0.1722 -0.5191 -0.1896
 7053SOL     OW32794   3.872   2.189   7.142  0.3568 -0.0330  0.1237
 7053SOL    HW132795   3.872   2.099   7.111 -0.1320  0.3512 -0.9706
 7053SOL    HW232796   3.806   2.239   7.093 -1.6922 -1.4809  1.4139
 7054SOL     OW32797   1.614   3.238   2.873  0.1328 -0.1495  0.2595
 7054SOL    HW132798   1.673   3.282   2.934 -1.6057  1.0713  1.0498
 7054SOL    HW232799   1.619   3.286   2.791 -1.2200 -0.6654 -0.1339
 7055SOL     OW32800   4.076   2.821   7.525  0.3820  0.7740 -0.5451
 7055SOL    HW132801   4.092   2.726   7.528 -3.4767  0.1396  0.3774
 7055SOL    HW232802   4.023   2.829   7.445 -0.5940  0.8619  0.1042
 7056SOL     OW32803   2.215   0.097  16.534  0.7112  0.3990  0.0538
 7056SOL    HW132804   2.222   0.167  16.599  2.0567 -0.0953  0.4263
 7056SOL    HW232805   2.284   0.123  16.473  1.0886  0.1495  0.3732
 7057SOL     OW32806   1.149   0.986   8.810 -0.7363 -0.2794 -0.2672
 7057SOL    HW132807   1.155   0.897   8.776 -1.6456 -0.6722  0.5828
 7057SOL    HW232808   1.068   1.019   8.772 -0.0148  0.4549 -1.1516
 7058SOL     OW32809   3.746   0.952  14.000  0.0365 -0.0383  0.1435
 7058SOL    HW132810   3.815   0.910  13.949  0.0902 -1.0797  1.0754
 7058SOL    HW232811   3.769   1.045  13.999 -2.0894  0.4550 -1.4559
 7059SOL     OW32812   0.508   2.243  13.203  0.2761  0.3327  0.3512
 7059SOL    HW132813   0.540   2.332  13.214  1.8915 -0.5330  2.6067
 7059SOL    HW232814   0.560   2.209  13.130  0.2121 -0.6570  0.7687
 7060SOL     OW32815   4.298   4.568   5.916  0.4437 -0.0571 -0.0077
 7060SOL    HW132816   4.268   4.478   5.907  0.4462  0.0601 -1.1704
 7060SOL    HW232817   4.265   4.605   5.834  0.7738 -0.7761 -0.4682
 7061SOL     OW32818   0.493   2.428  16.551 -0.1355 -0.0825 -0.6326
 7061SOL    HW132819   0.529   2.352  16.597 -0.4259 -0.2839 -0.7362
 7061SOL    HW232820   0.410   2.444  16.596  0.8343 -0.8527  1.4499
 7062SOL     OW32821   0.704   0.274   9.738 -0.0568  0.1021  0.0973
 7062SOL    HW132822   0.785   0.255   9.785 -0.4011 -1.4848  0.0355
 7062SOL    HW232823   0.667   0.191   9.708  0.3997 -0.1519  0.2283
 7063SOL     OW32824   0.531   4.248  13.072 -0.9239 -0.0516 -0.6996
 7063SOL    HW132825   0.517   4.163  13.114  1.3217  0.5406  1.1828
 7063SOL    HW232826   0.520   4.311  13.142  1.7700 -0.2341 -0.1471
 7064SOL     OW32827   0.760   4.336   4.986  0.2234  0.1833  1.0238
 7064SOL    HW132828   0.821   4.348   4.914 -0.0876 -2.0960  0.3853
 7064SOL    HW232829   0.684   4.299   4.941  0.4841  0.2468  0.5358
 7065SOL     OW32830   2.586   2.600   9.207 -0.4235 -0.3949 -0.5104
 7065SOL    HW132831   2.513   2.632   9.154 -0.9311 -2.0674 -0.8234
 7065SOL    HW232832   2.571   2.507   9.226  1.6633 -0.5584  0.3884
 7066SOL     OW32833   2.903   1.157  10.505  0.6195  0.2177  0.3675
 7066SOL    HW132834   2.902   1.075  10.457 -4.1399 -1.1132  2.6901
 7066SOL    HW232835   2.996   1.178  10.513  0.2942  1.7292  0.3442
 7067SOL     OW32836   4.164   4.697   7.639  0.1779  0.3288 -0.5969
 7067SOL    HW132837   4.200   0.012   7.569 -0.6642 -1.3948 -2.3863
 7067SOL    HW232838   4.229   4.713   7.708 -0.5040  0.6632 -0.0228
 7068SOL     OW32839   3.923   4.504   5.152  0.3648  0.1837 -0.2165
 7068SOL    HW132840   3.990   4.487   5.086 -0.6421  3.0567 -1.9719
 7068SOL    HW232841   3.909   4.416   5.187 -0.2171  1.5317  2.9766
 7069SOL     OW32842   3.110   2.285  16.145  0.3221  0.1522 -0.3168
 7069SOL    HW132843   3.138   2.376  16.137  0.3903  0.3498  2.3338
 7069SOL    HW232844   3.028   2.283  16.195  1.5163  0.2448  1.5942
 7070SOL     OW32845   4.546   4.730   5.951  0.1892  0.2827 -0.1580
 7070SOL    HW132846   4.589   4.739   5.866 -0.4021 -0.9862 -0.5959
 7070SOL    HW232847   4.462   4.694   5.922  2.0647 -2.4518 -2.1872
 7071SOL     OW32848   3.799   2.346   3.400 -0.1545 -0.2998 -0.1380
 7071SOL    HW132849   3.706   2.325   3.401 -0.4817  1.1667 -0.8620
 7071SOL    HW232850   3.820   2.320   3.310  0.3810  0.6332 -0.2850
 7072SOL     OW32851   3.707   3.246   4.986  0.0808  0.1697 -0.5867
 7072SOL    HW132852   3.689   3.210   5.073  0.3597  1.8413  0.1828
 7072SOL    HW232853   3.723   3.171   4.930  0.1277  0.0934 -0.4711
 7073SOL     OW32854   0.335   2.937   5.869  0.2680  0.2710  0.1911
 7073SOL    HW132855   0.385   3.017   5.886  0.5849  0.2579 -0.6786
 7073SOL    HW232856   0.326   2.913   5.962 -3.5745  1.6024  0.1354
 7074SOL     OW32857   1.072   1.968  17.065  0.4539 -0.2342 -0.5977
 7074SOL    HW132858   1.035   1.882  17.045  1.0389 -0.1574 -2.0111
 7074SOL    HW232859   1.146   1.969  17.005  1.9389  2.5254  1.2710
 7075SOL     OW32860   4.631   2.667   5.060 -0.4853  0.2609  0.4654
 7075SOL    HW132861   4.615   2.693   5.151  4.5353  0.5406  1.2643
 7075SOL    HW232862   4.652   2.756   5.030 -0.7021  1.0394  2.6424
 7076SOL     OW32863   1.572   4.538   8.126  0.2928 -0.1349  0.1492
 7076SOL    HW132864   1.515   4.473   8.085  0.9860 -0.4043 -0.3926
 7076SOL    HW232865   1.516   4.614   8.142  0.1504 -0.5821  1.7641
 7077SOL     OW32866   0.560   4.157   4.118  0.6648  0.0441  0.2737
 7077SOL    HW132867   0.531   4.180   4.206  0.9628 -2.0685  0.9125
 7077SOL    HW232868   0.539   4.065   4.130  2.3501 -0.4928 -0.9753
 7078SOL     OW32869   3.988   2.172   3.761  0.0732  0.3620  0.5272
 7078SOL    HW132870   3.961   2.252   3.717  0.1611 -0.9649 -1.9381
 7078SOL    HW232871   4.062   2.141   3.710 -0.4957  0.3202 -0.2719
 7079SOL     OW32872   3.140   2.779   6.528 -0.0483  0.6776  0.1946
 7079SOL    HW132873   3.217   2.820   6.487  1.5380 -1.6293  0.8411
 7079SOL    HW232874   3.072   2.794   6.462  1.0215  1.4908 -0.7247
 7080SOL     OW32875   2.129   2.273   2.051  0.3574  0.4692 -0.3404
 7080SOL    HW132876   2.163   2.277   2.140  1.1011 -0.5418 -0.5731
 7080SOL    HW232877   2.164   2.353   2.012  1.2614  1.9798  3.6165
 7081SOL     OW32878   3.509   1.716  10.785  0.0429 -0.1323 -0.2802
 7081SOL    HW132879   3.483   1.693  10.875  1.3630 -1.7103 -0.3246
 7081SOL    HW232880   3.592   1.757  10.808  0.4827 -1.8315  1.1432
 7082SOL     OW32881   2.955   4.261  16.434 -0.0252  0.3931  0.3057
 7082SOL    HW132882   3.049   4.271  16.423 -0.3732  2.9476 -0.2402
 7082SOL    HW232883   2.945   4.214  16.517 -3.2082 -1.3815 -1.0607
 7083SOL     OW32884   2.885   1.758   1.852 -0.4547 -0.2344 -0.0827
 7083SOL    HW132885   2.851   1.777   1.940  0.7059 -3.6086  1.0885
 7083SOL    HW232886   2.978   1.746   1.872  0.5483  0.6948 -4.2117
 7084SOL     OW32887   2.081   2.486   3.781  0.5695  0.0856  0.2548
 7084SOL    HW132888   2.068   2.431   3.704 -2.2271  1.2809 -0.1379
 7084SOL    HW232889   2.145   2.433   3.828  2.0271  0.9873 -0.7270
 7085SOL     OW32890   0.526   2.366  16.285  0.2861 -0.6298  0.3087
 7085SOL    HW132891   0.484   2.380  16.370  3.3730  1.9858  1.4347
 7085SOL    HW232892   0.500   2.280  16.253  1.1537 -0.8226  0.1435
 7086SOL     OW32893   2.133   3.924   7.530 -0.4833 -0.2571 -0.3886
 7086SOL    HW132894   2.226   3.929   7.510 -0.4444 -0.4336 -0.2556
 7086SOL    HW232895   2.125   3.933   7.625 -0.5137  1.3431 -0.5467
 7087SOL     OW32896   4.235   0.768   6.262 -0.1893  0.1347  0.4059
 7087SOL    HW132897   4.302   0.715   6.219 -2.0676  0.5048 -3.0651
 7087SOL    HW232898   4.287   0.844   6.289  1.4078 -0.0547 -2.1588
 7088SOL     OW32899   1.089   1.189   9.483  0.6501  0.0033 -0.1447
 7088SOL    HW132900   1.119   1.268   9.437  0.8268  2.0814  3.4915
 7088SOL    HW232901   1.008   1.181   9.433 -0.6834 -3.2076  2.5506
 7089SOL     OW32902   1.562   1.189  13.779  0.9599  0.4108  0.8560
 7089SOL    HW132903   1.542   1.238  13.700 -2.0831  1.6094  2.3345
 7089SOL    HW232904   1.482   1.209  13.829 -0.6176 -1.5196 -0.8578
 7090SOL     OW32905   3.407   0.847   6.248 -0.3560 -0.5097  0.4146
 7090SOL    HW132906   3.410   0.892   6.163 -0.5152  0.5310  0.9660
 7090SOL    HW232907   3.333   0.894   6.286 -0.9746 -0.6981 -0.5565
 7091SOL     OW32908   4.548   4.251   7.973 -0.4256  0.4122  0.3590
 7091SOL    HW132909   4.453   4.252   7.981 -0.5792 -3.0682 -0.8634
 7091SOL    HW232910   4.576   4.321   8.031 -1.3364  1.3815 -0.3779
 7092SOL     OW32911   3.373   0.932   0.958 -0.0497 -0.2941 -0.0023
 7092SOL    HW132912   3.443   0.890   1.008  0.1889  0.6827  0.4991
 7092SOL    HW232913   3.304   0.868   0.976 -0.6417 -0.2128 -1.9701
 7093SOL     OW32914   2.011   0.405   2.192 -0.2501  0.2115  0.0301
 7093SOL    HW132915   2.003   0.427   2.285  2.3139 -0.2601  0.3554
 7093SOL    HW232916   1.981   0.484   2.147  1.9033  0.2013 -1.4011
 7094SOL     OW32917   1.393   0.587   7.325 -0.1337  1.0706 -0.5205
 7094SOL    HW132918   1.432   0.531   7.258 -0.3874  0.9931 -0.6037
 7094SOL    HW232919   1.428   0.674   7.309  2.0471  0.5008  1.0912
 7095SOL     OW32920   1.779   4.538   6.997  0.4520  0.0663 -0.4028
 7095SOL    HW132921   1.754   4.498   7.080 -1.5063  0.4435 -0.8006
 7095SOL    HW232922   1.796   4.462   6.942  3.0766 -0.4899  1.2059
 7096SOL     OW32923   2.801   2.906   5.683 -0.2241 -0.1491  0.0492
 7096SOL    HW132924   2.772   2.882   5.770  3.7123 -1.3572  1.0155
 7096SOL    HW232925   2.775   2.998   5.675  0.4009 -0.1401 -2.0213
 7097SOL     OW32926   4.530   0.439   3.085 -0.0449 -0.3932 -0.4779
 7097SOL    HW132927   4.606   0.388   3.112  1.8486  2.0563 -1.1497
 7097SOL    HW232928   4.540   0.459   2.992  0.1092 -1.0055 -0.5926
 7098SOL     OW32929   2.799   3.376   0.993  0.4527 -0.2463  0.4684
 7098SOL    HW132930   2.849   3.295   0.999 -1.6039 -1.5050  0.7254
 7098SOL    HW232931   2.835   3.409   0.910  3.6491 -1.9377  1.2106
 7099SOL     OW32932   0.780   0.574   0.182 -0.4257 -0.0269  0.6882
 7099SOL    HW132933   0.758   0.666   0.175  1.5448  0.2683 -1.8554
 7099SOL    HW232934   0.709   0.529   0.226  0.2570 -1.9588 -0.1429
 7100SOL     OW32935   0.980   2.105   4.415 -0.1793  0.3042 -0.2736
 7100SOL    HW132936   0.929   2.099   4.335  2.4649  0.9698 -1.9961
 7100SOL    HW232937   1.028   2.184   4.394 -0.0357  0.1991 -0.3367
 7101SOL     OW32938   0.299   0.962  14.857 -0.3018  0.0679  0.5512
 7101SOL    HW132939   0.286   1.048  14.818  0.0521 -0.6790 -1.2293
 7101SOL    HW232940   0.357   0.918  14.793 -0.7090  3.4152 -2.0905
 7102SOL     OW32941   1.163   1.169   0.288  0.0328  0.0018  0.3504
 7102SOL    HW132942   1.217   1.097   0.256  0.5003 -0.7653  2.8811
 7102SOL    HW232943   1.101   1.119   0.342 -2.3731  1.9704 -0.6022
 7103SOL     OW32944   2.506   0.098   6.740  0.2254  0.1576  0.0127
 7103SOL    HW132945   2.518   0.149   6.820  1.4838 -1.1542  0.6581
 7103SOL    HW232946   2.570   0.153   6.693 -1.9817  1.3707 -1.5950
 7104SOL     OW32947   4.511   3.138  13.018 -0.2256 -0.1871  0.1077
 7104SOL    HW132948   4.548   3.178  12.940 -3.0921  0.5397 -0.9032
 7104SOL    HW232949   4.437   3.199  13.024  0.7482  1.0871 -0.7073
 7105SOL     OW32950   1.660   4.655  13.457  0.3355 -0.1954 -1.0158
 7105SOL    HW132951   1.633   4.575  13.412  0.4506 -0.8309  0.0359
 7105SOL    HW232952   1.740   4.624  13.498  0.3480 -0.7751 -1.4842
 7106SOL     OW32953   4.658   1.236  11.726  0.2432  0.6573  0.1618
 7106SOL    HW132954   4.650   1.310  11.787  0.3919  0.2027  0.7332
 7106SOL    HW232955   4.692   1.282  11.649  0.6693 -2.7052 -1.6417
 7107SOL     OW32956   1.796   3.824   9.751 -0.0694  0.5131  0.6281
 7107SOL    HW132957   1.821   3.866   9.833  0.0287  0.4760  0.6171
 7107SOL    HW232958   1.873   3.825   9.695 -0.3346 -1.8236  0.2115
 7108SOL     OW32959   4.322   1.985   9.216  0.0212  0.5474 -0.0151
 7108SOL    HW132960   4.344   1.953   9.304  1.0267 -0.1087 -0.5016
 7108SOL    HW232961   4.404   2.035   9.207 -0.1743  1.1643  1.5611
 7109SOL     OW32962   3.459   1.466   6.334 -0.0772 -0.0231 -0.1139
 7109SOL    HW132963   3.492   1.453   6.245  0.3356  1.8838 -0.2298
 7109SOL    HW232964   3.457   1.374   6.361 -1.3443 -0.0071 -0.1303
 7110SOL     OW32965   0.910   3.784   3.492  0.2738  0.1057  0.5783
 7110SOL    HW132966   0.885   3.717   3.429  1.8575  0.2771 -0.2354
 7110SOL    HW232967   0.837   3.845   3.487  0.0564 -0.4015 -2.3008
 7111SOL     OW32968   2.287   0.094   1.817 -0.3270 -0.8553  0.5677
 7111SOL    HW132969   2.255   0.184   1.826  1.5193 -0.1448  0.0717
 7111SOL    HW232970   2.238   0.061   1.742 -3.8033  1.0682  2.0229
 7112SOL     OW32971   3.741   4.483   6.536 -0.1331  0.3001 -0.0897
 7112SOL    HW132972   3.776   4.442   6.616 -1.4160 -0.1458  0.2383
 7112SOL    HW232973   3.791   4.565   6.541  1.3283 -0.5656 -0.4476
 7113SOL     OW32974   0.403   3.563  14.344  0.2966 -0.0049 -0.8150
 7113SOL    HW132975   0.362   3.645  14.372  3.0970  0.6661  1.4193
 7113SOL    HW232976   0.334   3.498  14.333 -1.4457  1.5169  1.1866
 7114SOL     OW32977   2.863   2.291   2.639  0.5594  0.2569  0.3795
 7114SOL    HW132978   2.840   2.347   2.564  0.4438  1.0768  1.0327
 7114SOL    HW232979   2.952   2.317   2.663 -0.0197  1.6800  0.9781
 7115SOL     OW32980   3.110   2.380   8.074  0.0610  0.5743  0.0298
 7115SOL    HW132981   3.035   2.379   8.015 -0.1710  1.1791  0.3173
 7115SOL    HW232982   3.179   2.433   8.034 -0.3435  0.0715 -1.3047
 7116SOL     OW32983   1.385   4.315  17.627 -0.0121 -0.4581 -0.2468
 7116SOL    HW132984   1.390   4.371  17.705 -0.0957 -1.7153  0.6518
 7116SOL    HW232985   1.421   4.380  17.566 -2.0996  0.0516 -0.9278
 7117SOL     OW32986   0.209   2.029   7.451 -0.2686 -0.1538 -1.4991
 7117SOL    HW132987   0.163   2.113   7.461  0.5740 -0.1480  2.2062
 7117SOL    HW232988   0.174   1.995   7.369  0.3668  1.8647 -2.6188
 7118SOL     OW32989   3.291   3.048   6.627 -0.1170  0.4486  0.0280
 7118SOL    HW132990   3.353   3.004   6.686 -0.5168  0.0995  0.1881
 7118SOL    HW232991   3.207   3.016   6.660 -0.3243  0.3656 -0.5915
 7119SOL     OW32992   1.550   1.734   0.148 -0.1563  0.2432  0.5612
 7119SOL    HW132993   1.555   1.744   0.243 -1.0808 -0.3347  0.6692
 7119SOL    HW232994   1.459   1.709   0.132 -0.0474 -1.6750  2.8602
 7120SOL     OW32995   2.082   3.753  13.236 -0.0583  0.3185 -0.2941
 7120SOL    HW132996   2.102   3.831  13.185 -0.4922 -0.9242 -2.3334
 7120SOL    HW232997   1.987   3.755  13.245 -0.1626 -1.8539 -0.7550
 7121SOL     OW32998   4.336   4.287   7.789 -0.0455  0.0973  0.2844
 7121SOL    HW132999   4.302   4.350   7.725 -0.2084  0.3128  0.5885
 7121SOL    HW233000   4.311   4.324   7.873  0.8746  1.2580  0.0513
 7122SOL     OW33001   3.161   3.465  11.386 -0.2918 -0.6406 -0.7632
 7122SOL    HW133002   3.157   3.558  11.365 -1.9234 -0.8284 -1.3505
 7122SOL    HW233003   3.080   3.445  11.338  0.8894 -3.3508 -1.6219
 7123SOL     OW33004   0.539   4.105   0.862  0.0374 -0.1833 -0.2095
 7123SOL    HW133005   0.601   4.039   0.832 -1.9942 -2.2333  0.0808
 7123SOL    HW233006   0.592   4.158   0.922 -0.1873 -0.1391 -0.0488
 7124SOL     OW33007   2.674   4.007   2.173  0.2285  0.0702  0.0663
 7124SOL    HW133008   2.768   4.010   2.189 -0.0714  0.2983  1.7656
 7124SOL    HW233009   2.687   4.042   2.084  0.9896  1.4393  0.7227
 7125SOL     OW33010   1.437   4.432   8.448  0.7963  0.3930  0.3657
 7125SOL    HW133011   1.513   4.376   8.463 -1.7814 -2.7085  1.7412
 7125SOL    HW233012   1.376   4.359   8.442  2.9437 -1.2234 -2.0017
 7126SOL     OW33013   0.225   3.681  11.381  0.0677 -0.1853 -0.6067
 7126SOL    HW133014   0.186   3.603  11.341 -0.3223 -1.1595  1.7004
 7126SOL    HW233015   0.171   3.683  11.460 -0.7508 -1.7939 -1.1359
 7127SOL     OW33016   4.114   4.230  11.432 -0.0299  0.0287 -0.3080
 7127SOL    HW133017   4.091   4.294  11.364  0.7701  1.1482  0.4581
 7127SOL    HW233018   4.208   4.242  11.443  0.0490 -0.5100 -0.4260
 7128SOL     OW33019   1.315   1.107   1.556 -0.0077 -0.0830 -0.4411
 7128SOL    HW133020   1.316   1.024   1.603  0.9947 -0.2562 -0.7678
 7128SOL    HW233021   1.384   1.150   1.606 -0.1620 -0.5194  0.1592
 7129SOL     OW33022   3.114   2.353  11.169 -0.2840 -0.2286  0.1512
 7129SOL    HW133023   3.142   2.291  11.236  0.0514  1.6853  1.7828
 7129SOL    HW233024   3.157   2.434  11.198 -0.8112 -0.1664  0.7554
 7130SOL     OW33025   3.789   1.348   4.411 -0.0361  0.1498  0.3451
 7130SOL    HW133026   3.859   1.410   4.391  0.9899 -1.3805 -0.7844
 7130SOL    HW233027   3.748   1.377   4.492  0.8630 -0.4434  1.0120
 7131SOL     OW33028   3.391   2.851   6.407 -0.0439 -0.0739  0.7974
 7131SOL    HW133029   3.382   2.946   6.404 -1.4866 -0.2924 -1.6567
 7131SOL    HW233030   3.455   2.857   6.336 -0.7374  0.1482  0.1927
 7132SOL     OW33031   4.653   3.332   2.256  0.1185 -0.3350 -0.2887
 7132SOL    HW133032   4.737   3.287   2.270  0.2286 -0.4777 -1.4162
 7132SOL    HW233033   4.595   3.283   2.314 -0.8088  0.4251 -0.5751
 7133SOL     OW33034   1.504   0.415   7.107  0.3466 -0.2871 -0.4185
 7133SOL    HW133035   1.509   0.323   7.133  1.6953 -0.2652 -0.6163
 7133SOL    HW233036   1.572   0.410   7.040  0.1447  0.3921 -0.6727
 7134SOL     OW33037   1.681   0.725   0.363 -0.6532 -0.1098  0.0535
 7134SOL    HW133038   1.687   0.792   0.431 -0.5749 -1.6331  1.5342
 7134SOL    HW233039   1.683   0.784   0.288  2.5317 -0.4971 -0.1910
 7135SOL     OW33040   4.235   1.939   8.962 -0.5775  0.0615  0.3186
 7135SOL    HW133041   4.146   1.913   8.987 -0.1892 -1.7775 -0.2069
 7135SOL    HW233042   4.278   1.968   9.042  0.2149 -0.8553  0.2290
 7136SOL     OW33043   1.632   4.623   5.023 -0.0421  0.2252 -0.7224
 7136SOL    HW133044   1.548   4.623   5.069  0.1074  0.2208 -0.4494
 7136SOL    HW233045   1.596   4.623   4.934  2.9725 -0.2814 -1.9502
 7137SOL     OW33046   2.258   1.394  12.234  0.1953  0.3948  0.3199
 7137SOL    HW133047   2.313   1.395  12.156 -1.8774 -1.4866 -1.1648
 7137SOL    HW233048   2.204   1.315  12.222  2.8628 -1.2042 -1.1714
 7138SOL     OW33049   3.851   3.821   2.052  0.7866  0.1694  0.2320
 7138SOL    HW133050   3.829   3.767   1.976 -1.3354  1.3468 -0.0125
 7138SOL    HW233051   3.942   3.796   2.062  1.1872  1.0488 -1.2224
 7139SOL     OW33052   2.078   0.421   9.235  0.0632 -0.3797  0.2176
 7139SOL    HW133053   2.080   0.483   9.163 -0.1738 -0.2858  0.2919
 7139SOL    HW233054   2.027   0.345   9.205 -1.3635  0.1760  1.2175
 7140SOL     OW33055   2.908   4.237   4.289 -0.0156 -0.1467  0.6200
 7140SOL    HW133056   2.925   4.210   4.199 -0.1102 -0.5071  0.7130
 7140SOL    HW233057   2.825   4.283   4.281  0.2980  0.5912  1.5964
 7141SOL     OW33058   3.273   0.119   6.041  0.2379  0.1332 -0.0313
 7141SOL    HW133059   3.191   0.075   6.020  0.7952 -0.7801 -0.2908
 7141SOL    HW233060   3.271   0.183   5.970  1.3246  1.5704  1.2330
 7142SOL     OW33061   4.405   3.711   8.806 -0.6098  0.2585  0.2367
 7142SOL    HW133062   4.316   3.686   8.830  0.4126 -2.7124  0.9126
 7142SOL    HW233063   4.433   3.722   8.897  0.2805  0.8056 -0.0996
 7143SOL     OW33064   4.391   1.437   8.037  0.2160 -0.0158  0.0901
 7143SOL    HW133065   4.391   1.493   8.115 -2.2624 -0.5561  0.4575
 7143SOL    HW233066   4.465   1.380   8.059  0.4348  0.2772  0.1249
 7144SOL     OW33067   1.777   0.730  17.519 -0.4710  0.5565 -0.0035
 7144SOL    HW133068   1.814   0.664  17.578  0.7524  2.6316  1.5537
 7144SOL    HW233069   1.683   0.741  17.534 -0.7650 -1.9457  0.0618
 7145SOL     OW33070   3.977   3.490   4.027  0.1512  0.4182 -0.4293
 7145SOL    HW133071   3.899   3.436   4.013  0.6407 -0.4015  0.0077
 7145SOL    HW233072   4.045   3.426   4.009  0.8152  0.5810  1.4601
 7146SOL     OW33073   2.755   2.236   1.028 -0.9142  0.1805  0.1336
 7146SOL    HW133074   2.831   2.214   0.975 -0.6302  0.6979  0.3223
 7146SOL    HW233075   2.752   2.162   1.088 -0.4595  1.3241  1.5760
 7147SOL     OW33076   1.553   2.139   3.452  0.0724  0.2747 -0.0836
 7147SOL    HW133077   1.631   2.143   3.396 -0.0379 -1.3823 -0.3639
 7147SOL    HW233078   1.531   2.046   3.441  0.3231  0.0160  1.7394
 7148SOL     OW33079   2.301   3.230   3.835  0.3198 -0.0536 -0.0999
 7148SOL    HW133080   2.309   3.224   3.930  0.2556  1.2023 -0.0100
 7148SOL    HW233081   2.338   3.145   3.813 -1.4522 -1.0825  0.8962
 7149SOL     OW33082   1.295   4.264   5.203  0.1279  0.5602  0.3354
 7149SOL    HW133083   1.364   4.288   5.142  0.4703 -0.2069  0.4200
 7149SOL    HW233084   1.293   4.340   5.261 -1.0070  0.6312  0.1977
 7150SOL     OW33085   0.849   4.351   6.186 -0.1114 -0.0519 -0.5858
 7150SOL    HW133086   0.875   4.259   6.182 -1.2075 -0.2754 -2.5733
 7150SOL    HW233087   0.881   4.390   6.105 -0.0784  2.9936  0.9104
 7151SOL     OW33088   0.851   3.428  10.606 -0.2699  0.0785  0.0328
 7151SOL    HW133089   0.836   3.351  10.660 -1.0822 -0.0205 -0.3362
 7151SOL    HW233090   0.902   3.483  10.666  1.2336 -1.7450  0.4309
 7152SOL     OW33091   3.383   1.848   5.398 -0.1854 -0.0240  0.8303
 7152SOL    HW133092   3.475   1.844   5.426 -0.3420  0.1893  1.3800
 7152SOL    HW233093   3.394   1.922   5.338  1.0907 -1.6480 -0.9273
 7153SOL     OW33094   0.081   0.488   7.867 -0.1273 -0.1256  0.4339
 7153SOL    HW133095   0.120   0.436   7.937  0.7550 -0.9994 -0.7037
 7153SOL    HW233096   0.135   0.567   7.862  0.0688 -0.2753  0.1774
 7154SOL     OW33097   3.902   2.420   3.653 -0.2165  0.5037 -0.4639
 7154SOL    HW133098   3.817   2.434   3.696 -0.1492 -0.3535 -0.0498
 7154SOL    HW233099   3.865   2.392   3.569 -0.2866  3.2324 -1.3322
 7155SOL     OW33100   3.750   4.020   8.898  0.2678 -0.7824  0.3405
 7155SOL    HW133101   3.684   4.076   8.940  0.6399  0.8402 -1.2168
 7155SOL    HW233102   3.723   4.016   8.806 -0.4216  1.3206  0.4361
 7156SOL     OW33103   4.537   0.712   3.812  0.0861 -0.5507 -0.6964
 7156SOL    HW133104   4.531   0.773   3.885 -0.4285 -1.0508 -0.3195
 7156SOL    HW233105   4.569   0.764   3.738  1.9739 -0.4959  0.1682
 7157SOL     OW33106   0.083   2.079   3.070  0.1609  0.3954 -0.2242
 7157SOL    HW133107   0.098   1.985   3.076 -1.4417  0.0249 -2.0602
 7157SOL    HW233108   0.084   2.094   3.164 -0.4363  0.4490 -0.2228
 7158SOL     OW33109   2.631   3.856   8.952  0.1435 -0.1594 -0.4995
 7158SOL    HW133110   2.714   3.811   8.937  1.1620  0.8781  2.0116
 7158SOL    HW233111   2.624   3.914   8.876  0.3337 -0.5273 -0.8003
 7159SOL     OW33112   0.669   3.104   3.889 -0.1817  0.1776  0.0451
 7159SOL    HW133113   0.600   3.041   3.865  1.6548 -2.2674  1.2172
 7159SOL    HW233114   0.743   3.063   3.844  0.9706  0.3716  1.7623
 7160SOL     OW33115   2.713   3.413   1.440  0.0847 -0.3850  0.0483
 7160SOL    HW133116   2.651   3.484   1.455  1.5837  0.5275  1.8707
 7160SOL    HW233117   2.699   3.390   1.348 -0.7100 -1.2218  0.3730
 7161SOL     OW33118   0.515   1.423  11.056  0.0005  0.0263  0.9263
 7161SOL    HW133119   0.457   1.480  11.106  0.6001  0.4185  1.1730
 7161SOL    HW233120   0.602   1.460  11.069  0.7664 -0.7322 -2.1231
 7162SOL     OW33121   2.989   1.917   0.681 -0.0928  0.2757  0.0319
 7162SOL    HW133122   3.015   2.007   0.700 -0.5392  0.5035 -0.4348
 7162SOL    HW233123   3.030   1.904   0.596  0.4296  0.8849  0.1929
 7163SOL     OW33124   4.479   4.362   4.563 -0.1537 -0.0498 -0.1967
 7163SOL    HW133125   4.520   4.315   4.636  0.1210  1.1927  0.4638
 7163SOL    HW233126   4.530   4.438   4.535 -1.3090  0.8058  0.0234
 7164SOL     OW33127   0.538   2.393   5.807 -0.7472 -0.0813 -0.3462
 7164SOL    HW133128   0.467   2.424   5.862 -0.7987 -1.9708  0.6234
 7164SOL    HW233129   0.484   2.332   5.756 -2.2206  2.9126 -2.3657
 7165SOL     OW33130   2.220   1.298   8.670  0.1811  0.3502  0.1870
 7165SOL    HW133131   2.219   1.233   8.740 -0.0271 -0.0577 -0.1962
 7165SOL    HW233132   2.134   1.338   8.660  0.7367  0.9512 -2.2392
 7166SOL     OW33133   2.338   3.541   4.795 -0.2374  0.1982  0.8106
 7166SOL    HW133134   2.363   3.633   4.804  3.2164 -0.6599 -0.1652
 7166SOL    HW233135   2.306   3.514   4.882 -2.4844 -1.1091 -0.4210
 7167SOL     OW33136   3.772   4.376   3.037  0.3729 -0.3874 -0.0221
 7167SOL    HW133137   3.684   4.363   3.072 -0.1819  1.6154 -0.7073
 7167SOL    HW233138   3.825   4.404   3.111 -0.0081 -0.0524  0.1237
 7168SOL     OW33139   4.564   1.119  15.467  0.1996 -0.4364  0.4740
 7168SOL    HW133140   4.469   1.111  15.465  0.2301 -0.7652  0.4106
 7168SOL    HW233141   4.588   1.091  15.379 -1.7031  0.6560 -0.4045
 7169SOL     OW33142   3.547   3.808  14.727 -0.1701 -0.2930 -0.3274
 7169SOL    HW133143   3.490   3.766  14.662  0.4793 -0.4505 -0.8007
 7169SOL    HW233144   3.531   3.897  14.697 -1.7782 -0.9431 -1.4120
 7170SOL     OW33145   0.873   1.606   0.968  0.2149  0.2070  0.1387
 7170SOL    HW133146   0.968   1.609   0.979 -0.0047  1.7700  1.5063
 7170SOL    HW233147   0.852   1.695   0.939  1.4468 -0.1306 -1.8329
 7171SOL     OW33148   3.749   0.107  17.711 -0.1085  0.1597 -0.2936
 7171SOL    HW133149   3.663   0.105  17.669 -0.8617 -1.2207  1.3189
 7171SOL    HW233150   3.757   0.200  17.733 -1.2138  0.8005 -2.5610
 7172SOL     OW33151   1.384   1.410   2.979 -0.7609  0.1601 -0.0905
 7172SOL    HW133152   1.378   1.454   2.894  1.1821  0.0441 -0.2809
 7172SOL    HW233153   1.300   1.434   3.017 -0.0772 -0.1017  1.5880
 7173SOL     OW33154   3.242   2.369   2.443 -0.2590  0.2833  0.4367
 7173SOL    HW133155   3.181   2.298   2.461  1.7428 -0.8916  2.4959
 7173SOL    HW233156   3.312   2.351   2.506 -0.9201 -1.4631  0.6629
 7174SOL     OW33157   1.031   0.181  17.690  0.3854  0.5764 -0.1873
 7174SOL    HW133158   0.992   0.250  17.744  2.3369  0.5965  1.1874
 7174SOL    HW233159   1.094   0.157  17.757  2.7850  2.0961 -1.8946
 7175SOL     OW33160   1.052   0.344   8.185  0.3658 -0.0821  0.3255
 7175SOL    HW133161   1.127   0.403   8.179 -1.4316  2.2263  0.1324
 7175SOL    HW233162   0.983   0.402   8.150  0.9450  0.9283  0.8626
 7176SOL     OW33163   0.243   2.093   2.058 -0.1748 -0.3549  0.3424
 7176SOL    HW133164   0.194   2.080   1.977 -1.0091  0.2433  0.7559
 7176SOL    HW233165   0.325   2.132   2.028  0.2144 -1.5308 -0.1403
 7177SOL     OW33166   2.086   3.646   8.972 -0.1494 -0.8296 -0.0713
 7177SOL    HW133167   2.149   3.585   8.934  0.6336 -0.1536  0.1444
 7177SOL    HW233168   2.140   3.691   9.037 -0.8672 -0.1682  0.0755
 7178SOL     OW33169   4.019   4.734   2.143 -0.4311  0.4063  0.0667
 7178SOL    HW133170   4.066   4.651   2.134 -4.2073 -1.9346  2.0436
 7178SOL    HW233171   3.930   4.709   2.165  0.3419 -1.4661  1.0510
 7179SOL     OW33172   3.043   0.653  10.886  0.4916 -0.1655  0.0765
 7179SOL    HW133173   3.122   0.695  10.919 -0.4588  0.2536  1.7648
 7179SOL    HW233174   3.087   0.597  10.821 -0.6892  0.8620 -1.5835
 7180SOL     OW33175   2.799   2.097   8.314 -0.1469  0.7008 -0.1788
 7180SOL    HW133176   2.799   2.009   8.353  1.2146  1.1295  0.7557
 7180SOL    HW233177   2.888   2.110   8.282 -0.0128  0.2660  0.0190
 7181SOL     OW33178   1.723   4.026   3.844  0.4911 -0.8486 -0.1670
 7181SOL    HW133179   1.811   3.990   3.858 -0.0028 -0.9508  2.8763
 7181SOL    HW233180   1.727   4.072   3.761  0.5534  1.0313  0.8816
 7182SOL     OW33181   0.897   4.626   4.856  0.2433 -0.5748  0.1411
 7182SOL    HW133182   0.948   4.550   4.886  0.0513 -0.4147  0.8578
 7182SOL    HW233183   0.958   4.697   4.875  0.7986 -1.2196  0.7810
 7183SOL     OW33184   3.231   4.624   0.511 -0.0229 -0.0766 -0.1107
 7183SOL    HW133185   3.222   4.706   0.462  1.5020 -0.6999 -1.4583
 7183SOL    HW233186   3.304   4.647   0.567  1.0949 -1.6582 -0.8954
 7184SOL     OW33187   3.652   0.820  14.217  0.0875  0.5107 -0.4718
 7184SOL    HW133188   3.700   0.868  14.149  1.5272  2.1457  1.6924
 7184SOL    HW233189   3.578   0.877  14.240 -0.3808  0.4854 -1.9020
 7185SOL     OW33190   3.578   2.855   6.179 -0.5249  0.1186  0.2913
 7185SOL    HW133191   3.571   2.950   6.165 -1.9392 -0.1414 -0.7128
 7185SOL    HW233192   3.561   2.833   6.087  0.3776  2.1703 -0.3781
 7186SOL     OW33193   3.645   0.904   3.693 -0.2497 -0.7289  0.0797
 7186SOL    HW133194   3.612   0.843   3.627 -1.6889 -1.4721  1.4794
 7186SOL    HW233195   3.658   0.853   3.773 -2.6997 -0.4352  0.6680
 7187SOL     OW33196   4.320   3.645  14.447 -0.7463 -0.0245  0.2878
 7187SOL    HW133197   4.304   3.641  14.353  1.9703 -1.3206 -0.1289
 7187SOL    HW233198   4.349   3.554  14.459 -1.1221  0.1881  2.8390
 7188SOL     OW33199   1.475   0.160   7.200 -0.2029  0.4435 -0.6337
 7188SOL    HW133200   1.553   0.108   7.220  0.6918  1.6166 -1.0403
 7188SOL    HW233201   1.403   0.112   7.240  0.8484 -0.7807 -0.2392
 7189SOL     OW33202   0.253   0.667   1.246 -0.0970 -0.0410 -0.5410
 7189SOL    HW133203   0.261   0.743   1.187  0.2354  0.2824 -0.0860
 7189SOL    HW233204   0.253   0.594   1.185  2.7428  0.5243 -1.2007
 7190SOL     OW33205   0.890   2.145   0.030 -0.7244 -0.1994  0.6049
 7190SOL    HW133206   0.805   2.187   0.041 -1.4765 -1.1989 -1.2176
 7190SOL    HW233207   0.933   2.213  17.735 -2.1405 -0.0629 -0.3970
 7191SOL     OW33208   3.124   1.327   6.913  0.0588 -0.1642  0.0555
 7191SOL    HW133209   3.122   1.237   6.883  0.9400 -0.4342  0.8345
 7191SOL    HW233210   3.154   1.320   7.003  0.2042  1.4127  0.1318
 7192SOL     OW33211   2.177   2.690  16.566 -0.5569 -0.0687 -0.5043
 7192SOL    HW133212   2.245   2.716  16.503 -1.3104 -1.8622 -2.0414
 7192SOL    HW233213   2.204   2.734  16.646  0.3564 -2.0289  0.2373
 7193SOL     OW33214   2.933   1.605   3.692  0.1888  0.8250  0.2914
 7193SOL    HW133215   2.906   1.523   3.733  0.4594  1.1326  1.0783
 7193SOL    HW233216   2.852   1.640   3.656  0.5099  2.8292  1.5089
 7194SOL     OW33217   4.507   2.275  15.376 -0.5442 -0.0269  0.1119
 7194SOL    HW133218   4.557   2.245  15.452 -1.0591  2.7053  1.5412
 7194SOL    HW233219   4.442   2.205  15.377 -3.0292  2.2911  0.5890
 7195SOL     OW33220   4.438   3.458   0.634  0.0788 -0.0339 -1.2104
 7195SOL    HW133221   4.401   3.502   0.557 -0.8617  1.0481 -0.1373
 7195SOL    HW233222   4.461   3.532   0.689 -1.7463  0.6178 -1.3097
 7196SOL     OW33223   4.380   3.810  11.870  0.3092  0.0064 -0.1494
 7196SOL    HW133224   4.363   3.863  11.792  0.4057  0.8362  0.3959
 7196SOL    HW233225   4.291   3.777  11.887  0.4644  0.6660  1.9218
 7197SOL     OW33226   0.998   3.234   2.601 -0.6052 -0.5580 -0.1079
 7197SOL    HW133227   1.047   3.263   2.678  0.3999  0.3519 -1.0915
 7197SOL    HW233228   1.060   3.270   2.537 -1.2408  1.8791  0.6291
 7198SOL     OW33229   0.068   4.054   6.291  0.2719 -0.5194 -0.5541
 7198SOL    HW133230   0.050   4.148   6.286 -0.6001 -0.7111 -1.1841
 7198SOL    HW233231   0.117   4.044   6.372 -0.6839 -1.3070 -0.0666
 7199SOL     OW33232   1.118   0.249   5.985 -0.0134  0.1763  0.1167
 7199SOL    HW133233   1.182   0.314   5.955 -0.9682  0.8036 -0.5675
 7199SOL    HW233234   1.147   0.234   6.075  0.3989 -0.8374 -0.1866
 7200SOL     OW33235   2.599   3.070   2.527  0.0451  0.7325 -0.1648
 7200SOL    HW133236   2.604   3.161   2.557 -1.4415  0.6562  0.3024
 7200SOL    HW233237   2.642   3.069   2.442 -0.0116 -0.2511 -0.1763
 7201SOL     OW33238   4.002   3.359   2.483 -0.4476 -0.1222  0.6184
 7201SOL    HW133239   3.987   3.436   2.538 -0.8209  1.4109 -1.6354
 7201SOL    HW233240   3.917   3.355   2.439  0.0010  1.3301 -0.3386
 7202SOL     OW33241   1.308   1.393   9.094  0.3163 -0.0317  0.6264
 7202SOL    HW133242   1.344   1.429   9.013  1.6718 -0.0564  1.2073
 7202SOL    HW233243   1.277   1.306   9.069  0.4098  0.5433 -1.5198
 7203SOL     OW33244   2.137   3.871  10.129  0.0573  0.5171  0.5996
 7203SOL    HW133245   2.202   3.921  10.080 -0.1943  1.4670  1.2412
 7203SOL    HW233246   2.189   3.816  10.187 -0.7333 -0.2776  0.5545
 7204SOL     OW33247   1.429   1.910   3.801  0.3877 -0.5793 -0.4663
 7204SOL    HW133248   1.401   1.919   3.892  1.3293 -0.4494 -0.1862
 7204SOL    HW233249   1.371   1.973   3.759 -0.2385 -0.2809  0.8451
 7205SOL     OW33250   3.769   0.487  13.188 -0.0655 -0.3936 -0.1388
 7205SOL    HW133251   3.722   0.570  13.187 -0.5494 -0.6225  2.6239
 7205SOL    HW233252   3.860   0.509  13.170  0.0609 -1.5639 -0.8719
 7206SOL     OW33253   3.645   2.840   1.791  0.1865  0.3793 -0.2331
 7206SOL    HW133254   3.651   2.875   1.702 -0.0775  1.5059  0.1955
 7206SOL    HW233255   3.711   2.772   1.781  0.4916  0.7134 -0.5155
 7207SOL     OW33256   0.524   1.559   4.820  0.8461 -0.6979  0.4108
 7207SOL    HW133257   0.504   1.587   4.909 -0.8650  0.7737 -0.4228
 7207SOL    HW233258   0.577   1.635   4.796 -2.3192  0.6754 -2.2296
 7208SOL     OW33259   2.552   3.954   3.191 -0.2558  1.1035  0.6493
 7208SOL    HW133260   2.644   3.981   3.198  1.1666 -3.1439 -1.8931
 7208SOL    HW233261   2.510   4.035   3.222  1.1012  1.6938  0.9465
 7209SOL     OW33262   2.084   0.798   2.368  0.3900 -0.1985  0.4207
 7209SOL    HW133263   2.105   0.848   2.289  1.0304 -1.7758 -0.3918
 7209SOL    HW233264   2.103   0.865   2.433 -0.8919  1.0437 -0.4596
 7210SOL     OW33265   0.645   0.306   8.115  0.2914  1.1092 -0.3668
 7210SOL    HW133266   0.641   0.339   8.205 -1.5858  0.8919 -0.3537
 7210SOL    HW233267   0.600   0.376   8.066 -1.4484  0.3797  0.1740
 7211SOL     OW33268   3.546   0.744  13.276  0.3646  0.3448 -0.0908
 7211SOL    HW133269   3.478   0.676  13.286  0.0212  0.8797  1.1472
 7211SOL    HW233270   3.499   0.811  13.226  1.2109  2.4387  1.9446
 7212SOL     OW33271   1.998   3.973   2.068 -0.0614  0.4971  0.2168
 7212SOL    HW133272   2.081   3.977   2.114 -0.0873  2.3500  0.1099
 7212SOL    HW233273   1.939   3.921   2.122 -2.1092  0.8722 -1.6191
 7213SOL     OW33274   3.696   0.124   4.415 -0.7951 -0.2452 -0.7606
 7213SOL    HW133275   3.728   0.213   4.432 -0.2767 -0.5882  0.0462
 7213SOL    HW233276   3.757   0.071   4.466 -1.2167 -0.7870 -0.8182
 7214SOL     OW33277   3.304   2.445   4.007 -0.7494 -1.2390  0.1339
 7214SOL    HW133278   3.261   2.360   3.997  1.1551 -2.0627 -1.0354
 7214SOL    HW233279   3.397   2.424   3.994 -0.5216 -1.1090  1.5806
 7215SOL     OW33280   3.698   0.779   1.578 -0.2903  0.4316  0.1070
 7215SOL    HW133281   3.781   0.754   1.618  0.0312 -0.3366 -1.0317
 7215SOL    HW233282   3.658   0.837   1.642 -0.1327 -0.6118  1.1530
 7216SOL     OW33283   3.318   1.225   4.891 -0.4793 -0.0676  0.3606
 7216SOL    HW133284   3.353   1.314   4.892 -1.2112  0.2564 -3.3942
 7216SOL    HW233285   3.398   1.178   4.868 -0.5739  0.3570 -0.8177
 7217SOL     OW33286   3.134   0.627   4.868  0.5800  0.6897  0.2284
 7217SOL    HW133287   3.080   0.548   4.876 -1.3162  1.6524 -2.7752
 7217SOL    HW233288   3.091   0.689   4.926 -0.5466  0.9246 -0.8419
 7218SOL     OW33289   2.083   2.279  14.942 -0.1757 -0.0140  0.5311
 7218SOL    HW133290   2.134   2.225  14.881 -0.9477 -1.7278  1.3775
 7218SOL    HW233291   2.146   2.345  14.970  0.0421 -0.2291  0.5512
 7219SOL     OW33292   1.915   1.713   8.113  0.1161 -0.0318 -0.1719
 7219SOL    HW133293   1.869   1.644   8.067  1.1054 -2.8664  3.0712
 7219SOL    HW233294   1.852   1.784   8.113 -0.2956 -0.3981  1.3118
 7220SOL     OW33295   3.037   4.074   3.177  0.1566 -0.1341 -0.3060
 7220SOL    HW133296   3.025   4.091   3.083 -3.1018  0.6917  0.2575
 7220SOL    HW233297   3.086   4.153   3.200  2.3611 -1.7991  0.7644
 7221SOL     OW33298   0.990   1.722  15.476  0.0369 -0.4494 -0.1229
 7221SOL    HW133299   1.039   1.704  15.396 -0.5920 -0.6887 -0.4556
 7221SOL    HW233300   0.942   1.803  15.459  0.8092  0.4124  1.7529
 7222SOL     OW33301   3.342   2.256   6.996 -0.5089  0.3724 -0.7036
 7222SOL    HW133302   3.284   2.313   6.946  1.7056  2.4900 -0.8626
 7222SOL    HW233303   3.331   2.298   7.081  0.7557 -0.7457  0.0241
 7223SOL     OW33304   1.670   1.840  16.713 -0.5873 -0.2460  0.1052
 7223SOL    HW133305   1.739   1.890  16.670  0.3726 -0.9475  0.8246
 7223SOL    HW233306   1.661   1.765  16.654  1.3696  1.1447 -1.9574
 7224SOL     OW33307   3.250   2.648  15.685 -0.3146  0.5260  0.9075
 7224SOL    HW133308   3.281   2.625  15.773  2.3859  1.6262  0.2467
 7224SOL    HW233309   3.249   2.561  15.645 -0.0436  0.2784  1.4260
 7225SOL     OW33310   0.143   0.670   4.286 -0.1374  0.1606 -0.2865
 7225SOL    HW133311   0.062   0.719   4.272  0.2821  0.6736 -0.8727
 7225SOL    HW233312   0.207   0.725   4.241  2.1846 -2.8000 -0.6437
 7226SOL     OW33313   1.035   3.292   6.212 -0.2172 -0.1146  0.0601
 7226SOL    HW133314   1.045   3.384   6.187 -0.8731  0.0082  0.2491
 7226SOL    HW233315   1.004   3.296   6.302 -0.7966 -0.0615 -0.1374
 7227SOL     OW33316   0.304   0.780   6.516 -0.0548  0.8429 -0.0325
 7227SOL    HW133317   0.293   0.765   6.610  2.1270 -1.4125 -0.1267
 7227SOL    HW233318   0.397   0.758   6.512 -0.1108  0.5043  0.5545
 7228SOL     OW33319   3.793   1.306   4.815 -0.4099  0.3332  0.4399
 7228SOL    HW133320   3.868   1.248   4.828 -0.7346 -0.3723 -0.8653
 7228SOL    HW233321   3.782   1.334   4.906 -0.8903 -0.9642  0.7795
 7229SOL     OW33322   2.428   0.321   1.108 -0.3054 -0.5327  0.2371
 7229SOL    HW133323   2.341   0.288   1.129 -2.2827  3.0193 -2.3095
 7229SOL    HW233324   2.437   0.311   1.013  1.9492 -1.9049  0.6122
 7230SOL     OW33325   3.278   0.687   5.173  0.1508 -0.1462 -0.1820
 7230SOL    HW133326   3.357   0.689   5.119 -0.4481  0.2690 -1.0496
 7230SOL    HW233327   3.225   0.762   5.144  0.2398  0.0592  0.1817
 7231SOL     OW33328   2.824   0.894  11.889 -0.0052 -0.1064 -0.3090
 7231SOL    HW133329   2.910   0.858  11.866 -0.8825 -1.0599 -2.1107
 7231SOL    HW233330   2.834   0.989  11.884  1.8352 -0.2872 -0.2711
 7232SOL     OW33331   1.094   0.915   2.870  0.4028  0.6310 -0.2108
 7232SOL    HW133332   1.091   0.849   2.802 -2.2686  0.0735  0.4694
 7232SOL    HW233333   1.093   0.855   2.944 -0.0380 -0.8205 -1.4019
 7233SOL     OW33334   0.561   0.842  11.407 -0.1797  1.4027 -0.0106
 7233SOL    HW133335   0.568   0.802  11.320 -0.8526 -0.5996  0.8666
 7233SOL    HW233336   0.543   0.760  11.451  0.0013  1.3191 -0.0936
 7234SOL     OW33337   1.150   1.121  15.309 -0.0828  0.0539 -0.2950
 7234SOL    HW133338   1.227   1.066  15.293 -0.2236 -1.2319  3.5139
 7234SOL    HW233339   1.082   1.058  15.285 -0.0587 -0.4165  0.8553
 7235SOL     OW33340   1.671   0.389   6.847 -0.0568 -0.0205  0.5333
 7235SOL    HW133341   1.752   0.385   6.898 -0.9922 -2.9598  1.8443
 7235SOL    HW233342   1.704   0.367   6.759 -0.6821  1.8249 -0.1535
 7236SOL     OW33343   4.025   2.848   0.429  0.2081  0.5385  0.0847
 7236SOL    HW133344   4.051   2.819   0.516  1.2245 -1.7188 -0.9614
 7236SOL    HW233345   4.057   2.775   0.375 -2.0627  0.5483 -1.2364
 7237SOL     OW33346   3.352   1.285  12.408 -0.1610 -0.7955 -0.4652
 7237SOL    HW133347   3.395   1.206  12.442  2.1411  0.3673 -0.7554
 7237SOL    HW233348   3.319   1.321  12.490  0.1001  1.9144 -1.5670
 7238SOL     OW33349   3.770   1.792   5.406 -0.3528  0.7919  0.0287
 7238SOL    HW133350   3.849   1.827   5.447  0.0237  1.1792 -1.0349
 7238SOL    HW233351   3.809   1.712   5.371 -2.3366 -0.1329 -0.0390
 7239SOL     OW33352   1.161   1.182   7.028 -0.3135 -0.2593  0.0072
 7239SOL    HW133353   1.177   1.112   7.091  0.7880 -0.6137 -0.6517
 7239SOL    HW233354   1.108   1.132   6.966 -0.0975  0.9287 -1.1445
 7240SOL     OW33355   2.033   1.942   2.974  0.0191  0.3186  0.1145
 7240SOL    HW133356   2.027   1.848   2.993 -1.0578  0.3405 -0.1177
 7240SOL    HW233357   2.088   1.961   3.050 -1.4255  0.7879  1.0494
 7241SOL     OW33358   0.714   1.469   4.436 -0.1944  0.1515  0.2174
 7241SOL    HW133359   0.745   1.399   4.493  0.5427  1.2561  1.1839
 7241SOL    HW233360   0.781   1.534   4.457  0.7141 -0.8019  0.2473
 7242SOL     OW33361   1.943   4.208   7.166 -0.2543 -0.0098  0.3117
 7242SOL    HW133362   2.026   4.241   7.133  0.5203 -1.0180  1.2554
 7242SOL    HW233363   1.959   4.162   7.248 -3.2382 -1.6221 -0.0007
 7243SOL     OW33364   4.158   2.590   7.118  0.0821 -0.3485 -0.5429
 7243SOL    HW133365   4.081   2.610   7.066  0.5812  0.7268 -0.8618
 7243SOL    HW233366   4.152   2.494   7.114 -0.5740 -0.3252 -0.0923
 7244SOL     OW33367   2.272   3.234  10.324  0.3562  0.1059 -0.0487
 7244SOL    HW133368   2.336   3.245  10.395 -1.4282  0.3347  1.4982
 7244SOL    HW233369   2.223   3.315  10.330 -0.7078 -0.5716  0.2806
 7245SOL     OW33370   1.510   1.818   0.958  0.0974 -0.8282  0.2580
 7245SOL    HW133371   1.466   1.787   1.037  0.9766 -1.2652  0.5824
 7245SOL    HW233372   1.512   1.910   0.984 -0.1290 -0.6776 -0.2589
 7246SOL     OW33373   4.071   1.466   1.655  0.3712 -0.1067 -0.1689
 7246SOL    HW133374   3.979   1.438   1.657  0.8275 -1.2975  3.6115
 7246SOL    HW233375   4.088   1.426   1.569 -0.2571 -0.6457 -0.0441
 7247SOL     OW33376   2.098   4.358   3.697 -0.0487  0.3523 -0.4287
 7247SOL    HW133377   2.105   4.286   3.633  1.6465  2.0181 -2.1278
 7247SOL    HW233378   2.062   4.432   3.649  1.6023 -0.3410 -2.7530
 7248SOL     OW33379   3.748   4.666   2.216 -0.1187 -0.1578 -0.2495
 7248SOL    HW133380   3.684   4.731   2.190 -0.7310  0.4175  2.6503
 7248SOL    HW233381   3.741   4.593   2.155  0.5325  0.1298 -0.6758
 7249SOL     OW33382   0.389   4.280   7.029 -0.2730 -0.3925 -0.0676
 7249SOL    HW133383   0.449   4.239   6.966  1.7563  1.9152  0.3900
 7249SOL    HW233384   0.308   4.233   7.008  1.1829 -2.9157 -0.0534
 7250SOL     OW33385   2.330   0.087   3.876 -0.5638 -0.1578 -0.1961
 7250SOL    HW133386   2.383   0.043   3.809 -1.4356 -1.7558  0.1589
 7250SOL    HW233387   2.392   0.096   3.948  0.2264  0.3738 -0.9482
 7251SOL     OW33388   1.287   0.251   6.692  0.2940  1.0900 -0.3723
 7251SOL    HW133389   1.296   0.156   6.703  1.9543  1.6433  3.1992
 7251SOL    HW233390   1.275   0.287   6.780 -1.4265  1.5658 -0.8148
 7252SOL     OW33391   0.005   1.469   8.074  0.1344  0.2650  0.0609
 7252SOL    HW133392   4.681   1.424   8.018 -0.8040  1.3549  0.2767
 7252SOL    HW233393   4.712   1.558   8.077 -1.0775 -0.2481  1.7024
 7253SOL     OW33394   2.662   3.403   1.898  0.1027  0.2923 -0.6429
 7253SOL    HW133395   2.567   3.399   1.909  0.2039 -0.4152 -0.0034
 7253SOL    HW233396   2.696   3.322   1.860 -1.0457  0.3917 -1.8574
 7254SOL     OW33397   1.388   0.450  17.270  0.0742  0.4402 -0.7751
 7254SOL    HW133398   1.461   0.508  17.249 -0.1786  1.5585  1.4480
 7254SOL    HW233399   1.422   0.397  17.342 -1.0461  0.3120 -0.3379
 7255SOL     OW33400   2.419   2.626   5.343  0.1279  0.3337  0.3198
 7255SOL    HW133401   2.380   2.548   5.385  1.4076 -1.0207 -1.0289
 7255SOL    HW233402   2.347   2.682   5.315  1.4687  2.4895  1.1648
 7256SOL     OW33403   3.067   4.302  17.426 -0.0351  0.1804  0.0526
 7256SOL    HW133404   3.011   4.309  17.349  0.9968 -0.0968 -0.7340
 7256SOL    HW233405   3.001   4.295  17.494 -0.4305 -1.7726 -0.5376
 7257SOL     OW33406   4.639   1.106   5.427  0.0222  0.4663  0.3943
 7257SOL    HW133407   4.600   1.158   5.497 -0.5209 -2.6764  2.4369
 7257SOL    HW233408   4.561   1.058   5.399 -0.0171 -0.4310  2.0480
 7258SOL     OW33409   2.987   1.155   4.535  0.1141 -0.0342  0.5615
 7258SOL    HW133410   2.928   1.081   4.544  0.6562 -0.6113 -0.7072
 7258SOL    HW233411   3.009   1.175   4.626  0.9121  0.2646  0.3018
 7259SOL     OW33412   4.347   4.310   6.363 -0.2103 -0.3733 -0.8406
 7259SOL    HW133413   4.257   4.335   6.382  0.0534 -0.4221  0.5348
 7259SOL    HW233414   4.365   4.396   6.326  0.8379 -0.9292 -1.6223
 7260SOL     OW33415   1.824   3.834   2.475 -0.0035  0.5515  0.0754
 7260SOL    HW133416   1.780   3.895   2.416  0.2297 -0.4371 -1.1293
 7260SOL    HW233417   1.906   3.882   2.490  0.6306  0.1160 -1.9944
 7261SOL     OW33418   2.224   3.835   1.569 -0.1551  0.0222 -0.5305
 7261SOL    HW133419   2.176   3.852   1.650  1.4335 -1.3224  0.6799
 7261SOL    HW233420   2.238   3.923   1.535  2.4528 -0.9658 -1.9775
 7262SOL     OW33421   2.933   3.960   2.216 -0.2420  0.0330  0.1692
 7262SOL    HW133422   3.007   3.967   2.276 -0.2851  2.9644 -0.1079
 7262SOL    HW233423   2.938   3.866   2.198 -0.3850  0.2021 -0.7406
 7263SOL     OW33424   2.484   1.827   3.857 -0.8079 -0.2112 -0.5942
 7263SOL    HW133425   2.468   1.780   3.939 -0.2948 -0.2721 -0.5323
 7263SOL    HW233426   2.407   1.883   3.849 -0.5773  0.5313  2.5539
 7264SOL     OW33427   0.521   4.100  11.785 -0.1616 -0.1421 -0.1231
 7264SOL    HW133428   0.547   4.151  11.708 -1.0888  1.4133  0.6031
 7264SOL    HW233429   0.426   4.103  11.783 -0.1464 -0.1870 -0.7972
 7265SOL     OW33430   4.597   4.263   6.118  0.1162  0.0930  0.5978
 7265SOL    HW133431   4.651   4.268   6.197  0.6795  1.5584  0.1199
 7265SOL    HW233432   4.604   4.352   6.085 -1.7239  0.4521  1.2032
 7266SOL     OW33433   1.429   4.114   1.570 -0.5153 -0.0492  0.1139
 7266SOL    HW133434   1.499   4.175   1.546  0.6626  0.0728  3.8452
 7266SOL    HW233435   1.465   4.059   1.639  1.2062  2.2829  1.0723
 7267SOL     OW33436   1.267   0.639   4.171  0.3749 -0.1012 -0.2394
 7267SOL    HW133437   1.185   0.681   4.197  0.2936  0.8378 -1.9761
 7267SOL    HW233438   1.259   0.644   4.075  1.7189 -1.1937 -0.4083
 7268SOL     OW33439   3.974   2.383   3.967 -0.2004 -0.0033  0.2200
 7268SOL    HW133440   4.064   2.372   3.998 -0.5636 -2.0368  0.6153
 7268SOL    HW233441   3.951   2.292   3.946  1.2456 -0.7351  1.7953
 7269SOL     OW33442   2.952   1.346   5.420  0.2069 -0.0615 -0.6739
 7269SOL    HW133443   2.904   1.429   5.423 -0.0253 -0.1457 -2.6283
 7269SOL    HW233444   2.895   1.288   5.369 -0.5364 -1.7627  2.0794
 7270SOL     OW33445   3.674   1.384   0.328 -0.6224  0.1548  0.5769
 7270SOL    HW133446   3.594   1.375   0.276 -0.2693  0.4622 -0.0132
 7270SOL    HW233447   3.738   1.363   0.260 -0.9474 -2.1569  0.9890
 7271SOL     OW33448   4.608   3.045  16.033 -0.0249  0.3704  0.1178
 7271SOL    HW133449   4.592   3.006  15.947 -0.0659  0.4919  0.0700
 7271SOL    HW233450   4.693   3.010  16.061 -0.6653 -1.7356 -0.6015
 7272SOL     OW33451   0.897   0.760   7.467  0.3102  0.2871 -0.7875
 7272SOL    HW133452   0.885   0.854   7.485 -0.7361 -0.3516  1.8791
 7272SOL    HW233453   0.860   0.761   7.379 -2.2431  0.6457  0.2747
 7273SOL     OW33454   2.125   2.451   0.193  0.5464 -0.7495  0.0215
 7273SOL    HW133455   2.110   2.439   0.099 -2.4047 -0.0929  0.4156
 7273SOL    HW233456   2.188   2.523   0.204 -1.2917  0.8384  0.1043
 7274SOL     OW33457   0.151   4.431   8.002 -0.0886 -0.2824 -0.8379
 7274SOL    HW133458   0.121   4.410   7.914 -1.8548 -1.3059  0.0068
 7274SOL    HW233459   0.075   4.414   8.059 -0.4402  0.2096 -1.1570
 7275SOL     OW33460   3.149   2.426   8.534 -0.3056 -0.0414  0.0126
 7275SOL    HW133461   3.210   2.477   8.481 -0.8769 -0.0965 -0.6939
 7275SOL    HW233462   3.208   2.368   8.582  1.1390 -0.0653 -1.8005
 7276SOL     OW33463   1.784   0.065   2.324 -0.0813 -0.6682  0.6477
 7276SOL    HW133464   1.821   0.024   2.246 -1.0940 -0.9776  0.3343
 7276SOL    HW233465   1.753   0.146   2.283 -1.7603 -2.2036 -1.0597
 7277SOL     OW33466   3.245   0.988   3.351  0.2427 -0.2894  0.9249
 7277SOL    HW133467   3.236   1.000   3.445  1.8750  0.8081  0.9366
 7277SOL    HW233468   3.337   1.005   3.333  0.4724 -1.3594  1.0962
 7278SOL     OW33469   0.606   3.881   4.716 -0.3475 -0.0532 -0.3026
 7278SOL    HW133470   0.631   3.795   4.751 -1.8107  0.4980  2.1120
 7278SOL    HW233471   0.511   3.865   4.712 -0.5819  1.3480 -0.1661
 7279SOL     OW33472   2.958   2.058  14.426  0.4302 -0.8004 -0.3587
 7279SOL    HW133473   2.968   2.030  14.335  1.0006 -2.9152  0.3522
 7279SOL    HW233474   2.950   2.153  14.419 -1.4345 -0.9964 -0.7100
 7280SOL     OW33475   2.650   2.163   2.714 -0.5930 -0.2951 -0.1101
 7280SOL    HW133476   2.730   2.206   2.684  1.1190 -2.0461  1.9554
 7280SOL    HW233477   2.675   2.107   2.787 -1.1861  0.5752  0.7577
 7281SOL     OW33478   4.299   2.476   4.511  0.0761  0.2571 -0.1392
 7281SOL    HW133479   4.242   2.552   4.524 -0.0009 -0.0489  1.3357
 7281SOL    HW233480   4.242   2.401   4.529  1.1974 -0.7533 -0.8493
 7282SOL     OW33481   0.839   2.029   8.363  0.0521  0.3961  0.1105
 7282SOL    HW133482   0.851   2.083   8.285 -0.3667  0.9221  0.4098
 7282SOL    HW233483   0.907   1.962   8.356 -1.8567 -1.2830 -2.5079
 7283SOL     OW33484   2.821   0.405   7.794  0.4323  0.8602  0.1630
 7283SOL    HW133485   2.763   0.459   7.847 -1.0793 -0.3048 -0.3102
 7283SOL    HW233486   2.857   0.474   7.739  2.3189  0.8198  1.3153
 7284SOL     OW33487   0.569   1.298  14.893  0.0089 -0.1037  0.1090
 7284SOL    HW133488   0.567   1.393  14.880  2.4238  0.0408  0.9305
 7284SOL    HW233489   0.491   1.284  14.839  0.6831 -0.0162 -0.8912
 7285SOL     OW33490   0.396   3.199   7.205  0.4278  0.4864 -0.2972
 7285SOL    HW133491   0.408   3.143   7.282 -0.2762 -0.0429 -0.5718
 7285SOL    HW233492   0.345   3.268   7.248 -1.8051 -0.6293 -1.1096
 7286SOL     OW33493   1.792   1.630  10.791 -0.6324  0.1511 -0.2067
 7286SOL    HW133494   1.733   1.701  10.767 -1.5582  0.2443  2.3448
 7286SOL    HW233495   1.849   1.673  10.854 -0.1872 -0.7758  0.0269
 7287SOL     OW33496   3.476   1.672   5.790 -0.1604 -0.3594 -0.0629
 7287SOL    HW133497   3.409   1.608   5.766 -0.3892  0.2621 -1.1063
 7287SOL    HW233498   3.483   1.651   5.883  0.6614  0.7599  0.1281
 7288SOL     OW33499   1.268   0.688   8.817  0.0915  0.1885  0.8867
 7288SOL    HW133500   1.347   0.659   8.862  0.2887  1.4238  1.3331
 7288SOL    HW233501   1.250   0.601   8.782  3.3807  0.1007 -0.6202
 7289SOL     OW33502   1.132   4.057   9.951  0.0743  0.3980 -0.2556
 7289SOL    HW133503   1.119   4.091   9.863  0.3376  0.9246 -0.0860
 7289SOL    HW233504   1.071   3.983   9.953 -1.1315  1.3930 -0.9133
 7290SOL     OW33505   2.244   2.799   7.938  0.7235  0.1709 -0.1339
 7290SOL    HW133506   2.308   2.814   7.868  0.0121  0.1482 -0.7949
 7290SOL    HW233507   2.177   2.767   7.878  0.1615 -0.5532  0.8867
 7291SOL     OW33508   2.229   3.043   0.092 -0.1096 -0.0155  0.0079
 7291SOL    HW133509   2.301   3.095   0.127  0.0566 -2.3868  3.1807
 7291SOL    HW233510   2.188   3.103   0.029  2.4273 -0.2503 -1.8464
 7292SOL     OW33511   0.139   2.806   9.724  0.2013  0.1743 -0.1374
 7292SOL    HW133512   0.199   2.880   9.737  2.6653 -2.0745  1.1544
 7292SOL    HW233513   0.060   2.858   9.736 -0.4602 -1.3218  1.8635
 7293SOL     OW33514   0.025   1.390  15.070  0.5669  0.4311  0.4162
 7293SOL    HW133515   0.120   1.400  15.071  0.8435 -1.8812 -1.9307
 7293SOL    HW233516   0.016   1.400  14.975 -0.7213 -1.0007  0.3750
 7294SOL     OW33517   3.718   0.261   0.307 -0.3055  0.5221 -0.1188
 7294SOL    HW133518   3.673   0.198   0.250 -1.0588  0.1104  0.9288
 7294SOL    HW233519   3.755   0.202   0.372 -0.1309  0.5833 -0.1635
 7295SOL     OW33520   3.970   1.927   5.549  0.0685  0.2927  0.7474
 7295SOL    HW133521   3.967   2.023   5.545 -1.9357  0.2153  0.3380
 7295SOL    HW233522   4.064   1.915   5.536  0.2199  3.9748 -1.6981
 7296SOL     OW33523   3.934   1.660   3.538 -0.2722 -0.2041  0.0041
 7296SOL    HW133524   3.994   1.732   3.558 -1.9635  1.4141 -0.6895
 7296SOL    HW233525   3.915   1.671   3.444  2.7480  2.2812 -0.3188
 7297SOL     OW33526   2.549   2.130  12.073  0.4433 -0.0143  0.0276
 7297SOL    HW133527   2.584   2.209  12.030  0.8172 -0.5962 -0.7411
 7297SOL    HW233528   2.584   2.064  12.012 -0.2190  0.8863 -1.3323
 7298SOL     OW33529   2.085   1.960   4.738 -0.2543  0.0811  0.7332
 7298SOL    HW133530   1.992   1.976   4.754  0.0066 -0.9248  3.3681
 7298SOL    HW233531   2.129   2.045   4.735 -2.1944  0.9879 -1.4632
 7299SOL     OW33532   3.621   1.557  15.382  0.1839 -0.2826 -0.4807
 7299SOL    HW133533   3.620   1.489  15.315 -0.9357 -1.2311  0.4924
 7299SOL    HW233534   3.714   1.551  15.403  0.2860 -2.3650 -1.5152
 7300SOL     OW33535   0.258   3.052   2.879 -0.5153  0.2317 -0.1868
 7300SOL    HW133536   0.262   3.123   2.943  0.5714  0.8624 -0.9582
 7300SOL    HW233537   0.318   3.081   2.811 -0.6661  3.2167  0.9725
 7301SOL     OW33538   3.386   0.311  11.817 -0.2073 -0.5588 -0.1956
 7301SOL    HW133539   3.362   0.321  11.724  2.5850  2.1966 -0.6162
 7301SOL    HW233540   3.403   0.404  11.831 -0.3995 -0.7205  1.0800
 7302SOL     OW33541   4.237   1.613   7.668  0.3220  0.1932  0.4669
 7302SOL    HW133542   4.214   1.556   7.594  1.1873 -0.7946  0.9690
 7302SOL    HW233543   4.247   1.543   7.733  2.7213 -2.2475 -2.5188
 7303SOL     OW33544   2.187   4.362   5.037  0.4473 -0.7811 -0.5194
 7303SOL    HW133545   2.248   4.353   5.111 -0.8576 -0.6959  0.5500
 7303SOL    HW233546   2.157   4.449   5.060  1.4131 -1.1345  2.0402
 7304SOL     OW33547   4.102   4.633   7.078 -0.1052 -0.1912  0.2987
 7304SOL    HW133548   4.076   4.544   7.102 -1.7373  0.0126 -0.7781
 7304SOL    HW233549   4.067   4.688   7.149 -0.0255 -1.6145  1.4497
 7305SOL     OW33550   1.895   4.481   7.592  0.7087  0.0651  0.2419
 7305SOL    HW133551   1.977   4.529   7.605 -0.3094  1.5753  1.0342
 7305SOL    HW233552   1.848   4.526   7.662 -0.6190 -2.6388  1.1217
 7306SOL     OW33553   0.245   0.711  13.437 -0.0218  0.3615 -0.2016
 7306SOL    HW133554   0.270   0.764  13.362  0.0437  0.0006 -0.4326
 7306SOL    HW233555   0.183   0.768  13.483 -0.4780  0.1091 -0.5085
 7307SOL     OW33556   0.832   4.275  10.557  0.2142 -0.4861 -0.2855
 7307SOL    HW133557   0.883   4.242  10.483 -1.2599 -1.2288 -0.9715
 7307SOL    HW233558   0.842   4.204  10.621 -0.1551  0.2828  0.6242
 7308SOL     OW33559   2.712   3.354   7.666 -0.0898  0.0325 -0.1624
 7308SOL    HW133560   2.656   3.288   7.625 -0.9497  0.0688  0.9280
 7308SOL    HW233561   2.654   3.429   7.649  3.4387  2.6352 -0.6016
 7309SOL     OW33562   0.122   1.071   5.739  0.2274 -0.0732  0.1987
 7309SOL    HW133563   0.100   1.097   5.828  2.6506 -0.9599  1.0675
 7309SOL    HW233564   0.123   0.977   5.759  0.3807  0.0992  1.0011
 7310SOL     OW33565   1.201   2.112   9.075  0.4318 -0.7464 -0.5445
 7310SOL    HW133566   1.111   2.080   9.075  1.0257 -2.4004  0.8499
 7310SOL    HW233567   1.244   2.026   9.071  0.0286 -1.0842  2.4540
 7311SOL     OW33568   3.939   3.167  10.865 -0.1638 -0.4892 -0.7192
 7311SOL    HW133569   3.935   3.154  10.960 -0.6520 -1.9730 -0.9340
 7311SOL    HW233570   3.928   3.080  10.825 -1.4674 -1.3745  1.5464
 7312SOL     OW33571   2.632   3.235  12.824 -0.1045 -0.1019  0.3719
 7312SOL    HW133572   2.538   3.228  12.839 -0.5017  2.5351 -0.8488
 7312SOL    HW233573   2.626   3.241  12.729  1.8651 -1.3544  0.1571
 7313SOL     OW33574   0.263   3.505  16.623  0.2342  0.2181  0.1485
 7313SOL    HW133575   0.353   3.512  16.656 -0.8244  2.1110  2.6500
 7313SOL    HW233576   0.289   3.484  16.534  0.5965  0.8726  0.0960
 7314SOL     OW33577   3.545   4.713   5.359  0.7115  0.1697  0.4780
 7314SOL    HW133578   3.508   4.633   5.395 -2.7641  2.7234  2.6447
 7314SOL    HW233579   3.465   0.025   5.354 -0.1927 -1.2945 -0.3183
 7315SOL     OW33580   0.823   3.165  12.450 -0.8074  0.2766 -0.0379
 7315SOL    HW133581   0.853   3.152  12.360 -1.5095 -0.0753 -0.2227
 7315SOL    HW233582   0.733   3.197  12.451 -1.2797 -1.0624  0.5589
 7316SOL     OW33583   1.635   2.636   3.553 -0.0222 -0.7770  0.3144
 7316SOL    HW133584   1.615   2.642   3.647 -0.3213 -0.1394  0.2117
 7316SOL    HW233585   1.720   2.593   3.552  0.1246 -0.4578 -0.8849
 7317SOL     OW33586   2.821   0.569   4.914  0.0103  0.9371 -0.3003
 7317SOL    HW133587   2.881   0.503   4.949 -1.3101  0.2770  0.6977
 7317SOL    HW233588   2.819   0.544   4.822 -2.6338 -0.5439  0.1603
 7318SOL     OW33589   0.303   4.313   5.561 -0.3252  0.6182  0.1715
 7318SOL    HW133590   0.260   4.385   5.515  1.8424  1.7852 -0.0635
 7318SOL    HW233591   0.236   4.245   5.569 -0.2305  0.7949  2.4837
 7319SOL     OW33592   2.117   1.056   5.219 -0.2696  0.1293  0.4661
 7319SOL    HW133593   2.213   1.062   5.218 -0.1942 -1.0686  0.4387
 7319SOL    HW233594   2.094   1.110   5.294 -2.3381 -0.0194 -0.0726
 7320SOL     OW33595   3.517   4.726  11.694  0.0003  0.3222 -0.2956
 7320SOL    HW133596   3.538   4.728  11.787 -0.8022 -0.9427 -0.0970
 7320SOL    HW233597   3.576   4.658  11.661 -2.1707 -0.8926 -1.6553
 7321SOL     OW33598   3.325   0.315   4.466 -0.5492 -0.2277 -0.7279
 7321SOL    HW133599   3.354   0.262   4.392  3.0662 -3.1420  2.7827
 7321SOL    HW233600   3.413   0.333   4.501 -0.2860  0.0265 -1.5265
 7322SOL     OW33601   0.347   3.452   9.269  0.3094  0.2153 -0.2468
 7322SOL    HW133602   0.287   3.381   9.293  1.0708 -0.0368  0.9347
 7322SOL    HW233603   0.433   3.417   9.244 -0.0381 -0.1316 -0.9491
 7323SOL     OW33604   0.274   1.650  10.393 -0.3513  0.2156  0.2957
 7323SOL    HW133605   0.368   1.645  10.377 -0.9024 -2.3558 -2.1802
 7323SOL    HW233606   0.234   1.594  10.326  0.0750 -0.5642  0.6874
 7324SOL     OW33607   3.224   0.707   5.726 -0.5111  0.3283 -0.6154
 7324SOL    HW133608   3.256   0.650   5.657 -0.5737 -1.1537  0.5729
 7324SOL    HW233609   3.130   0.690   5.736  0.1584 -3.0980 -0.2533
 7325SOL     OW33610   4.495   2.048   5.315  0.0865 -0.3618 -0.4021
 7325SOL    HW133611   4.488   2.124   5.257  1.7842 -0.3612 -0.6165
 7325SOL    HW233612   4.491   1.979   5.248  0.8158 -0.5555 -0.2470
 7326SOL     OW33613   3.794   0.553   3.539  0.8026 -0.0384 -0.4640
 7326SOL    HW133614   3.815   0.462   3.559 -0.3309 -0.1238  0.3445
 7326SOL    HW233615   3.750   0.579   3.620  2.9319  0.4675  0.5359
 7327SOL     OW33616   0.042   2.635  14.122  0.0792 -0.0079  0.7825
 7327SOL    HW133617   0.095   2.599  14.051  1.0129 -0.2970  1.6203
 7327SOL    HW233618   0.080   2.600  14.203  1.3028 -0.3989  0.0371
 7328SOL     OW33619   0.946   0.007   5.581  0.1885 -0.9629 -0.2590
 7328SOL    HW133620   0.869   4.711   5.536  1.2493  0.4149 -3.1675
 7328SOL    HW233621   0.975   0.061   5.508 -1.4391 -0.1754 -0.3183
 7329SOL     OW33622   1.241   1.633   4.023 -0.4421 -0.0094 -0.1066
 7329SOL    HW133623   1.210   1.722   4.042  0.7118  0.0244  1.6188
 7329SOL    HW233624   1.200   1.581   4.092  3.7873  1.1604  3.3373
 7330SOL     OW33625   2.203   1.854   2.583  0.1740  0.2791 -0.3075
 7330SOL    HW133626   2.221   1.937   2.539  0.0980  0.3104 -0.2790
 7330SOL    HW233627   2.194   1.874   2.676  0.7142 -0.2684 -0.1350
 7331SOL     OW33628   3.682   2.549  10.731  0.1160 -0.3760  0.1521
 7331SOL    HW133629   3.727   2.515  10.654 -3.1510  1.4112 -2.5169
 7331SOL    HW233630   3.624   2.478  10.758  1.3823 -1.3761  0.2933
 7332SOL     OW33631   3.657   0.618  13.868  0.3218  0.5411  0.0844
 7332SOL    HW133632   3.660   0.572  13.952  0.8119  1.0081  0.3193
 7332SOL    HW233633   3.584   0.679  13.882 -0.8021 -0.8571  0.2494
 7333SOL     OW33634   2.840   3.789   3.442 -0.1099 -0.0869  0.5356
 7333SOL    HW133635   2.760   3.762   3.488 -0.9848 -1.8139 -2.0009
 7333SOL    HW233636   2.831   3.884   3.445  0.2292 -0.1297  3.0734
 7334SOL     OW33637   0.673   4.009   9.780  0.3965 -0.3024 -0.2770
 7334SOL    HW133638   0.680   4.090   9.830 -3.0878 -0.9309  1.2410
 7334SOL    HW233639   0.764   3.996   9.754  0.2990  1.1032 -1.2996
 7335SOL     OW33640   4.432   1.532   8.499 -0.1850 -0.4321 -0.3871
 7335SOL    HW133641   4.439   1.472   8.573 -1.7235  1.4033  1.2381
 7335SOL    HW233642   4.518   1.532   8.457  0.0686 -0.2607  0.1288
 7336SOL     OW33643   0.153   2.449   7.014  0.1673  0.1546 -0.7135
 7336SOL    HW133644   0.231   2.481   6.969  0.2302 -1.4236 -1.7225
 7336SOL    HW233645   0.101   2.529   7.003  1.3991  1.1997  1.1247
 7337SOL     OW33646   1.447   2.137   4.880 -0.0142  0.4810 -0.1591
 7337SOL    HW133647   1.460   2.050   4.844  0.8260  0.7469 -0.5063
 7337SOL    HW233648   1.503   2.197   4.830  1.8556 -0.2163  1.0865
 7338SOL     OW33649   2.140   4.170  12.301 -0.0943  0.2939 -0.6312
 7338SOL    HW133650   2.157   4.223  12.379 -0.7637  0.8737 -0.8734
 7338SOL    HW233651   2.116   4.230  12.231  2.2166  2.3671  0.3559
 7339SOL     OW33652   2.063   0.110  17.679 -0.6236 -0.0989  0.2489
 7339SOL    HW133653   2.117   0.144  17.608  1.4928 -1.2919  1.3022
 7339SOL    HW233654   1.990   0.077  17.627 -2.1948  1.5453  1.3903
 7340SOL     OW33655   2.081   3.293  11.991  0.3308 -0.9791 -0.1106
 7340SOL    HW133656   2.136   3.249  11.927 -0.1047  1.9276 -2.4822
 7340SOL    HW233657   2.014   3.319  11.928  0.2345 -0.8361  0.0523
 7341SOL     OW33658   4.036   2.947   4.421  0.0446 -0.4209  0.3293
 7341SOL    HW133659   4.016   3.036   4.394  0.4273  0.1226  1.8688
 7341SOL    HW233660   4.006   2.904   4.341 -0.7523 -1.7086  1.3106
 7342SOL     OW33661   4.101   1.057   4.208  0.3584  0.4312  0.0543
 7342SOL    HW133662   4.192   1.058   4.177  0.4456  0.7257  0.3164
 7342SOL    HW233663   4.048   1.088   4.135  0.6433  2.2624  0.6176
 7343SOL     OW33664   3.491   2.422   0.764  0.2439 -0.6940 -0.5682
 7343SOL    HW133665   3.465   2.360   0.696  0.0397  1.0070 -2.0430
 7343SOL    HW233666   3.574   2.445   0.721  0.5308 -0.0297  0.3533
 7344SOL     OW33667   1.020   2.452   5.581 -0.5439  0.2158 -0.1004
 7344SOL    HW133668   1.010   2.537   5.538  0.5693  0.5408  0.2859
 7344SOL    HW233669   0.929   2.429   5.601 -0.4715  1.5627  1.7430
 7345SOL     OW33670   0.272   3.866  11.178 -0.3827 -0.0362 -0.5079
 7345SOL    HW133671   0.221   3.807  11.234 -0.7305  1.0467  0.3162
 7345SOL    HW233672   0.320   3.920  11.240 -0.8358  0.1276 -0.2953
 7346SOL     OW33673   4.606   0.482   2.811 -0.0433 -0.0291 -0.5566
 7346SOL    HW133674   4.562   0.415   2.758 -0.5724  0.8726 -1.2526
 7346SOL    HW233675   4.586   0.563   2.765  0.0359  0.8550  0.9715
 7347SOL     OW33676   3.209   1.480  10.418 -0.1865 -0.0493 -0.2976
 7347SOL    HW133677   3.198   1.538  10.493 -0.5292  0.7693 -0.9806
 7347SOL    HW233678   3.147   1.517  10.356  1.2753  0.5189 -1.4392
 7348SOL     OW33679   2.768   1.815   1.456  0.1711 -0.6733 -0.4146
 7348SOL    HW133680   2.691   1.787   1.407 -0.7726  0.2314  0.5478
 7348SOL    HW233681   2.729   1.811   1.543 -0.6096 -1.3166 -0.7977
 7349SOL     OW33682   3.199   1.106   3.110  0.1302 -0.7928 -0.2765
 7349SOL    HW133683   3.291   1.130   3.118 -0.0360 -0.5214  0.7326
 7349SOL    HW233684   3.191   1.072   3.199 -1.8973 -1.4040 -0.6841
 7350SOL     OW33685   4.041   0.438   1.946  0.2132 -0.3335 -0.3155
 7350SOL    HW133686   3.977   0.505   1.971  1.2017  0.9084 -1.0764
 7350SOL    HW233687   3.995   0.356   1.932 -2.5624  1.6733 -2.6676
 7351SOL     OW33688   0.572   0.243  16.222  0.0932 -0.3591 -0.1673
 7351SOL    HW133689   0.610   0.327  16.196 -0.7705 -0.2978 -1.2542
 7351SOL    HW233690   0.601   0.188  16.149  1.3892 -0.5793  0.5092
 7352SOL     OW33691   0.704   3.611  13.109 -0.0672  0.6130  0.7686
 7352SOL    HW133692   0.745   3.567  13.035  1.1680  1.0214  1.2024
 7352SOL    HW233693   0.722   3.704  13.098 -1.8934  0.8248 -0.4311
 7353SOL     OW33694   1.831   1.109   1.390  0.5710  0.2050 -0.2215
 7353SOL    HW133695   1.751   1.060   1.406  1.8399 -1.1873  1.8686
 7353SOL    HW233696   1.897   1.052   1.430  0.6138  0.0699 -0.4896
 7354SOL     OW33697   2.364   3.936  13.760 -0.6830 -0.3341 -0.3819
 7354SOL    HW133698   2.384   3.886  13.838  0.2642  0.6776  0.0257
 7354SOL    HW233699   2.318   4.007  13.805  0.3486  0.8061 -1.1124
 7355SOL     OW33700   3.445   3.083  13.866 -0.1448  0.1442  0.2801
 7355SOL    HW133701   3.480   3.027  13.934 -0.6809 -0.5567 -0.0178
 7355SOL    HW233702   3.482   3.165  13.897 -0.5536  0.7660 -0.8482
 7356SOL     OW33703   1.601   4.141   8.203  0.3510  0.1738  0.0402
 7356SOL    HW133704   1.683   4.091   8.206  2.2554  3.3924  1.9304
 7356SOL    HW233705   1.618   4.182   8.118  0.2262  1.1658  0.4949
 7357SOL     OW33706   3.343   1.691  10.578 -0.0727  0.3480 -0.0593
 7357SOL    HW133707   3.306   1.778  10.595  1.0091  0.6536  0.7592
 7357SOL    HW233708   3.372   1.671  10.667 -1.3167 -0.4749  0.1551
 7358SOL     OW33709   3.418   2.161   4.026 -0.2613 -0.3025 -0.4474
 7358SOL    HW133710   3.466   2.197   3.951  0.2740 -1.3235 -0.5882
 7358SOL    HW233711   3.350   2.119   3.974  0.6864 -0.8735 -1.2258
 7359SOL     OW33712   0.248   3.311  12.035  0.4993 -1.2359  0.1256
 7359SOL    HW133713   0.181   3.270  11.980 -1.7488  2.9755 -0.2819
 7359SOL    HW233714   0.200   3.390  12.061 -1.4658 -1.9680 -1.2214
 7360SOL     OW33715   3.087   1.096   1.966 -0.5962  0.6461 -0.3694
 7360SOL    HW133716   3.023   1.149   2.013 -0.1381  0.4010  0.5211
 7360SOL    HW233717   3.106   1.151   1.890  0.0367 -0.7524 -1.2138
 7361SOL     OW33718   1.376   3.008   8.519 -0.9282  0.1227  0.4805
 7361SOL    HW133719   1.366   3.103   8.528  0.9964  0.6506 -2.9098
 7361SOL    HW233720   1.471   2.996   8.527 -0.4149  4.4128  0.7239
 7362SOL     OW33721   4.555   3.949   8.768 -0.3082  0.3200  0.9896
 7362SOL    HW133722   4.519   4.037   8.772  0.5261  0.8500 -3.4310
 7362SOL    HW233723   4.484   3.890   8.792 -1.1285  1.0785  0.4307
 7363SOL     OW33724   3.772   0.379   2.232 -0.1890  0.4586  0.2021
 7363SOL    HW133725   3.695   0.428   2.204 -0.1846 -0.0719 -0.7481
 7363SOL    HW233726   3.800   0.425   2.311  1.6684 -2.0178  0.9785
 7364SOL     OW33727   4.373   0.702  13.055 -0.0115  0.0611  0.5462
 7364SOL    HW133728   4.347   0.780  13.007 -1.4012  0.0160  1.2156
 7364SOL    HW233729   4.468   0.697  13.048 -0.3277 -1.3226 -2.6846
 7365SOL     OW33730   4.048   1.120   6.896  0.3177  0.6338 -0.2619
 7365SOL    HW133731   3.989   1.149   6.965  1.0258  0.3337  0.4697
 7365SOL    HW233732   4.085   1.040   6.932  0.3639  1.4540  1.5036
 7366SOL     OW33733   1.060   3.234  11.729 -0.7569 -0.0751 -0.2130
 7366SOL    HW133734   0.975   3.262  11.763 -0.0037  0.5180  1.2100
 7366SOL    HW233735   1.114   3.265  11.802  1.1544 -1.2194 -1.1349
 7367SOL     OW33736   2.945   4.047   5.287 -0.1685  0.3274 -0.4378
 7367SOL    HW133737   2.994   4.129   5.287  0.1216  0.1546  0.6053
 7367SOL    HW233738   2.962   4.005   5.202 -0.1276  2.1275 -1.3216
 7368SOL     OW33739   3.175   2.503   2.866  0.1460  0.0177  0.3666
 7368SOL    HW133740   3.173   2.450   2.946  0.2662  0.0942  0.4218
 7368SOL    HW233741   3.217   2.440   2.808  0.5781  1.0733 -0.4778
 7369SOL     OW33742   4.121   3.143   8.286 -0.0267 -0.3727  0.5159
 7369SOL    HW133743   4.183   3.210   8.256  0.6627 -1.9149 -1.5587
 7369SOL    HW233744   4.090   3.185   8.366  1.7331  2.3260 -0.2042
 7370SOL     OW33745   4.469   3.177   6.349  0.1693  0.2916 -0.2116
 7370SOL    HW133746   4.419   3.098   6.368  2.2774 -0.8098  0.8381
 7370SOL    HW233747   4.460   3.233   6.426 -2.0029 -0.1559 -0.1505
 7371SOL     OW33748   0.101   3.885  11.825  0.1663  0.1661  0.2820
 7371SOL    HW133749   0.015   3.887  11.867 -0.6649 -0.4397 -1.3627
 7371SOL    HW233750   0.151   3.843  11.895  1.8908 -0.9928 -1.6307
 7372SOL     OW33751   2.010   0.455  17.664 -0.7114 -0.1842  0.0597
 7372SOL    HW133752   2.076   0.512  17.623 -2.0165  0.0659 -1.7201
 7372SOL    HW233753   2.058   0.409  17.732 -1.0102 -2.1410 -1.0664
 7373SOL     OW33754   1.227   1.101   2.317  0.1240 -0.1599 -0.0158
 7373SOL    HW133755   1.201   1.182   2.361 -1.5328 -0.3489 -0.6381
 7373SOL    HW233756   1.147   1.051   2.301 -0.1609  0.2854  0.0019
 7374SOL     OW33757   2.033   4.409   5.673 -0.3680  0.1116  0.2186
 7374SOL    HW133758   1.951   4.362   5.685 -0.9654  0.4576 -2.5320
 7374SOL    HW233759   2.015   4.478   5.609  1.3023  1.7684  1.5190
 7375SOL     OW33760   2.740   3.128   5.121 -0.5376 -0.0993 -0.8030
 7375SOL    HW133761   2.770   3.070   5.191 -1.1863  0.0559 -0.3915
 7375SOL    HW233762   2.678   3.078   5.068  1.9439 -1.6397 -2.2276
 7376SOL     OW33763   0.038   4.097   7.958 -0.0981 -0.2967 -0.3234
 7376SOL    HW133764   4.695   4.143   7.950  1.0150  1.6566 -0.7714
 7376SOL    HW233765   0.010   4.024   8.012 -0.5331 -0.3504 -0.6238
 7377SOL     OW33766   1.139   4.226   6.299 -0.4825 -0.0758 -0.3752
 7377SOL    HW133767   1.136   4.321   6.290  1.1012  0.0322  0.1982
 7377SOL    HW233768   1.089   4.192   6.225 -1.1805  2.5152 -1.0819
 7378SOL     OW33769   2.311   3.710   8.049  0.7557  0.0722  0.2272
 7378SOL    HW133770   2.220   3.683   8.039  0.1337  2.2365  0.0801
 7378SOL    HW233771   2.313   3.765   8.127  1.2238  1.5634 -0.8340
 7379SOL     OW33772   3.727   2.115   5.898  0.1631 -0.0593 -0.2887
 7379SOL    HW133773   3.664   2.067   5.843 -0.1214 -1.5171  1.3222
 7379SOL    HW233774   3.677   2.152   5.970 -0.5155 -0.4886 -0.5338
 7380SOL     OW33775   2.500   3.496   9.153 -0.0886  0.1323  0.3942
 7380SOL    HW133776   2.458   3.558   9.093  0.6021  0.8734  0.6783
 7380SOL    HW233777   2.424   3.438   9.155  0.0808 -0.1258 -1.3220
 7381SOL     OW33778   3.346   3.163   3.028  0.1841 -0.0905  0.0635
 7381SOL    HW133779   3.251   3.158   3.031  0.1234  0.3163 -0.9835
 7381SOL    HW233780   3.376   3.072   3.022  0.0973 -0.0296 -1.3059
 7382SOL     OW33781   1.260   2.952   7.623  0.0094  0.4802 -0.4898
 7382SOL    HW133782   1.183   2.933   7.676 -0.2239  2.2502 -0.1781
 7382SOL    HW233783   1.320   2.982   7.691  0.2903  0.6300 -0.8018
 7383SOL     OW33784   3.470   1.133   8.403  0.3031 -0.4698 -0.1264
 7383SOL    HW133785   3.469   1.051   8.352 -0.8998  0.7824 -2.1256
 7383SOL    HW233786   3.561   1.161   8.400 -0.1762  1.1575  0.5189
 7384SOL     OW33787   1.910   1.026   3.975  0.0079  0.2379  0.2174
 7384SOL    HW133788   1.973   1.051   4.042  0.4817 -0.3753 -0.0061
 7384SOL    HW233789   1.902   1.114   3.937 -0.4414  0.8744  1.7615
 7385SOL     OW33790   2.380   0.344   3.626  0.2134 -0.2802  0.1629
 7385SOL    HW133791   2.462   0.344   3.675  0.8440 -1.1859 -0.9031
 7385SOL    HW233792   2.406   0.360   3.536  0.0201  0.7532  0.2894
 7386SOL     OW33793   1.128   2.248   4.001  0.1256  0.2397  0.6154
 7386SOL    HW133794   1.101   2.256   3.909 -0.4264 -2.9423  0.4871
 7386SOL    HW233795   1.044   2.268   4.043 -0.6396 -1.7917  0.0639
 7387SOL     OW33796   2.805   0.715   8.260 -0.1994  0.5212  0.1914
 7387SOL    HW133797   2.854   0.728   8.179  0.9412  0.4176  0.8688
 7387SOL    HW233798   2.714   0.713   8.230  0.1038  0.0589 -0.6849
 7388SOL     OW33799   2.613   3.786  10.628  0.4068  0.1376  0.3244
 7388SOL    HW133800   2.632   3.763  10.719  2.5376  0.2923 -0.0619
 7388SOL    HW233801   2.695   3.829  10.604  0.5320 -0.2778  0.0166
 7389SOL     OW33802   0.814   3.832   1.105  0.1206 -0.0808 -0.0577
 7389SOL    HW133803   0.718   3.826   1.105 -0.0517  2.5776 -4.0373
 7389SOL    HW233804   0.839   3.826   1.013 -0.7548 -1.5689 -0.2078
 7390SOL     OW33805   3.479   4.484   6.409 -0.1746 -0.0587  0.7418
 7390SOL    HW133806   3.562   4.463   6.452 -0.2454 -0.3057  0.7581
 7390SOL    HW233807   3.485   4.427   6.333 -1.9125  0.1757  0.4460
 7391SOL     OW33808   0.753   0.867   5.396  0.2414 -0.1130  0.2220
 7391SOL    HW133809   0.707   0.784   5.412  0.7489 -0.6352 -1.0868
 7391SOL    HW233810   0.697   0.909   5.331 -1.1093  0.0709  1.4968
 7392SOL     OW33811   1.872   4.135   0.689 -0.0460 -0.1693  0.4256
 7392SOL    HW133812   1.964   4.108   0.699  1.1161  2.8770 -2.1170
 7392SOL    HW233813   1.876   4.229   0.672  0.2000 -0.3286 -0.3993
 7393SOL     OW33814   1.447   4.522   3.024 -0.1946  0.3864  1.0242
 7393SOL    HW133815   1.526   4.576   3.032 -0.5498  0.8485  1.4699
 7393SOL    HW233816   1.397   4.569   2.958  2.1061 -0.7043 -1.4595
 7394SOL     OW33817   4.579   1.518   2.910 -0.2215  0.3629  0.0578
 7394SOL    HW133818   4.595   1.534   3.004  1.8123 -0.1647 -0.2040
 7394SOL    HW233819   4.669   1.508   2.880 -0.2373  0.9921 -0.2005
 7395SOL     OW33820   4.372   1.920   2.573  0.1736 -0.4122  0.3560
 7395SOL    HW133821   4.437   1.872   2.522 -0.8874 -1.1426 -0.2978
 7395SOL    HW233822   4.330   1.848   2.620  0.1378 -0.8926 -0.4191
 7396SOL     OW33823   0.641   3.460  16.393 -0.8081  0.0736 -0.0830
 7396SOL    HW133824   0.654   3.369  16.418  0.3749  0.3494  0.2870
 7396SOL    HW233825   0.680   3.447  16.307  0.5474  1.9786  0.2504
 7397SOL     OW33826   0.828   1.806   0.567  0.5742 -0.4181 -0.1774
 7397SOL    HW133827   0.915   1.772   0.544  0.3996  2.2719 -4.7093
 7397SOL    HW233828   0.775   1.795   0.489  1.0585 -1.4610 -0.3688
 7398SOL     OW33829   0.856   3.204   3.063  0.0609  0.1795 -0.5769
 7398SOL    HW133830   0.790   3.252   3.113  1.8142  2.2352 -0.2289
 7398SOL    HW233831   0.913   3.273   3.030 -1.0594  0.4596 -1.9253
 7399SOL     OW33832   4.731   1.216  10.400  0.5537 -0.2212 -0.2340
 7399SOL    HW133833   4.654   1.269  10.380 -0.2583 -1.8808 -1.4484
 7399SOL    HW233834   0.054   1.286  10.420 -0.1003 -0.3651  2.3878
 7400SOL     OW33835   3.748   3.007   3.983  0.2132  0.6772 -0.2841
 7400SOL    HW133836   3.811   2.969   3.921  0.8481 -1.8681  1.8914
 7400SOL    HW233837   3.757   3.102   3.973 -0.8097  1.0024  1.9797
 7401SOL     OW33838   1.430   1.108  17.016 -0.4274  0.3402 -0.4396
 7401SOL    HW133839   1.479   1.026  17.007  0.5143  1.0661 -1.9061
 7401SOL    HW233840   1.501   1.165  17.046 -1.4009  1.0339  0.5458
 7402SOL     OW33841   3.271   4.272  14.257 -0.1696  0.3264 -0.2286
 7402SOL    HW133842   3.231   4.346  14.213  0.3827  0.4990 -0.4373
 7402SOL    HW233843   3.196   4.225  14.294  0.4101 -0.8472 -0.5366
 7403SOL     OW33844   3.264   4.585   3.837  0.2107 -1.0545 -0.1142
 7403SOL    HW133845   3.293   4.641   3.765  1.3518 -1.1756  0.2594
 7403SOL    HW233846   3.317   4.613   3.911 -0.5113 -2.5335  0.9607
 7404SOL     OW33847   1.430   3.622  12.957 -0.5394 -0.1245 -0.3307
 7404SOL    HW133848   1.504   3.582  12.912 -0.5527  0.1728 -0.6209
 7404SOL    HW233849   1.433   3.587  13.046 -0.4811  2.2269  0.5898
 7405SOL     OW33850   0.776   2.081  13.402  0.1899 -0.2402 -0.2778
 7405SOL    HW133851   0.836   2.105  13.472  1.5853  3.0809 -2.6225
 7405SOL    HW233852   0.700   2.074  13.460 -0.1908 -0.5623 -0.8110
 7406SOL     OW33853   3.095   4.349   5.551 -0.0893 -0.1459 -0.5242
 7406SOL    HW133854   3.098   4.440   5.521 -3.1804  0.0088 -0.3813
 7406SOL    HW233855   3.004   4.329   5.528 -0.1407 -1.9364  1.2391
 7407SOL     OW33856   4.719   2.476   8.095 -0.1731  0.5162 -0.5846
 7407SOL    HW133857   4.695   2.405   8.154  1.6219 -0.9681 -1.6674
 7407SOL    HW233858   4.734   2.547   8.157  0.9506  0.1886 -0.4840
 7408SOL     OW33859   1.366   4.017   5.618 -0.2543 -0.0836 -0.1000
 7408SOL    HW133860   1.421   4.089   5.586 -0.4313  0.7422  1.4511
 7408SOL    HW233861   1.281   4.047   5.585  1.6168  1.3631 -3.5759
 7409SOL     OW33862   0.943   1.156  11.605 -0.0370  0.0576 -0.1449
 7409SOL    HW133863   0.906   1.121  11.525 -0.6107  1.2424 -0.3941
 7409SOL    HW233864   0.900   1.094  11.664  1.7065  0.5300  1.6470
 7410SOL     OW33865   0.832   0.705   7.215 -0.2390 -0.1474 -0.1850
 7410SOL    HW133866   0.838   0.609   7.212  0.4997 -0.0980 -0.1999
 7410SOL    HW233867   0.743   0.731   7.189 -0.4013 -1.5655 -1.0753
 7411SOL     OW33868   4.165   0.923   9.705  0.4590 -0.6661  0.4211
 7411SOL    HW133869   4.109   0.853   9.671 -0.1848  0.1115 -0.1336
 7411SOL    HW233870   4.168   0.976   9.625 -3.9132 -3.5199 -1.6352
 7412SOL     OW33871   2.931   2.105   8.038 -0.3633  0.4000 -0.6985
 7412SOL    HW133872   2.900   2.153   7.961  0.5857 -0.5438 -1.6715
 7412SOL    HW233873   2.998   2.164   8.072 -3.0446  2.5369  0.8428
 7413SOL     OW33874   1.498   2.458  14.754  0.1307  0.4994  0.5063
 7413SOL    HW133875   1.540   2.469  14.669  2.1614 -1.9496  1.2075
 7413SOL    HW233876   1.483   2.364  14.750  0.4294  0.4654  0.1947
 7414SOL     OW33877   1.987   4.527  15.174  0.1136  0.1615  0.3603
 7414SOL    HW133878   2.056   4.525  15.241  0.7182 -0.8752 -0.2851
 7414SOL    HW233879   1.905   4.567  15.202 -1.0132 -1.3702 -0.7476
 7415SOL     OW33880   1.341   3.363   4.906 -0.4150  0.3399  0.3793
 7415SOL    HW133881   1.349   3.439   4.849  1.1585  0.8184  1.2470
 7415SOL    HW233882   1.433   3.346   4.930  0.2640  0.6855 -1.9617
 7416SOL     OW33883   2.597   4.012   8.195  0.5410  0.0676  0.1441
 7416SOL    HW133884   2.563   4.091   8.153  0.4365 -1.1124 -1.9512
 7416SOL    HW233885   2.560   3.940   8.144 -0.7246 -0.8484  2.3330
 7417SOL     OW33886   1.020   3.763   9.318 -0.6290  0.4834  0.3293
 7417SOL    HW133887   1.080   3.746   9.391  0.2181  0.2613 -0.4108
 7417SOL    HW233888   1.029   3.857   9.305  2.1269  0.3191  0.9356
 7418SOL     OW33889   1.250   1.884   8.744  0.6471  0.1714  0.1169
 7418SOL    HW133890   1.289   1.969   8.724  2.0832 -0.0442  2.0603
 7418SOL    HW233891   1.169   1.884   8.692  0.2841  1.5189  0.6538
 7419SOL     OW33892   0.859   3.363   8.620  0.3665 -0.1951  0.6696
 7419SOL    HW133893   0.922   3.358   8.548  0.9588  0.3036  1.1457
 7419SOL    HW233894   0.865   3.457   8.639  0.5403 -0.1940  0.6077
 7420SOL     OW33895   1.687   3.761   7.609  0.3113  0.1142 -0.0123
 7420SOL    HW133896   1.610   3.795   7.654  1.2357  0.3544  1.3689
 7420SOL    HW233897   1.651   3.726   7.527 -1.3345 -1.7903  1.5227
 7421SOL     OW33898   3.969   0.722   7.577  0.2755  0.0246  0.1596
 7421SOL    HW133899   3.955   0.772   7.497  2.4846 -1.0961 -0.9199
 7421SOL    HW233900   3.929   0.639   7.551  1.5086 -0.7669  0.8046
 7422SOL     OW33901   0.761   0.148   3.386  0.0123 -0.8319 -0.6352
 7422SOL    HW133902   0.792   0.117   3.471  1.6664 -0.1636 -0.9952
 7422SOL    HW233903   0.830   0.209   3.363 -0.5821  0.4245  0.9085
 7423SOL     OW33904   3.768   3.297   2.689  0.3814 -0.1802 -0.4465
 7423SOL    HW133905   3.808   3.211   2.676  1.2038 -0.0071  0.8995
 7423SOL    HW233906   3.685   3.286   2.642 -0.1210 -1.4018  0.7276
 7424SOL     OW33907   1.917   4.286   3.201  0.1688 -0.1093  0.5647
 7424SOL    HW133908   1.993   4.330   3.236  0.9305 -0.5643 -0.5136
 7424SOL    HW233909   1.913   4.211   3.260  0.0044 -0.0051  0.6859
 7425SOL     OW33910   2.823   1.228   3.728 -0.0018 -0.7688  0.4355
 7425SOL    HW133911   2.875   1.238   3.649 -2.8439  0.6019 -1.2637
 7425SOL    HW233912   2.866   1.287   3.790  0.7506  0.4092 -1.2278
 7426SOL     OW33913   0.324   1.526  16.337 -0.1896 -0.3747  0.6317
 7426SOL    HW133914   0.405   1.541  16.289 -0.5444  0.7751  0.4117
 7426SOL    HW233915   0.294   1.452  16.284 -1.1572  0.7044 -0.3094
 7427SOL     OW33916   0.931   3.088  10.200  0.3281  0.1371 -0.4451
 7427SOL    HW133917   0.879   3.096  10.281  1.0033  1.3582 -0.1383
 7427SOL    HW233918   0.880   3.137  10.135  1.5424  0.1504 -1.3769
 7428SOL     OW33919   2.916   0.807   6.311  0.0962  0.2232  0.4784
 7428SOL    HW133920   2.978   0.878   6.295 -0.2041  0.3227 -0.2466
 7428SOL    HW233921   2.957   0.744   6.252  1.0389 -0.2196  1.5947
 7429SOL     OW33922   2.414   1.892   5.918 -0.2305  0.2957 -0.2718
 7429SOL    HW133923   2.436   1.929   6.003  2.8109 -2.1743  0.0198
 7429SOL    HW233924   2.329   1.933   5.903 -0.9625 -1.7613 -1.7832
 7430SOL     OW33925   0.142   2.713   0.406  0.1082 -0.2870  0.0516
 7430SOL    HW133926   0.175   2.773   0.338  1.4518  1.2899  2.0996
 7430SOL    HW233927   0.110   2.774   0.472 -0.9898  0.8336 -1.4842
 7431SOL     OW33928   0.671   2.598  16.408 -0.3999  0.6691 -0.2294
 7431SOL    HW133929   0.711   2.653  16.476 -1.3756  3.2755 -1.7689
 7431SOL    HW233930   0.619   2.536  16.460  2.0421  0.8004  2.3985
 7432SOL     OW33931   2.800   4.602   3.948  0.0651  0.3058 -0.1441
 7432SOL    HW133932   2.743   4.677   3.928 -0.1285 -0.2392 -1.6799
 7432SOL    HW233933   2.750   4.535   3.901 -1.0660  1.5872 -0.7890
 7433SOL     OW33934   3.294   1.945   7.015 -0.7040 -0.0489  0.0574
 7433SOL    HW133935   3.277   2.007   7.086 -0.7133  0.0751 -0.0533
 7433SOL    HW233936   3.386   1.964   6.997 -0.9304 -0.9671 -2.1288
 7434SOL     OW33937   3.404   3.105   9.370 -0.2389  0.1461 -0.2760
 7434SOL    HW133938   3.458   3.033   9.335  2.8662  2.3525 -0.0696
 7434SOL    HW233939   3.395   3.164   9.296  0.6600  2.3232  1.3380
 7435SOL     OW33940   3.632   2.395   7.337  0.1849 -0.2772  0.7649
 7435SOL    HW133941   3.571   2.422   7.406 -1.7751  1.2367 -1.5329
 7435SOL    HW233942   3.604   2.304   7.328 -1.3174  0.3779 -1.2311
 7436SOL     OW33943   2.635   2.198   3.899 -0.6995  0.2864 -0.7525
 7436SOL    HW133944   2.618   2.129   3.835 -2.4958  0.0374  0.0126
 7436SOL    HW233945   2.648   2.266   3.832  0.4037  1.4340  0.6365
 7437SOL     OW33946   0.866   1.646  10.483  0.0487  0.6188 -0.0284
 7437SOL    HW133947   0.818   1.719  10.521 -1.7249 -0.9799  0.7450
 7437SOL    HW233948   0.866   1.578  10.550  0.3102 -0.0624 -0.7245
 7438SOL     OW33949   0.832   0.150  15.749 -0.1986 -0.5918 -0.0768
 7438SOL    HW133950   0.812   0.098  15.671  0.9403 -0.9956 -0.0942
 7438SOL    HW233951   0.889   0.087  15.794  0.3780  0.0844  0.1373
 7439SOL     OW33952   1.176   4.440   3.065 -0.2260 -0.1061  0.0194
 7439SOL    HW133953   1.265   4.463   3.040  0.3242  1.5472  3.5576
 7439SOL    HW233954   1.151   4.503   3.132 -0.0744  2.4672 -2.3491
 7440SOL     OW33955   2.395   1.069  16.556  0.3734  0.6839 -0.2049
 7440SOL    HW133956   2.354   0.983  16.565  2.0496 -0.0116  0.7752
 7440SOL    HW233957   2.318   1.124  16.573 -0.3108 -0.9477  2.0416
 7441SOL     OW33958   4.545   1.684   3.410 -0.2277  0.1670 -0.0958
 7441SOL    HW133959   4.562   1.640   3.493 -0.7929  0.4439  0.1721
 7441SOL    HW233960   4.588   1.769   3.423  0.7117 -0.1897 -0.9585
 7442SOL     OW33961   3.978   4.149  17.213 -0.1019 -0.6012 -0.0276
 7442SOL    HW133962   4.043   4.192  17.158  1.0932 -1.1806  0.9275
 7442SOL    HW233963   3.947   4.094  17.141  0.2944  1.0501 -1.4472
 7443SOL     OW33964   1.806   4.418   4.980  0.1525  0.2019 -0.3301
 7443SOL    HW133965   1.739   4.475   5.017  1.8671  1.1844  1.2404
 7443SOL    HW233966   1.864   4.411   5.056 -0.2961 -2.2199 -0.1946
 7444SOL     OW33967   4.383   0.612   7.819 -0.2414 -0.1825 -0.4956
 7444SOL    HW133968   4.425   0.647   7.898 -0.1069  1.8291 -1.4543
 7444SOL    HW233969   4.416   0.671   7.751 -1.7144 -0.3650 -1.3681
 7445SOL     OW33970   0.605   4.362  13.951 -0.2442  0.0676 -0.0684
 7445SOL    HW133971   0.577   4.293  13.891 -2.5200  0.8696  0.0950
 7445SOL    HW233972   0.552   4.334  14.025 -1.5262  0.2181 -0.9189
 7446SOL     OW33973   0.495   0.630   2.956 -0.0234 -0.4314 -0.1231
 7446SOL    HW133974   0.448   0.609   3.036 -0.4755 -1.5609 -0.6756
 7446SOL    HW233975   0.483   0.724   2.960  2.6975  0.0650 -3.2239
 7447SOL     OW33976   2.546   0.614   2.406  0.0737  0.0038  0.8885
 7447SOL    HW133977   2.515   0.701   2.379 -0.1338 -0.4767 -0.4212
 7447SOL    HW233978   2.621   0.642   2.458  1.2700  0.0722 -0.8782
 7448SOL     OW33979   1.183   0.969   7.922  0.0467 -0.2220 -0.8557
 7448SOL    HW133980   1.182   0.896   7.860 -2.4737  1.1148 -2.3635
 7448SOL    HW233981   1.266   0.943   7.962 -0.1677  1.6227  0.8031
 7449SOL     OW33982   3.402   4.494   2.740 -0.4750 -0.3582 -0.1322
 7449SOL    HW133983   3.390   4.493   2.645 -1.0558  1.1776 -0.0630
 7449SOL    HW233984   3.316   4.476   2.777 -0.1751 -2.2405 -0.3519
 7450SOL     OW33985   1.629   3.605   6.450 -0.1346  0.0199 -0.5469
 7450SOL    HW133986   1.602   3.600   6.358  3.2316  2.6433 -1.6971
 7450SOL    HW233987   1.715   3.564   6.453 -1.2905 -2.3618  0.3230
 7451SOL     OW33988   2.888   3.824   6.195 -0.3917 -0.0802  0.1997
 7451SOL    HW133989   2.895   3.760   6.123 -0.6972  0.2575 -0.1284
 7451SOL    HW233990   2.968   3.817   6.248 -0.0775  1.3474 -0.1058
 7452SOL     OW33991   4.013   4.664  12.676 -0.5540 -0.1826  0.3774
 7452SOL    HW133992   4.012   4.570  12.658  0.7331  0.0293 -0.8911
 7452SOL    HW233993   3.991   4.692  12.587 -1.1017 -1.1338  0.2179
 7453SOL     OW33994   4.301   3.941   4.624 -0.0823 -0.4585 -0.1483
 7453SOL    HW133995   4.315   3.961   4.531  2.6405  1.4058  0.6686
 7453SOL    HW233996   4.304   3.846   4.633 -1.2189 -0.3154  1.5913
 7454SOL     OW33997   2.783   1.457   5.696 -0.4890  0.6360 -0.0380
 7454SOL    HW133998   2.793   1.508   5.615  1.2127  2.3170  1.2071
 7454SOL    HW233999   2.728   1.394   5.650  3.0683 -2.8126  0.4801
 7455SOL     OW34000   0.903   0.202  11.242  0.3831 -1.2166 -0.5455
 7455SOL    HW134001   0.993   0.171  11.239  1.0076  0.5041  0.2018
 7455SOL    HW234002   0.883   0.180  11.151  0.9109 -3.4650 -0.1147
 7456SOL     OW34003   3.959   4.244  11.677  0.2122 -0.1099 -0.6786
 7456SOL    HW134004   4.049   4.243  11.709  0.3098 -0.9299 -0.9874
 7456SOL    HW234005   3.964   4.237  11.581 -1.9277  0.3138 -0.8272
 7457SOL     OW34006   0.713   3.736  15.389  0.1181  0.3773  0.0372
 7457SOL    HW134007   0.713   3.686  15.307  2.9941  0.1457  0.1646
 7457SOL    HW234008   0.711   3.673  15.460  2.2983  1.4356  1.0493
 7458SOL     OW34009   0.953   2.946   8.704 -0.7564  0.1408 -0.5016
 7458SOL    HW134010   0.921   2.859   8.681 -1.8944  0.7892 -1.3505
 7458SOL    HW234011   1.047   2.935   8.693 -0.5141  0.5495  1.0628
 7459SOL     OW34012   1.312   4.683  10.726 -0.7092  0.4313  0.0515
 7459SOL    HW134013   1.274   4.602  10.691 -0.4439  0.8295 -1.1593
 7459SOL    HW234014   1.263   0.009  10.676 -0.2469  1.6019  1.1418
 7460SOL     OW34015   2.259   2.748   4.059  0.2961  0.5969  0.2640
 7460SOL    HW134016   2.297   2.719   4.141 -1.6101  0.5554  1.1281
 7460SOL    HW234017   2.310   2.825   4.033  1.2416 -0.2405 -0.3369
 7461SOL     OW34018   4.241   1.553   9.684  0.5638 -0.5004 -0.1678
 7461SOL    HW134019   4.176   1.489   9.655 -0.1235 -0.6745  1.7427
 7461SOL    HW234020   4.276   1.569   9.597 -0.7734  1.0133 -0.4364
 7462SOL     OW34021   3.785   2.996   8.095 -0.0992  0.0127  0.5935
 7462SOL    HW134022   3.876   2.973   8.112  0.3521  0.8842 -0.6909
 7462SOL    HW234023   3.753   2.910   8.068  0.2058  0.5179 -1.4292
 7463SOL     OW34024   1.826   4.247  13.156 -0.7744  0.2471  0.4991
 7463SOL    HW134025   1.850   4.235  13.248  3.0169 -0.2299 -0.5687
 7463SOL    HW234026   1.790   4.336  13.158  0.3340  0.6755  1.1230
 7464SOL     OW34027   0.289   0.968   5.526 -0.3202  0.3221  0.0666
 7464SOL    HW134028   0.219   0.933   5.581 -0.7407 -0.9033 -1.2410
 7464SOL    HW234029   0.358   0.984   5.591  0.0267  0.5258 -0.3547
 7465SOL     OW34030   1.631   1.777   2.999  0.1295  0.4107  0.0662
 7465SOL    HW134031   1.541   1.754   3.023 -0.1138  1.0676 -0.2005
 7465SOL    HW234032   1.619   1.829   2.920  4.8824  1.4386  0.0485
 7466SOL     OW34033   3.722   3.329   8.142  0.7609  0.5037 -0.4157
 7466SOL    HW134034   3.757   3.276   8.214 -1.9300  0.4073  0.8172
 7466SOL    HW234035   3.675   3.395   8.193 -0.8517 -0.4247 -0.6941
 7467SOL     OW34036   0.575   2.068  10.115 -0.3963 -0.2232 -0.6795
 7467SOL    HW134037   0.512   2.002  10.087  0.1792 -0.8137 -0.5855
 7467SOL    HW234038   0.605   2.039  10.201 -0.4482  0.8548 -0.2918
 7468SOL     OW34039   3.873   3.731   5.757 -0.0264  0.5283  0.1011
 7468SOL    HW134040   3.804   3.677   5.718 -0.6307  0.8515  0.7223
 7468SOL    HW234041   3.888   3.674   5.833  2.4448 -0.8079 -1.3878
 7469SOL     OW34042   4.526   0.609   6.874 -0.0372 -0.0632 -0.6141
 7469SOL    HW134043   4.469   0.677   6.837  0.3078  0.6648  0.2036
 7469SOL    HW234044   4.574   0.587   6.794  1.6502  0.7616  0.1700
 7470SOL     OW34045   4.176   1.176   8.979  0.1432 -0.3950  0.5232
 7470SOL    HW134046   4.267   1.201   8.994  0.1556  0.6254 -1.2232
 7470SOL    HW234047   4.153   1.135   9.062  0.3893 -0.7605  0.4113
 7471SOL     OW34048   1.199   2.564   9.754 -0.1903  0.4582 -0.1175
 7471SOL    HW134049   1.160   2.652   9.757 -2.1021 -0.2851 -3.5230
 7471SOL    HW234050   1.258   2.564   9.679 -1.2535 -0.0757 -0.9397
 7472SOL     OW34051   2.170   0.157   7.938 -0.2840 -0.4699 -0.2834
 7472SOL    HW134052   2.259   0.188   7.922  0.0435 -1.3515 -0.1556
 7472SOL    HW234053   2.159   0.163   8.033  0.7637  0.5455 -0.2346
 7473SOL     OW34054   3.581   3.702  12.756 -0.2432 -0.0580 -0.0622
 7473SOL    HW134055   3.546   3.626  12.802  2.3871 -0.2133  1.6589
 7473SOL    HW234056   3.645   3.744  12.814 -0.3206 -0.0539  0.0200
 7474SOL     OW34057   3.690   3.643   1.233 -0.8751 -0.3596  0.1517
 7474SOL    HW134058   3.670   3.580   1.302 -0.5234  0.7784  1.2985
 7474SOL    HW234059   3.708   3.720   1.287 -0.6299 -0.2867 -0.0354
 7475SOL     OW34060   3.891   4.240   5.218  0.1267 -0.1650 -0.7311
 7475SOL    HW134061   3.967   4.183   5.210 -0.0726 -0.5792  0.2191
 7475SOL    HW234062   3.818   4.180   5.202  0.7122 -0.2284 -3.0709
 7476SOL     OW34063   4.286   0.674   4.865 -0.1892  0.4347  0.4462
 7476SOL    HW134064   4.316   0.583   4.862 -1.4387  0.0149  0.3693
 7476SOL    HW234065   4.371   0.714   4.880 -0.1037 -0.4271  2.2358
 7477SOL     OW34066   0.180   0.564   8.208 -0.2059 -0.2049 -0.2521
 7477SOL    HW134067   0.256   0.506   8.202  1.2530  1.6128  0.7756
 7477SOL    HW234068   0.219   0.648   8.183  0.9554 -0.8327 -0.5488
 7478SOL     OW34069   0.489   1.992   7.085  0.3364 -0.1321 -0.3915
 7478SOL    HW134070   0.441   2.046   7.148  1.8979 -0.4296  1.0568
 7478SOL    HW234071   0.476   1.903   7.115  0.8174  0.8006  2.5428
 7479SOL     OW34072   1.929   0.433   6.923  0.4054 -0.2379  0.0969
 7479SOL    HW134073   2.015   0.461   6.893 -0.4436  1.6845 -0.5236
 7479SOL    HW234074   1.924   0.338   6.910  1.5266 -0.3854  0.7202
 7480SOL     OW34075   0.056   1.006  12.683  0.2971  0.2510  0.0975
 7480SOL    HW134076   0.018   1.024  12.770 -1.0490 -2.9163  0.1694
 7480SOL    HW234077   0.145   0.985  12.711 -0.0165 -0.5731  0.4879
 7481SOL     OW34078   0.409   1.522   5.292  0.0276  0.1623 -0.1433
 7481SOL    HW134079   0.358   1.584   5.344  2.2184  0.1000  2.0765
 7481SOL    HW234080   0.346   1.450   5.283  1.1620 -0.6108 -1.8362
 7482SOL     OW34081   1.974   2.079   4.390  0.6079  0.1523  0.7671
 7482SOL    HW134082   1.906   2.122   4.337  1.3891  0.4858  0.0450
 7482SOL    HW234083   2.042   2.145   4.402  1.0842 -0.3029  0.5915
 7483SOL     OW34084   2.126   2.573   5.397 -0.0929  0.3308  0.1710
 7483SOL    HW134085   2.034   2.576   5.369  0.7909 -1.5759 -2.9426
 7483SOL    HW234086   2.146   2.480   5.408  1.1778  0.6871  0.7999
 7484SOL     OW34087   3.602   3.845   5.266 -0.1367 -0.0629 -0.2387
 7484SOL    HW134088   3.566   3.868   5.352 -0.7253  1.2790 -0.8466
 7484SOL    HW234089   3.684   3.809   5.299 -0.5590 -0.7195  0.0978
 7485SOL     OW34090   2.069   3.129   6.431 -0.0812  0.3044  0.1530
 7485SOL    HW134091   2.058   3.168   6.517  0.7437  1.4316 -0.2482
 7485SOL    HW234092   2.071   3.038   6.461 -0.2239 -0.2741 -1.5614
 7486SOL     OW34093   3.102   3.112   8.968 -0.5261  0.1485 -0.1522
 7486SOL    HW134094   3.128   3.023   8.943 -0.2893  0.1876 -0.0428
 7486SOL    HW234095   3.020   3.095   9.015 -1.3844  0.6398 -1.4896
 7487SOL     OW34096   3.196   2.704   0.181  0.7950 -0.0393  0.0893
 7487SOL    HW134097   3.140   2.722   0.105  1.4927 -0.8393 -0.6012
 7487SOL    HW234098   3.162   2.759   0.252  0.3158  0.5688 -0.6120
 7488SOL     OW34099   4.229   2.625   1.994  0.3921  0.0844  0.3357
 7488SOL    HW134100   4.252   2.589   1.908  0.2472  0.0358  0.3181
 7488SOL    HW234101   4.134   2.616   1.998  0.5999 -2.8268 -1.3833
 7489SOL     OW34102   3.170   1.499   2.814  0.1525 -0.4402  0.4501
 7489SOL    HW134103   3.236   1.515   2.881  1.7308 -0.0149 -1.2055
 7489SOL    HW234104   3.113   1.433   2.854  1.3222 -1.1398  0.9391
 7490SOL     OW34105   1.922   1.230  13.258 -1.0507 -0.1285  0.0309
 7490SOL    HW134106   1.929   1.240  13.353  1.4417 -1.1134 -0.0501
 7490SOL    HW234107   1.829   1.222  13.239 -0.6538 -1.0387 -1.5074
 7491SOL     OW34108   3.811   0.194   4.677  0.4525  0.4454 -0.0710
 7491SOL    HW134109   3.775   0.112   4.712 -0.3533 -0.6875 -3.5947
 7491SOL    HW234110   3.773   0.255   4.740 -1.3875  0.1547 -0.9031
 7492SOL     OW34111   0.423   3.733  14.665  0.0144 -0.3049  0.4367
 7492SOL    HW134112   0.494   3.673  14.643  1.6196  1.6222  0.3418
 7492SOL    HW234113   0.404   3.724  14.759  0.7649 -0.9971  0.5244
 7493SOL     OW34114   4.408   4.182   4.085 -0.6273 -0.0463 -0.2416
 7493SOL    HW134115   4.481   4.243   4.070  1.6872 -2.4296  1.3874
 7493SOL    HW234116   4.363   4.168   4.002 -2.0935 -2.0137  0.9077
 7494SOL     OW34117   0.761   2.798  14.424  0.1495 -0.7271  0.1159
 7494SOL    HW134118   0.699   2.744  14.472  1.1637 -0.8678  1.2808
 7494SOL    HW234119   0.841   2.803  14.477  0.2308 -0.3522 -0.0365
 7495SOL     OW34120   2.687   0.079   3.452 -0.6793  0.2572  0.1093
 7495SOL    HW134121   2.599   0.045   3.442 -0.2558 -0.2407 -1.7478
 7495SOL    HW234122   2.688   0.076   3.548 -1.1609 -1.5239  0.0414
 7496SOL     OW34123   0.069   3.934  11.550 -0.4008 -1.0267 -0.6820
 7496SOL    HW134124   0.050   3.958  11.640  2.1491 -1.1184 -0.1412
 7496SOL    HW234125   0.059   3.839  11.557 -0.8877 -0.9893 -0.8588
 7497SOL     OW34126   4.253   3.413   3.792 -0.4689 -0.2806  0.3896
 7497SOL    HW134127   4.186   3.362   3.745 -0.1354  0.2593 -0.6833
 7497SOL    HW234128   4.257   3.376   3.880  0.8533 -2.7494 -0.7076
 7498SOL     OW34129   4.494   1.349   6.920  0.0465 -0.0023 -0.0668
 7498SOL    HW134130   4.589   1.346   6.924  0.0104 -2.1129 -0.9883
 7498SOL    HW234131   4.488   1.435   6.962  2.0573 -0.6295  1.4913
 7499SOL     OW34132   3.622   0.058  16.321  0.5809 -0.4191  0.6800
 7499SOL    HW134133   3.531   0.038  16.296  0.4408 -0.4055  1.1914
 7499SOL    HW234134   3.662   0.098  16.244 -1.4636  0.6998  0.2000
 7500SOL     OW34135   4.384   2.529   3.566 -0.6108 -0.1643  0.5104
 7500SOL    HW134136   4.368   2.455   3.624 -0.8814 -0.0078  0.6368
 7500SOL    HW234137   4.469   2.516   3.525 -1.2388 -2.1204 -0.1550
 7501SOL     OW34138   2.845   1.442  14.200  0.0476 -0.6210  0.1315
 7501SOL    HW134139   2.824   1.447  14.294  0.1069 -1.0104  0.1675
 7501SOL    HW234140   2.759   1.413  14.172 -0.4737  1.8189 -0.7628
 7502SOL     OW34141   1.322   2.354   9.119  0.0985  0.2271  0.5660
 7502SOL    HW134142   1.275   2.272   9.107  0.1982  0.1725  0.5507
 7502SOL    HW234143   1.242   2.408   9.125 -0.6804 -1.2452  3.4481
 7503SOL     OW34144   4.266   3.195   7.956 -0.3234  0.0658  0.2336
 7503SOL    HW134145   4.358   3.182   7.933 -0.4896 -0.6891 -0.0255
 7503SOL    HW234146   4.279   3.249   8.034 -1.5084  1.7448 -0.7413
 7504SOL     OW34147   2.807   1.662   7.779 -0.1432 -0.0500 -0.0723
 7504SOL    HW134148   2.864   1.686   7.705 -1.4883 -0.7127 -1.3059
 7504SOL    HW234149   2.760   1.745   7.777 -0.7871 -0.4624 -2.0045
 7505SOL     OW34150   1.750   2.206   4.258  0.6949  0.0203  0.2464
 7505SOL    HW134151   1.675   2.264   4.270  0.7286  0.5851 -2.0988
 7505SOL    HW234152   1.710   2.120   4.246  1.2081 -0.4785  2.1876
 7506SOL     OW34153   3.640   0.268   8.661  0.1328 -0.0353  0.2223
 7506SOL    HW134154   3.639   0.295   8.753 -0.8380  1.5754 -0.2693
 7506SOL    HW234155   3.558   0.305   8.629  1.3192  0.2304 -2.5527
 7507SOL     OW34156   3.152   4.157   6.774 -0.2343  0.1115  0.8356
 7507SOL    HW134157   3.112   4.191   6.694 -0.3324 -0.8292  0.4784
 7507SOL    HW234158   3.196   4.081   6.735  0.6381  0.1792  1.6988
 7508SOL     OW34159   0.478   3.638   3.756 -0.9276  0.3140  0.2466
 7508SOL    HW134160   0.566   3.645   3.791 -1.1840 -2.3230  1.4362
 7508SOL    HW234161   0.499   3.585   3.679  2.2009  0.9859  0.6721
 7509SOL     OW34162   0.441   1.270  14.459 -0.6983 -0.3920 -0.0216
 7509SOL    HW134163   0.382   1.341  14.433 -1.2874 -1.9931 -3.1900
 7509SOL    HW234164   0.422   1.222  14.378 -1.8811  2.2417 -1.3355
 7510SOL     OW34165   3.628   2.432   5.142 -0.5552  0.5194 -0.0800
 7510SOL    HW134166   3.667   2.345   5.129 -1.7690  0.1611 -1.2728
 7510SOL    HW234167   3.605   2.437   5.235  0.1235 -0.4937  0.1481
 7511SOL     OW34168   1.331   3.770   4.805  0.4054  0.3649 -0.4372
 7511SOL    HW134169   1.370   3.692   4.765  0.4489  0.5770 -0.8099
 7511SOL    HW234170   1.260   3.798   4.747 -0.8998 -0.2437  0.8831
 7512SOL     OW34171   1.855   4.077   7.638 -0.2877  0.3326 -0.2656
 7512SOL    HW134172   1.900   4.136   7.577  2.6267 -0.0558  1.5595
 7512SOL    HW234173   1.766   4.089   7.605 -0.9426 -3.1182  0.2447
 7513SOL     OW34174   3.863   2.116   9.672  0.5066  0.2031 -0.3570
 7513SOL    HW134175   3.797   2.068   9.723 -1.1117  1.7786 -0.9794
 7513SOL    HW234176   3.897   2.048   9.614  0.2942 -0.1785 -0.0420
 7514SOL     OW34177   0.453   3.364   9.805  0.2932 -0.2819 -0.3570
 7514SOL    HW134178   0.371   3.392   9.845  0.5112  0.6793 -0.5826
 7514SOL    HW234179   0.424   3.286   9.759  0.1151  0.5263 -1.6196
 7515SOL     OW34180   3.303   2.757   1.639 -0.0195 -0.1689 -0.3946
 7515SOL    HW134181   3.364   2.704   1.587  0.1303 -0.0636 -0.3269
 7515SOL    HW234182   3.235   2.762   1.572  1.9419  1.7354 -2.2321
 7516SOL     OW34183   4.715   3.601   5.393  0.0797  0.0690 -0.2820
 7516SOL    HW134184   4.698   3.613   5.299  1.0332 -0.4974 -0.5273
 7516SOL    HW234185   0.071   3.600   5.392  0.0645 -2.6408  2.8002
 7517SOL     OW34186   0.560   0.256   4.253 -0.0925  0.3803 -0.7438
 7517SOL    HW134187   0.616   0.188   4.291 -0.3708  0.6493  0.1235
 7517SOL    HW234188   0.474   0.240   4.291 -0.2658  0.1476 -1.2280
 7518SOL     OW34189   2.770   0.203   9.969 -0.3966 -0.3709  0.0039
 7518SOL    HW134190   2.814   0.273   9.921 -0.9985  0.3231  0.4685
 7518SOL    HW234191   2.706   0.176   9.903 -1.1824  1.6875 -0.0835
 7519SOL     OW34192   4.015   0.793  13.090  0.2021 -0.0434 -0.5325
 7519SOL    HW134193   4.021   0.702  13.121  2.8795  0.6890  1.1084
 7519SOL    HW234194   4.055   0.789  13.003 -2.1904  0.8964 -1.6882
 7520SOL     OW34195   1.649   1.114   7.281  0.1584  0.5949  0.5144
 7520SOL    HW134196   1.581   1.179   7.265 -0.6382 -0.7869 -1.8033
 7520SOL    HW234197   1.682   1.115   7.191 -1.1170 -2.5358  0.0068
 7521SOL     OW34198   1.505   2.024   1.597  0.0198  0.0548  0.0378
 7521SOL    HW134199   1.468   2.084   1.661 -0.8841 -0.0489 -0.3739
 7521SOL    HW234200   1.591   2.005   1.634 -0.4587  1.3783  1.8369
 7522SOL     OW34201   3.079   4.325  16.149 -0.4131  0.2676 -0.2116
 7522SOL    HW134202   3.128   4.266  16.206 -0.5621  1.6494  1.3712
 7522SOL    HW234203   3.153   4.364  16.102  0.1382 -0.4901  0.0409
 7523SOL     OW34204   4.375   3.992   9.324  0.2487  0.0616 -0.2781
 7523SOL    HW134205   4.302   3.950   9.369  1.2982 -0.6961  0.7308
 7523SOL    HW234206   4.351   4.084   9.312 -0.1256 -0.2380 -1.8391
 7524SOL     OW34207   2.350   2.165  12.273  0.6476 -0.5149  0.3627
 7524SOL    HW134208   2.376   2.092  12.329 -3.2003 -3.5144 -1.7901
 7524SOL    HW234209   2.410   2.134  12.205 -0.0155  1.4512 -1.1225
 7525SOL     OW34210   2.052   0.033   2.258 -0.2765  0.2797 -0.3290
 7525SOL    HW134211   2.131   4.735   2.296 -0.3424 -0.7404 -1.2314
 7525SOL    HW234212   2.003   0.045   2.340  2.7188  2.5555  1.1189
 7526SOL     OW34213   1.587   1.534   7.730  0.2134  0.6644  0.0230
 7526SOL    HW134214   1.510   1.542   7.673  1.6786  2.9734 -1.6691
 7526SOL    HW234215   1.595   1.627   7.754 -1.2242  0.5935  0.7937
 7527SOL     OW34216   2.345   0.035   4.254  0.2775  0.1110  0.5838
 7527SOL    HW134217   2.252   0.014   4.260 -0.6807  4.3633  0.1355
 7527SOL    HW234218   2.355   0.053   4.347  0.8619 -1.5665  0.8638
 7528SOL     OW34219   0.078   1.926   8.609 -0.0035  0.0219  0.2207
 7528SOL    HW134220   0.090   1.833   8.629  0.0923 -0.2258 -1.0177
 7528SOL    HW234221   0.089   1.961   8.697 -2.0996 -0.5279  0.6964
 7529SOL     OW34222   1.703   0.865  10.901 -0.1263 -0.2586  0.4656
 7529SOL    HW134223   1.752   0.934  10.946 -1.4983  3.1920 -3.3706
 7529SOL    HW234224   1.687   0.919  10.823 -1.7083 -0.5737  0.5739
 7530SOL     OW34225   4.490   0.611   1.701  0.2147 -0.4065  0.1498
 7530SOL    HW134226   4.525   0.530   1.665  0.2328 -0.0507 -0.6326
 7530SOL    HW234227   4.549   0.640   1.771  1.0106 -0.5188 -0.4715
 7531SOL     OW34228   3.668   0.235   8.319 -0.0589  0.6720  0.8516
 7531SOL    HW134229   3.612   0.305   8.285  1.5979  2.0035  0.8549
 7531SOL    HW234230   3.733   0.276   8.376  0.4260  0.7637  0.2330
 7532SOL     OW34231   3.956   0.985   8.314  0.7686 -0.0362  0.3232
 7532SOL    HW134232   4.020   0.942   8.371  1.1075 -0.3025 -0.2619
 7532SOL    HW234233   3.881   0.929   8.335 -0.5163  1.2447 -0.8797
 7533SOL     OW34234   3.307   0.640   0.043  0.0905 -0.0644 -0.2253
 7533SOL    HW134235   3.386   0.638  17.746 -0.7911 -3.2416 -1.3480
 7533SOL    HW234236   3.275   0.551   0.031 -0.1219 -0.1909  1.3437
 7534SOL     OW34237   3.080   2.140   4.098  0.4620 -0.0075  0.3250
 7534SOL    HW134238   2.986   2.121   4.098  0.3222  0.6669  1.1817
 7534SOL    HW234239   3.083   2.229   4.133 -0.2751  0.6627 -1.3135
 7535SOL     OW34240   1.280   2.141   4.209 -0.1388 -0.0224 -0.2570
 7535SOL    HW134241   1.239   2.214   4.255 -0.2498  0.1909 -0.6914
 7535SOL    HW234242   1.226   2.154   4.131  0.2046  1.3502 -0.2615
 7536SOL     OW34243   0.103   1.036   5.086  0.2665  0.9849  0.2513
 7536SOL    HW134244   0.034   1.083   5.134 -2.1188 -0.4951 -1.7382
 7536SOL    HW234245   0.169   1.026   5.154  1.8589 -0.0770 -1.4682
 7537SOL     OW34246   1.551   2.848   6.335  0.1935  1.0621 -0.2522
 7537SOL    HW134247   1.565   2.940   6.358 -0.0383  1.5241 -1.9877
 7537SOL    HW234248   1.534   2.819   6.425  2.5908  1.1083  0.2037
 7538SOL     OW34249   3.947   4.205   6.555  0.2285 -0.5102 -0.1558
 7538SOL    HW134250   3.990   4.282   6.517  0.8329 -1.7886 -2.0315
 7538SOL    HW234251   3.964   4.224   6.647  1.8407  1.5740 -0.8734
 7539SOL     OW34252   3.697   2.429   4.402 -0.4206 -0.4019  0.7851
 7539SOL    HW134253   3.627   2.424   4.337  0.0014 -1.0562  0.3795
 7539SOL    HW234254   3.743   2.350   4.373 -1.1893  0.0423 -1.6357
 7540SOL     OW34255   0.648   3.560  15.603 -0.0911 -0.3057  0.5270
 7540SOL    HW134256   0.552   3.564  15.596 -0.1490 -0.6109  1.1527
 7540SOL    HW234257   0.658   3.580  15.696  1.9325 -1.6676  0.6048
 7541SOL     OW34258   3.013   1.745   4.633  0.3202 -0.1320  0.3926
 7541SOL    HW134259   3.017   1.649   4.632  1.1231 -0.0857 -0.7051
 7541SOL    HW234260   2.924   1.758   4.666 -0.1944  1.8727 -1.8022
 7542SOL     OW34261   2.638   3.708   6.130  0.1916  0.0312  0.2236
 7542SOL    HW134262   2.686   3.648   6.187 -0.7125 -0.4776  0.4449
 7542SOL    HW234263   2.566   3.725   6.190 -0.0930 -1.3752  0.2878
 7543SOL     OW34264   0.648   3.798   0.517  0.8343 -0.1681  0.1179
 7543SOL    HW134265   0.571   3.765   0.469  2.0352 -2.6034 -0.1638
 7543SOL    HW234266   0.715   3.822   0.453 -0.1879  2.0959 -0.0885
 7544SOL     OW34267   1.168   3.550   5.993  0.2160  0.3630  0.1275
 7544SOL    HW134268   1.096   3.531   5.933 -0.7447 -0.1833  1.4507
 7544SOL    HW234269   1.123   3.560   6.077 -0.5593 -0.4337 -0.1930
 7545SOL     OW34270   4.613   1.183   8.361 -0.0408 -0.2187  0.5561
 7545SOL    HW134271   4.608   1.198   8.455 -0.8000  1.7155  0.2007
 7545SOL    HW234272   4.579   1.094   8.353  1.1044 -0.8946  3.1924
 7546SOL     OW34273   0.200   1.607   6.871 -0.4397 -0.0342  0.3753
 7546SOL    HW134274   0.268   1.595   6.937 -0.2386 -1.8596 -0.1864
 7546SOL    HW234275   0.236   1.638   6.787 -0.2385 -0.8821  0.1553
 7547SOL     OW34276   1.584   3.135   4.415  0.3925 -0.3997  0.1327
 7547SOL    HW134277   1.617   3.085   4.341 -0.9011 -0.0373 -0.6816
 7547SOL    HW234278   1.491   3.113   4.407  0.6170 -0.7677 -1.5410
 7548SOL     OW34279   2.796   4.103   4.577  0.0266 -0.0262  0.1266
 7548SOL    HW134280   2.872   4.161   4.586  0.0846  0.2115 -1.8730
 7548SOL    HW234281   2.723   4.159   4.602  0.4422  0.0070  1.2408
 7549SOL     OW34282   1.374   1.397   5.380  0.8108 -0.0560  0.1180
 7549SOL    HW134283   1.346   1.319   5.332 -0.5705  0.4245  0.1590
 7549SOL    HW234284   1.297   1.422   5.430 -0.1162 -1.7412 -0.4638
 7550SOL     OW34285   1.858   1.383   1.573  0.0387  0.5424  0.1250
 7550SOL    HW134286   1.815   1.441   1.636 -2.2821 -1.0715  0.0183
 7550SOL    HW234287   1.931   1.355   1.628 -0.8043 -2.5570 -0.3086
 7551SOL     OW34288   0.328   0.263   8.987 -0.1558 -0.6559  0.1307
 7551SOL    HW134289   0.377   0.203   9.044 -0.0842 -1.1617 -0.4721
 7551SOL    HW234290   0.263   0.292   9.052  0.0630 -0.7116  0.3754
 7552SOL     OW34291   3.353   1.422  17.377 -0.1902 -0.4403  0.6511
 7552SOL    HW134292   3.341   1.329  17.395  0.1690 -0.1699  2.2657
 7552SOL    HW234293   3.402   1.405  17.296 -0.9890 -2.0751  0.5118
 7553SOL     OW34294   4.040   2.316  16.814 -0.1966 -0.1255  0.1723
 7553SOL    HW134295   4.093   2.238  16.826 -0.4798 -0.4518 -0.7586
 7553SOL    HW234296   4.001   2.283  16.733  2.2190 -1.5438 -0.4136
 7554SOL     OW34297   2.143   1.131   7.167 -0.1021 -0.0465  0.2611
 7554SOL    HW134298   2.092   1.190   7.223 -0.3577  1.1952 -1.2871
 7554SOL    HW234299   2.224   1.133   7.217  0.1321  4.5478 -0.3708
 7555SOL     OW34300   2.804   2.505   5.609 -0.0413  0.6469 -0.1854
 7555SOL    HW134301   2.745   2.521   5.535 -0.6903  1.0110  0.4084
 7555SOL    HW234302   2.850   2.589   5.610 -0.2427  0.7689 -0.9634
 7556SOL     OW34303   1.101   3.147  16.719 -0.2007  0.2603  0.2426
 7556SOL    HW134304   1.144   3.163  16.803 -2.8692  2.5622  1.1705
 7556SOL    HW234305   1.117   3.224  16.665  1.6357  0.5196  1.1461
 7557SOL     OW34306   0.085   4.194   3.480 -0.0122  0.1073 -0.0698
 7557SOL    HW134307   0.001   4.148   3.477 -0.2457  0.4635  1.0017
 7557SOL    HW234308   0.060   4.282   3.452  3.7031  1.6615  1.6232
 7558SOL     OW34309   1.275   2.707  15.937 -0.2714  0.2089 -0.1728
 7558SOL    HW134310   1.247   2.718  16.028  1.4825 -1.2023  0.5244
 7558SOL    HW234311   1.223   2.632  15.909 -1.0366  0.6806 -0.0510
 7559SOL     OW34312   2.417   0.575   3.205  0.2153  0.0566  0.1347
 7559SOL    HW134313   2.434   0.486   3.235  1.0383  0.2647  0.2993
 7559SOL    HW234314   2.511   0.591   3.191  0.1654 -0.8981 -1.2319
 7560SOL     OW34315   3.586   3.321  13.354 -0.7114 -0.4894 -0.2637
 7560SOL    HW134316   3.577   3.306  13.448 -1.4764  0.1613 -0.2355
 7560SOL    HW234317   3.569   3.236  13.313 -1.1643 -1.2997  1.6396
 7561SOL     OW34318   0.432   3.269   8.738 -0.4505  0.1545  0.3631
 7561SOL    HW134319   0.525   3.283   8.756 -0.2477 -1.4945  0.6313
 7561SOL    HW234320   0.404   3.246   8.827 -0.8427 -3.2135 -0.6183
 7562SOL     OW34321   1.419   3.318  13.036  0.3827  0.4791  0.6067
 7562SOL    HW134322   1.473   3.375  12.981 -0.5032  0.6346 -0.1248
 7562SOL    HW234323   1.418   3.365  13.119  0.3094 -0.9857  1.4283
 7563SOL     OW34324   4.636   1.428  11.008 -0.4630 -0.2446  0.2465
 7563SOL    HW134325   4.612   1.519  10.995  2.1763  0.1469 -1.7888
 7563SOL    HW234326   4.645   1.423  11.103  0.8186 -1.1561  0.0776
 7564SOL     OW34327   3.317   0.470   8.796 -0.1420 -0.3457  0.2858
 7564SOL    HW134328   3.284   0.433   8.878 -1.5942 -2.9318 -1.4859
 7564SOL    HW234329   3.409   0.459   8.818 -0.0651  1.3003  0.8072
 7565SOL     OW34330   2.501   2.311  14.666 -0.0218  0.9960 -0.3381
 7565SOL    HW134331   2.466   2.330  14.753  1.9220  1.4013  0.3685
 7565SOL    HW234332   2.583   2.266  14.689 -0.2292  1.3775  1.1678
 7566SOL     OW34333   1.618   2.374   6.777  0.0037  0.1912  0.8495
 7566SOL    HW134334   1.559   2.387   6.704  2.0741 -0.1661 -0.9024
 7566SOL    HW234335   1.674   2.305   6.741 -0.4998  0.5426 -0.5787
 7567SOL     OW34336   3.322   2.570  15.947 -0.2121 -0.3927 -0.6896
 7567SOL    HW134337   3.246   2.579  16.005  1.4159 -2.4067  1.7354
 7567SOL    HW234338   3.380   2.509  15.992  0.0307 -0.0103 -0.4841
 7568SOL     OW34339   2.545   3.880  13.571  0.1034 -0.2336 -0.3429
 7568SOL    HW134340   2.509   3.808  13.519  1.4856 -0.1829 -1.3829
 7568SOL    HW234341   2.478   3.884  13.639 -1.2502 -0.3923 -1.6717
 7569SOL     OW34342   1.037   2.905   5.183 -0.5633  0.1587  0.1254
 7569SOL    HW134343   0.948   2.933   5.206 -0.1894  0.1356  1.5663
 7569SOL    HW234344   1.045   2.951   5.100  3.4419 -1.8285 -0.5861
 7570SOL     OW34345   4.253   4.125   3.770 -0.1558 -0.0519 -0.4486
 7570SOL    HW134346   4.236   4.034   3.793 -0.4014  0.2651  0.6358
 7570SOL    HW234347   4.340   4.111   3.732  0.1125 -0.6925  0.4108
 7571SOL     OW34348   4.129   1.950   8.009  0.2937 -0.0840 -0.0897
 7571SOL    HW134349   4.150   2.001   7.931 -1.9287  1.2969  0.2226
 7571SOL    HW234350   4.154   1.860   7.988  2.0826  0.1750  0.9572
 7572SOL     OW34351   2.230   4.737   9.664 -0.4985 -0.2599  0.0002
 7572SOL    HW134352   2.294   4.689   9.718 -0.6583 -0.0882  0.3361
 7572SOL    HW234353   2.243   4.689   9.582  2.1889  0.5029 -0.0450
 7573SOL     OW34354   2.162   4.171   3.485 -0.1680  0.4131 -0.3522
 7573SOL    HW134355   2.160   4.258   3.444 -0.3800 -0.3199 -1.9087
 7573SOL    HW234356   2.123   4.126   3.410 -3.4088  2.7835 -0.0608
 7574SOL     OW34357   1.815   0.091   1.807  0.0185  0.1893 -0.3750
 7574SOL    HW134358   1.857   0.042   1.878 -1.9209  0.6122  1.0735
 7574SOL    HW234359   1.797   0.181   1.836 -1.3086 -0.0122 -0.5815
 7575SOL     OW34360   2.515   2.554   0.455 -0.2327  0.8536  0.5863
 7575SOL    HW134361   2.561   2.485   0.504 -1.6898  1.2166  2.4596
 7575SOL    HW234362   2.578   2.626   0.456 -0.5976  1.1594  1.8363
 7576SOL     OW34363   0.394   4.276  12.001  0.3444 -0.1853  0.9223
 7576SOL    HW134364   0.452   4.344  11.966  0.8148 -1.7052 -1.2831
 7576SOL    HW234365   0.346   4.250  11.922  0.6235  1.6354  0.1423
 7577SOL     OW34366   0.901   2.954   1.374  0.1345  0.2242  0.1414
 7577SOL    HW134367   0.890   2.863   1.403  2.0459  0.2929  1.0992
 7577SOL    HW234368   0.945   2.936   1.291  0.6364  1.9628  0.0313
 7578SOL     OW34369   2.820   0.112   4.643  0.4383  0.9408 -0.2752
 7578SOL    HW134370   2.898   0.158   4.612  1.0187  1.2860  1.7045
 7578SOL    HW234371   2.811   0.145   4.732 -1.9058  0.3219 -0.2991
 7579SOL     OW34372   2.159   1.727   5.671  0.0051  0.5116 -0.3519
 7579SOL    HW134373   2.180   1.812   5.709 -0.6315  0.8709 -0.8073
 7579SOL    HW234374   2.100   1.758   5.603 -0.9838  0.8228  0.6364
 7580SOL     OW34375   2.643   1.444   4.400  0.3558 -0.2804 -0.0595
 7580SOL    HW134376   2.635   1.540   4.406 -1.8046 -0.4614  0.1200
 7580SOL    HW234377   2.605   1.417   4.316  1.8112 -1.8634 -0.1923
 7581SOL     OW34378   3.951   2.651   2.010  0.8436  0.2034 -0.4885
 7581SOL    HW134379   3.910   2.724   2.056 -1.1353 -0.9594 -0.4020
 7581SOL    HW234380   3.895   2.577   2.034 -0.1811  1.1292 -0.0193
 7582SOL     OW34381   0.778   4.402   3.994  0.3428 -0.0359  0.0697
 7582SOL    HW134382   0.796   4.489   3.958  0.5206 -0.1890 -0.2095
 7582SOL    HW234383   0.714   4.366   3.932  1.9465  0.3773 -1.8315
 7583SOL     OW34384   2.893   0.673   3.924 -0.3618 -0.5499  0.0888
 7583SOL    HW134385   2.927   0.761   3.937 -0.8034 -0.3005 -0.4319
 7583SOL    HW234386   2.820   0.676   3.862 -1.8019  1.1811  1.8680
 7584SOL     OW34387   4.072   3.765   0.879 -0.6314 -0.9309 -0.1905
 7584SOL    HW134388   4.151   3.819   0.884 -0.9296 -0.3877 -1.3702
 7584SOL    HW234389   4.035   3.788   0.794  0.7244 -0.6310 -0.7040
 7585SOL     OW34390   2.345   0.994  15.898 -0.0099  0.3569 -0.2832
 7585SOL    HW134391   2.421   0.976  15.842  0.7290 -0.9590  1.1531
 7585SOL    HW234392   2.393   1.027  15.974 -2.0954  0.5813  0.9220
 7586SOL     OW34393   3.376   1.446   8.020 -0.0216 -0.1410  0.3278
 7586SOL    HW134394   3.471   1.439   8.006 -0.1749 -0.2640 -0.6587
 7586SOL    HW234395   3.358   1.419   8.110  0.8116 -2.0973 -0.0907
 7587SOL     OW34396   2.618   1.307  11.570  0.8530  0.2956 -0.0769
 7587SOL    HW134397   2.619   1.223  11.525  0.8959  0.9382 -1.3012
 7587SOL    HW234398   2.682   1.357  11.518 -0.5882  0.3849 -1.7669
 7588SOL     OW34399   0.325   3.425  12.439  0.4136  0.6170  0.3073
 7588SOL    HW134400   0.385   3.350  12.442  0.4649  0.5543 -2.1497
 7588SOL    HW234401   0.268   3.388  12.372  2.9302  0.5234 -1.8029
 7589SOL     OW34402   3.200   4.122  14.611 -0.6849  0.5680  0.2147
 7589SOL    HW134403   3.133   4.178  14.651  0.5210  1.4235  1.0640
 7589SOL    HW234404   3.182   4.040  14.657 -0.6424  0.4762  0.0660
 7590SOL     OW34405   4.412   4.465   5.373 -0.0555 -0.1788 -0.1866
 7590SOL    HW134406   4.376   4.531   5.431 -1.2376  0.3859 -1.5827
 7590SOL    HW234407   4.464   4.411   5.434  1.8386 -1.4420 -2.8825
 7591SOL     OW34408   2.148   0.299   3.412  0.2803  0.2323  0.0787
 7591SOL    HW134409   2.091   0.307   3.489  0.8402 -1.0662  0.6373
 7591SOL    HW234410   2.094   0.237   3.363  1.9450 -0.6768 -0.6075
 7592SOL     OW34411   2.592   1.969   8.623  0.0198 -0.1201 -0.0245
 7592SOL    HW134412   2.624   1.918   8.549  0.1073  1.1350 -0.8436
 7592SOL    HW234413   2.567   2.048   8.576  2.2411  1.5928  1.6520
 7593SOL     OW34414   0.907   1.708   4.916 -0.2987 -0.4027 -0.5759
 7593SOL    HW134415   0.957   1.706   4.998 -0.7555 -0.2207 -0.2932
 7593SOL    HW234416   0.908   1.617   4.888  3.6756 -1.0920  1.9604
 7594SOL     OW34417   2.400   1.232   6.863  0.3633 -0.2829 -0.1404
 7594SOL    HW134418   2.458   1.219   6.788  0.9436  3.0379 -0.2313
 7594SOL    HW234419   2.468   1.240   6.930  0.5534 -0.1242 -0.3524
 7595SOL     OW34420   1.796   1.177  12.982 -0.0147 -0.4163  0.2633
 7595SOL    HW134421   1.762   1.134  12.903 -0.3631  1.5650 -0.6843
 7595SOL    HW234422   1.722   1.164  13.042 -1.4159  0.3472 -1.2739
 7596SOL     OW34423   0.251   3.325  12.759  0.3675 -0.4418  0.1610
 7596SOL    HW134424   0.182   3.259  12.770 -1.4922  1.3677 -0.5417
 7596SOL    HW234425   0.208   3.402  12.721  0.0847  0.5754  2.5490
 7597SOL     OW34426   4.336   3.800  12.932 -1.3178 -0.4541  0.5659
 7597SOL    HW134427   4.351   3.724  12.876 -0.4006 -0.1246  0.3631
 7597SOL    HW234428   4.306   3.760  13.014 -0.8114  0.4341  1.1949
 7598SOL     OW34429   3.130   3.729   8.635 -0.3704 -0.4330 -0.0044
 7598SOL    HW134430   3.077   3.706   8.559 -1.4444  2.4014 -0.1037
 7598SOL    HW234431   3.190   3.657   8.652  1.4802  1.0484 -0.2776
 7599SOL     OW34432   1.093   1.277  11.189 -0.2388  0.5524 -0.0468
 7599SOL    HW134433   1.122   1.366  11.172 -1.7422  1.1118  0.3501
 7599SOL    HW234434   1.080   1.251  11.097 -2.8042  0.1733  0.4179
 7600SOL     OW34435   3.957   2.068   5.135  0.3728 -0.4448  0.1015
 7600SOL    HW134436   4.016   2.115   5.076  1.5235 -1.9815  0.0232
 7600SOL    HW234437   3.982   1.977   5.116  1.9114  0.2785 -1.3228
 7601SOL     OW34438   0.199   0.862  11.731  0.3264 -0.1695 -0.1997
 7601SOL    HW134439   0.217   0.838  11.640  0.8410  0.6127 -0.3038
 7601SOL    HW234440   0.129   0.926  11.717 -0.8450 -1.4711 -0.3883
 7602SOL     OW34441   0.479   2.371   4.190 -0.7111  0.3629  0.1319
 7602SOL    HW134442   0.484   2.467   4.184  0.2143  0.2606 -0.8689
 7602SOL    HW234443   0.571   2.351   4.208 -0.7140  1.1446  1.0445
 7603SOL     OW34444   4.587   0.349   9.498 -0.2634 -0.0481 -0.2206
 7603SOL    HW134445   4.526   0.403   9.549 -0.0948  0.1351 -0.2152
 7603SOL    HW234446   4.585   0.263   9.540 -2.9716  1.3023  2.4191
 7604SOL     OW34447   4.233   3.074  11.221  0.1803  0.4353 -0.2879
 7604SOL    HW134448   4.235   2.992  11.173 -2.7706  0.6135 -0.7520
 7604SOL    HW234449   4.153   3.116  11.189 -0.2793 -0.0276  0.2453
 7605SOL     OW34450   2.322   1.684  13.470  0.9202  0.0443 -0.1173
 7605SOL    HW134451   2.259   1.640  13.528  1.8778 -0.8136  0.2716
 7605SOL    HW234452   2.262   1.730  13.412  2.1392  3.8597  1.6660
 7606SOL     OW34453   4.551   2.000   7.196 -0.3137 -0.3003 -0.2242
 7606SOL    HW134454   4.529   2.084   7.157 -2.4127  1.0179  3.8390
 7606SOL    HW234455   4.511   1.939   7.134 -0.1161 -0.8721  0.2112
 7607SOL     OW34456   0.887   2.821   4.861 -0.4976 -0.2692 -0.2636
 7607SOL    HW134457   0.913   2.763   4.932  0.1435 -0.9954 -1.0969
 7607SOL    HW234458   0.867   2.905   4.903 -1.9381  0.5194 -2.5469
 7608SOL     OW34459   3.434   0.900   2.846  0.1807  0.3275 -0.0966
 7608SOL    HW134460   3.472   0.886   2.933  1.0360 -0.3189 -0.5756
 7608SOL    HW234461   3.380   0.821   2.838  1.5449 -0.2831 -3.1909
 7609SOL     OW34462   2.666   2.718   1.708  0.2262 -0.2792 -0.2661
 7609SOL    HW134463   2.670   2.778   1.782 -0.6721 -1.1926  0.5157
 7609SOL    HW234464   2.573   2.715   1.687 -0.1859  2.1791  1.1290
 7610SOL     OW34465   2.346   2.706  14.223  0.5149  0.1154  0.4695
 7610SOL    HW134466   2.365   2.736  14.312  0.0692 -1.4388  1.0904
 7610SOL    HW234467   2.399   2.626  14.220  0.5908  0.1204  1.9110
 7611SOL     OW34468   4.354   3.505   2.430 -0.1400  0.4589  0.0259
 7611SOL    HW134469   4.266   3.535   2.409 -0.9392 -1.9328 -0.0717
 7611SOL    HW234470   4.341   3.410   2.438 -1.3310  0.4854 -1.5212
 7612SOL     OW34471   3.152   3.152   6.088 -0.1878  0.2949  0.2602
 7612SOL    HW134472   3.238   3.172   6.052 -1.2668 -1.9821 -3.5598
 7612SOL    HW234473   3.155   3.198   6.172 -1.1845 -1.4837  1.2716
 7613SOL     OW34474   0.661   4.294   1.776  0.2423 -0.3679  0.4040
 7613SOL    HW134475   0.740   4.339   1.804 -0.9185  2.3605 -0.6968
 7613SOL    HW234476   0.678   4.202   1.798  2.7266 -0.0802 -0.4028
 7614SOL     OW34477   3.313   0.215  10.804 -0.4745 -0.2430 -0.5517
 7614SOL    HW134478   3.349   0.129  10.785  0.5769  0.2556 -0.8311
 7614SOL    HW234479   3.283   0.200  10.894  1.4784  1.1636  0.3294
 7615SOL     OW34480   2.047   2.674   7.780  0.0195 -0.5159 -0.4723
 7615SOL    HW134481   2.016   2.618   7.709 -0.2795 -2.4805  1.2142
 7615SOL    HW234482   1.972   2.733   7.778 -0.1405 -0.6861  1.4531
 7616SOL     OW34483   1.931   4.577   6.047  0.1058  0.6454  0.3528
 7616SOL    HW134484   1.930   4.551   6.139  1.5333 -0.0440  0.1590
 7616SOL    HW234485   1.986   4.656   6.049  0.3068  0.4580  2.4095
 7617SOL     OW34486   0.017   1.296  17.033 -0.0214 -0.3663 -0.3240
 7617SOL    HW134487   4.698   1.223  17.053  0.5417 -0.9007 -0.5841
 7617SOL    HW234488   0.012   1.342  17.117  2.1632 -1.2990  0.3122
 7618SOL     OW34489   0.810   0.713  11.363 -0.2757  0.0907  0.1675
 7618SOL    HW134490   0.822   0.626  11.326  1.5497  0.9682 -1.2886
 7618SOL    HW234491   0.895   0.733  11.401 -1.4613  0.4560  2.6353
 7619SOL     OW34492   3.569   3.490   4.970  0.3784 -0.3761  0.4252
 7619SOL    HW134493   3.475   3.474   4.962  0.6633 -1.5090 -0.5801
 7619SOL    HW234494   3.604   3.402   4.973 -1.7039 -1.1398  2.4700
 7620SOL     OW34495   2.266   0.821   3.224 -0.5089  0.4070  0.5495
 7620SOL    HW134496   2.205   0.777   3.283 -2.0295 -0.1912 -1.4687
 7620SOL    HW234497   2.323   0.749   3.194 -1.1917 -0.1997  0.7006
 7621SOL     OW34498   2.096   3.191   5.413  0.2434  0.0526  0.6931
 7621SOL    HW134499   2.102   3.214   5.506 -1.8309  1.5637  0.4639
 7621SOL    HW234500   2.157   3.248   5.366 -1.2611  0.0114 -1.2907
 7622SOL     OW34501   2.724   4.702   9.787 -0.1845  0.3087  0.5054
 7622SOL    HW134502   2.809   4.657   9.781 -1.5265 -2.0038 -1.2740
 7622SOL    HW234503   2.719   0.021   9.712 -0.8733 -1.7682 -1.0845
 7623SOL     OW34504   4.624   4.274  11.593 -0.5112  0.5866 -0.3154
 7623SOL    HW134505   4.671   4.326  11.658  0.5651 -1.1036  0.2320
 7623SOL    HW234506   4.604   4.348  11.536 -0.2933 -0.1107 -1.2950
 7624SOL     OW34507   0.086   2.919   0.575 -0.2300  0.1192 -0.2671
 7624SOL    HW134508   0.093   2.946   0.666  0.5040 -2.3843  0.4100
 7624SOL    HW234509   0.071   3.003   0.532  0.2045  0.8290  0.9834
 7625SOL     OW34510   4.394   3.794   8.456  0.9367 -0.1958 -0.2854
 7625SOL    HW134511   4.363   3.877   8.421 -0.0825 -0.5029 -0.0925
 7625SOL    HW234512   4.313   3.744   8.462 -0.7248  2.3953 -1.0303
 7626SOL     OW34513   3.344   4.119   6.477 -0.2563 -0.1654  0.0310
 7626SOL    HW134514   3.410   4.161   6.532 -1.8652 -2.3542  3.6368
 7626SOL    HW234515   3.308   4.046   6.528 -0.4426 -0.9764 -1.2854
 7627SOL     OW34516   4.176   1.242  16.419  0.0176 -0.0231  0.0591
 7627SOL    HW134517   4.262   1.235  16.461 -1.1629 -1.8607  2.1900
 7627SOL    HW234518   4.126   1.173  16.462  0.7375  0.8373  2.3003
 7628SOL     OW34519   1.894   3.830   8.130 -0.0582  0.5124  0.4220
 7628SOL    HW134520   1.917   3.913   8.171 -0.5888 -0.5545  2.8954
 7628SOL    HW234521   1.914   3.855   8.040  0.5618 -0.4628  0.2852
 7629SOL     OW34522   0.447   2.999   7.386 -0.0625 -0.3396 -0.0442
 7629SOL    HW134523   0.409   3.034   7.466  1.7840 -0.9679  1.0857
 7629SOL    HW234524   0.525   2.951   7.412  0.1106 -0.0657 -0.0568
 7630SOL     OW34525   0.259   0.470   6.331  0.2621  0.1781 -0.0702
 7630SOL    HW134526   0.327   0.537   6.316  0.1302  0.1145 -0.9907
 7630SOL    HW234527   0.312   0.391   6.323 -2.2581 -1.6801  1.8126
 7631SOL     OW34528   0.614   1.195   7.854 -0.3147  0.0687  0.1271
 7631SOL    HW134529   0.683   1.131   7.834 -1.6304 -1.5694  0.7926
 7631SOL    HW234530   0.638   1.215   7.944 -0.6725 -2.8054  0.8665
 7632SOL     OW34531   4.199   0.589   5.742  0.1315  0.1130  0.3404
 7632SOL    HW134532   4.240   0.552   5.820  0.5247 -0.0863  0.0384
 7632SOL    HW234533   4.240   0.675   5.746  3.0523 -1.1995 -1.6578
 7633SOL     OW34534   3.212   2.464   5.325 -0.1124 -0.0223  0.1059
 7633SOL    HW134535   3.119   2.478   5.340  0.1148  1.0436  0.5653
 7633SOL    HW234536   3.236   2.547   5.283 -1.6055  0.3278 -0.0547
 7634SOL     OW34537   1.219   0.064  17.291 -0.5145 -0.2181  0.2781
 7634SOL    HW134538   1.281   0.103  17.353 -0.9293  1.2834 -0.2495
 7634SOL    HW234539   1.267   4.726  17.263 -1.8583 -2.1210  3.3630
 7635SOL     OW34540   0.717   3.549   7.071  0.2778 -0.3570  0.2220
 7635SOL    HW134541   0.667   3.535   7.151 -2.5966 -3.9436 -2.1794
 7635SOL    HW234542   0.800   3.505   7.092  1.9211  2.3751 -0.4746
 7636SOL     OW34543   3.682   1.739   8.797  0.1627 -0.4271  0.3350
 7636SOL    HW134544   3.632   1.692   8.730 -2.5774  2.0245  0.6415
 7636SOL    HW234545   3.703   1.811   8.737  0.7208  0.4368  1.5667
 7637SOL     OW34546   1.029   3.353   2.130 -0.1036  0.8904 -0.3140
 7637SOL    HW134547   1.093   3.367   2.199 -0.6813 -0.4011  0.4840
 7637SOL    HW234548   0.992   3.439   2.109 -2.7911 -0.5148 -1.3983
 7638SOL     OW34549   1.828   3.480   2.389  0.0099  0.4248 -0.2196
 7638SOL    HW134550   1.844   3.486   2.295 -2.1256  1.7175 -0.4784
 7638SOL    HW234551   1.749   3.530   2.408 -0.0450  0.1992  0.1520
 7639SOL     OW34552   2.643   2.639   1.168  0.1188  0.4041  0.0310
 7639SOL    HW134553   2.592   2.580   1.113  0.2455  0.2690  0.0567
 7639SOL    HW234554   2.704   2.576   1.207 -0.1029  0.0340 -0.2242
 7640SOL     OW34555   1.689   2.590   9.315  0.0385  0.4055 -0.0110
 7640SOL    HW134556   1.714   2.592   9.408 -1.5287  1.3993  0.3886
 7640SOL    HW234557   1.748   2.522   9.284 -1.2076 -1.0791  0.8168
 7641SOL     OW34558   1.249   0.893   9.183 -0.0607  0.3096  0.3393
 7641SOL    HW134559   1.237   0.798   9.174 -0.3403  0.3887 -0.1341
 7641SOL    HW234560   1.183   0.923   9.120  1.3521  0.7182 -0.9323
 7642SOL     OW34561   2.244   3.113   7.508  0.2454  0.3044  0.7044
 7642SOL    HW134562   2.266   3.021   7.524 -1.2971  0.2119  2.2126
 7642SOL    HW234563   2.291   3.137   7.428 -1.0922 -0.3749 -0.2783
 7643SOL     OW34564   3.128   1.531  16.527  0.2016 -0.2974 -0.6248
 7643SOL    HW134565   3.142   1.620  16.494  0.1793  0.0352  0.2546
 7643SOL    HW234566   3.188   1.521  16.601 -0.0864 -0.6173 -0.4332
 7644SOL     OW34567   4.163   4.001   7.916  0.0081  0.1317 -0.2087
 7644SOL    HW134568   4.240   3.999   7.973 -0.3129 -0.2463  0.2220
 7644SOL    HW234569   4.166   3.910   7.887 -3.0367 -0.0615  0.0510
 7645SOL     OW34570   2.727   3.290  16.186  0.6579 -0.8023  0.1063
 7645SOL    HW134571   2.816   3.326  16.187 -0.3846  1.7469  2.7378
 7645SOL    HW234572   2.738   3.218  16.248  1.5533 -1.3407 -0.6832
 7646SOL     OW34573   3.259   1.473  16.167 -0.2373 -0.6113 -0.7226
 7646SOL    HW134574   3.175   1.430  16.150 -1.1313  0.0753  1.9192
 7646SOL    HW234575   3.234   1.563  16.190 -0.0534 -0.5386 -0.8081
 7647SOL     OW34576   4.220   0.959   3.880  0.4385 -0.6420  0.0286
 7647SOL    HW134577   4.238   0.919   3.794  0.7449 -1.3628  0.4186
 7647SOL    HW234578   4.140   1.000   3.850  1.7142  1.4869 -0.4561
 7648SOL     OW34579   2.509   0.691   5.491 -0.8417 -0.1762 -0.2791
 7648SOL    HW134580   2.584   0.633   5.479  1.0053  1.8039  1.4792
 7648SOL    HW234581   2.482   0.713   5.402  0.2937  1.0390 -0.3222
 7649SOL     OW34582   2.678   0.532   2.802 -0.4884 -0.4859 -0.3989
 7649SOL    HW134583   2.725   0.615   2.805  2.9834 -2.3446 -3.9734
 7649SOL    HW234584   2.587   0.551   2.780  0.0149  0.6230 -1.5544
 7650SOL     OW34585   1.657   3.351   2.142 -0.2971  0.2692 -0.2472
 7650SOL    HW134586   1.734   3.405   2.124  0.6723 -0.6127  1.1976
 7650SOL    HW234587   1.597   3.402   2.089  0.6790  1.5608 -0.1064
 7651SOL     OW34588   4.018   2.256   6.781 -0.2726 -0.0831 -0.6384
 7651SOL    HW134589   3.996   2.263   6.873 -1.9475 -0.4811 -1.0027
 7651SOL    HW234590   3.965   2.182   6.751  1.1061 -1.0087 -0.7574
 7652SOL     OW34591   3.663   4.294   3.975  0.0317  0.5518  0.3460
 7652SOL    HW134592   3.715   4.302   4.055  0.3842  0.2238  0.1517
 7652SOL    HW234593   3.580   4.260   4.008  0.5023 -0.3255  0.6205
 7653SOL     OW34594   0.626   0.931   8.900  0.1531  0.4668  0.2456
 7653SOL    HW134595   0.571   0.887   8.965 -1.0186  0.0277 -1.0646
 7653SOL    HW234596   0.615   0.871   8.826 -1.4512 -0.2394  1.0512
 7654SOL     OW34597   3.796   0.609   9.268  0.1164 -0.1224  0.1969
 7654SOL    HW134598   3.706   0.601   9.302  0.0273  0.2810  0.0578
 7654SOL    HW234599   3.812   0.523   9.230 -1.7826 -0.3167 -0.1513
 7655SOL     OW34600   0.198   3.412  17.599  0.0655  0.0905 -0.3364
 7655SOL    HW134601   0.260   3.342  17.620 -2.3842 -1.5541  1.4081
 7655SOL    HW234602   0.173   3.381  17.512 -0.8263 -3.1707  1.0695
 7656SOL     OW34603   0.918   0.443   7.026 -0.5300  0.2954 -0.5098
 7656SOL    HW134604   0.909   0.360   7.073  0.8287  0.9351  0.8799
 7656SOL    HW234605   0.975   0.490   7.087  1.1812 -1.5659 -0.6947
 7657SOL     OW34606   4.325   0.801   5.808  0.1403  0.7606  0.2016
 7657SOL    HW134607   4.395   0.793   5.742  1.3366  1.0685  1.4423
 7657SOL    HW234608   4.372   0.810   5.891  1.8533 -1.1377 -0.5676
 7658SOL     OW34609   4.018   3.210   7.249 -0.0121 -0.3586 -0.2417
 7658SOL    HW134610   4.099   3.160   7.248 -1.4857 -2.7427  0.8029
 7658SOL    HW234611   4.023   3.248   7.337  2.5565  0.2641 -0.6692
 7659SOL     OW34612   3.986   3.171  14.005 -0.5851  0.2315 -0.2475
 7659SOL    HW134613   4.023   3.095  14.051 -2.8145 -0.6448  0.1070
 7659SOL    HW234614   3.937   3.127  13.935  0.1180 -0.8807 -0.0506
 7660SOL     OW34615   4.538   2.124   9.173 -0.2842  0.0014  0.0757
 7660SOL    HW134616   4.632   2.124   9.154  0.1812 -0.1698  2.3760
 7660SOL    HW234617   4.524   2.199   9.231 -1.4435  0.5763 -0.9608
 7661SOL     OW34618   0.104   2.930  14.065  0.3720  0.0964 -0.6174
 7661SOL    HW134619   0.056   2.966  14.139  0.1952 -0.1774 -0.5977
 7661SOL    HW234620   0.076   2.839  14.076  0.2231  0.4715  2.0241
 7662SOL     OW34621   0.301   2.304   2.419 -0.2541 -0.3701 -0.0247
 7662SOL    HW134622   0.270   2.235   2.477 -0.3099 -0.8590 -0.6346
 7662SOL    HW234623   0.392   2.276   2.405 -0.3971 -2.5535  3.4852
 7663SOL     OW34624   0.550   4.224   3.648  0.1958 -0.2485 -0.3335
 7663SOL    HW134625   0.497   4.226   3.728  0.4615 -2.0275 -0.1046
 7663SOL    HW234626   0.527   4.139   3.611  0.9134 -0.6921  0.2393
 7664SOL     OW34627   2.135   2.607   6.288  0.0448  0.6071 -0.2696
 7664SOL    HW134628   2.213   2.567   6.325  0.1829 -0.2599 -1.5203
 7664SOL    HW234629   2.149   2.594   6.194 -1.2871  0.9008 -0.5116
 7665SOL     OW34630   2.727   0.218   7.295 -0.3016  0.1860 -0.0050
 7665SOL    HW134631   2.745   0.124   7.286  3.1879  0.8624 -0.2641
 7665SOL    HW234632   2.665   0.223   7.222 -2.3756 -1.6893  1.6553
 7666SOL     OW34633   2.138   3.720   7.268  0.1333  0.5711  0.6310
 7666SOL    HW134634   2.053   3.735   7.308 -1.1256 -0.4865 -1.6621
 7666SOL    HW234635   2.138   3.787   7.201  1.7048  1.1782  1.2261
 7667SOL     OW34636   4.463   2.700   6.380  0.2332  0.1990 -0.2387
 7667SOL    HW134637   4.526   2.755   6.333  0.2207  0.7202  0.3529
 7667SOL    HW234638   4.403   2.671   6.312 -1.1086  1.1178  0.5589
 7668SOL     OW34639   0.817   4.294   4.361  0.3436  0.2356  0.4563
 7668SOL    HW134640   0.858   4.248   4.434  0.7294 -1.5967 -0.9281
 7668SOL    HW234641   0.820   4.233   4.288 -1.4439 -0.8958  1.3376
 7669SOL     OW34642   0.306   1.057   6.633 -0.0902 -0.1583  0.6134
 7669SOL    HW134643   0.331   0.969   6.605 -0.1838  0.0897 -0.2506
 7669SOL    HW234644   0.328   1.107   6.554 -3.8691  0.3057 -0.1591
 7670SOL     OW34645   4.275   0.192  13.655 -0.5866  0.4203 -0.2108
 7670SOL    HW134646   4.249   0.208  13.746  0.0360  0.6390 -0.0672
 7670SOL    HW234647   4.260   0.097  13.654 -1.1719  0.5040  0.6141
 7671SOL     OW34648   1.937   1.215   6.494  0.1392 -0.0240  0.2944
 7671SOL    HW134649   1.947   1.310   6.487  2.7593 -0.3827 -0.9367
 7671SOL    HW234650   2.017   1.185   6.538  1.5524  1.0260 -1.6003
 7672SOL     OW34651   3.009   2.533   5.010 -0.3710  0.1047  0.6238
 7672SOL    HW134652   3.020   2.597   5.080  2.4394 -0.6337  0.8700
 7672SOL    HW234653   2.936   2.484   5.049  0.4785 -2.9781 -1.6660
 7673SOL     OW34654   4.206   3.624   6.309  0.7432 -0.4655  0.0048
 7673SOL    HW134655   4.243   3.539   6.284 -2.2297 -1.6277 -0.4027
 7673SOL    HW234656   4.280   3.682   6.290 -0.6323  0.5284 -2.3231
 7674SOL     OW34657   3.788   1.460   9.051  0.4188 -0.6445 -0.3537
 7674SOL    HW134658   3.695   1.452   9.027 -0.0375 -0.1375  1.2678
 7674SOL    HW234659   3.814   1.541   9.006 -0.6576  0.6364  1.3085
 7675SOL     OW34660   2.655   3.734  14.816  0.7176 -0.3713 -0.6150
 7675SOL    HW134661   2.617   3.798  14.756 -0.5972  0.3550  0.9911
 7675SOL    HW234662   2.568   3.715  14.852  1.3763  0.9047  1.6594
 7676SOL     OW34663   3.426   3.198   3.286  0.1040  0.1948 -0.0456
 7676SOL    HW134664   3.403   3.186   3.194  1.3107  1.3204 -0.4946
 7676SOL    HW234665   3.409   3.288   3.311  1.4400  0.5745 -0.4740
 7677SOL     OW34666   3.266   2.013  10.232 -0.1651  0.3274  0.0126
 7677SOL    HW134667   3.188   2.039  10.283  0.4050 -0.9367  1.5266
 7677SOL    HW234668   3.255   2.055  10.147 -0.4752 -1.5188 -0.8602
 7678SOL     OW34669   4.470   2.431   7.024  0.3802  0.5766 -0.9138
 7678SOL    HW134670   4.445   2.416   7.115  0.9367 -2.9004 -1.3631
 7678SOL    HW234671   4.515   2.348   7.010  1.2797  1.1200 -1.2724
 7679SOL     OW34672   2.883   4.662   2.921 -0.3046 -0.6727  0.1516
 7679SOL    HW134673   2.791   4.670   2.896 -0.3667  2.8501  1.4651
 7679SOL    HW234674   2.878   4.674   3.016  2.4694  0.2612  0.1875
 7680SOL     OW34675   1.530   4.646   2.192 -0.3194 -0.3955  0.1339
 7680SOL    HW134676   1.489   4.569   2.233 -0.2966 -0.7301 -0.4737
 7680SOL    HW234677   1.460   4.688   2.143 -0.9731  0.3011  1.6732
 7681SOL     OW34678   3.574   3.318   8.725  0.3721 -0.4726 -0.3988
 7681SOL    HW134679   3.575   3.399   8.674 -0.1711  0.1236  0.5477
 7681SOL    HW234680   3.585   3.262   8.648 -1.6978  1.6255 -2.2008
 7682SOL     OW34681   1.097   4.193   8.850 -0.0254  0.0420  0.5379
 7682SOL    HW134682   1.101   4.271   8.795 -1.6263 -0.3497 -0.1398
 7682SOL    HW234683   1.162   4.212   8.918  1.5992  0.6282 -1.1800
 7683SOL     OW34684   4.699   3.381   4.385 -0.1467 -0.1796 -0.1119
 7683SOL    HW134685   4.658   3.347   4.305  0.6115  0.5104 -0.7966
 7683SOL    HW234686   0.045   3.406   4.352 -0.2239  0.6215  0.2925
 7684SOL     OW34687   4.248   2.480   5.697 -0.6640  0.9221 -0.1144
 7684SOL    HW134688   4.274   2.570   5.714  0.0198  0.3340  1.9617
 7684SOL    HW234689   4.163   2.491   5.654 -1.8694 -1.3802  1.6519
 7685SOL     OW34690   1.143   1.214  11.776 -0.1570  0.2624  0.3784
 7685SOL    HW134691   1.102   1.185  11.857  0.3551  1.0569  0.9220
 7685SOL    HW234692   1.071   1.216  11.712  0.8894 -2.0561 -0.8654
 7686SOL     OW34693   0.307   0.514   2.525  0.1201 -0.0174  0.2361
 7686SOL    HW134694   0.224   0.490   2.566 -0.9558  1.1378 -1.2599
 7686SOL    HW234695   0.362   0.436   2.534  1.4232  0.9197  0.4265
 7687SOL     OW34696   2.600   1.787  10.748 -0.0084  0.7213 -0.6313
 7687SOL    HW134697   2.543   1.846  10.797  0.3760  0.0558  0.6344
 7687SOL    HW234698   2.540   1.755  10.680 -1.1796 -1.3528  1.3675
 7688SOL     OW34699   1.877   1.777   7.755  0.2561  0.1485  0.0800
 7688SOL    HW134700   1.927   1.757   7.834 -2.2273  0.1979  1.6798
 7688SOL    HW234701   1.787   1.773   7.787 -0.3245  2.1947 -1.3152
 7689SOL     OW34702   1.892   3.145  12.102  0.0313 -0.0452 -0.0657
 7689SOL    HW134703   1.971   3.197  12.087  0.8200 -0.5532  2.3258
 7689SOL    HW234704   1.834   3.214  12.134  0.6933 -0.4079  1.9175
 7690SOL     OW34705   0.189   3.452   9.906 -0.3712 -0.0056  0.3877
 7690SOL    HW134706   0.166   3.486   9.820  1.9780  0.0359 -0.2146
 7690SOL    HW234707   0.132   3.498   9.968 -3.1053 -2.3451 -0.3719
 7691SOL     OW34708   2.309   0.311   6.009 -0.2454  0.5692  0.4641
 7691SOL    HW134709   2.391   0.262   6.012 -0.2315  0.5452 -0.3076
 7691SOL    HW234710   2.255   0.258   6.068  0.5468  0.1250  0.7898
 7692SOL     OW34711   0.234   2.672  11.246  0.8434  0.4355 -0.4705
 7692SOL    HW134712   0.274   2.713  11.169 -0.6979  1.3103 -0.8041
 7692SOL    HW234713   0.224   2.748  11.302  0.1849  0.8724 -1.1896
 7693SOL     OW34714   3.739   2.396  10.518 -0.0106  0.0828  0.6700
 7693SOL    HW134715   3.660   2.351  10.549 -1.2847  1.9131  0.0890
 7693SOL    HW234716   3.712   2.420  10.429 -2.7177  1.0453  1.7328
 7694SOL     OW34717   3.140   1.488  17.537 -0.3295  0.3786  0.0385
 7694SOL    HW134718   3.193   1.449  17.467 -0.5293 -1.4653  0.9158
 7694SOL    HW234719   3.206   1.509  17.603 -0.9377 -1.0042  1.0796
 7695SOL     OW34720   0.117   3.987   2.406 -0.3612  0.0673  0.9575
 7695SOL    HW134721   0.048   3.928   2.377  1.0291 -1.2248  0.2801
 7695SOL    HW234722   0.066   4.064   2.431 -0.9037  0.2162 -0.6383
 7696SOL     OW34723   2.215   1.544   4.374  0.2451 -0.1769  0.3011
 7696SOL    HW134724   2.301   1.562   4.336 -0.2977  0.6733 -0.5086
 7696SOL    HW234725   2.210   1.609   4.444  0.3035  0.2808 -0.1219
 7697SOL     OW34726   3.419   4.489   5.510  0.6332  0.2234  0.2648
 7697SOL    HW134727   3.484   4.427   5.479 -0.1797 -1.1842  1.3896
 7697SOL    HW234728   3.422   4.473   5.604  0.5146  4.2525  0.9486
 7698SOL     OW34729   3.226   2.160   6.641  0.5004  0.5447  0.2660
 7698SOL    HW134730   3.274   2.171   6.559  0.4461 -1.0832  0.0207
 7698SOL    HW234731   3.275   2.086   6.676  1.8133  0.9779 -0.6537
 7699SOL     OW34732   4.404   2.993   3.110  0.0257  0.0062  0.0053
 7699SOL    HW134733   4.428   3.074   3.065  1.3178 -0.0971  0.4977
 7699SOL    HW234734   4.457   2.934   3.056 -3.3470 -2.3294 -0.7575
 7700SOL     OW34735   0.696   2.713   4.705  0.8693  0.1246 -0.0191
 7700SOL    HW134736   0.613   2.720   4.752  1.1896  0.0395  0.5596
 7700SOL    HW234737   0.751   2.756   4.771  0.4975 -0.3384  0.5916
 7701SOL     OW34738   0.403   0.533   4.984 -0.4267  0.5325 -0.0612
 7701SOL    HW134739   0.411   0.496   5.072  0.8795 -0.1542 -0.4789
 7701SOL    HW234740   0.401   0.625   5.011  1.6842  1.0611 -1.7879
 7702SOL     OW34741   1.379   1.982   7.878 -0.1805 -0.3118  0.7192
 7702SOL    HW134742   1.286   1.999   7.863 -0.6450 -0.5188  3.4413
 7702SOL    HW234743   1.398   2.049   7.943  1.5918  0.7504 -0.9003
 7703SOL     OW34744   3.328   3.590   1.375 -0.1180 -0.4020  0.4058
 7703SOL    HW134745   3.261   3.534   1.413 -0.6374  0.4605  0.7656
 7703SOL    HW234746   3.330   3.663   1.438  0.1707  2.0327 -2.4394
 7704SOL     OW34747   2.161   0.500  11.663 -0.0806  0.5591 -0.0227
 7704SOL    HW134748   2.186   0.431  11.603  2.8780  2.0689 -0.5444
 7704SOL    HW234749   2.171   0.452  11.746 -2.9812 -1.5155 -0.9194
 7705SOL     OW34750   3.987   1.335  10.671 -0.7341 -0.4048 -0.2490
 7705SOL    HW134751   4.023   1.341  10.759 -1.8116  0.8673  0.1014
 7705SOL    HW234752   4.060   1.359  10.614 -0.4229  1.7739  1.0809
 7706SOL     OW34753   4.162   0.804  13.685  0.0540 -0.1275 -0.3955
 7706SOL    HW134754   4.208   0.876  13.729 -2.0860  0.0897  1.4922
 7706SOL    HW234755   4.221   0.729  13.698  3.1317  2.0785 -1.7517
 7707SOL     OW34756   2.700   1.126   3.979  0.5330 -0.1668  0.0701
 7707SOL    HW134757   2.679   1.219   3.991  1.7497  0.1283 -0.0582
 7707SOL    HW234758   2.730   1.138   3.888  0.2738 -2.4853 -0.3036
 7708SOL     OW34759   1.296   4.203   6.736  0.1072 -0.2170 -1.0035
 7708SOL    HW134760   1.288   4.158   6.821 -1.2090  0.4194 -0.8016
 7708SOL    HW234761   1.230   4.157   6.685  0.0042 -2.6554  1.3017
 7709SOL     OW34762   0.864   4.301   0.813  0.7110  0.4653 -0.2223
 7709SOL    HW134763   0.959   4.307   0.819  0.5635  1.1678  1.2211
 7709SOL    HW234764   0.852   4.229   0.875  1.3213  0.6594  0.1100
 7710SOL     OW34765   1.084   1.733   9.340  0.4579  0.7863 -0.1104
 7710SOL    HW134766   1.104   1.773   9.425 -0.4238  0.5796  0.1956
 7710SOL    HW234767   1.166   1.758   9.297  0.3513  1.1177 -0.1197
 7711SOL     OW34768   3.713   4.644   5.767 -0.3765  0.2568 -0.4825
 7711SOL    HW134769   3.684   4.735   5.778  0.6570  0.3758  1.2644
 7711SOL    HW234770   3.744   4.619   5.853 -0.4454  0.5145 -0.3809
 7712SOL     OW34771   2.425   0.767   1.491  0.6732 -0.1164  0.1812
 7712SOL    HW134772   2.330   0.759   1.491  0.6276  0.5129 -3.6682
 7712SOL    HW234773   2.443   0.680   1.455 -0.9169 -0.1813 -0.4347
 7713SOL     OW34774   3.673   3.680   7.994  0.0990 -0.3533  0.6166
 7713SOL    HW134775   3.673   3.587   7.971 -1.7249 -0.1326 -0.3020
 7713SOL    HW234776   3.753   3.699   7.946 -1.1938  0.8757 -1.0686
 7714SOL     OW34777   2.036   3.507   3.127 -0.7912  0.0347 -0.3549
 7714SOL    HW134778   1.953   3.504   3.081 -0.3055 -1.2956 -1.1273
 7714SOL    HW234779   2.055   3.414   3.120  0.3967  0.2990 -0.7399
 7715SOL     OW34780   0.383   2.027   3.794  0.1462  0.0306  0.0125
 7715SOL    HW134781   0.383   2.050   3.887  1.5683  1.8758 -0.4379
 7715SOL    HW234782   0.303   1.976   3.792  1.1428 -1.5445  0.0382
 7716SOL     OW34783   2.215   1.110   1.304  0.2281  0.1139 -0.7123
 7716SOL    HW134784   2.261   1.088   1.385  0.6687 -0.6208 -1.1689
 7716SOL    HW234785   2.137   1.056   1.306  0.0003  0.4903  0.5160
 7717SOL     OW34786   0.795   3.247   3.631 -0.6031  0.3931  0.2216
 7717SOL    HW134787   0.840   3.168   3.664 -0.7691 -0.4109 -1.5175
 7717SOL    HW234788   0.747   3.274   3.709  0.0199 -0.5295  0.9264
 7718SOL     OW34789   1.739   1.861  17.006  0.3075 -0.5676  0.1457
 7718SOL    HW134790   1.677   1.813  16.951 -1.7064  0.5850  1.4103
 7718SOL    HW234791   1.737   1.809  17.086  0.1356 -1.1254 -0.2238
 7719SOL     OW34792   3.768   0.368   7.879  0.5627  0.0113  0.0750
 7719SOL    HW134793   3.812   0.299   7.828  2.6205  1.4628 -0.1307
 7719SOL    HW234794   3.839   0.372   7.942  0.3814 -2.3969  0.4508
 7720SOL     OW34795   2.350   2.879   2.903  0.1793  0.1905  0.0664
 7720SOL    HW134796   2.371   2.945   2.968  0.0981  0.6472 -0.3693
 7720SOL    HW234797   2.427   2.822   2.912 -0.2369 -0.3951 -0.0729
 7721SOL     OW34798   1.337   3.113   4.089  0.7193 -0.2671 -0.5610
 7721SOL    HW134799   1.404   3.180   4.078  0.1270  0.4519  0.1869
 7721SOL    HW234800   1.363   3.039   4.035  3.3193 -0.4503  0.9606
 7722SOL     OW34801   2.345   2.764   6.916  0.6463 -0.0126  0.8057
 7722SOL    HW134802   2.309   2.680   6.886  1.5486  0.4088 -1.4430
 7722SOL    HW234803   2.289   2.812   6.855  0.6231 -0.2728  0.6175
 7723SOL     OW34804   1.942   4.584   9.518 -0.1349  0.4049  0.4549
 7723SOL    HW134805   1.965   4.512   9.575 -0.1076  1.2021  1.4557
 7723SOL    HW234806   1.939   4.536   9.435 -0.2412  0.6681  0.3045
 7724SOL     OW34807   3.466   1.440   8.662 -0.2352  0.0612 -0.0747
 7724SOL    HW134808   3.441   1.515   8.607  0.3290  1.0983  1.0767
 7724SOL    HW234809   3.383   1.395   8.678  0.5719 -1.0294  0.9980
 7725SOL     OW34810   3.616   0.389   1.263 -0.8767 -0.1270 -0.1342
 7725SOL    HW134811   3.573   0.466   1.298 -0.7105  0.0267 -0.2702
 7725SOL    HW234812   3.550   0.350   1.205 -0.9511 -1.8409  1.0819
 7726SOL     OW34813   3.600   3.828   6.570 -0.6492 -0.1456  0.0840
 7726SOL    HW134814   3.592   3.839   6.665  1.9606 -0.2736  0.3288
 7726SOL    HW234815   3.695   3.818   6.561 -0.6298  0.6479 -0.6355
 7727SOL     OW34816   3.189   0.375   9.025 -0.6488  0.4835 -0.0592
 7727SOL    HW134817   3.188   0.283   9.051 -2.7571  0.5957  0.2016
 7727SOL    HW234818   3.121   0.418   9.076  0.7123  1.1165  1.2315
 7728SOL     OW34819   4.256   0.825   3.626 -0.3262 -0.0835 -0.3240
 7728SOL    HW134820   4.219   0.737   3.618 -0.3017  0.0513 -1.9799
 7728SOL    HW234821   4.235   0.862   3.540 -1.2792 -0.2904 -0.1786
 7729SOL     OW34822   1.098   3.844   3.234  0.1058  0.3709  0.4468
 7729SOL    HW134823   1.030   3.830   3.299 -1.1489 -0.4909 -1.0480
 7729SOL    HW234824   1.090   3.939   3.224  0.2412  0.3602  0.2336
 7730SOL     OW34825   0.331   3.360  15.426  0.1605  0.3631  0.4335
 7730SOL    HW134826   0.248   3.340  15.383  0.6961  2.3282 -1.4879
 7730SOL    HW234827   0.306   3.348  15.518 -1.9542 -0.6156 -0.2591
 7731SOL     OW34828   2.081   3.799   4.301  0.8772 -0.3197 -0.7475
 7731SOL    HW134829   2.167   3.786   4.262  0.7405  0.4795 -1.3259
 7731SOL    HW234830   2.087   3.766   4.390 -1.2003  0.1458 -0.4289
 7732SOL     OW34831   3.485   3.428   6.706  0.1311 -0.3258  0.0665
 7732SOL    HW134832   3.400   3.415   6.663  0.2579  1.4597 -0.7221
 7732SOL    HW234833   3.450   3.424   6.795 -3.0925 -0.5518 -1.1830
 7733SOL     OW34834   2.880   0.973   7.399  0.1729 -0.3413  0.4938
 7733SOL    HW134835   2.929   0.941   7.474  1.9380  0.0415 -0.4809
 7733SOL    HW234836   2.889   1.067   7.417 -3.4364  0.1816 -0.4279
 7734SOL     OW34837   2.308   4.106  15.638 -0.1805  0.0195 -0.3040
 7734SOL    HW134838   2.336   4.194  15.663 -1.8723  0.6368 -0.5641
 7734SOL    HW234839   2.356   4.107  15.556 -1.7383 -0.7946 -1.2268
 7735SOL     OW34840   1.306   3.835  13.677 -0.4702 -0.4198  0.5020
 7735SOL    HW134841   1.316   3.744  13.649 -0.0444  0.3815 -1.9949
 7735SOL    HW234842   1.393   3.872  13.691 -1.2264  1.6186 -0.2816
 7736SOL     OW34843   1.653   2.386   6.165  0.2792  0.4469  0.0640
 7736SOL    HW134844   1.602   2.467   6.168 -0.7914 -0.3547  3.0157
 7736SOL    HW234845   1.719   2.389   6.096 -0.6848  1.2387 -0.8244
 7737SOL     OW34846   1.701   2.207  14.804 -0.2356  0.5926  0.3820
 7737SOL    HW134847   1.707   2.159  14.721  0.7556 -0.2393  0.9342
 7737SOL    HW234848   1.612   2.179  14.825 -0.1218  0.8326  1.1791
 7738SOL     OW34849   0.304   4.107   4.416 -0.1574 -0.0816 -0.3588
 7738SOL    HW134850   0.364   4.176   4.387 -0.0299 -0.4182 -0.8997
 7738SOL    HW234851   0.247   4.118   4.340 -0.8652  1.1824  0.3581
 7739SOL     OW34852   4.483   3.784   3.750  0.2189 -0.5076 -0.6288
 7739SOL    HW134853   4.503   3.718   3.684 -2.2791 -1.2161 -0.6822
 7739SOL    HW234854   4.449   3.730   3.821 -1.2722  0.4696 -0.5902
 7740SOL     OW34855   4.214   2.321   7.949 -0.4112 -0.1884 -0.2616
 7740SOL    HW134856   4.234   2.290   8.037  1.0435  1.6554  0.0669
 7740SOL    HW234857   4.254   2.251   7.898 -1.2869 -0.1865 -0.9497
 7741SOL     OW34858   0.006   2.163   6.583  0.0968  0.1728  0.3902
 7741SOL    HW134859   4.663   2.146   6.628  0.6341 -1.8109  0.6450
 7741SOL    HW234860   0.052   2.214   6.650  0.3597  0.8001 -0.2703
 7742SOL     OW34861   4.378   1.654   5.707 -0.0907 -0.3385 -0.4702
 7742SOL    HW134862   4.401   1.718   5.639  0.8889 -1.0606 -0.8325
 7742SOL    HW234863   4.331   1.712   5.766 -2.7670 -1.8320 -1.1669
 7743SOL     OW34864   2.239   4.141   2.405  0.3743 -0.9510 -0.1195
 7743SOL    HW134865   2.319   4.180   2.370  0.8283 -1.9216 -0.1627
 7743SOL    HW234866   2.259   4.138   2.498  1.3493 -2.8665 -0.3932
 7744SOL     OW34867   4.605   1.071  17.131 -0.6618 -0.7716  0.3987
 7744SOL    HW134868   4.562   1.095  17.213 -0.6813 -0.6055  0.3401
 7744SOL    HW234869   4.531   1.055  17.073 -0.6747 -0.2793  0.2786
 7745SOL     OW34870   3.894   3.787   4.657 -0.4663  0.4192 -1.0478
 7745SOL    HW134871   3.917   3.874   4.688  1.5893 -0.6952  0.5652
 7745SOL    HW234872   3.861   3.748   4.738  1.5543  0.3045 -0.2902
 7746SOL     OW34873   3.949   4.434   7.943 -0.5423  0.0443  0.3516
 7746SOL    HW134874   3.909   4.348   7.959  0.0628 -0.0056  1.6047
 7746SOL    HW234875   3.996   4.468   8.019 -0.3662  2.7757 -0.9897
 7747SOL     OW34876   1.814   1.258   5.435 -0.2121 -0.0486  0.3673
 7747SOL    HW134877   1.729   1.214   5.441 -0.8435  1.0972 -0.1312
 7747SOL    HW234878   1.792   1.346   5.465 -0.9822  0.4537 -1.7004
 7748SOL     OW34879   3.511   3.093   8.118 -0.4661 -0.0349 -0.1697
 7748SOL    HW134880   3.528   3.186   8.134  0.0021  0.1828 -1.9383
 7748SOL    HW234881   3.599   3.071   8.088  0.4645  1.5763  1.3635
 7749SOL     OW34882   4.115   4.424   4.067 -0.0970  0.3915  0.6375
 7749SOL    HW134883   4.197   4.408   4.113  2.2720 -0.4561 -3.8922
 7749SOL    HW234884   4.151   4.433   3.979 -0.3100 -1.1152  0.3994
 7750SOL     OW34885   2.017   3.115   1.118  0.1535 -0.0464 -0.3875
 7750SOL    HW134886   2.043   3.197   1.075  1.4720 -1.4379 -2.2634
 7750SOL    HW234887   1.960   3.063   1.062  0.3395  0.1265 -0.7401
 7751SOL     OW34888   2.342   4.464   2.701 -0.0536 -0.6669 -0.0727
 7751SOL    HW134889   2.417   4.508   2.661 -2.5237  3.2062 -0.5120
 7751SOL    HW234890   2.265   4.517   2.680  1.9851  1.5197 -2.0505
 7752SOL     OW34891   1.870   0.115  12.315 -0.3414 -0.2515 -0.3778
 7752SOL    HW134892   1.952   0.117  12.266  0.6740 -1.8290  1.2616
 7752SOL    HW234893   1.816   0.166  12.254 -1.3069 -1.4351 -0.5273
 7753SOL     OW34894   2.603   3.489   5.139 -0.4978 -0.5423 -0.1687
 7753SOL    HW134895   2.620   3.583   5.130  1.9464 -1.0871 -1.1962
 7753SOL    HW234896   2.683   3.463   5.093  0.4137 -0.3287  1.2593
 7754SOL     OW34897   2.389   3.834  13.135  0.4879  0.0136  0.2983
 7754SOL    HW134898   2.348   3.754  13.102  1.7228 -0.2599 -0.5800
 7754SOL    HW234899   2.360   3.828  13.225 -2.2033  0.1739 -0.5611
 7755SOL     OW34900   3.674   4.062   3.290 -0.1629 -0.3839 -0.3129
 7755SOL    HW134901   3.592   4.112   3.289 -0.2261 -0.5087 -1.1349
 7755SOL    HW234902   3.705   4.086   3.377 -0.8087  1.1631 -0.4936
 7756SOL     OW34903   4.408   4.631   4.999 -0.6335 -0.0156 -0.2203
 7756SOL    HW134904   4.497   4.599   4.991 -0.4458  0.3622  0.3808
 7756SOL    HW234905   4.372   4.587   4.922 -0.9574 -0.1423  0.0013
 7757SOL     OW34906   0.439   2.486  13.057 -0.0938 -0.1062 -0.2595
 7757SOL    HW134907   0.527   2.469  13.092  0.0006 -1.4111 -1.1317
 7757SOL    HW234908   0.422   2.571  13.097  1.1805  1.4897 -3.1166
 7758SOL     OW34909   1.849   4.566  17.471  0.8120  0.4274 -0.1999
 7758SOL    HW134910   1.861   4.650  17.515 -2.9642  1.1811 -0.6181
 7758SOL    HW234911   1.763   4.571  17.430  0.3418 -4.6168  0.1325
 7759SOL     OW34912   0.665   2.187   7.405  0.5690  0.0689  0.5166
 7759SOL    HW134913   0.644   2.210   7.495 -0.5065 -0.7219  0.4785
 7759SOL    HW234914   0.577   2.163   7.374  0.2046  0.3221  1.3644
 7760SOL     OW34915   3.363   2.642   4.195 -0.0601  0.2749  0.7804
 7760SOL    HW134916   3.326   2.595   4.120  1.3309 -0.0949  0.3221
 7760SOL    HW234917   3.454   2.638   4.166 -0.6034 -1.6993 -0.7028
 7761SOL     OW34918   3.741   2.677   5.832 -0.1189  0.1077  0.8195
 7761SOL    HW134919   3.682   2.726   5.775 -0.3279 -0.4140  0.5932
 7761SOL    HW234920   3.671   2.654   5.892 -1.0013 -2.2237 -1.1375
 7762SOL     OW34921   3.282   1.999   2.598  0.0596 -0.0931 -0.1711
 7762SOL    HW134922   3.214   2.055   2.559  0.8364  0.7933 -0.2422
 7762SOL    HW234923   3.305   2.050   2.676  2.9503  1.2270 -1.8976
 7763SOL     OW34924   2.848   1.842   5.470  0.1677 -0.4113 -0.7806
 7763SOL    HW134925   2.942   1.828   5.477  0.1589 -0.2632 -0.4077
 7763SOL    HW234926   2.824   1.887   5.550 -3.8122 -2.2881 -0.9080
 7764SOL     OW34927   0.554   1.726   7.719 -0.0394  0.4903 -0.3172
 7764SOL    HW134928   0.490   1.785   7.680 -0.2068  0.0437 -0.7062
 7764SOL    HW234929   0.504   1.669   7.778 -0.5536  2.5912  1.3135
 7765SOL     OW34930   2.246   4.012  14.005 -0.2659  0.2020 -0.4486
 7765SOL    HW134931   2.193   3.933  13.988 -0.5533  0.4111 -0.5389
 7765SOL    HW234932   2.178   4.074  14.032 -0.0022 -0.7677  2.4595
 7766SOL     OW34933   3.771   1.150   8.453  0.3681 -0.5930 -0.0619
 7766SOL    HW134934   3.838   1.112   8.396  0.1617 -0.6702 -0.2557
 7766SOL    HW234935   3.815   1.234   8.471 -0.4700  0.1257 -1.3397
 7767SOL     OW34936   1.333   2.872   9.276  0.0972 -0.3492 -0.2758
 7767SOL    HW134937   1.343   2.956   9.231 -2.3650 -0.0858 -0.3085
 7767SOL    HW234938   1.372   2.806   9.219 -0.1559 -1.0121  0.3107
 7768SOL     OW34939   3.282   4.588   2.134  0.2059 -0.8496  0.3658
 7768SOL    HW134940   3.264   4.657   2.198  0.8616 -1.1659  0.8895
 7768SOL    HW234941   3.310   4.647   2.064  0.5455 -0.7412  0.5926
 7769SOL     OW34942   4.351   1.093   4.146  0.2415  0.3803 -0.1099
 7769SOL    HW134943   4.405   1.101   4.225  1.1460  1.4727 -0.8292
 7769SOL    HW234944   4.405   1.026   4.103 -1.3079 -2.1686  1.9280
 7770SOL     OW34945   3.005   2.074   3.046 -0.6217 -0.1967 -0.8412
 7770SOL    HW134946   2.974   2.138   3.110 -1.6005  0.0559 -1.5717
 7770SOL    HW234947   3.100   2.066   3.052 -0.6107 -0.3059 -1.1473
 7771SOL     OW34948   1.102   2.754   7.999  0.0596  0.3911 -0.7639
 7771SOL    HW134949   1.089   2.683   7.937 -3.7825  1.6233 -1.3678
 7771SOL    HW234950   1.022   2.764   8.051  0.5621  0.6605 -0.0490
 7772SOL     OW34951   3.865   4.221  12.067 -0.3545 -0.2388  0.2275
 7772SOL    HW134952   3.925   4.258  12.132  0.9369  0.7513 -1.5612
 7772SOL    HW234953   3.913   4.143  12.037  0.6348  0.8103 -0.9155
 7773SOL     OW34954   0.061   3.126   5.799  0.1642  0.0816  0.1565
 7773SOL    HW134955   0.140   3.073   5.787 -0.2127 -1.1541  3.0589
 7773SOL    HW234956   0.083   3.186   5.727  1.3266 -0.9328 -0.3394
 7774SOL     OW34957   1.907   2.576  12.171 -0.3263 -0.0236 -0.1710
 7774SOL    HW134958   1.952   2.539  12.247 -1.0968 -0.2217  0.1769
 7774SOL    HW234959   1.974   2.633  12.132 -1.4380  2.0162  0.9263
 7775SOL     OW34960   4.041   1.059  16.264 -0.1941  0.9276  0.2607
 7775SOL    HW134961   3.989   1.040  16.342  0.6556 -1.5628  0.2154
 7775SOL    HW234962   4.103   1.121  16.304  1.8515 -1.0226  0.1560
 7776SOL     OW34963   2.209   2.019   3.172 -0.0959 -0.1853  0.5494
 7776SOL    HW134964   2.162   2.019   3.255 -0.2259 -2.5332  0.4783
 7776SOL    HW234965   2.254   1.935   3.179  2.0007  1.0770  2.4336
 7777SOL     OW34966   4.407   1.851   9.430  0.4786  0.4842  0.6886
 7777SOL    HW134967   4.365   1.820   9.510 -0.0728 -3.2551 -1.0451
 7777SOL    HW234968   4.489   1.888   9.462  1.6045 -1.1912 -0.2701
 7778SOL     OW34969   0.668   2.073   3.262  0.2109  0.0039  0.0749
 7778SOL    HW134970   0.650   2.140   3.196  0.6724  1.8712  1.8679
 7778SOL    HW234971   0.576   2.046   3.272 -0.0105  1.6245  2.3741
 7779SOL     OW34972   1.290   4.001   4.944 -0.4680 -0.4578 -0.2287
 7779SOL    HW134973   1.323   3.923   4.901 -0.3859 -0.9119  0.6718
 7779SOL    HW234974   1.307   3.987   5.037  0.6627 -0.8031 -0.4944
 7780SOL     OW34975   1.519   4.120   1.842 -0.3708 -0.5593 -0.0731
 7780SOL    HW134976   1.474   4.202   1.821 -0.7669 -0.4255  1.3408
 7780SOL    HW234977   1.442   4.066   1.859 -0.3723 -0.4906  0.1298
 7781SOL     OW34978   3.781   0.571   3.111 -0.0421 -0.2488 -0.5348
 7781SOL    HW134979   3.843   0.643   3.119  2.1089 -2.1940  0.0206
 7781SOL    HW234980   3.724   0.592   3.185 -1.6395 -2.3942 -1.1393
 7782SOL     OW34981   2.346   1.920   3.516  0.0525 -0.1605  0.2578
 7782SOL    HW134982   2.278   1.983   3.490  0.3899  1.0607  2.3718
 7782SOL    HW234983   2.306   1.907   3.602  1.3534 -0.0359  0.8722
 7783SOL     OW34984   3.743   4.029   4.522 -0.1811  0.2496 -0.6985
 7783SOL    HW134985   3.832   4.008   4.551 -0.1348 -0.2224 -1.1865
 7783SOL    HW234986   3.752   4.031   4.427 -0.8761  1.7834 -0.7402
 7784SOL     OW34987   3.751   4.374  11.850 -0.7734 -0.0648  0.1823
 7784SOL    HW134988   3.811   4.345  11.782 -2.2261 -1.3126 -0.5787
 7784SOL    HW234989   3.782   4.323  11.924 -0.5479  0.4385  0.4364
 7785SOL     OW34990   2.339   0.160   5.042 -0.3968  0.0993  0.5853
 7785SOL    HW134991   2.303   0.154   5.131  0.7121  1.8040  1.1507
 7785SOL    HW234992   2.426   0.128   5.065 -0.0053 -0.0373 -1.1071
 7786SOL     OW34993   2.579   3.779   7.982  0.0307 -0.7471  0.0675
 7786SOL    HW134994   2.617   3.693   7.999 -0.2606 -1.2591 -1.8155
 7786SOL    HW234995   2.488   3.759   8.006 -0.2342 -0.4922 -0.7096
 7787SOL     OW34996   1.003   1.123   4.986  0.0465 -0.0114  0.0244
 7787SOL    HW134997   0.969   1.208   4.956  2.2418  1.3823  1.4988
 7787SOL    HW234998   1.091   1.113   4.950 -0.5164 -2.4070 -0.6887
 7788SOL     OW34999   2.352   1.725   3.163  0.1963  0.2225 -0.1946
 7788SOL    HW135000   2.270   1.687   3.130 -0.8493  3.4536 -1.3567
 7788SOL    HW235001   2.415   1.659   3.133  0.7951  0.0901  1.3744
 7789SOL     OW35002   4.397   2.491   4.784  0.1914 -0.4269 -0.0460
 7789SOL    HW135003   4.377   2.580   4.756 -0.3319 -0.6410 -0.3477
 7789SOL    HW235004   4.356   2.448   4.708 -2.0794  1.9810 -0.1553
 7790SOL     OW35005   1.054   1.307   5.237  0.3651  0.2993  0.1023
 7790SOL    HW135006   1.004   1.380   5.274  1.1110  0.6027  0.5191
 7790SOL    HW235007   1.070   1.339   5.148 -0.3413 -0.6438 -0.3673
 7791SOL     OW35008   2.235   1.951   3.862 -0.0288 -0.2570  0.1755
 7791SOL    HW135009   2.151   1.907   3.845  0.4470 -0.9174 -0.4902
 7791SOL    HW235010   2.203   2.020   3.920 -0.6057 -0.5130  0.1684
 7792SOL     OW35011   0.635   0.069   8.933 -1.1402  0.0867 -0.0296
 7792SOL    HW135012   0.707   0.091   8.991 -0.3367 -0.1471 -0.9249
 7792SOL    HW235013   0.566   0.095   8.993  0.3534  0.7891  1.3842
 7793SOL     OW35014   3.331   0.507   9.252 -0.0093 -0.5904  0.2710
 7793SOL    HW135015   3.322   0.464   9.167 -0.6133  0.7102 -0.3231
 7793SOL    HW235016   3.255   0.476   9.301 -0.8633 -0.5800 -1.0622
 7794SOL     OW35017   2.995   1.121  10.127 -0.0005  0.1226  0.1080
 7794SOL    HW135018   2.937   1.165  10.188  0.0962 -0.4564  0.6141
 7794SOL    HW235019   2.947   1.142  10.046 -1.3767 -1.8512  0.4380
 7795SOL     OW35020   2.565   3.456   5.485 -0.7193  0.6103 -0.8744
 7795SOL    HW135021   2.549   3.536   5.534  0.9678  0.8372 -0.6692
 7795SOL    HW235022   2.546   3.479   5.394 -3.3946 -0.2990 -0.5261
 7796SOL     OW35023   3.594   2.511  15.251 -0.3140  0.3723  0.5126
 7796SOL    HW135024   3.529   2.441  15.260 -0.6354  0.2379 -2.7264
 7796SOL    HW235025   3.632   2.518  15.338  1.1972 -0.6504 -0.0567
 7797SOL     OW35026   4.089   0.079  17.395  0.4675 -0.6108  0.5034
 7797SOL    HW135027   4.127   4.732  17.397  0.7263 -0.5519 -1.4743
 7797SOL    HW235028   4.144   0.123  17.460  0.9022  0.0077 -0.2674
 7798SOL     OW35029   1.537   4.458   6.805 -0.1903  0.1484  0.2192
 7798SOL    HW135030   1.585   4.394   6.857  0.9115  0.2899 -0.6376
 7798SOL    HW235031   1.547   4.426   6.715  0.9575 -0.9643  0.7414
 7799SOL     OW35032   1.387   4.632   1.692  0.5165 -1.1056  0.9649
 7799SOL    HW135033   1.482   4.629   1.700  0.7063  2.2173 -0.0683
 7799SOL    HW235034   1.372   4.613   1.599  2.7970 -2.6224  0.9203
 7800SOL     OW35035   4.228   0.935   8.831  0.6265 -0.4879 -0.0290
 7800SOL    HW135036   4.214   0.854   8.880 -1.9469  0.0916  0.2000
 7800SOL    HW235037   4.191   1.005   8.885  0.3442 -1.3612  0.9058
 7801SOL     OW35038   4.715   1.034   9.363 -0.1297 -0.1353  0.6695
 7801SOL    HW135039   0.039   1.083   9.415  1.7419 -1.5160 -0.3219
 7801SOL    HW235040   4.654   1.004   9.430  1.9040 -0.9422  2.1610
 7802SOL     OW35041   1.673   0.630  12.297  0.0702  0.0715 -0.3750
 7802SOL    HW135042   1.642   0.603  12.210  0.3006 -1.0190 -0.1268
 7802SOL    HW235043   1.769   0.633  12.291 -0.0803  2.3727 -1.5383
 7803SOL     OW35044   3.451   2.507  14.682 -0.7523  0.5920  0.1213
 7803SOL    HW135045   3.377   2.472  14.733  0.6755 -0.6727  1.3099
 7803SOL    HW235046   3.482   2.572  14.744  0.9908 -1.4867  1.4381
 7804SOL     OW35047   0.399   2.479   4.875 -0.1287 -0.2377 -0.2961
 7804SOL    HW135048   0.420   2.572   4.872  2.6979 -0.8362  1.0934
 7804SOL    HW235049   0.468   2.428   4.831 -1.4419 -0.9333 -1.5360
 7805SOL     OW35050   2.876   3.950   6.555 -0.3293  0.2091  0.1773
 7805SOL    HW135051   2.863   4.042   6.579  0.6443  0.3641  0.1166
 7805SOL    HW235052   2.966   3.951   6.522 -0.0668 -0.4692  0.8701
 7806SOL     OW35053   0.082   2.216   3.944  0.9724  0.0575  0.4930
 7806SOL    HW135054   0.171   2.249   3.954  0.0255  2.0580  2.3942
 7806SOL    HW235055   0.036   2.299   3.934  0.5117 -0.2477  0.0614
 7807SOL     OW35056   1.319   1.868  15.813 -0.4979 -0.4073  0.3868
 7807SOL    HW135057   1.262   1.797  15.783 -3.2987  0.8172  2.8463
 7807SOL    HW235058   1.271   1.948  15.792  0.7659  0.3956  0.5442
 7808SOL     OW35059   3.783   3.432   4.662 -0.5383 -0.3704  0.5662
 7808SOL    HW135060   3.696   3.471   4.673  0.0149  0.6780  1.1879
 7808SOL    HW235061   3.800   3.385   4.743  1.3978  0.3379  0.5630
 7809SOL     OW35062   3.471   2.321   5.725 -0.2129 -0.4471  0.3014
 7809SOL    HW135063   3.463   2.327   5.630  0.5078 -0.6406  0.2300
 7809SOL    HW235064   3.481   2.228   5.740  1.8587 -0.4312 -1.0417
 7810SOL     OW35065   3.882   1.824   1.402 -0.5151 -0.3469  0.0937
 7810SOL    HW135066   3.901   1.779   1.319  0.9484 -1.0428  0.8137
 7810SOL    HW235067   3.800   1.871   1.390  0.1382  1.2380  1.7863
 7811SOL     OW35068   1.612   4.332   4.705 -0.2046 -0.5322 -0.0962
 7811SOL    HW135069   1.635   4.239   4.698  1.8195  0.1825 -3.2268
 7811SOL    HW235070   1.694   4.382   4.696  0.1444 -1.0902 -0.0541
 7812SOL     OW35071   4.581   2.506   9.255  0.0968 -0.6004  0.2161
 7812SOL    HW135072   4.515   2.512   9.187  1.6501  1.5066 -1.0935
 7812SOL    HW235073   4.538   2.449   9.319 -0.2240  1.0015  1.4285
 7813SOL     OW35074   3.431   0.243   6.866  0.1505 -0.3889  0.0110
 7813SOL    HW135075   3.344   0.260   6.829 -0.2771 -0.5260  0.9406
 7813SOL    HW235076   3.411   0.206   6.952 -1.1614 -1.2691 -0.6689
 7814SOL     OW35077   0.630   2.876   9.905 -0.1569  0.4634  0.0875
 7814SOL    HW135078   0.637   2.896   9.811 -0.4111  2.8032  0.5691
 7814SOL    HW235079   0.593   2.789   9.890  0.7185 -0.2880  2.3606
 7815SOL     OW35080   3.335   3.063   8.501  0.4032  0.0260  0.3983
 7815SOL    HW135081   3.341   3.019   8.417  0.5967 -1.5449  1.2354
 7815SOL    HW235082   3.337   2.990   8.563  0.8430 -1.6490 -1.6211
 7816SOL     OW35083   3.482   3.697  17.536  0.2732  0.2379  0.2909
 7816SOL    HW135084   3.552   3.760  17.523  0.1613 -0.0484 -1.8003
 7816SOL    HW235085   3.509   3.620  17.586  1.3136  0.4694  0.0776
 7817SOL     OW35086   2.096   3.301   0.218  0.0724  0.0895  0.2546
 7817SOL    HW135087   2.125   3.392   0.218 -0.6971  0.3293  1.3653
 7817SOL    HW235088   2.132   3.271   0.135  2.4995  2.9272  0.2518
 7818SOL     OW35089   1.208   4.253   7.793 -0.0482  0.2571 -0.3259
 7818SOL    HW135090   1.129   4.296   7.824  0.9472  0.6888  1.6228
 7818SOL    HW235091   1.214   4.295   7.707  0.4692 -0.1353 -0.4901
 7819SOL     OW35092   1.745   2.222   0.548 -0.2923 -0.5288 -0.2115
 7819SOL    HW135093   1.737   2.271   0.630 -0.1744 -0.9823  0.0707
 7819SOL    HW235094   1.808   2.152   0.566 -0.0668 -0.4592 -0.7167
 7820SOL     OW35095   3.997   2.730  14.709 -0.4933  0.3128  0.1625
 7820SOL    HW135096   3.932   2.703  14.774 -1.1412  2.0190  0.2148
 7820SOL    HW235097   4.060   2.657  14.708 -0.7457  0.1006 -0.8363
 7821SOL     OW35098   2.014   2.430   0.429 -0.0657 -0.0356 -0.0461
 7821SOL    HW135099   1.945   2.383   0.384  0.1304  0.9894 -1.4304
 7821SOL    HW235100   2.077   2.432   0.356  0.1611  0.3685  0.1571
 7822SOL     OW35101   2.490   1.864   9.915  0.1109  0.2728 -0.0520
 7822SOL    HW135102   2.465   1.794   9.975  0.8089 -1.1923 -1.4736
 7822SOL    HW235103   2.554   1.912   9.967 -0.3983  0.8667  0.0305
 7823SOL     OW35104   1.850   4.259  13.420 -0.1607  0.3218 -0.0673
 7823SOL    HW135105   1.807   4.314  13.485 -1.2353  1.5565 -1.8215
 7823SOL    HW235106   1.877   4.179  13.465 -1.2972  0.3591  0.6656
 7824SOL     OW35107   0.482   3.712   5.302 -0.7364  0.1746 -0.1448
 7824SOL    HW135108   0.534   3.739   5.226 -0.0521 -0.8244 -0.0292
 7824SOL    HW235109   0.496   3.771   5.376 -0.2990  1.3674 -1.1855
 7825SOL     OW35110   0.480   1.522   2.991 -0.0400  0.1141 -0.1386
 7825SOL    HW135111   0.500   1.535   3.083 -1.6280  1.1891  0.0578
 7825SOL    HW235112   0.425   1.599   2.977  1.9762  1.2344 -1.9158
 7826SOL     OW35113   2.092   1.663  15.366 -0.2679 -0.0054  0.8032
 7826SOL    HW135114   2.088   1.758  15.378 -1.4790  0.3011 -2.1684
 7826SOL    HW235115   2.155   1.632  15.432 -0.2085  0.4545  0.9656
 7827SOL     OW35116   3.092   0.862   8.804 -0.0495  0.0621  0.4879
 7827SOL    HW135117   3.144   0.861   8.885  2.3870  3.7147 -1.0310
 7827SOL    HW235118   3.031   0.794   8.833  1.6356 -1.1124  1.3265
 7828SOL     OW35119   3.893   3.612  15.422  0.3938 -0.4316 -0.2404
 7828SOL    HW135120   3.924   3.703  15.416 -0.1504 -0.2307  0.0305
 7828SOL    HW235121   3.869   3.590  15.332  1.7727 -2.7767 -0.0324
 7829SOL     OW35122   1.476   4.000  12.630 -0.1996 -0.5070  0.6469
 7829SOL    HW135123   1.420   3.936  12.586  1.5766 -1.8803  0.3979
 7829SOL    HW235124   1.458   4.082  12.585  0.5878 -0.3041  0.6946
 7830SOL     OW35125   4.030   1.771   4.197 -0.4773  0.0138  0.3611
 7830SOL    HW135126   3.943   1.793   4.231  0.0252  2.5131  0.0148
 7830SOL    HW235127   4.074   1.753   4.281 -1.0471  1.1046  0.9010
 7831SOL     OW35128   3.188   3.073  14.963  0.2811 -0.5525  0.4264
 7831SOL    HW135129   3.200   3.129  14.886  1.2281 -0.4416  0.6476
 7831SOL    HW235130   3.160   3.135  15.030  1.3706  0.7726 -0.3387
 7832SOL     OW35131   4.496   0.491   4.177 -0.0279  0.2758  0.2008
 7832SOL    HW135132   4.508   0.468   4.270 -2.7040 -0.6633  0.3058
 7832SOL    HW235133   4.447   0.573   4.187  1.0101  0.9016  0.1724
 7833SOL     OW35134   0.043   0.570   4.533  0.4044  0.2386  0.5358
 7833SOL    HW135135   0.098   0.619   4.594 -0.2556 -0.1628  1.4434
 7833SOL    HW235136   0.077   0.609   4.452  0.7541 -0.5124  0.3201
 7834SOL     OW35137   1.400   1.554   4.332 -0.6776  0.0908 -0.1877
 7834SOL    HW135138   1.471   1.508   4.377 -1.0198  0.4016  0.6732
 7834SOL    HW235139   1.362   1.602   4.406 -0.1533 -0.3473  0.3620
 7835SOL     OW35140   0.798   0.265   6.222 -0.0718 -0.7807 -0.0168
 7835SOL    HW135141   0.854   0.339   6.247  2.2431 -1.6841 -2.5419
 7835SOL    HW235142   0.840   0.207   6.159  0.4209 -1.1519  0.6475
 7836SOL     OW35143   3.648   0.220  17.431  0.5517 -0.2684 -0.0074
 7836SOL    HW135144   3.654   0.285  17.361 -1.0213 -1.8235 -1.6004
 7836SOL    HW235145   3.708   0.153  17.399  0.2383 -0.0457 -1.0521
 7837SOL     OW35146   3.599   4.119  15.474 -0.4445  0.5558  0.5186
 7837SOL    HW135147   3.654   4.131  15.397  1.6654 -1.0757  1.7860
 7837SOL    HW235148   3.648   4.059  15.529  0.4978 -0.2474 -1.2107
 7838SOL     OW35149   3.272   3.255   1.850 -0.3548  0.0634  0.0730
 7838SOL    HW135150   3.315   3.176   1.817  1.6115  1.7400 -1.3790
 7838SOL    HW235151   3.197   3.221   1.898  0.2565 -0.1419  0.8759
 7839SOL     OW35152   3.668   4.641   2.487 -0.3439 -0.1473  0.3789
 7839SOL    HW135153   3.691   4.684   2.404 -1.4211  0.7828  0.5573
 7839SOL    HW235154   3.639   4.553   2.462 -0.0665 -0.0131 -0.4369
 7840SOL     OW35155   3.880   4.213   3.807  0.3256  0.4770  0.2216
 7840SOL    HW135156   3.924   4.160   3.873 -0.3076 -0.3411 -0.0147
 7840SOL    HW235157   3.787   4.189   3.812  0.4573  0.4341  2.7526
 7841SOL     OW35158   2.460   0.241  16.761  0.3504  0.2407 -0.1270
 7841SOL    HW135159   2.518   0.288  16.821 -0.4643  1.0382  0.0365
 7841SOL    HW235160   2.392   0.304  16.784 -0.8153 -0.2831 -2.0949
 7842SOL     OW35161   1.511   1.303   6.892  0.4551  0.6046  0.0851
 7842SOL    HW135162   1.537   1.250   6.817  1.3058 -0.5810  1.2048
 7842SOL    HW235163   1.436   1.351   6.858  2.2659  2.2969 -1.5321
 7843SOL     OW35164   1.980   0.924   1.546  0.8966  0.0478 -0.1397
 7843SOL    HW135165   2.044   0.854   1.557  0.8503 -0.3418 -2.2938
 7843SOL    HW235166   1.989   0.971   1.628 -3.0491  2.2271 -0.9265
 7844SOL     OW35167   2.050   1.464   5.448  0.1131  0.1123 -0.2271
 7844SOL    HW135168   2.056   1.370   5.464 -1.8363  0.1206  0.5591
 7844SOL    HW235169   2.118   1.508   5.500  0.0661 -0.5868  0.4273
 7845SOL     OW35170   3.265   2.245   5.140 -0.0737 -0.6603  0.0941
 7845SOL    HW135171   3.283   2.305   5.067  1.6139 -0.2377  0.8484
 7845SOL    HW235172   3.271   2.308   5.212  0.9559  0.7373 -1.2029
 7846SOL     OW35173   4.221   2.426  15.124 -0.6579 -0.5609  0.0531
 7846SOL    HW135174   4.169   2.381  15.058 -1.4068  1.0528 -0.4524
 7846SOL    HW235175   4.192   2.395  15.210 -1.5246  0.0243 -0.0278
 7847SOL     OW35176   1.690   1.052  16.630 -0.3341 -0.6596 -0.3748
 7847SOL    HW135177   1.666   1.029  16.540  1.9168 -2.3265 -0.5197
 7847SOL    HW235178   1.603   1.052  16.669 -0.0586 -0.3304  0.2355
 7848SOL     OW35179   2.058   3.429   5.906 -0.0688 -0.0582  0.1973
 7848SOL    HW135180   2.093   3.517   5.892  1.7394 -0.7181  0.5513
 7848SOL    HW235181   2.115   3.394   5.975 -1.0179 -1.2909  0.3638
 7849SOL     OW35182   3.406   3.659   2.770  0.0749  0.2453 -0.2676
 7849SOL    HW135183   3.431   3.615   2.689  1.1652  0.8343 -0.2467
 7849SOL    HW235184   3.450   3.604   2.835 -1.1945  2.6865  2.6423
 7850SOL     OW35185   2.374   3.767   3.272 -0.2324  0.1983  0.0159
 7850SOL    HW135186   2.418   3.840   3.229  1.8556  0.4915  2.5840
 7850SOL    HW235187   2.452   3.712   3.285 -1.4113 -0.9605  2.2405
 7851SOL     OW35188   4.707   0.283   4.671  0.1093  0.2115 -0.2940
 7851SOL    HW135189   4.722   0.371   4.638  0.3742  0.8844  1.6476
 7851SOL    HW235190   0.047   0.281   4.722 -0.5532 -2.0578  0.6741
 7852SOL     OW35191   0.193   0.990   8.878  0.5418  0.2822  0.5090
 7852SOL    HW135192   0.117   0.963   8.825 -0.2348 -0.8553  2.1965
 7852SOL    HW235193   0.245   1.020   8.803  1.4732 -0.4468  0.8618
 7853SOL     OW35194   1.891   0.146   9.283  0.1021 -0.2028 -0.4258
 7853SOL    HW135195   1.897   0.227   9.332 -3.2416 -0.3513  0.2175
 7853SOL    HW235196   1.828   0.098   9.337  1.4867  0.4760  1.7870
 7854SOL     OW35197   1.316   2.502   5.250 -0.0620  0.5051  0.7532
 7854SOL    HW135198   1.263   2.581   5.244 -0.0601  0.4906  0.5346
 7854SOL    HW235199   1.322   2.478   5.342 -0.2984  0.2443  0.6998
 7855SOL     OW35200   1.657   3.630   6.824 -0.7226  0.2183 -0.2283
 7855SOL    HW135201   1.563   3.643   6.814 -0.7866  0.6340  0.9815
 7855SOL    HW235202   1.666   3.561   6.758 -1.1174 -1.0855  1.0642
 7856SOL     OW35203   4.544   0.954   3.989  0.1921  0.1718 -0.1986
 7856SOL    HW135204   4.640   0.961   3.984  0.1604  0.0411 -0.9995
 7856SOL    HW235205   4.525   1.019   3.921  1.0783 -0.1205 -0.7277
 7857SOL     OW35206   3.285   3.517   6.257 -0.4033 -0.4990  0.5489
 7857SOL    HW135207   3.322   3.499   6.171  0.3654 -0.0166  0.7791
 7857SOL    HW235208   3.339   3.590   6.286  1.7060 -1.0563 -2.0608
 7858SOL     OW35209   4.580   0.939  13.662 -0.6287  0.0107 -0.4034
 7858SOL    HW135210   4.558   0.887  13.739 -0.6217  1.6286  0.6823
 7858SOL    HW235211   4.497   0.985  13.653 -0.1663  0.9720  0.2185
 7859SOL     OW35212   1.998   1.608   7.557  0.5266  0.0727 -0.0609
 7859SOL    HW135213   1.948   1.646   7.628  0.2669 -0.2093 -0.0938
 7859SOL    HW235214   1.990   1.685   7.501 -0.6687  0.9152  1.2865
 7860SOL     OW35215   4.619   0.663   7.384 -0.1160  0.2668  0.3070
 7860SOL    HW135216   4.588   0.702   7.302  2.4188  0.7203 -0.4211
 7860SOL    HW235217   4.692   0.713   7.421  1.0869 -0.9941 -0.3514
 7861SOL     OW35218   1.731   1.576   1.732  0.0335  0.3317 -0.5233
 7861SOL    HW135219   1.769   1.655   1.694  1.1042  0.4640  0.8344
 7861SOL    HW235220   1.653   1.574   1.677 -2.2887  0.0789  2.7619
 7862SOL     OW35221   0.241   2.806   0.834 -0.2428  0.1987  0.5124
 7862SOL    HW135222   0.218   2.791   0.926  1.5629  0.9835  1.0991
 7862SOL    HW235223   0.245   2.900   0.821 -0.1447  0.2246  0.7270
 7863SOL     OW35224   1.908   1.809   6.910  0.4396 -0.4638  0.5071
 7863SOL    HW135225   1.886   1.721   6.878 -0.7281  0.1257 -0.3182
 7863SOL    HW235226   1.841   1.818   6.978 -0.4926 -1.1177 -0.3226
 7864SOL     OW35227   3.637   3.086  16.275 -0.2730 -0.1882 -0.4568
 7864SOL    HW135228   3.665   3.091  16.367  2.9246  1.4631 -1.4978
 7864SOL    HW235229   3.710   3.037  16.236 -0.5903 -0.6690 -0.4386
 7865SOL     OW35230   2.856   3.892   1.925 -0.1910  0.0275  0.4444
 7865SOL    HW135231   2.819   3.843   1.852  0.5231 -0.4163  0.3876
 7865SOL    HW235232   2.860   3.823   1.991 -2.4795  1.1734  1.8055
 7866SOL     OW35233   4.431   2.946   0.849 -0.0925  0.3960 -0.2363
 7866SOL    HW135234   4.480   2.910   0.775  1.1125  0.3630  0.5747
 7866SOL    HW235235   4.393   3.022   0.804  1.9543  1.0175 -0.9174
 7867SOL     OW35236   3.954   1.933  13.633 -0.8906 -0.0415  0.4997
 7867SOL    HW135237   3.923   1.886  13.555  0.8829 -0.7068  0.2158
 7867SOL    HW235238   3.922   1.875  13.702 -0.5229 -0.5816  0.2130
 7868SOL     OW35239   1.129   3.039   8.918 -0.0293 -0.5168 -0.0693
 7868SOL    HW135240   1.106   3.107   8.854 -1.0891  1.5367  2.4983
 7868SOL    HW235241   1.179   2.978   8.864  0.9229 -0.8613  1.1984
 7869SOL     OW35242   4.504   0.099   9.631  0.4374 -0.1361 -0.2439
 7869SOL    HW135243   4.499   0.050   9.713 -0.7818 -0.7310 -0.6725
 7869SOL    HW235244   4.511   0.030   9.564  1.9301  2.6166 -2.9193
 7870SOL     OW35245   0.690   3.905   0.755  0.4612  0.4230 -0.7034
 7870SOL    HW135246   0.696   3.864   0.669 -0.3946 -1.1459 -0.0241
 7870SOL    HW235247   0.767   3.868   0.797 -0.9951 -0.6666  0.9897
 7871SOL     OW35248   2.609   0.756   0.319 -0.2323  0.2045  0.0930
 7871SOL    HW135249   2.669   0.690   0.284 -0.7880 -0.1973 -0.1023
 7871SOL    HW235250   2.552   0.708   0.378  1.3253  0.0365  1.4651
 7872SOL     OW35251   4.359   1.337   9.833  0.3849  0.0613 -0.4784
 7872SOL    HW135252   4.265   1.324   9.824  0.4020 -0.5158  0.1217
 7872SOL    HW235253   4.369   1.408   9.770  0.4842 -0.6983 -1.3073
 7873SOL     OW35254   0.739   2.208   3.904 -0.1312  0.4095 -0.2194
 7873SOL    HW135255   0.680   2.136   3.922 -1.6617  2.1724  1.8398
 7873SOL    HW235256   0.781   2.191   3.819  0.1385  1.8038 -0.3711
 7874SOL     OW35257   2.831   1.785  11.336 -0.0573  0.8348  0.1506
 7874SOL    HW135258   2.907   1.804  11.392  0.9501  0.8186 -1.2232
 7874SOL    HW235259   2.821   1.870  11.293 -2.3441  0.7491  0.5059
 7875SOL     OW35260   4.721   0.458  13.304  0.5908 -0.0263 -1.0435
 7875SOL    HW135261   4.723   0.365  13.280 -0.9573  0.3471 -2.6414
 7875SOL    HW235262   0.076   0.468  13.312  0.6616 -0.7194 -1.0347
 7876SOL     OW35263   3.502   0.392   4.670 -0.1172 -0.1435  0.4450
 7876SOL    HW135264   3.567   0.373   4.738  0.4023 -0.6689 -0.1976
 7876SOL    HW235265   3.432   0.441   4.713 -1.3194 -2.0106  0.6416
 7877SOL     OW35266   3.423   0.660  17.292 -0.0428 -0.0700 -0.2498
 7877SOL    HW135267   3.478   0.719  17.342  2.0153 -3.0106  0.9782
 7877SOL    HW235268   3.427   0.705  17.207  1.3253  1.2692  0.5397
 7878SOL     OW35269   0.901   4.334   7.682  0.2015  0.2403  0.5316
 7878SOL    HW135270   0.813   4.350   7.649  0.1053  1.1712  1.2355
 7878SOL    HW235271   0.907   4.239   7.690 -3.2261  0.0989  1.4292
 7879SOL     OW35272   3.148   0.602  11.578 -0.0326 -0.2889  0.4897
 7879SOL    HW135273   3.206   0.528  11.562  2.0133  1.3058  0.4933
 7879SOL    HW235274   3.075   0.561  11.623 -1.3784  1.8488  0.2864
 7880SOL     OW35275   3.019   1.851   7.974  0.0146 -0.0070  0.6499
 7880SOL    HW135276   2.976   1.933   7.998  2.2154  1.9424 -2.1268
 7880SOL    HW235277   2.951   1.784   7.972 -1.0297  1.0863 -0.6117
 7881SOL     OW35278   2.631   1.808  11.559  0.1527 -0.4851 -0.1875
 7881SOL    HW135279   2.720   1.786  11.533  0.2042 -1.0760  0.4926
 7881SOL    HW235280   2.661   1.886  11.607 -2.2650 -0.1186  0.7385
 7882SOL     OW35281   1.055   3.145  16.166 -0.3071 -0.3114 -0.2635
 7882SOL    HW135282   1.122   3.082  16.139 -0.8209 -0.7845 -0.4186
 7882SOL    HW235283   1.038   3.116  16.256  1.5284  1.2227  0.6091
 7883SOL     OW35284   1.470   1.737   8.638 -0.3007  0.2742  0.2741
 7883SOL    HW135285   1.378   1.765   8.642 -0.3610  0.1154  0.0058
 7883SOL    HW235286   1.509   1.785   8.711  1.0883  2.2655 -1.8060
 7884SOL     OW35287   4.657   1.422  17.271  0.0057 -0.2086 -0.1350
 7884SOL    HW135288   4.587   1.415  17.206 -0.4535 -0.5151  0.3987
 7884SOL    HW235289   4.684   1.513  17.256 -1.5078  0.4395  1.0168
 7885SOL     OW35290   2.924   3.839   4.276  0.0718 -0.6424  0.0706
 7885SOL    HW135291   2.841   3.880   4.302  0.1479  0.2356 -1.0740
 7885SOL    HW235292   2.974   3.913   4.243  0.4510  0.0171  2.1145
 7886SOL     OW35293   3.297   3.572   4.967  0.3166 -0.0513  0.1419
 7886SOL    HW135294   3.326   3.652   5.011  0.1618  0.2097 -0.2353
 7886SOL    HW235295   3.208   3.601   4.948  0.8984  2.4365  1.1966
 7887SOL     OW35296   0.299   2.358  13.380 -0.0983  0.1741 -0.0462
 7887SOL    HW135297   0.319   2.365  13.473 -0.9925 -1.3982  0.2591
 7887SOL    HW235298   0.366   2.294  13.357 -1.0884 -0.3894 -1.3860
 7888SOL     OW35299   1.274   2.290   7.912  0.2755 -0.3522 -0.1223
 7888SOL    HW135300   1.279   2.220   7.976 -1.0012 -0.7182 -0.4320
 7888SOL    HW235301   1.341   2.273   7.845  0.8978  0.8298  0.1901
 7889SOL     OW35302   3.752   4.535   8.257 -0.3555 -0.0074 -0.0776
 7889SOL    HW135303   3.710   4.484   8.188 -1.2219 -1.9523  1.8629
 7889SOL    HW235304   3.688   4.606   8.257  2.1657  2.2568  0.2464
 7890SOL     OW35305   0.213   0.341  12.338  0.0482 -0.0354 -0.7921
 7890SOL    HW135306   0.188   0.315  12.250  2.4972  0.9738 -1.7929
 7890SOL    HW235307   0.289   0.397  12.323  1.4250 -1.7501 -0.2166
 7891SOL     OW35308   0.596   1.182   8.788 -0.5710  0.1491 -0.1369
 7891SOL    HW135309   0.668   1.222   8.836 -2.7354  1.1316  2.2722
 7891SOL    HW235310   0.601   1.092   8.819 -2.4784  0.5065  1.2314
 7892SOL     OW35311   2.212   3.766   5.371 -0.4580 -0.9669 -0.1079
 7892SOL    HW135312   2.182   3.675   5.369 -1.4879 -0.6289 -0.2073
 7892SOL    HW235313   2.132   3.815   5.351 -0.3169 -0.5971  0.2297
 7893SOL     OW35314   4.096   1.503  15.920 -0.5928  0.5393 -0.6729
 7893SOL    HW135315   4.093   1.456  16.003 -1.2725 -1.6730 -1.9491
 7893SOL    HW235316   4.016   1.556  15.928 -1.0324 -0.5148  2.0310
 7894SOL     OW35317   4.712   2.901   8.187  0.8175  0.0667  0.7124
 7894SOL    HW135318   4.619   2.884   8.203  1.0599 -1.3154  0.6259
 7894SOL    HW235319   0.010   2.892   8.274  0.0971  1.0372  1.1216
 7895SOL     OW35320   2.455   3.949   7.652 -0.2799  0.0830  0.4513
 7895SOL    HW135321   2.441   3.884   7.721  0.8711  1.2528  1.7864
 7895SOL    HW235322   2.447   3.900   7.570  3.9140  0.9579 -0.4626
 7896SOL     OW35323   1.010   2.785   2.905  0.3776  0.4425  0.1491
 7896SOL    HW135324   0.980   2.836   2.830 -0.3476  0.9576  0.7903
 7896SOL    HW235325   1.090   2.827   2.938  1.2290 -1.6403  0.7223
 7897SOL     OW35326   1.740   4.639   3.027 -0.0078 -0.5097 -0.0357
 7897SOL    HW135327   1.728   4.730   3.003 -0.7365 -0.5420  0.2098
 7897SOL    HW235328   1.826   4.617   2.991  0.7346  0.3664  1.1977
 7898SOL     OW35329   0.980   2.578   6.471  0.0387  0.1639  0.1071
 7898SOL    HW135330   1.053   2.526   6.505 -3.2938 -2.3427  3.4659
 7898SOL    HW235331   0.910   2.562   6.535  1.5419 -1.0972  1.4096
 7899SOL     OW35332   1.580   1.909   6.859  0.0933 -0.1987  0.4406
 7899SOL    HW135333   1.669   1.921   6.825 -0.2685  0.0182 -0.4204
 7899SOL    HW235334   1.525   1.954   6.795 -1.1855 -3.3322 -0.6328
 7900SOL     OW35335   2.034   4.189   1.012 -0.4251 -0.1197  0.0503
 7900SOL    HW135336   2.094   4.261   1.029 -1.8653  0.6010  2.0705
 7900SOL    HW235337   1.989   4.213   0.930 -0.7630 -2.8298 -0.5375
 7901SOL     OW35338   3.871   3.074   5.450  0.1656 -0.1437 -0.2453
 7901SOL    HW135339   3.921   3.088   5.530  1.6070  1.5305 -1.4376
 7901SOL    HW235340   3.843   3.165   5.444  0.2683 -0.1150 -0.2762
 7902SOL     OW35341   0.120   4.024   6.576 -0.3952 -0.0095  0.2535
 7902SOL    HW135342   0.153   3.974   6.651 -0.5771  0.4915  0.6713
 7902SOL    HW235343   0.174   4.103   6.575  3.1233 -2.3801  2.9390
 7903SOL     OW35344   4.482   1.413  11.533 -1.4416 -0.1134 -0.3235
 7903SOL    HW135345   4.459   1.320  11.528 -1.4230 -0.0308 -2.1014
 7903SOL    HW235346   4.434   1.452  11.606  0.8230 -0.3681  1.2861
 7904SOL     OW35347   0.920   3.335   5.413  0.7424  0.6270 -0.3182
 7904SOL    HW135348   0.885   3.420   5.385 -0.0450  1.2688  2.6165
 7904SOL    HW235349   0.988   3.381   5.462  0.2253  1.7051 -0.6265
 7905SOL     OW35350   0.815   3.744  10.631  0.0994  0.0517  0.1955
 7905SOL    HW135351   0.844   3.717  10.718  1.8956  2.8214  0.4518
 7905SOL    HW235352   0.831   3.672  10.570 -0.2299 -1.6428  2.1083
 7906SOL     OW35353   2.347   2.513   3.914  0.2321 -0.0679 -0.0222
 7906SOL    HW135354   2.281   2.582   3.918 -0.0505 -0.2896 -0.9797
 7906SOL    HW235355   2.425   2.564   3.894  1.3993 -1.2953  1.3715
 7907SOL     OW35356   4.004   2.164   7.606 -0.0583  0.4730  0.0749
 7907SOL    HW135357   3.946   2.129   7.538  1.3609 -2.1580  0.2067
 7907SOL    HW235358   4.052   2.231   7.557  0.3439 -0.0275 -0.2110
 7908SOL     OW35359   4.167   3.626   8.887 -0.1543  0.2414 -0.6762
 7908SOL    HW135360   4.210   3.542   8.899 -1.2752 -0.4330 -1.3904
 7908SOL    HW235361   4.169   3.657   8.978  3.9096  0.1004 -0.7304
 7909SOL     OW35362   1.314   2.458  16.797 -0.4869  0.1708  0.1512
 7909SOL    HW135363   1.376   2.476  16.868  0.2060 -0.3231 -0.3231
 7909SOL    HW235364   1.250   2.403  16.841 -1.6682  0.2497 -1.4788
 7910SOL     OW35365   0.640   3.904   2.599 -0.5693  0.1320 -0.1873
 7910SOL    HW135366   0.694   3.869   2.528  0.6583 -0.1549  0.8994
 7910SOL    HW235367   0.662   3.854   2.677  1.2794  0.0807 -0.7387
 7911SOL     OW35368   3.043   0.902   7.593 -0.2362 -0.2994  0.1962
 7911SOL    HW135369   3.049   0.806   7.586 -2.6627 -0.2707 -2.3814
 7911SOL    HW235370   3.017   0.915   7.684 -0.7667 -1.4498  0.2150
 7912SOL     OW35371   1.421   1.418  13.444 -0.3884  0.3369 -0.5679
 7912SOL    HW135372   1.506   1.431  13.485 -0.1191 -0.8471 -0.7685
 7912SOL    HW235373   1.388   1.366  13.517  1.1715 -0.7928 -0.6767
 7913SOL     OW35374   0.123   4.260  17.733  0.2334  0.1378  0.3097
 7913SOL    HW135375   0.202   4.293  17.689  0.3855  0.4575  0.8258
 7913SOL    HW235376   0.073   4.342  17.735 -0.0758 -0.0695  0.8595
 7914SOL     OW35377   1.059   4.678   0.943  0.3019 -0.2008  0.0900
 7914SOL    HW135378   1.144   4.636   0.931  1.5019  1.8840  1.3500
 7914SOL    HW235379   1.028   4.634   1.022  0.7863  0.4376  0.6364
 7915SOL     OW35380   4.186   2.040   8.707 -0.1270 -0.2176  0.4348
 7915SOL    HW135381   4.095   2.047   8.678 -0.5492  0.2705  1.8457
 7915SOL    HW235382   4.172   1.992   8.789  0.1544 -1.0638 -0.0160
 7916SOL     OW35383   1.490   0.807   6.042  0.3093 -0.4031 -0.4710
 7916SOL    HW135384   1.577   0.768   6.035  0.3061 -0.7567  1.4924
 7916SOL    HW235385   1.509   0.837   6.131 -0.5355 -0.2250 -0.3482
 7917SOL     OW35386   4.734   2.495   8.606 -0.0037  0.4395 -0.2934
 7917SOL    HW135387   0.028   2.578   8.640 -2.3804  0.9213  0.8893
 7917SOL    HW235388   4.641   2.515   8.606 -0.3568 -1.1260 -1.9180
 7918SOL     OW35389   4.355   1.418   3.377  0.0317 -0.4291 -0.2662
 7918SOL    HW135390   4.436   1.385   3.337  0.2016 -2.3048  1.5962
 7918SOL    HW235391   4.360   1.511   3.396 -2.0936 -0.5628  0.8981
 7919SOL     OW35392   2.478   3.826   0.079 -0.4149 -0.1304  0.4901
 7919SOL    HW135393   2.562   3.794   0.112 -0.0524 -0.4620 -0.7658
 7919SOL    HW235394   2.504   3.826  17.744  1.1902  0.6374  0.9454
 7920SOL     OW35395   2.293   0.465   5.120 -0.2281  0.4232  0.1302
 7920SOL    HW135396   2.384   0.455   5.092  0.2378 -0.2052  1.9041
 7920SOL    HW235397   2.262   0.375   5.107 -0.4113  0.6843 -1.3290
 7921SOL     OW35398   0.112   3.499   6.408 -0.6270 -0.2986 -0.1714
 7921SOL    HW135399   0.062   3.486   6.327  0.6405  1.0760 -1.1558
 7921SOL    HW235400   0.135   3.591   6.412  0.0744 -0.3875 -2.0837
 7922SOL     OW35401   3.884   0.141  14.251  0.1283 -0.0234  0.2318
 7922SOL    HW135402   3.929   0.188  14.180  3.5951 -2.5645  0.7380
 7922SOL    HW235403   3.794   0.160  14.226  1.1805  2.2925 -1.8945
 7923SOL     OW35404   2.386   2.104   2.244  0.6350  0.1697  0.1603
 7923SOL    HW135405   2.397   2.197   2.223 -2.0431  0.7248  1.3008
 7923SOL    HW235406   2.350   2.100   2.332 -0.5886  0.4379 -0.3292
 7924SOL     OW35407   3.714   3.989  16.496  0.0723  0.5292 -0.1532
 7924SOL    HW135408   3.668   3.983  16.412 -2.5035  0.7574  1.2399
 7924SOL    HW235409   3.744   3.898  16.504 -1.6812 -0.0644 -0.2536
 7925SOL     OW35410   3.989   2.029   3.372 -0.1861  0.4316 -0.8379
 7925SOL    HW135411   4.067   2.032   3.317 -0.1322  0.3238 -0.7658
 7925SOL    HW235412   4.015   2.084   3.447  1.0994 -1.4026  0.0467
 7926SOL     OW35413   2.405   3.727   9.042 -0.6649  0.8110  0.0757
 7926SOL    HW135414   2.485   3.779   9.035 -0.5944  0.5447 -1.1293
 7926SOL    HW235415   2.374   3.742   8.953  0.0894 -1.0675 -0.5148
 7927SOL     OW35416   3.955   3.267   1.997 -0.0632  0.1442 -0.0807
 7927SOL    HW135417   3.876   3.258   1.943  0.8801  2.2670 -1.8111
 7927SOL    HW235418   3.961   3.174   2.016  0.0625  0.5576  1.9202
 7928SOL     OW35419   0.295   3.379   6.689  0.0369  0.2511 -0.2126
 7928SOL    HW135420   0.301   3.309   6.754 -1.7561  0.7835  0.5131
 7928SOL    HW235421   0.349   3.335   6.623 -3.1965 -0.3869 -2.4002
 7929SOL     OW35422   3.259   4.569   9.728  0.5811  0.0768  0.4164
 7929SOL    HW135423   3.321   4.505   9.764  0.1101 -0.8498 -0.4089
 7929SOL    HW235424   3.303   4.584   9.644  1.0731 -2.1800  0.2543
 7930SOL     OW35425   0.931   3.106  15.630 -0.0585 -0.4401  0.3800
 7930SOL    HW135426   0.955   3.192  15.595 -0.3684 -0.8064 -0.7439
 7930SOL    HW235427   0.872   3.130  15.702  1.4191  2.0347  0.7521
 7931SOL     OW35428   2.854   4.138   9.389  0.3043 -0.1259 -0.4332
 7931SOL    HW135429   2.849   4.144   9.293  0.9765 -0.0405 -0.4653
 7931SOL    HW235430   2.907   4.060   9.405  0.5957  0.1301 -0.1422
 7932SOL     OW35431   2.817   2.330   7.937 -0.2969  0.0885  0.0585
 7932SOL    HW135432   2.733   2.303   7.975 -0.4125 -1.1704 -1.1139
 7932SOL    HW235433   2.840   2.401   7.997 -3.3678  1.3210 -0.1953
 7933SOL     OW35434   2.662   1.023   6.555  0.3708 -0.1450 -0.2348
 7933SOL    HW135435   2.733   1.061   6.502  1.3793 -0.0852  1.1618
 7933SOL    HW235436   2.701   1.012   6.642  0.4279 -0.4025 -0.2924
 7934SOL     OW35437   1.415   3.250  15.810 -0.1900  0.4822  0.1265
 7934SOL    HW135438   1.319   3.259  15.812 -0.1791  0.6536 -0.1052
 7934SOL    HW235439   1.432   3.160  15.783 -1.6214  0.4156 -0.5511
 7935SOL     OW35440   3.548   3.818  11.846 -0.2517  0.2737 -0.2849
 7935SOL    HW135441   3.485   3.753  11.816  1.4842 -1.0956 -0.9289
 7935SOL    HW235442   3.577   3.776  11.927  1.2563  0.7617 -0.5899
 7936SOL     OW35443   3.012   4.535   6.317 -0.2009 -0.2705  0.0446
 7936SOL    HW135444   3.077   4.564   6.253  4.1144 -3.0126  3.1230
 7936SOL    HW235445   3.050   4.447   6.321  2.4502  0.8395 -0.3979
 7937SOL     OW35446   1.119   3.447   3.257  0.5266  0.2539 -0.1638
 7937SOL    HW135447   1.113   3.429   3.351 -1.1179  1.6803  0.0020
 7937SOL    HW235448   1.209   3.477   3.247  0.9398 -1.2131 -0.8742
 7938SOL     OW35449   4.739   1.551   3.599 -0.2141  0.1570 -0.4027
 7938SOL    HW135450   0.064   1.535   3.667 -2.4713 -1.2797  1.4110
 7938SOL    HW235451   4.670   1.490   3.625  1.8013 -1.0837  2.0685
 7939SOL     OW35452   2.920   2.111  17.039 -0.1022  0.2160  0.1638
 7939SOL    HW135453   2.867   2.132  17.116 -1.0140 -0.1312 -0.3679
 7939SOL    HW235454   2.949   2.023  17.065  1.0157  1.0946  1.9397
 7940SOL     OW35455   2.309   0.709   8.112  0.3671 -0.1079 -0.1166
 7940SOL    HW135456   2.395   0.722   8.152  0.3156 -0.5163  0.1346
 7940SOL    HW235457   2.295   0.803   8.111 -0.5641 -0.2318  0.5519
 7941SOL     OW35458   0.873   2.873   8.140 -0.3696  0.5209 -0.0012
 7941SOL    HW135459   0.892   2.960   8.105  2.3030  0.8325  2.2752
 7941SOL    HW235460   0.869   2.875   8.235  0.4646  1.3685  0.0160
 7942SOL     OW35461   1.978   4.667   9.062 -0.1466  0.2268  0.1316
 7942SOL    HW135462   1.896   4.667   9.012  0.2057 -3.7567 -0.5172
 7942SOL    HW235463   1.947   4.668   9.152 -1.7804  2.9505 -0.4763
 7943SOL     OW35464   3.809   0.402   4.182 -0.0913 -0.6603 -0.1067
 7943SOL    HW135465   3.849   0.379   4.266  0.4477 -0.2745 -0.2559
 7943SOL    HW235466   3.883   0.450   4.146 -1.1376 -0.2459 -1.7273
 7944SOL     OW35467   3.042   2.355  12.852  0.2495 -0.3296 -0.3690
 7944SOL    HW135468   3.090   2.284  12.894 -0.3646  1.0950  2.7492
 7944SOL    HW235469   2.959   2.315  12.827  1.6432 -2.1314 -2.1544
 7945SOL     OW35470   0.497   4.583   7.579  0.2353 -0.2785  0.4079
 7945SOL    HW135471   0.493   4.632   7.498 -0.4165 -0.4476  0.3363
 7945SOL    HW235472   0.501   4.659   7.637  1.1022  0.0241 -0.0627
 7946SOL     OW35473   0.879   4.607  14.041  0.0354 -0.4699 -0.1042
 7946SOL    HW135474   0.841   4.639  13.960 -0.7984  0.0449  0.4942
 7946SOL    HW235475   0.964   4.651  14.049  0.7019 -1.8525  0.6623
 7947SOL     OW35476   2.324   0.040   2.757 -0.4305  0.6819 -0.0287
 7947SOL    HW135477   2.409   0.010   2.723 -1.0041 -0.1443 -0.7175
 7947SOL    HW235478   2.256   0.033   2.690 -0.4293 -0.9489  0.1514
 7948SOL     OW35479   0.239   2.005  17.740 -0.5918  0.4442 -0.1443
 7948SOL    HW135480   0.324   2.021  17.700 -1.1698  1.7475 -0.8645
 7948SOL    HW235481   0.181   1.998  17.665  0.2894  3.6498 -1.0974
 7949SOL     OW35482   3.309   2.944  15.456  0.1820 -0.4181  0.2171
 7949SOL    HW135483   3.314   3.039  15.444  1.9223 -0.4115  0.9651
 7949SOL    HW235484   3.279   2.928  15.366 -0.3357 -3.5903  0.9719
 7950SOL     OW35485   2.423   3.165   8.064 -0.4771 -0.3885 -0.3124
 7950SOL    HW135486   2.451   3.247   8.024 -1.2495  0.6988  1.3491
 7950SOL    HW235487   2.426   3.189   8.157 -0.7379 -0.1546 -0.3637
 7951SOL     OW35488   3.306   3.406   2.924  0.0441  0.1015  0.3749
 7951SOL    HW135489   3.255   3.449   2.993  0.0664 -0.8114  0.9703
 7951SOL    HW235490   3.342   3.331   2.972  1.8877  0.6928 -0.0790
 7952SOL     OW35491   1.923   1.503   4.397 -0.5044 -0.3588 -0.0577
 7952SOL    HW135492   1.929   1.571   4.464  0.2895 -1.7036  1.2301
 7952SOL    HW235493   2.017   1.495   4.384  0.0408  0.5045  3.2331
 7953SOL     OW35494   1.163   2.006   3.047 -0.5940  0.2915  0.3870
 7953SOL    HW135495   1.186   2.051   2.965  0.2472 -1.3007 -0.2598
 7953SOL    HW235496   1.107   2.075   3.082 -3.1924 -0.2587 -2.6623
 7954SOL     OW35497   3.445   0.151   4.875  0.3397 -0.4753 -0.0420
 7954SOL    HW135498   3.427   0.114   4.789 -0.6189 -1.9930  0.7948
 7954SOL    HW235499   3.532   0.113   4.888  0.7959  0.6217  0.0964
 7955SOL     OW35500   2.599   0.324   0.347  0.0619 -0.2572 -0.2148
 7955SOL    HW135501   2.655   0.251   0.321 -0.2632 -0.7534  0.4857
 7955SOL    HW235502   2.562   0.301   0.432  0.4626 -0.1779 -0.0226
 7956SOL     OW35503   0.778   0.266   9.255 -0.6162 -0.1878  0.3070
 7956SOL    HW135504   0.821   0.180   9.263  1.2693  0.6978 -0.2364
 7956SOL    HW235505   0.782   0.294   9.347  1.3790  0.7442 -0.0620
 7957SOL     OW35506   3.345   2.315   2.715 -0.0447  0.3142  0.1087
 7957SOL    HW135507   3.368   2.233   2.760  0.0852  0.9580  1.2109
 7957SOL    HW235508   3.419   2.371   2.734 -0.1834  1.2339 -2.0170
 7958SOL     OW35509   4.098   3.917   2.314 -0.3060 -0.3222 -0.0002
 7958SOL    HW135510   4.031   3.985   2.307  0.4100  0.4276  0.2938
 7958SOL    HW235511   4.080   3.877   2.398 -0.7931  0.5639  0.3193
 7959SOL     OW35512   0.949   1.382   6.623 -0.6571  0.0134 -0.6287
 7959SOL    HW135513   0.865   1.383   6.668 -0.7918 -0.6194 -0.8666
 7959SOL    HW235514   1.005   1.385   6.700  0.2441 -2.3546 -1.1625
 7960SOL     OW35515   3.170   3.181  15.260 -0.8601  0.2604  0.0570
 7960SOL    HW135516   3.215   3.266  15.265 -0.5388  0.1509 -0.9560
 7960SOL    HW235517   3.088   3.203  15.303 -0.7094  1.3230 -0.1815
 7961SOL     OW35518   0.144   2.485   0.248  0.0541 -0.8612  0.3656
 7961SOL    HW135519   0.153   2.568   0.294 -0.8496  0.0771 -1.1303
 7961SOL    HW235520   0.067   2.449   0.291 -0.6858 -0.6237 -0.7602
 7962SOL     OW35521   1.776   1.731  11.806 -0.4836  0.5345  0.4802
 7962SOL    HW135522   1.752   1.823  11.807 -0.4481  0.5395  1.2773
 7962SOL    HW235523   1.857   1.746  11.855  0.2625 -1.9443  0.0218
 7963SOL     OW35524   1.928   1.899   2.398 -0.1261 -0.0216 -0.0222
 7963SOL    HW135525   1.934   1.846   2.477 -1.0480  0.5549  0.4355
 7963SOL    HW235526   1.944   1.986   2.434 -1.2290  1.0195 -2.0644
 7964SOL     OW35527   2.675   2.546   6.533 -0.5110 -0.2475 -0.3917
 7964SOL    HW135528   2.619   2.613   6.572  1.5284  0.2747  1.6555
 7964SOL    HW235529   2.690   2.480   6.601 -2.6340 -1.7848 -1.3953
 7965SOL     OW35530   2.253   1.703   6.600 -0.4475  0.8535 -0.1653
 7965SOL    HW135531   2.216   1.724   6.686 -1.6625  0.1986 -0.5240
 7965SOL    HW235532   2.301   1.621   6.615 -0.3492  1.0664  0.6939
 7966SOL     OW35533   1.744   3.932   3.172 -0.6328  0.1213 -0.2401
 7966SOL    HW135534   1.741   3.877   3.094  1.4374 -1.1942  0.6190
 7966SOL    HW235535   1.836   3.943   3.192 -1.2620 -0.4014  2.9946
 7967SOL     OW35536   0.564   4.103   2.300  0.2802 -0.1439  0.5499
 7967SOL    HW135537   0.642   4.056   2.269 -0.3759 -0.5053 -0.5475
 7967SOL    HW235538   0.538   4.124   2.210 -0.1539  1.2680  1.0053
 7968SOL     OW35539   3.394   1.625   3.107 -0.0374  0.1408  0.6612
 7968SOL    HW135540   3.370   1.603   3.197 -2.0143 -1.2797 -0.2225
 7968SOL    HW235541   3.312   1.665   3.077  0.0341  0.6141  1.0861
 7969SOL     OW35542   4.043   0.602   4.791 -0.6151 -0.1300  0.2295
 7969SOL    HW135543   4.131   0.616   4.825  0.0683 -1.7211 -0.8230
 7969SOL    HW235544   4.062   0.585   4.699 -0.2941 -0.1465  0.3001
 7970SOL     OW35545   4.714   2.654   4.556 -0.3146  0.2024  0.1013
 7970SOL    HW135546   4.695   2.643   4.649  2.1873 -0.5638  0.5244
 7970SOL    HW235547   0.052   2.600   4.544  0.1383  0.6858  0.8868
 7971SOL     OW35548   3.570   1.149  14.441  0.8861  0.6066 -0.2843
 7971SOL    HW135549   3.610   1.196  14.368 -0.9331  1.3769 -0.7650
 7971SOL    HW235550   3.496   1.109  14.397  1.6603 -1.1242 -0.0321
 7972SOL     OW35551   3.617   1.779   2.868  0.0622 -0.3473 -0.1666
 7972SOL    HW135552   3.522   1.796   2.868  0.1694  0.2369 -0.7384
 7972SOL    HW235553   3.625   1.709   2.934  1.4320  0.7291  0.8197
 7973SOL     OW35554   4.100   3.677   4.989  0.2297  0.2554 -0.1603
 7973SOL    HW135555   4.102   3.622   4.910  1.3063  1.5529 -1.0320
 7973SOL    HW235556   4.158   3.626   5.045  0.0970 -1.3455 -1.4730
 7974SOL     OW35557   0.554   0.159   5.522  0.1288 -0.1253  0.1900
 7974SOL    HW135558   0.596   0.245   5.527 -0.3252  0.0437  1.1739
 7974SOL    HW235559   0.475   0.172   5.470  0.7561  0.3329 -0.6355
 7975SOL     OW35560   2.405   0.457  13.663  0.6209  0.4478  0.1005
 7975SOL    HW135561   2.399   0.551  13.643  0.1725  0.5084  0.5133
 7975SOL    HW235562   2.311   0.438  13.669  0.6620 -0.1514 -1.1849
 7976SOL     OW35563   3.282   1.734   4.886  0.0948 -0.2016 -0.5093
 7976SOL    HW135564   3.315   1.809   4.936  4.5241 -2.4052 -0.1437
 7976SOL    HW235565   3.292   1.766   4.796  1.7293  1.1652  0.1576
 7977SOL     OW35566   0.798   4.714   7.837  0.2163 -0.1066  0.2639
 7977SOL    HW135567   0.748   0.052   7.812  0.8960  0.9800  2.3496
 7977SOL    HW235568   0.732   4.677   7.896  0.1939 -0.7037 -0.1418
 7978SOL     OW35569   3.325   0.140   7.123  0.2887  0.0528  0.2650
 7978SOL    HW135570   3.261   0.069   7.115  0.8262 -0.5984  1.7016
 7978SOL    HW235571   3.390   0.108   7.187  0.7281 -0.6533 -0.5309
 7979SOL     OW35572   2.950   4.032   4.053 -0.4098 -0.4921 -0.5190
 7979SOL    HW135573   2.947   4.104   3.990  0.4199 -0.0240 -0.0205
 7979SOL    HW235574   2.911   3.960   4.003 -0.9761 -0.4428 -0.1567
 7980SOL     OW35575   2.095   4.280  15.409  0.3744 -0.0050 -0.0004
 7980SOL    HW135576   2.164   4.224  15.372 -0.5268 -1.1587  0.0654
 7980SOL    HW235577   2.058   4.225  15.478 -1.1194 -1.8497 -2.2750
 7981SOL     OW35578   4.070   2.503   3.189  0.3128  0.6392  0.3361
 7981SOL    HW135579   4.115   2.517   3.273 -0.3422  0.1273  0.7779
 7981SOL    HW235580   4.140   2.536   3.132  1.5663  0.8643  2.0046
 7982SOL     OW35581   0.811   3.216   0.501  0.1895  0.1858 -0.2435
 7982SOL    HW135582   0.728   3.262   0.513  0.5842  0.8887 -0.2127
 7982SOL    HW235583   0.776   3.127   0.499 -0.0200  0.2839 -0.8203
 7983SOL     OW35584   3.857   3.437   9.782 -0.0879  0.0512 -0.3517
 7983SOL    HW135585   3.815   3.361   9.742  0.9459  0.3297 -1.9935
 7983SOL    HW235586   3.821   3.502   9.721  1.6282 -0.1737 -1.6060
 7984SOL     OW35587   0.476   2.495   3.205 -0.3327 -0.2544 -0.0964
 7984SOL    HW135588   0.509   2.473   3.292 -1.4506  0.2541  0.4534
 7984SOL    HW235589   0.517   2.577   3.178  1.4951 -0.9446  0.5497
 7985SOL     OW35590   3.715   2.175   5.085  0.0860  0.2171  0.2105
 7985SOL    HW135591   3.791   2.149   5.136 -2.4234 -1.0392  3.3346
 7985SOL    HW235592   3.736   2.134   5.001 -1.5626 -0.1043 -0.0384
 7986SOL     OW35593   2.800   4.414   7.904 -0.3288 -0.7185 -1.2787
 7986SOL    HW135594   2.879   4.365   7.877  2.4636  2.5875  0.8742
 7986SOL    HW235595   2.834   4.463   7.979 -2.8694 -0.1914 -0.4715
 7987SOL     OW35596   3.796   4.304   6.274  0.7931 -0.5125 -0.6489
 7987SOL    HW135597   3.823   4.395   6.261 -1.6901 -0.1356 -3.3087
 7987SOL    HW235598   3.834   4.274   6.357 -0.2243  0.7351  0.2719
 7988SOL     OW35599   0.456   1.625   9.118  0.2476  0.2810 -0.0919
 7988SOL    HW135600   0.413   1.702   9.082  0.2453  1.5537  2.6516
 7988SOL    HW235601   0.375   1.580   9.144  0.3430  0.8635  1.2058
 7989SOL     OW35602   2.265   3.621  12.969 -0.7091 -0.2725  0.2800
 7989SOL    HW135603   2.296   3.535  12.998 -1.5707 -0.5015  0.5341
 7989SOL    HW235604   2.266   3.619  12.873 -2.9310 -0.2831  0.2591
 7990SOL     OW35605   3.662   0.735   4.749 -0.4577 -0.1751  0.3272
 7990SOL    HW135606   3.723   0.674   4.791  1.1535  0.0603 -1.6456
 7990SOL    HW235607   3.724   0.801   4.720 -2.2484 -0.0065 -3.2307
 7991SOL     OW35608   2.577   3.637   8.277  0.1309 -0.2451 -0.1671
 7991SOL    HW135609   2.492   3.681   8.271  0.2502 -0.0857 -0.7146
 7991SOL    HW235610   2.629   3.696   8.331  0.2074 -0.4931  0.0310
 7992SOL     OW35611   3.972   1.898  13.074  0.1579  0.2105 -0.1763
 7992SOL    HW135612   3.967   1.807  13.043  0.0000 -0.4667  1.7851
 7992SOL    HW235613   3.883   1.915  13.104 -0.0594 -2.4641  0.7015
 7993SOL     OW35614   2.531   1.471   7.462 -0.2619 -0.2739  0.5307
 7993SOL    HW135615   2.585   1.424   7.526 -0.0324 -0.6209  0.0858
 7993SOL    HW235616   2.444   1.443   7.488 -0.8349 -1.1281 -2.2717
 7994SOL     OW35617   2.726   3.409  10.322  0.5698 -0.3238  0.2147
 7994SOL    HW135618   2.728   3.317  10.295  0.0628 -0.2284 -0.1398
 7994SOL    HW235619   2.811   3.422  10.363  0.9210 -1.7984 -0.0322
 7995SOL     OW35620   0.091   1.997   6.371 -0.0672 -0.9026  0.2208
 7995SOL    HW135621   0.071   2.052   6.447 -0.8534 -1.8220  0.6816
 7995SOL    HW235622   0.167   2.040   6.333 -0.6812 -1.7188 -1.9461
 7996SOL     OW35623   2.168   0.897  16.820 -0.1807 -0.0893 -0.3730
 7996SOL    HW135624   2.082   0.884  16.782  0.4418 -0.6491 -1.5940
 7996SOL    HW235625   2.185   0.990  16.805  0.5589 -0.4228 -1.6881
 7997SOL     OW35626   1.707   0.308   4.770 -0.0615 -0.1713  0.2520
 7997SOL    HW135627   1.792   0.333   4.733 -0.5983  0.0121 -0.8736
 7997SOL    HW235628   1.684   0.397   4.796  2.2041  1.2556 -2.5722
 7998SOL     OW35629   0.449   3.098   7.656  0.3739  0.5629 -0.0533
 7998SOL    HW135630   0.417   3.088   7.745  2.0838 -0.5344  0.4280
 7998SOL    HW235631   0.515   3.165   7.671  1.8852 -1.1750  1.0811
 7999SOL     OW35632   4.126   3.344  12.740  0.0706  0.3497  1.0616
 7999SOL    HW135633   4.095   3.431  12.764  0.6167 -0.2252  3.8197
 7999SOL    HW235634   4.103   3.292  12.817 -0.3895  2.8583  2.5983
 8000SOL     OW35635   0.721   4.732   9.342  0.0870 -0.0147  0.2761
 8000SOL    HW135636   0.660   4.717   9.414 -3.6873  4.2898 -2.0112
 8000SOL    HW235637   0.675   4.680   9.276  2.3094 -1.8135  0.1487
 8001SOL     OW35638   1.375   2.850   4.819 -0.1672 -0.3245  0.8412
 8001SOL    HW135639   1.439   2.916   4.846 -0.6171  0.5543 -0.2611
 8001SOL    HW235640   1.338   2.903   4.749 -0.0844 -0.5500  0.6284
 8002SOL     OW35641   1.825   0.706  15.021  0.0267 -0.0718 -0.3693
 8002SOL    HW135642   1.816   0.746  14.934  1.0504 -0.4421 -0.6478
 8002SOL    HW235643   1.893   0.640  15.006  1.0578  1.1358 -1.0743
 8003SOL     OW35644   4.019   1.938   6.442  0.1398  0.3180 -0.5202
 8003SOL    HW135645   3.986   1.975   6.524  0.6057  0.3403 -0.3413
 8003SOL    HW235646   4.090   1.999   6.424  0.2572  0.1338 -0.6800
 8004SOL     OW35647   4.133   3.410   1.853  0.2106 -1.1019 -0.2551
 8004SOL    HW135648   4.061   3.382   1.911  0.2976 -1.4599 -0.3185
 8004SOL    HW235649   4.156   3.331   1.804  0.2663 -1.5827  0.5426
 8005SOL     OW35650   0.952   1.333   5.607 -0.4404  0.4437 -0.4307
 8005SOL    HW135651   0.928   1.240   5.610 -1.1437  0.6214 -0.4437
 8005SOL    HW235652   0.931   1.360   5.696  0.5130 -0.1045 -0.0467
 8006SOL     OW35653   0.497   3.913   3.652 -0.1611 -0.0456 -0.1721
 8006SOL    HW135654   0.409   3.949   3.641 -0.9908 -2.1536 -0.5581
 8006SOL    HW235655   0.488   3.826   3.691 -0.8613 -0.1081 -0.4746
 8007SOL     OW35656   3.316   3.667  15.166  0.8751  0.0072  0.1035
 8007SOL    HW135657   3.225   3.666  15.137  1.9411 -0.2479 -3.2740
 8007SOL    HW235658   3.359   3.705  15.089  2.9523  1.7804  2.1427
 8008SOL     OW35659   2.979   1.463   4.529  0.1794  0.0035 -0.0108
 8008SOL    HW135660   2.993   1.370   4.548  0.1710  0.0563  0.2599
 8008SOL    HW235661   2.883   1.467   4.532  0.2550  0.7876  1.2335
 8009SOL     OW35662   3.017   0.686   1.700  0.1064  0.5848 -0.4520
 8009SOL    HW135663   2.989   0.717   1.614 -0.2963  0.4772 -0.3604
 8009SOL    HW235664   2.982   0.758   1.753  0.0526 -0.3376  0.7547
 8010SOL     OW35665   4.500   4.713  16.934  0.0595 -0.3442 -0.1482
 8010SOL    HW135666   4.581   0.023  16.947 -0.2698  0.2115 -0.2076
 8010SOL    HW235667   4.513   4.670  16.850 -3.8628 -0.8540 -0.4909
 8011SOL     OW35668   2.266   3.896   3.798 -0.4317  0.3435  0.7250
 8011SOL    HW135669   2.213   3.823   3.828 -0.5824 -0.5500 -1.6632
 8011SOL    HW235670   2.203   3.968   3.800 -0.3647  0.4647 -1.4704
 8012SOL     OW35671   0.400   2.370   6.359 -0.2493 -0.5424  0.0188
 8012SOL    HW135672   0.339   2.441   6.337  1.1801  0.3717 -1.0530
 8012SOL    HW235673   0.485   2.405   6.388 -0.4780 -1.5347  1.8814
 8013SOL     OW35674   1.809   4.394   1.338 -0.3805  0.3315 -0.1610
 8013SOL    HW135675   1.764   4.376   1.421  0.6903  0.6091  0.4894
 8013SOL    HW235676   1.736   4.444   1.301  0.9956  3.2201  0.9357
 8014SOL     OW35677   0.153   3.716  16.529 -0.5534  0.2583  0.0928
 8014SOL    HW135678   0.183   3.640  16.579 -0.1343 -0.8895 -1.8906
 8014SOL    HW235679   0.197   3.694  16.446 -3.5894 -1.9787 -0.9340
 8015SOL     OW35680   3.174   4.353   9.528  0.8408  0.3511 -0.1079
 8015SOL    HW135681   3.246   4.341   9.466 -0.0663  0.1121 -1.1392
 8015SOL    HW235682   3.133   4.434   9.498 -1.3345 -0.5796  0.3347
 8016SOL     OW35683   3.022   3.330  10.136 -0.7520  0.0651  0.3356
 8016SOL    HW135684   2.943   3.279  10.154 -0.9522  0.2182 -0.1015
 8016SOL    HW235685   3.079   3.258  10.109 -2.7548 -0.6857 -2.0142
 8017SOL     OW35686   2.916   0.592   2.099  0.4961 -0.1567  0.2189
 8017SOL    HW135687   2.849   0.576   2.165 -0.4548 -0.7235 -0.9015
 8017SOL    HW235688   2.876   0.646   2.031 -0.0333 -0.0852  0.5924
 8018SOL     OW35689   2.326   4.274   4.306  0.0091  0.4557  0.1350
 8018SOL    HW135690   2.258   4.232   4.358 -0.3383  1.2854  0.3458
 8018SOL    HW235691   2.316   4.224   4.225  0.5206  1.5777 -0.6267
 8019SOL     OW35692   1.380   3.157  14.968  0.0262 -0.1705 -0.0953
 8019SOL    HW135693   1.387   3.062  14.960  2.5514 -0.2937  3.5063
 8019SOL    HW235694   1.385   3.178  14.875  1.1420 -0.6691 -0.1528
 8020SOL     OW35695   4.050   1.543  11.511  0.5843  0.4993 -0.3801
 8020SOL    HW135696   3.990   1.469  11.500  0.5770  0.4744 -0.1680
 8020SOL    HW235697   4.016   1.588  11.434  1.4566 -0.0445 -1.0939
 8021SOL     OW35698   0.244   0.259  13.535 -0.1626  0.4149  0.0155
 8021SOL    HW135699   0.260   0.351  13.555  3.9830 -0.2300 -0.3222
 8021SOL    HW235700   0.233   0.216  13.620 -0.6629  1.1121  0.3029
 8022SOL     OW35701   1.187   0.476   3.448 -0.5082  0.2444  0.1469
 8022SOL    HW135702   1.259   0.516   3.400 -0.6882  1.6849  1.0636
 8022SOL    HW235703   1.231   0.395   3.475  0.8651  1.4033  1.4052
 8023SOL     OW35704   0.882   3.738  16.713 -0.0706  0.2142 -0.6684
 8023SOL    HW135705   0.851   3.735  16.623 -0.4821 -1.9609 -0.4421
 8023SOL    HW235706   0.938   3.662  16.727  1.1693  1.2711  0.1762
 8024SOL     OW35707   1.861   2.075   2.832  0.6215  0.0411 -0.4326
 8024SOL    HW135708   1.916   2.024   2.892  0.7870  1.4693  0.6425
 8024SOL    HW235709   1.811   2.128   2.895 -0.2674 -3.3165  1.6924
 8025SOL     OW35710   2.491   0.119   5.558  0.0911 -0.3289 -0.1493
 8025SOL    HW135711   2.426   0.147   5.623  0.0707  1.1281 -0.7975
 8025SOL    HW235712   2.504   0.026   5.578 -2.0523 -0.8973 -1.4376
 8026SOL     OW35713   0.790   2.999  17.319 -0.4536  0.0188 -0.0963
 8026SOL    HW135714   0.818   3.028  17.232  1.3486 -0.7110  0.2602
 8026SOL    HW235715   0.800   2.905  17.331 -0.4974  0.1719  1.1202
 8027SOL     OW35716   2.607   2.224   8.469  0.4131 -0.3568  0.8792
 8027SOL    HW135717   2.682   2.175   8.436 -0.2129 -0.1143 -0.9134
 8027SOL    HW235718   2.554   2.246   8.392  0.8787  1.3614  1.0513
 8028SOL     OW35719   1.693   4.346   1.567  0.2532 -0.5625 -0.0985
 8028SOL    HW135720   1.678   4.424   1.620 -0.7001 -1.1491  0.4947
 8028SOL    HW235721   1.721   4.284   1.634  1.0920  0.0669  0.1294
 8029SOL     OW35722   4.380   4.036   2.226 -0.5420 -0.0624  0.3730
 8029SOL    HW135723   4.389   4.111   2.284  0.6484 -0.0805  0.2221
 8029SOL    HW235724   4.294   4.003   2.250 -0.8824  0.0063 -0.7373
 8030SOL     OW35725   4.244   4.006   0.163 -0.1261 -0.8132 -0.0358
 8030SOL    HW135726   4.220   3.920   0.128 -0.2395 -0.1643 -1.5514
 8030SOL    HW235727   4.217   3.992   0.254  2.0298  0.9632  0.8751
 8031SOL     OW35728   0.539   4.509   6.549  0.6105 -0.2398  0.1938
 8031SOL    HW135729   0.523   4.480   6.459  1.9874 -0.4918  0.0317
 8031SOL    HW235730   0.454   4.498   6.593  0.3201  0.7799 -0.1086
 8032SOL     OW35731   3.889   2.367   4.903  0.3948  0.0116 -0.4901
 8032SOL    HW135732   3.843   2.429   4.847  2.0418  0.8084 -0.9626
 8032SOL    HW235733   3.820   2.357   4.969  1.7227  1.1208  1.0647
 8033SOL     OW35734   3.650   0.364   5.278 -0.1434 -0.9860  0.3371
 8033SOL    HW135735   3.687   0.297   5.334  1.5641 -1.0321 -0.8364
 8033SOL    HW235736   3.587   0.411   5.332  0.3296 -0.7254  0.6584
 8034SOL     OW35737   0.164   3.493   9.001  0.0827  0.1926  0.3419
 8034SOL    HW135738   0.093   3.449   9.047 -0.1297  1.4175  1.1808
 8034SOL    HW235739   0.125   3.521   8.918 -2.2143 -1.8852  0.7140
 8035SOL     OW35740   3.891   4.629  17.616 -0.1451 -0.3734 -0.6773
 8035SOL    HW135741   3.866   4.716  17.647  0.1940 -0.9247  1.1512
 8035SOL    HW235742   3.830   4.609  17.545 -0.5910  0.5837 -0.5735
 8036SOL     OW35743   2.233   1.370   6.383  0.1143 -0.0531  0.8683
 8036SOL    HW135744   2.219   1.315   6.306  1.7223  1.0707 -0.2347
 8036SOL    HW235745   2.185   1.451   6.370  1.4469  0.6629  0.3921
 8037SOL     OW35746   2.347   1.100   7.352 -0.0096 -0.8605  0.4034
 8037SOL    HW135747   2.441   1.112   7.365  0.0398 -0.0482 -0.7041
 8037SOL    HW235748   2.311   1.127   7.437 -0.7714  3.5594 -1.3474
 8038SOL     OW35749   2.398   2.319   8.634  0.1380 -0.4931  0.5545
 8038SOL    HW135750   2.399   2.401   8.584  0.9701 -0.5425  0.4870
 8038SOL    HW235751   2.483   2.289   8.601  0.7910  2.1892 -0.2612
 8039SOL     OW35752   3.635   1.847  10.471  0.2466  0.1401  0.0072
 8039SOL    HW135753   3.695   1.903  10.519  1.0464  0.6169 -1.5508
 8039SOL    HW235754   3.684   1.833  10.390 -1.5777  2.1352 -1.4576
 8040SOL     OW35755   4.016   3.465   8.524  0.2803  0.6201  0.3854
 8040SOL    HW135756   3.987   3.505   8.606  3.0767  0.8426  1.2783
 8040SOL    HW235757   4.078   3.532   8.495  0.9786  0.1838  0.8383
 8041SOL     OW35758   3.866   1.462  14.903  0.6693  0.0094  0.1154
 8041SOL    HW135759   3.938   1.431  14.959  1.4226  0.6836 -0.4608
 8041SOL    HW235760   3.913   1.463  14.820 -2.4733  2.5162 -1.6190
 8042SOL     OW35761   4.056   1.025  16.568 -0.1950 -0.1387  0.2016
 8042SOL    HW135762   4.089   0.942  16.534 -1.3462 -1.3906  2.1497
 8042SOL    HW235763   3.963   1.009  16.585 -0.2480 -1.1018 -0.9221
 8043SOL     OW35764   3.531   4.300  16.919 -0.0436 -0.6750 -0.2163
 8043SOL    HW135765   3.612   4.274  16.874 -0.2778 -0.1120 -0.9618
 8043SOL    HW235766   3.481   4.222  16.893  0.4520 -1.5889  1.6044
 8044SOL     OW35767   0.893   4.652   2.609  0.0186 -0.1018  0.5934
 8044SOL    HW135768   0.888   4.568   2.654  2.5812 -1.5076 -1.8033
 8044SOL    HW235769   0.950   4.632   2.535 -0.6233 -3.4818  1.0184
 8045SOL     OW35770   3.832   3.026   6.006  0.0981  0.0326  0.2947
 8045SOL    HW135771   3.758   3.074   6.044 -0.1938 -0.7738  0.7322
 8045SOL    HW235772   3.884   3.099   5.972  0.7675  0.4698  2.2797
 8046SOL     OW35773   2.593   0.363   4.764 -0.1459 -0.7383 -0.1150
 8046SOL    HW135774   2.655   0.417   4.716  0.2332 -0.6156  0.5214
 8046SOL    HW235775   2.645   0.342   4.841  0.4674 -0.1377 -0.3633
 8047SOL     OW35776   2.416   2.667   8.980  0.7066  0.3903 -0.8843
 8047SOL    HW135777   2.379   2.708   8.902 -0.3607  1.7613  0.3589
 8047SOL    HW235778   2.341   2.638   9.032  1.2030  0.3357 -0.2111
 8048SOL     OW35779   1.016   1.320   2.371  0.0352 -0.5622  0.3243
 8048SOL    HW135780   0.997   1.413   2.356  0.1230 -0.5197  0.4814
 8048SOL    HW235781   0.936   1.274   2.343 -0.5558  0.2378  0.6968
 8049SOL     OW35782   1.684   1.110  17.401  0.1191  0.6728  0.2093
 8049SOL    HW135783   1.659   1.187  17.351  1.7474  0.5191 -0.8439
 8049SOL    HW235784   1.656   1.034  17.351  0.5309  0.1609  0.7593
 8050SOL     OW35785   2.539   0.014   5.259  0.1901 -0.3087 -0.3150
 8050SOL    HW135786   2.583   0.014   5.174  1.2707  1.1404  0.2488
 8050SOL    HW235787   2.610   0.028   5.320  0.5841 -0.8062 -0.6575
 8051SOL     OW35788   3.320   0.631   7.601  0.6231 -0.0947 -0.0528
 8051SOL    HW135789   3.375   0.708   7.581  2.4395 -1.5663 -0.7339
 8051SOL    HW235790   3.322   0.625   7.696 -0.7005  0.6668  0.0288
 8052SOL     OW35791   4.247   1.062   2.518 -0.3344  0.0944 -0.1897
 8052SOL    HW135792   4.205   0.978   2.535  0.9600 -0.8085 -1.3911
 8052SOL    HW235793   4.249   1.104   2.605 -0.3083 -0.4987  0.0957
 8053SOL     OW35794   1.554   4.151  15.502 -0.3470  0.6283 -0.1350
 8053SOL    HW135795   1.471   4.157  15.454  0.2447  2.3255 -0.9734
 8053SOL    HW235796   1.614   4.132  15.430  1.5953  1.9821  1.0994
 8054SOL     OW35797   0.373   1.846   5.661 -0.1035  0.3901 -0.2387
 8054SOL    HW135798   0.286   1.882   5.675 -0.4157 -0.6554  0.4844
 8054SOL    HW235799   0.413   1.845   5.748  0.8602 -1.0540 -0.7026
 8055SOL     OW35800   4.234   0.101   4.357  0.4525  0.9699 -0.0176
 8055SOL    HW135801   4.207   0.177   4.305 -0.1470  0.2163 -0.8016
 8055SOL    HW235802   4.183   0.028   4.322  0.8460  1.1010 -0.8526
 8056SOL     OW35803   1.984   2.468   8.240  0.3813 -0.5304 -0.4374
 8056SOL    HW135804   1.908   2.484   8.295  1.1326  0.0555  0.4277
 8056SOL    HW235805   1.965   2.532   8.171  1.6059 -0.4023 -0.6555
 8057SOL     OW35806   1.335   2.920   6.670  0.0477  0.4752  0.2004
 8057SOL    HW135807   1.245   2.915   6.637  0.6728 -2.6669 -1.0667
 8057SOL    HW235808   1.319   2.985   6.738  0.9058 -0.8103  1.6224
 8058SOL     OW35809   3.234   2.916  15.204  0.1561 -0.3599  0.8114
 8058SOL    HW135810   3.260   2.926  15.112  0.7548  1.2561  1.1615
 8058SOL    HW235811   3.198   3.004  15.215 -0.0275 -0.3583  0.2387
 8059SOL     OW35812   0.628   2.128   4.912  0.1165  0.2957  0.7334
 8059SOL    HW135813   0.646   2.083   4.829 -1.8863 -0.6271  0.7985
 8059SOL    HW235814   0.637   2.221   4.891 -0.8337 -0.0518 -1.2281
 8060SOL     OW35815   3.912   3.579   6.317  0.0185 -0.2194  0.6176
 8060SOL    HW135816   3.906   3.665   6.276 -1.1319 -1.8250 -2.5830
 8060SOL    HW235817   4.003   3.582   6.346  0.3347  1.6784 -0.5461
 8061SOL     OW35818   3.493   1.201  16.603  0.3443  0.1656  0.1857
 8061SOL    HW135819   3.493   1.280  16.549 -1.5681  0.5444  0.7472
 8061SOL    HW235820   3.401   1.177  16.593  0.3804  0.0248  0.1949
 8062SOL     OW35821   4.499   2.058  16.924  0.1923  0.2605  0.1524
 8062SOL    HW135822   4.544   1.974  16.911  1.9964  1.0945  0.8696
 8062SOL    HW235823   4.554   2.083  16.999 -0.9630  0.5934  0.8900
 8063SOL     OW35824   2.337   3.893   2.932  0.0098  0.2155 -0.1168
 8063SOL    HW135825   2.386   3.975   2.918  1.2959 -0.1624  2.1363
 8063SOL    HW235826   2.399   3.820   2.925  0.7976  0.5891  2.8844
 8064SOL     OW35827   4.119   0.349   0.723  0.5151  0.7502 -0.2033
 8064SOL    HW135828   4.088   0.262   0.697  0.5589  0.7762 -0.3373
 8064SOL    HW235829   4.070   0.404   0.662 -1.5763  1.9517  2.5585
 8065SOL     OW35830   3.908   2.301   3.137 -0.4703  0.1674 -0.0996
 8065SOL    HW135831   3.956   2.219   3.145 -1.5426 -0.3863  0.6971
 8065SOL    HW235832   3.978   2.363   3.159 -0.0681 -0.3185 -0.0037
 8066SOL     OW35833   1.914   0.345   9.485 -0.6965 -0.0786 -0.0385
 8066SOL    HW135834   1.895   0.423   9.434 -0.4178  0.2091  0.2993
 8066SOL    HW235835   1.877   0.375   9.568  0.4610  3.6128 -0.8821
 8067SOL     OW35836   3.216   1.162   7.913 -0.0436 -0.0420 -0.3533
 8067SOL    HW135837   3.295   1.196   7.872 -0.6091  1.0978 -0.5231
 8067SOL    HW235838   3.209   1.238   7.971  1.2774  0.6885 -1.1450
 8068SOL     OW35839   0.600   4.597  16.178 -0.3661  0.1483  0.1730
 8068SOL    HW135840   0.630   4.674  16.130  0.4439 -1.7434 -2.3320
 8068SOL    HW235841   0.506   4.599  16.160 -0.5932 -2.5016  1.0222
 8069SOL     OW35842   3.133   2.422   7.457 -0.0143 -0.5117 -0.2279
 8069SOL    HW135843   3.060   2.421   7.519  2.4014 -0.0927  2.6408
 8069SOL    HW235844   3.170   2.509   7.470 -1.3857  0.0072  0.1213
 8070SOL     OW35845   0.920   2.521  14.596 -0.5656  0.0686 -0.1016
 8070SOL    HW135846   0.980   2.522  14.671 -0.7088  0.0355  0.0127
 8070SOL    HW235847   0.835   2.520  14.640 -0.2828  2.5164  0.4962
 8071SOL     OW35848   3.510   0.190   5.547 -0.0847 -0.1291 -0.4738
 8071SOL    HW135849   3.426   0.150   5.523  0.0391 -0.0563 -1.0476
 8071SOL    HW235850   3.510   0.258   5.480  1.1735 -1.1179 -1.4867
 8072SOL     OW35851   0.877   2.167   7.201  0.3196 -0.0425  0.6737
 8072SOL    HW135852   0.855   2.076   7.182  0.2372  0.3638 -1.2309
 8072SOL    HW235853   0.819   2.195   7.271 -2.6687 -3.8872 -0.2452
 8073SOL     OW35854   0.283   2.209   3.619  0.1968 -0.1519  0.0179
 8073SOL    HW135855   0.332   2.136   3.657  0.5970 -0.3009 -0.7763
 8073SOL    HW235856   0.317   2.201   3.529 -0.7491 -1.7617 -0.1950
 8074SOL     OW35857   4.387   0.486  10.724 -0.2715 -0.2365  0.0387
 8074SOL    HW135858   4.409   0.579  10.727  0.3569 -0.3988  0.4030
 8074SOL    HW235859   4.324   0.487  10.651  0.7217 -0.0598 -0.8120
 8075SOL     OW35860   1.516   0.031  13.064 -0.4703  0.0807 -0.4275
 8075SOL    HW135861   1.451   4.728  13.009 -1.2620 -0.0147  0.5933
 8075SOL    HW235862   1.569   4.697  13.093 -0.0169 -0.1898 -1.9402
 8076SOL     OW35863   1.166   1.732   6.923  0.2395 -0.4517  0.2185
 8076SOL    HW135864   1.258   1.739   6.949 -0.0590 -0.7562  1.3222
 8076SOL    HW235865   1.175   1.779   6.840  3.4688  1.0382  1.4208
 8077SOL     OW35866   4.164   4.003   7.627  0.3352  0.1521  0.2916
 8077SOL    HW135867   4.171   4.026   7.720 -0.9048 -1.4951  0.8069
 8077SOL    HW235868   4.229   3.934   7.617 -0.8272 -1.0389  0.8713
 8078SOL     OW35869   0.150   0.744  12.823  0.5998 -0.4601  0.0626
 8078SOL    HW135870   0.239   0.780  12.822 -0.0222  1.0906  0.1768
 8078SOL    HW235871   0.115   0.774  12.907  1.9664  0.5774  0.2535
 8079SOL     OW35872   3.607   4.410  17.746  0.2816  0.3431  0.5967
 8079SOL    HW135873   3.610   4.453  17.660 -0.5201 -1.2215 -0.2133
 8079SOL    HW235874   3.688   4.452   0.018  0.1720 -0.1748  1.6211
 8080SOL     OW35875   3.066   4.488   2.593  0.3123 -0.5924  0.0650
 8080SOL    HW135876   3.090   4.568   2.547  1.7944 -0.3808  1.2160
 8080SOL    HW235877   3.084   4.432   2.517 -0.8030 -1.8954  0.7435
 8081SOL     OW35878   1.660   1.052  12.774  0.4970  0.2199  0.3392
 8081SOL    HW135879   1.588   1.055  12.712  0.1468  1.0215  0.7893
 8081SOL    HW235880   1.681   0.961  12.752  2.9796  0.0389  3.3920
 8082SOL     OW35881   2.753   1.416   8.930 -0.1268 -0.1371  0.1925
 8082SOL    HW135882   2.759   1.356   9.004 -2.7201 -1.8862 -1.0135
 8082SOL    HW235883   2.749   1.354   8.857 -1.3673 -0.0514  0.1834
 8083SOL     OW35884   1.809   1.980   8.073 -0.1816 -0.2580  0.6685
 8083SOL    HW135885   1.744   2.023   8.129  0.0375  1.1885 -0.1872
 8083SOL    HW235886   1.792   2.027   7.991  0.6773  0.5952  0.9786
 8084SOL     OW35887   1.405   3.102   8.167 -0.1587  0.2844  0.6595
 8084SOL    HW135888   1.465   3.102   8.241 -0.7729 -1.2696  1.1412
 8084SOL    HW235889   1.368   3.015   8.156 -0.2404  0.6010 -1.5491
 8085SOL     OW35890   4.636   0.587   8.113  0.0355  0.0704  0.4497
 8085SOL    HW135891   4.693   0.612   8.185  2.7779 -1.2799 -1.2151
 8085SOL    HW235892   4.658   0.660   8.055 -0.6701  1.4436  1.9307
 8086SOL     OW35893   2.499   1.042  10.631  0.4380 -0.0054 -0.3572
 8086SOL    HW135894   2.518   0.950  10.649 -0.6190  0.7198  4.3708
 8086SOL    HW235895   2.519   1.063  10.539  0.8300  0.0286 -0.2673
 8087SOL     OW35896   3.853   0.254   3.948  0.3503  0.3450 -0.0178
 8087SOL    HW135897   3.824   0.206   4.025 -0.7363 -0.3075 -0.8187
 8087SOL    HW235898   3.882   0.337   3.986  1.3600  0.1348 -0.3326
 8088SOL     OW35899   4.028   0.507  13.094  0.9497 -0.2265 -0.6776
 8088SOL    HW135900   3.997   0.422  13.061 -1.4356  0.7515 -0.9617
 8088SOL    HW235901   4.105   0.526  13.041  0.4134  0.1178 -1.3269
 8089SOL     OW35902   2.988   0.137   8.995  0.1648  0.0087  0.2651
 8089SOL    HW135903   2.971   0.054   8.949 -0.3118  0.9162 -1.2039
 8089SOL    HW235904   2.933   0.193   8.940  2.0026 -0.5164 -2.1048
 8090SOL     OW35905   1.632   4.007  11.682 -0.3000  0.4674 -0.2998
 8090SOL    HW135906   1.673   4.031  11.765 -1.7965 -1.0325  0.8663
 8090SOL    HW235907   1.697   3.952  11.640 -0.6208 -0.2670  0.1671
 8091SOL     OW35908   3.079   3.341   2.366  0.3417  0.1160  0.7875
 8091SOL    HW135909   3.104   3.251   2.390  1.7775 -0.6323 -3.3665
 8091SOL    HW235910   3.168   3.372   2.379  1.0440 -1.2311 -0.7376
 8092SOL     OW35911   0.220   0.236   8.530  0.7036  0.0487  0.0152
 8092SOL    HW135912   0.259   0.203   8.611  0.5958 -0.3300 -0.0872
 8092SOL    HW235913   0.173   0.317   8.549 -1.7046 -1.2680 -0.3150
 8093SOL     OW35914   0.730   2.729  10.758 -0.0145 -0.3841  0.3547
 8093SOL    HW135915   0.795   2.664  10.784  1.0467  0.3820 -0.3696
 8093SOL    HW235916   0.751   2.735  10.664 -0.6144 -0.3286  0.2269
 8094SOL     OW35917   2.085   3.431   4.364 -0.5451  0.2838  0.3311
 8094SOL    HW135918   2.137   3.373   4.420 -0.8999  2.3915  2.8100
 8094SOL    HW235919   2.072   3.514   4.410 -1.7135  0.3423 -0.1090
 8095SOL     OW35920   3.935   2.236   6.254  0.2071 -0.2746 -0.4788
 8095SOL    HW135921   3.971   2.168   6.196 -0.5207 -0.7040 -0.4168
 8095SOL    HW235922   3.986   2.315   6.234  0.8029 -1.3932 -3.3879
 8096SOL     OW35923   0.257   2.737   3.400  0.1365 -0.3318  0.0677
 8096SOL    HW135924   0.311   2.801   3.448  0.1017 -1.8300  2.0866
 8096SOL    HW235925   0.169   2.756   3.432 -0.3213  1.6586 -2.3667
 8097SOL     OW35926   3.728   1.343  16.227 -0.0608 -0.0697  0.3779
 8097SOL    HW135927   3.720   1.302  16.141 -1.2471 -2.4542  1.6370
 8097SOL    HW235928   3.667   1.416  16.229 -0.3557 -0.2835 -0.6615
 8098SOL     OW35929   3.044   2.425   4.291  0.4797  0.1602  0.0015
 8098SOL    HW135930   3.054   2.498   4.351  1.9961  1.2690 -1.6016
 8098SOL    HW235931   2.951   2.408   4.308  0.7550  0.4817  1.8271
 8099SOL     OW35932   2.237   1.826   4.943 -0.0908  0.3547 -0.1509
 8099SOL    HW135933   2.151   1.796   4.974 -0.7063  1.5596 -0.6725
 8099SOL    HW235934   2.214   1.888   4.874 -1.0700 -0.2819 -0.4021
 8100SOL     OW35935   1.428   3.219   0.683  0.3670  0.7434 -0.4366
 8100SOL    HW135936   1.432   3.163   0.605  1.5227  0.5539 -0.2508
 8100SOL    HW235937   1.517   3.254   0.682  1.0518 -0.9480  1.0575
 8101SOL     OW35938   4.281   1.306   3.631 -0.0445  0.7382 -0.1521
 8101SOL    HW135939   4.192   1.282   3.604 -0.4793  0.3004  1.7121
 8101SOL    HW235940   4.303   1.385   3.581  0.3960  0.2212 -0.7715
 8102SOL     OW35941   1.328   3.897   4.080  0.2396  0.1362 -0.1996
 8102SOL    HW135942   1.409   3.948   4.087  0.8177 -0.6829 -0.8604
 8102SOL    HW235943   1.272   3.969   4.052  1.0906  0.6424 -0.6034
 8103SOL     OW35944   0.705   0.984  13.364 -0.1893 -0.4355  0.0167
 8103SOL    HW135945   0.687   1.054  13.300 -2.1955  1.5173  2.6992
 8103SOL    HW235946   0.615   0.951  13.374 -0.7030  0.6737 -0.8793
 8104SOL     OW35947   4.644   4.279  10.614  0.0023  0.3710  0.0473
 8104SOL    HW135948   4.593   4.336  10.671 -0.5113 -0.3471  0.3063
 8104SOL    HW235949   4.656   4.333  10.536  0.1173 -0.8809 -0.8003
 8105SOL     OW35950   0.439   4.671  11.532 -0.5290  0.2519  0.1245
 8105SOL    HW135951   0.349   4.653  11.506 -0.8256  3.7361 -1.3205
 8105SOL    HW235952   0.449   0.025  11.518 -1.3065  0.0018 -2.0142
 8106SOL     OW35953   1.440   3.636   5.626  0.0619  0.1511 -0.2997
 8106SOL    HW135954   1.504   3.679   5.570 -0.2037 -0.2061 -0.8810
 8106SOL    HW235955   1.488   3.569   5.675 -0.5431 -1.3716 -1.7803
 8107SOL     OW35956   1.586   2.870  16.589 -0.7237 -0.2628  0.2791
 8107SOL    HW135957   1.623   2.958  16.596 -1.4535 -0.1087  2.1273
 8107SOL    HW235958   1.497   2.899  16.612 -0.2858  0.9096  0.4667
 8108SOL     OW35959   2.454   4.087   7.254  0.2011 -0.4256 -0.0613
 8108SOL    HW135960   2.507   4.114   7.329 -2.7385  0.2707  1.7287
 8108SOL    HW235961   2.435   4.174   7.219  0.3639  0.0316  1.0115
 8109SOL     OW35962   3.352   1.727   8.241 -0.4629 -0.3233  0.3946
 8109SOL    HW135963   3.358   1.734   8.145  2.9156  0.9997  0.6900
 8109SOL    HW235964   3.259   1.720   8.260 -0.6422  0.1870 -0.2990
 8110SOL     OW35965   4.519   3.843   7.924 -0.0106  0.1954 -0.5962
 8110SOL    HW135966   4.477   3.775   7.871 -0.4712  2.0583 -2.6324
 8110SOL    HW235967   4.613   3.839   7.905  0.1107  2.5504 -0.5098
 8111SOL     OW35968   1.424   3.552   2.246  0.5358  0.2761 -0.7755
 8111SOL    HW135969   1.518   3.574   2.247  1.1134 -2.3059  1.0826
 8111SOL    HW235970   1.403   3.531   2.155 -0.5390  0.4191 -0.5540
 8112SOL     OW35971   0.800   0.364  10.466  0.4418 -0.3333  0.1684
 8112SOL    HW135972   0.774   0.363  10.558 -2.9525 -1.2914 -0.8160
 8112SOL    HW235973   0.881   0.313  10.460 -0.0007 -1.2707  2.2708
 8113SOL     OW35974   2.486   2.185   5.648  0.8202 -0.4242 -0.0595
 8113SOL    HW135975   2.572   2.212   5.681  1.0446 -1.5386  0.2721
 8113SOL    HW235976   2.515   2.105   5.602  1.7337 -0.2831  0.2712
 8114SOL     OW35977   1.608   3.228  15.177 -0.0545 -0.5765  0.0977
 8114SOL    HW135978   1.524   3.188  15.154  1.0706 -1.8103 -1.8970
 8114SOL    HW235979   1.671   3.165  15.142  0.1322 -0.9652  1.1356
 8115SOL     OW35980   3.665   4.526  11.647  0.1832  0.2635 -0.4027
 8115SOL    HW135981   3.706   4.492  11.727 -2.2748 -0.6237  0.4807
 8115SOL    HW235982   3.650   4.446  11.597 -0.0115  0.4630 -0.6629
 8116SOL     OW35983   1.795   3.338   3.044 -0.1388 -0.2078 -0.0403
 8116SOL    HW135984   1.781   3.347   3.139 -1.8436  2.5736 -0.5358
 8116SOL    HW235985   1.835   3.252   3.047  0.5716  0.1643  1.2863
 8117SOL     OW35986   0.092   0.412   3.276  0.2885 -0.1228  0.2537
 8117SOL    HW135987   0.061   0.346   3.215  0.3432 -0.3593  0.4804
 8117SOL    HW235988   0.143   0.371   3.347  0.0611  0.0751  0.5326
 8118SOL     OW35989   4.181   3.521   0.907 -0.0113  0.5418  0.3858
 8118SOL    HW135990   4.157   3.614   0.912  0.2375  0.7004 -1.1413
 8118SOL    HW235991   4.097   3.480   0.889 -0.1243  0.8423  0.2176
 8119SOL     OW35992   1.955   2.984   5.306 -0.2194  0.5659 -0.0035
 8119SOL    HW135993   1.864   3.004   5.324 -0.0104 -1.2679  3.0500
 8119SOL    HW235994   2.000   3.059   5.346 -1.0246  0.2992  1.3935
 8120SOL     OW35995   2.884   0.201  15.196 -0.6724  0.2033 -0.4137
 8120SOL    HW135996   2.800   0.154  15.195 -0.1232 -0.8168  1.4026
 8120SOL    HW235997   2.924   0.169  15.115  0.2844  0.9936 -0.2444
 8121SOL     OW35998   1.588   1.438   5.114 -0.4814  0.2853  0.3423
 8121SOL    HW135999   1.637   1.358   5.096 -1.8421 -0.2158 -1.0716
 8121SOL    HW236000   1.509   1.441   5.061 -0.0663  0.0465 -0.2937
 8122SOL     OW36001   4.147   0.225  12.115 -0.3560 -0.0532  0.4265
 8122SOL    HW136002   4.177   0.212  12.025  2.3180 -1.0244  1.4566
 8122SOL    HW236003   4.219   0.274  12.155 -0.5025 -0.4992  1.2168
 8123SOL     OW36004   1.758   0.334  17.637 -0.3655  0.6744 -0.0971
 8123SOL    HW136005   1.847   0.371  17.639  0.4500 -1.3492  1.1076
 8123SOL    HW236006   1.701   0.400  17.676 -0.3417 -0.4094  1.7951
 8124SOL     OW36007   2.104   1.371  15.190  0.1710  0.1240  0.3473
 8124SOL    HW136008   2.068   1.334  15.270  0.4533  0.4471  0.6245
 8124SOL    HW236009   2.165   1.298  15.175 -0.5310 -0.1838 -1.0146
 8125SOL     OW36010   2.883   1.303   6.040 -0.1413 -0.5153  0.3243
 8125SOL    HW136011   2.799   1.347   6.055 -0.1497 -0.1026 -0.9565
 8125SOL    HW236012   2.917   1.369   5.980 -0.3450  0.1866  0.9865
 8126SOL     OW36013   2.041   4.068   6.904  0.2414 -0.3149 -0.3289
 8126SOL    HW136014   1.970   4.004   6.906  0.0061 -0.0381  0.3894
 8126SOL    HW236015   2.025   4.083   6.811  0.7618  0.8706 -0.2236
 8127SOL     OW36016   2.811   4.007   6.991  0.1875  0.1656  0.1726
 8127SOL    HW136017   2.882   3.981   7.050  0.4690  0.6530  0.0511
 8127SOL    HW236018   2.816   3.938   6.925 -1.1229  1.5002 -1.3321
 8128SOL     OW36019   1.448   2.121   8.440  0.1408  0.2180  0.5314
 8128SOL    HW136020   1.494   2.038   8.429  0.7522  0.4923  1.0027
 8128SOL    HW236021   1.364   2.098   8.402  0.8744 -2.3377  0.4105
 8129SOL     OW36022   1.297   2.249   9.799 -0.6529  0.6430 -0.1300
 8129SOL    HW136023   1.295   2.289   9.712  0.4626  0.2813 -0.3180
 8129SOL    HW236024   1.236   2.302   9.851  0.1051  1.5489 -0.1688
 8130SOL     OW36025   3.863   4.574   2.724 -0.1540  0.2732 -0.4140
 8130SOL    HW136026   3.784   4.555   2.774  0.2038 -1.8588 -0.6815
 8130SOL    HW236027   3.829   4.624   2.650 -0.9909 -1.0075 -0.8839
 8131SOL     OW36028   3.860   1.774  13.827  0.4220 -0.6070 -0.8012
 8131SOL    HW136029   3.863   1.737  13.915 -0.0877  1.9222  0.3003
 8131SOL    HW236030   3.797   1.712  13.790  0.3831  0.3262 -2.3087
 8132SOL     OW36031   0.782   4.581   7.318  0.1485  0.1564 -0.4532
 8132SOL    HW136032   0.835   4.623   7.387  1.3451  0.6097 -1.6504
 8132SOL    HW236033   0.812   4.490   7.322 -3.1159 -0.8962 -0.1694
 8133SOL     OW36034   3.837   2.336  15.886 -0.7220 -0.3824 -0.3442
 8133SOL    HW136035   3.785   2.256  15.888 -0.3889 -0.5226  2.1894
 8133SOL    HW236036   3.910   2.306  15.939  1.1275  1.3255 -1.9126
 8134SOL     OW36037   0.042   1.045   2.598  0.3043 -0.0567  0.3535
 8134SOL    HW136038   0.024   0.951   2.589  0.9955 -0.2940  1.3318
 8134SOL    HW236039   0.083   1.063   2.514  0.6491  3.8878  1.3808
 8135SOL     OW36040   0.799   2.931  14.753 -0.0640  0.2002  0.1670
 8135SOL    HW136041   0.867   2.919  14.686  1.1611 -0.2389  1.5060
 8135SOL    HW236042   0.749   2.997  14.704  1.0697  0.2556 -0.9052
 8136SOL     OW36043   4.116   0.897  16.052 -0.0731 -0.1156 -0.1915
 8136SOL    HW136044   4.183   0.916  16.118 -0.3264 -1.8936  0.5831
 8136SOL    HW236045   4.039   0.919  16.105 -0.0604 -2.1198  0.6907
 8137SOL     OW36046   3.947   1.444  12.078 -0.1858 -0.1822 -0.5254
 8137SOL    HW136047   3.924   1.365  12.029 -2.4048 -0.1420  0.4569
 8137SOL    HW236048   3.897   1.505  12.024 -0.2125  0.2997  0.0436
 8138SOL     OW36049   2.130   2.135   0.770  0.2674 -0.1390  0.3387
 8138SOL    HW136050   2.149   2.212   0.716 -2.7437  0.4303  0.1077
 8138SOL    HW236051   2.161   2.162   0.857  1.0063  1.4333 -0.4070
 8139SOL     OW36052   1.039   2.219   2.005  0.3759 -0.0711  0.0437
 8139SOL    HW136053   0.992   2.253   2.081  0.0841  0.3156 -0.3130
 8139SOL    HW236054   0.963   2.184   1.959 -0.5371  2.8903 -0.6865
 8140SOL     OW36055   2.834   2.413   2.404 -0.2317  0.4598  0.6139
 8140SOL    HW136056   2.821   2.327   2.366  2.9790 -0.4861  1.6859
 8140SOL    HW236057   2.872   2.450   2.325 -2.5418  0.5511 -0.4600
 8141SOL     OW36058   0.414   3.814   4.424  0.6202 -0.2888  0.0908
 8141SOL    HW136059   0.499   3.858   4.416  0.2330  0.0236 -2.5682
 8141SOL    HW236060   0.346   3.876   4.398  0.3725 -0.0716  1.2764
 8142SOL     OW36061   2.077   4.725   6.688 -0.1808 -0.0315  0.2005
 8142SOL    HW136062   2.159   4.735   6.738 -0.3824  1.5620  0.2186
 8142SOL    HW236063   2.066   4.630   6.691 -0.5349 -0.0123 -0.6883
 8143SOL     OW36064   0.180   1.533   4.003 -0.4050  0.3617 -0.6076
 8143SOL    HW136065   0.201   1.614   4.049 -2.7058  1.0023 -0.6475
 8143SOL    HW236066   0.261   1.483   4.013 -0.2494  0.5430 -0.9579
 8144SOL     OW36067   3.698   1.038  15.410  0.0595  0.1851 -0.4197
 8144SOL    HW136068   3.692   1.016  15.317  3.0449 -1.2553 -0.2850
 8144SOL    HW236069   3.705   0.947  15.439 -0.7270  0.6987  1.4055
 8145SOL     OW36070   3.180   0.220   8.759  0.1829 -0.2942 -0.1883
 8145SOL    HW136071   3.217   0.306   8.777 -0.8919  0.0341  0.5050
 8145SOL    HW236072   3.154   0.193   8.847  0.6803 -0.9076 -0.2291
 8146SOL     OW36073   2.972   2.736   0.751 -0.0159  0.3862 -0.1266
 8146SOL    HW136074   2.953   2.830   0.750 -2.1373 -0.0320  1.0562
 8146SOL    HW236075   3.018   2.732   0.835  0.5418 -1.9099 -0.5336
 8147SOL     OW36076   1.003   0.286   4.752 -0.0601  0.0326  0.2850
 8147SOL    HW136077   0.993   0.361   4.810 -1.2719  2.6599 -3.3288
 8147SOL    HW236078   1.041   0.327   4.675 -1.6626 -3.5570 -2.4237
 8148SOL     OW36079   1.031   0.122   7.685 -0.2108 -0.3963  0.0109
 8148SOL    HW136080   0.945   0.153   7.657 -0.9197 -1.4237  1.0394
 8148SOL    HW236081   1.016   0.107   7.779  0.1410 -0.9457 -0.0216
 8149SOL     OW36082   0.628   4.615   8.041  0.7839 -0.0911 -1.0956
 8149SOL    HW136083   0.571   4.560   7.988 -1.5924  1.0621  0.2346
 8149SOL    HW236084   0.655   4.561   8.115 -1.1451  1.6830  0.8780
 8150SOL     OW36085   4.678   2.245   0.944  0.0585 -0.2066 -0.3276
 8150SOL    HW136086   4.601   2.285   0.905 -1.0582  0.0621  2.1012
 8150SOL    HW236087   4.649   2.281   1.028 -0.4854  0.6594 -0.8829
 8151SOL     OW36088   1.115   3.374   3.554 -0.1026  0.6182 -0.4075
 8151SOL    HW136089   1.124   3.447   3.615 -2.3011  1.1854 -0.7748
 8151SOL    HW236090   1.029   3.340   3.576  0.9810 -1.0688  1.1406
 8152SOL     OW36091   2.192   1.886  14.977  0.3887  0.5422 -0.2865
 8152SOL    HW136092   2.168   1.978  14.984 -0.9030  0.0661  1.4425
 8152SOL    HW236093   2.236   1.884  14.892  1.4461 -0.9121  0.2818
 8153SOL     OW36094   3.623   3.723   3.357 -0.4058 -0.6604  0.6518
 8153SOL    HW136095   3.588   3.786   3.420  0.9177  0.9056 -0.1752
 8153SOL    HW236096   3.545   3.712   3.301  0.5610 -3.4576 -0.1482
 8154SOL     OW36097   0.311   2.100   2.633 -0.1290 -0.6966  0.3994
 8154SOL    HW136098   0.334   2.008   2.649 -1.4823 -0.6675  2.4908
 8154SOL    HW236099   0.267   2.122   2.715  1.7800 -0.8586  1.4759
 8155SOL     OW36100   0.452   0.197   2.580 -0.1011  0.2711  0.2069
 8155SOL    HW136101   0.497   0.249   2.646 -0.2851  2.3531 -1.2765
 8155SOL    HW236102   0.521   0.140   2.545  1.2755  3.9740 -3.1484
 8156SOL     OW36103   0.517   0.239   0.663  0.6645  0.3726 -0.3279
 8156SOL    HW136104   0.543   0.298   0.735 -2.0344 -0.2245  1.1201
 8156SOL    HW236105   0.570   0.161   0.680 -1.8833 -1.2379  0.1105
 8157SOL     OW36106   2.151   3.488  10.273 -0.4627 -0.0762 -0.1387
 8157SOL    HW136107   2.209   3.504  10.347 -2.0406  1.8343  0.6852
 8157SOL    HW236108   2.164   3.565  10.219 -0.5521 -1.1401 -1.6772
 8158SOL     OW36109   0.650   2.169  12.336 -0.0752 -0.3619  0.2583
 8158SOL    HW136110   0.564   2.149  12.300  0.6623 -1.0703 -1.1236
 8158SOL    HW236111   0.686   2.084  12.363 -0.2630 -0.7631 -0.7377
 8159SOL     OW36112   0.413   4.136  15.613 -0.3178 -0.1060 -0.2381
 8159SOL    HW136113   0.320   4.132  15.636 -0.3593  1.5702 -0.1021
 8159SOL    HW236114   0.445   4.058  15.657 -2.2236 -0.2893  0.8256
 8160SOL     OW36115   3.655   0.576   2.845 -0.6033  0.7027 -0.4938
 8160SOL    HW136116   3.680   0.557   2.935 -0.2755  1.0328 -0.5171
 8160SOL    HW236117   3.742   0.608   2.821 -0.2507 -0.7507 -1.1831
 8161SOL     OW36118   2.779   0.556   4.649  0.3425  0.4208 -0.5752
 8161SOL    HW136119   2.836   0.572   4.574 -0.7994 -0.3457 -1.5977
 8161SOL    HW236120   2.694   0.559   4.604 -0.0688 -1.1443  0.1167
 8162SOL     OW36121   0.217   3.262   2.392 -0.2717  0.0494  0.1191
 8162SOL    HW136122   0.203   3.345   2.346 -1.8607 -0.6370 -0.6508
 8162SOL    HW236123   0.247   3.210   2.318 -0.1786  0.7729 -0.3555
 8163SOL     OW36124   3.668   1.151   8.728 -0.2116 -0.4870 -0.7988
 8163SOL    HW136125   3.715   1.136   8.646  1.2328  1.3128 -0.2962
 8163SOL    HW236126   3.579   1.169   8.698  1.6501  3.1623 -4.0627
 8164SOL     OW36127   3.639   3.467  17.547  0.4688 -0.3801  0.3699
 8164SOL    HW136128   3.632   3.376  17.575  0.5485 -0.2714  0.7503
 8164SOL    HW236129   3.723   3.489  17.589 -0.3225  1.7947  0.8239
 8165SOL     OW36130   2.829   3.396   4.132 -0.2733 -0.2073  0.0515
 8165SOL    HW136131   2.852   3.488   4.118 -0.6330 -0.0367  0.5759
 8165SOL    HW236132   2.916   3.356   4.136 -0.0179  0.2064 -1.5262
 8166SOL     OW36133   2.146   2.546   7.391  0.2583 -0.3665  0.1326
 8166SOL    HW136134   2.237   2.519   7.385  0.3480  0.3044 -1.4978
 8166SOL    HW236135   2.100   2.491   7.329  0.6475  0.2567 -0.7048
 8167SOL     OW36136   4.385   3.935   5.546 -0.0510  0.0793  0.1885
 8167SOL    HW136137   4.403   3.921   5.453  0.0965 -0.7305  0.3428
 8167SOL    HW236138   4.301   3.894   5.567 -0.1754 -0.1261 -0.6875
 8168SOL     OW36139   1.995   1.449   7.035 -0.2563  0.0731  0.5059
 8168SOL    HW136140   1.959   1.485   6.954 -2.4108 -0.4529  1.2138
 8168SOL    HW236141   2.086   1.431   7.011 -0.7676  0.1048 -1.3812
 8169SOL     OW36142   2.626   2.229   4.402  0.3670 -0.4516  0.3081
 8169SOL    HW136143   2.704   2.227   4.456  0.0459 -2.6567  0.7013
 8169SOL    HW236144   2.637   2.145   4.357 -0.7480 -0.4719  0.0655
 8170SOL     OW36145   2.807   3.544   8.578  0.0109  0.0180  0.2467
 8170SOL    HW136146   2.876   3.515   8.518  2.1528 -0.1097  2.7574
 8170SOL    HW236147   2.793   3.634   8.548 -0.8204  0.1894  1.1528
 8171SOL     OW36148   1.004   4.546   6.605  0.1633  0.1387 -0.2235
 8171SOL    HW136149   0.962   4.631   6.592 -1.2881 -0.7090 -1.1021
 8171SOL    HW236150   0.947   4.505   6.540  0.8748 -0.9924 -0.1279
 8172SOL     OW36151   0.672   1.215   8.128  0.4298 -0.4973 -0.8007
 8172SOL    HW136152   0.762   1.225   8.160  0.1802  1.9944 -0.9237
 8172SOL    HW236153   0.639   1.154   8.193  0.6887 -0.1405 -0.3390
 8173SOL     OW36154   2.965   3.657   4.477  0.2401 -0.2245  0.4631
 8173SOL    HW136155   2.872   3.644   4.493  0.2325 -1.3646 -0.5216
 8173SOL    HW236156   2.970   3.718   4.403 -1.8089  1.4266  1.7132
 8174SOL     OW36157   0.699   0.228   0.440 -0.0871 -0.0138  0.2134
 8174SOL    HW136158   0.627   0.225   0.377 -0.1567 -0.7175  0.3252
 8174SOL    HW236159   0.649   0.233   0.522  0.7099  0.6475  0.6506
 8175SOL     OW36160   4.150   0.701   2.180  0.2302 -0.1049 -0.0378
 8175SOL    HW136161   4.239   0.698   2.144 -0.3553  3.2059 -1.8227
 8175SOL    HW236162   4.138   0.607   2.182  3.0680 -0.5025 -1.2524
 8176SOL     OW36163   0.964   0.417   9.125  0.4255  0.6868  0.3448
 8176SOL    HW136164   0.905   0.350   9.161  2.5453 -1.5668 -0.3685
 8176SOL    HW236165   1.051   0.388   9.151  1.0736  3.2135  0.9762
 8177SOL     OW36166   4.642   0.536   3.452  0.2004  0.6508 -0.4084
 8177SOL    HW136167   4.694   0.490   3.386 -0.6217 -0.9037  0.0256
 8177SOL    HW236168   4.621   0.612   3.398  2.3455  1.1122 -0.5979
 8178SOL     OW36169   4.616   2.139   5.814 -0.2431 -0.2087 -0.5257
 8178SOL    HW136170   4.672   2.163   5.888  3.1707 -1.2872 -2.7576
 8178SOL    HW236171   4.580   2.227   5.800 -0.0341  0.1232  0.9714
 8179SOL     OW36172   0.596   0.385   5.955  0.0211 -0.5183 -0.1205
 8179SOL    HW136173   0.682   0.405   5.992  0.2132  1.0730 -1.4291
 8179SOL    HW236174   0.626   0.343   5.874 -0.3005  0.2856 -0.6509
 8180SOL     OW36175   4.144   4.144   5.241  0.7055 -0.1180 -0.5973
 8180SOL    HW136176   4.227   4.190   5.234  0.5690  0.3022  0.7028
 8180SOL    HW236177   4.157   4.061   5.194  0.6630 -1.2731  1.4263
 8181SOL     OW36178   2.667   3.993   5.390 -0.3530  0.0333 -0.3361
 8181SOL    HW136179   2.676   3.903   5.420 -3.0298  0.1242  0.7560
 8181SOL    HW236180   2.742   4.007   5.332  0.7134  1.7430  1.4974
 8182SOL     OW36181   0.853   3.662   5.289 -0.3636  0.1279  0.3725
 8182SOL    HW136182   0.790   3.733   5.279  0.3377  1.0552  2.5143
 8182SOL    HW236183   0.936   3.708   5.275 -0.3207 -0.7164 -2.0840
 8183SOL     OW36184   0.361   4.630   4.857 -0.3334  0.3052  0.2327
 8183SOL    HW136185   0.447   4.592   4.873 -0.7577 -0.5552  0.4433
 8183SOL    HW236186   0.325   4.559   4.805  4.7625 -1.4361 -0.8985
 8184SOL     OW36187   2.079   2.223   8.398 -0.1031  0.8405  0.8640
 8184SOL    HW136188   2.069   2.153   8.334 -0.2862 -0.3274  2.1602
 8184SOL    HW236189   2.081   2.292   8.332  2.6171 -0.0677  0.0058
 8185SOL     OW36190   0.261   1.627   8.202  0.1773 -0.3211  0.3945
 8185SOL    HW136191   0.182   1.579   8.227  0.2423 -0.8975 -0.5108
 8185SOL    HW236192   0.315   1.551   8.181  2.1787  1.4286 -0.8125
 8186SOL     OW36193   0.606   3.884   5.089 -0.6303 -0.3008  0.2668
 8186SOL    HW136194   0.662   3.830   5.034 -0.9632 -1.1016  0.7079
 8186SOL    HW236195   0.652   3.968   5.094 -2.9076  0.7816  2.8977
 8187SOL     OW36196   4.389   3.790   0.941 -0.1991  0.1783 -0.6277
 8187SOL    HW136197   4.437   3.776   1.023 -0.7166  0.8600 -0.2021
 8187SOL    HW236198   4.441   3.735   0.883 -1.7463 -0.5299 -1.3358
 8188SOL     OW36199   2.326   2.973   8.900  0.1012  0.1379 -0.5946
 8188SOL    HW136200   2.244   2.925   8.912 -0.0581  0.7386  0.7072
 8188SOL    HW236201   2.337   3.000   8.992  1.6489 -0.5052 -0.5915
 8189SOL     OW36202   0.149   3.694  17.404  0.3701 -0.2431 -0.5627
 8189SOL    HW136203   0.059   3.661  17.398  0.3081 -0.0096 -0.8982
 8189SOL    HW236204   0.184   3.622  17.457  2.2749  0.6922 -0.5372
 8190SOL     OW36205   3.756   1.667   5.792 -0.2426 -0.1855  0.8568
 8190SOL    HW136206   3.785   1.589   5.745  0.6044  0.9783 -0.5556
 8190SOL    HW236207   3.661   1.664   5.782 -0.0592  2.0392 -1.6158
 8191SOL     OW36208   1.228   0.972   9.584 -1.0104  0.2861  0.6040
 8191SOL    HW136209   1.300   0.985   9.522 -1.2588  0.8016  0.4205
 8191SOL    HW236210   1.164   1.042   9.568 -1.0913 -0.0559 -0.5964
 8192SOL     OW36211   2.945   3.220   6.771 -0.1295 -0.0724 -0.3538
 8192SOL    HW136212   2.867   3.208   6.827  0.8563 -1.2000  0.7867
 8192SOL    HW236213   2.981   3.131   6.778  0.5832  0.3205  1.0120
 8193SOL     OW36214   3.752   2.521  14.605 -0.0632  0.0390 -0.0294
 8193SOL    HW136215   3.721   2.430  14.607  1.5872 -0.4807  1.3456
 8193SOL    HW236216   3.804   2.525  14.685  3.9716 -1.2922 -2.6136
 8194SOL     OW36217   3.772   3.938   3.007  0.4073  0.0800  0.1022
 8194SOL    HW136218   3.811   3.865   3.054 -0.6019 -0.2575  0.4251
 8194SOL    HW236219   3.828   4.011   3.031 -1.1916  1.7416 -1.1759
 8195SOL     OW36220   0.919   3.940   4.339 -0.5025 -0.1520  0.1734
 8195SOL    HW136221   1.005   3.968   4.308 -0.0141 -3.1229 -1.1727
 8195SOL    HW236222   0.932   3.846   4.326  3.3812  0.1924  1.4869
 8196SOL     OW36223   0.576   1.383  13.070  0.2934  0.0840 -0.4937
 8196SOL    HW136224   0.508   1.442  13.040 -0.4763  0.1068  1.3124
 8196SOL    HW236225   0.647   1.387  13.006  2.4226 -2.0948  1.7127
 8197SOL     OW36226   3.458   3.362   1.541 -0.5196  0.1012 -0.0884
 8197SOL    HW136227   3.444   3.267   1.538  0.2535 -0.0282  0.3333
 8197SOL    HW236228   3.370   3.385   1.571 -0.2007  1.5300 -0.2479
 8198SOL     OW36229   2.761   3.421   4.425  0.0120 -0.2580 -0.1058
 8198SOL    HW136230   2.712   3.503   4.421  1.0965  0.5005  2.2223
 8198SOL    HW236231   2.793   3.413   4.335 -0.7887 -0.9129 -0.3277
 8199SOL     OW36232   4.419   2.619   8.186  0.2407 -0.3066  0.1458
 8199SOL    HW136233   4.337   2.571   8.200  0.3218 -0.6119 -0.4368
 8199SOL    HW236234   4.450   2.563   8.115  2.4020  1.2176 -0.1020
 8200SOL     OW36235   0.104   1.430   9.242  0.2155 -0.1888 -0.8984
 8200SOL    HW136236   0.122   1.523   9.256  1.0336 -0.9525  3.3920
 8200SOL    HW236237   0.177   1.411   9.183  1.5620  1.6803  0.1445
 8201SOL     OW36238   3.874   0.390  16.631 -0.4454  0.2877 -0.0368
 8201SOL    HW136239   3.803   0.335  16.597 -0.5563 -0.4414  1.3500
 8201SOL    HW236240   3.947   0.364  16.576  0.1187 -0.1601  0.9247
 8202SOL     OW36241   3.543   2.894   4.379  0.3208  0.4699 -0.5527
 8202SOL    HW136242   3.449   2.887   4.368  0.1703  0.7496  0.6218
 8202SOL    HW236243   3.562   2.831   4.448  1.6555  1.4894  0.0256
 8203SOL     OW36244   2.143   1.612   6.375 -0.0336  0.7446  0.1659
 8203SOL    HW136245   2.129   1.703   6.348  0.5167  0.1419 -2.1711
 8203SOL    HW236246   2.193   1.634   6.454  1.0646 -3.7684  0.7272
 8204SOL     OW36247   3.119   0.110   0.682  0.0314  0.3504  0.5889
 8204SOL    HW136248   3.190   0.081   0.626  0.2111 -1.2869  1.6483
 8204SOL    HW236249   3.140   0.064   0.764 -1.2266  1.5704  1.6080
 8205SOL     OW36250   2.243   4.673   8.259 -0.2014 -0.3556  0.1871
 8205SOL    HW136251   2.200   4.597   8.220  1.7057 -0.4133 -1.7846
 8205SOL    HW236252   2.188   4.739   8.218 -0.8224  0.5968  2.5571
 8206SOL     OW36253   2.709   2.547   3.135  0.7806 -0.5514  0.4041
 8206SOL    HW136254   2.647   2.504   3.195 -0.8775 -0.0721 -0.9588
 8206SOL    HW236255   2.777   2.485   3.109  1.6737 -0.1923  1.8587
 8207SOL     OW36256   0.535   3.364   8.081  0.1665 -0.5647 -0.1926
 8207SOL    HW136257   0.611   3.372   8.138 -0.5576  2.8755  0.3006
 8207SOL    HW236258   0.562   3.284   8.036  1.2569  0.4340 -1.2906
 8208SOL     OW36259   4.572   0.074   6.296  0.2146  0.3638  0.0531
 8208SOL    HW136260   4.642   0.102   6.237  0.8918  1.0077  1.1590
 8208SOL    HW236261   4.493   0.101   6.249  0.2820 -0.9223 -0.8068
 8209SOL     OW36262   2.066   3.058   5.757  0.1903  0.1739  0.2332
 8209SOL    HW136263   1.971   3.068   5.760 -0.1945 -2.5600 -1.7603
 8209SOL    HW236264   2.094   3.138   5.713  0.8476  0.2239  0.7472
 8210SOL     OW36265   2.664   3.766  13.169 -0.2082 -0.5243 -0.1791
 8210SOL    HW136266   2.579   3.800  13.142 -0.4572 -0.8256  0.2255
 8210SOL    HW236267   2.627   3.682  13.196  1.1349 -0.9346  0.4047
 8211SOL     OW36268   3.932   0.928   5.004 -0.3047 -1.1358 -0.7466
 8211SOL    HW136269   3.910   1.018   5.025  3.8132 -0.2248 -0.4347
 8211SOL    HW236270   3.973   0.952   4.921  2.6479  1.8524  1.5954
 8212SOL     OW36271   4.536   2.072   4.477  0.1391  0.5879 -0.1794
 8212SOL    HW136272   4.589   2.126   4.419  0.6880  0.6134  0.3510
 8212SOL    HW236273   4.591   1.997   4.501 -0.5783 -0.2239 -1.0561
 8213SOL     OW36274   1.960   0.702   0.022  0.1437  0.3008 -0.4148
 8213SOL    HW136275   2.048   0.723  17.748  1.6734 -1.1023  2.8570
 8213SOL    HW236276   1.948   0.611  17.754 -3.8943 -0.7105  5.0494
 8214SOL     OW36277   0.876   4.295   7.065 -0.6549 -0.1536  0.9285
 8214SOL    HW136278   0.870   4.215   7.014  3.3660 -0.3849  0.7947
 8214SOL    HW236279   0.796   4.343   7.046  0.3737  1.8305  1.5056
 8215SOL     OW36280   1.158   3.465   5.469  0.5493 -0.1120 -0.6322
 8215SOL    HW136281   1.161   3.555   5.503  1.7122  0.3519 -1.9781
 8215SOL    HW236282   1.190   3.485   5.381 -0.0680  0.3396 -0.7533
 8216SOL     OW36283   0.217   4.546   5.423  0.7209 -0.5186 -0.0086
 8216SOL    HW136284   0.133   4.517   5.389 -0.8709  2.2652  1.5584
 8216SOL    HW236285   0.250   4.602   5.352 -0.3899 -0.7913 -0.7338
 8217SOL     OW36286   2.625   2.523   8.374 -0.0745  0.0053  0.1585
 8217SOL    HW136287   2.691   2.589   8.395  0.1428 -0.5456  1.2108
 8217SOL    HW236288   2.660   2.447   8.421  2.5914  1.4581  0.5067
 8218SOL     OW36289   2.065   0.086   3.879  0.4432  0.2050  0.3086
 8218SOL    HW136290   2.159   0.076   3.894  0.2383 -1.1962  0.6332
 8218SOL    HW236291   2.038   0.010   3.828 -0.7961 -0.4303  1.8948
 8219SOL     OW36292   3.316   0.838  14.607 -0.4205  0.0342 -0.8035
 8219SOL    HW136293   3.308   0.906  14.674  0.0414 -2.2059  1.5398
 8219SOL    HW236294   3.399   0.854  14.562 -0.5741  0.7736 -0.8161
 8220SOL     OW36295   2.474   0.770   2.112  0.4082  0.1608 -0.2760
 8220SOL    HW136296   2.561   0.776   2.073  1.9025 -0.9186  2.9594
 8220SOL    HW236297   2.501   0.800   2.198 -0.3443 -2.4839  0.8943
 8221SOL     OW36298   4.284   2.193   2.702 -0.2786 -0.1142  0.0585
 8221SOL    HW136299   4.232   2.223   2.627 -0.6348  0.9391  0.7279
 8221SOL    HW236300   4.305   2.102   2.680 -0.1690 -0.0906  0.0683
 8222SOL     OW36301   2.895   4.648  11.269  0.2743 -0.2178  0.5719
 8222SOL    HW136302   2.824   4.701  11.234  0.0727 -1.3631 -0.7687
 8222SOL    HW236303   2.977   4.696  11.258  0.2833 -0.5349 -0.7632
 8223SOL     OW36304   3.628   2.646   6.792  0.1567 -0.1876  0.1320
 8223SOL    HW136305   3.577   2.605   6.862 -0.6566 -0.6013 -0.7058
 8223SOL    HW236306   3.585   2.603   6.718 -0.5416 -1.1936  1.1157
 8224SOL     OW36307   3.569   1.088   5.034  0.6994  0.3776  0.3406
 8224SOL    HW136308   3.590   1.049   4.950  0.6811  0.5922  0.2365
 8224SOL    HW236309   3.656   1.097   5.072  0.4456  2.2515  0.5070
 8225SOL     OW36310   2.993   0.253   2.623  0.1185  0.2722 -0.4884
 8225SOL    HW136311   3.063   0.273   2.561  0.3064  0.2196 -0.2922
 8225SOL    HW236312   3.034   0.243   2.709  1.4497  1.9356 -0.9438
 8226SOL     OW36313   1.043   2.139   6.631  0.6646  0.4943 -0.8278
 8226SOL    HW136314   0.955   2.151   6.667  0.8047 -2.3775  0.5394
 8226SOL    HW236315   1.031   2.178   6.544 -0.8459  2.1092  0.1245
 8227SOL     OW36316   4.394   0.599  14.310 -0.3669 -0.3745 -0.0428
 8227SOL    HW136317   4.322   0.557  14.262 -0.9966 -0.0795  0.6505
 8227SOL    HW236318   4.366   0.690  14.306 -0.5041 -0.5215 -2.6790
 8228SOL     OW36319   2.421   0.269   3.349  0.5151  0.3515  0.4282
 8228SOL    HW136320   2.396   0.192   3.297 -0.1779 -0.1335  1.4908
 8228SOL    HW236321   2.333   0.293   3.376 -0.7873 -2.9464 -0.7705
 8229SOL     OW36322   2.378   1.016   5.193 -0.4072  0.2420  0.1177
 8229SOL    HW136323   2.422   0.982   5.115  1.9005 -1.5045  2.1628
 8229SOL    HW236324   2.439   1.080   5.229  0.8398 -1.5305  1.1581
 8230SOL     OW36325   1.748   4.711   4.478 -0.1652 -0.7407  0.1085
 8230SOL    HW136326   1.749   0.057   4.436 -0.7213 -1.0383 -0.5310
 8230SOL    HW236327   1.707   4.658   4.410 -1.2708 -0.9863  0.9593
 8231SOL     OW36328   2.827   2.808   3.443  0.6090  0.5097  0.2047
 8231SOL    HW136329   2.744   2.839   3.482 -0.0419  2.6515 -2.8626
 8231SOL    HW236330   2.882   2.802   3.521 -3.2124  1.7723  3.0145
 8232SOL     OW36331   3.296   1.846   3.740  0.1827 -0.1755  0.2433
 8232SOL    HW136332   3.220   1.804   3.781  0.3925  0.7589  1.6047
 8232SOL    HW236333   3.282   1.933   3.776 -0.8335 -0.0926 -0.3691
 8233SOL     OW36334   0.687   4.605   2.302 -0.8059 -0.2153 -0.8611
 8233SOL    HW136335   0.649   4.520   2.324 -0.6579 -0.1302 -0.2918
 8233SOL    HW236336   0.655   4.668   2.366  0.9862 -2.2132  1.9909
 8234SOL     OW36337   3.609   1.671  17.407 -0.1380  0.6588 -0.5262
 8234SOL    HW136338   3.679   1.726  17.441  0.4022  1.7035 -3.4182
 8234SOL    HW236339   3.642   1.656  17.319 -2.0258 -2.0738 -0.7800
 8235SOL     OW36340   3.070   1.511   2.571 -0.2111  0.0766  0.4056
 8235SOL    HW136341   3.106   1.528   2.659 -0.4919  3.1676 -0.0660
 8235SOL    HW236342   3.057   1.604   2.552  0.4692 -0.2906 -1.7770
 8236SOL     OW36343   3.975   0.255   8.067  0.0045  0.1837  0.3765
 8236SOL    HW136344   4.001   0.244   8.158  0.2469  1.4658  0.4504
 8236SOL    HW236345   3.954   0.163   8.050  0.5548  0.6126 -2.7734
 8237SOL     OW36346   3.204   3.987   8.617 -0.2114 -0.3000 -0.0201
 8237SOL    HW136347   3.153   3.977   8.536 -2.2510 -0.1049  1.2437
 8237SOL    HW236348   3.199   3.898   8.652 -4.8258 -0.2833 -0.6498
 8238SOL     OW36349   2.453   0.472   9.302 -0.0084 -0.0176  0.8516
 8238SOL    HW136350   2.375   0.489   9.356  0.6777  2.3719  1.1113
 8238SOL    HW236351   2.423   0.485   9.212 -0.0446 -0.2510  0.8303
 8239SOL     OW36352   4.145   4.317   5.887  0.7837 -0.5807 -0.8772
 8239SOL    HW136353   4.063   4.312   5.936  0.2715  1.7676 -1.4826
 8239SOL    HW236354   4.203   4.268   5.945  0.0212  0.2204  0.5477
 8240SOL     OW36355   4.179   3.429   3.097  1.0615  0.2512  0.5193
 8240SOL    HW136356   4.194   3.509   3.047 -0.3655  1.1426  1.4811
 8240SOL    HW236357   4.173   3.357   3.035 -1.0773 -0.1118  1.1244
 8241SOL     OW36358   4.238   3.339   6.236  0.0073 -0.1384  0.3631
 8241SOL    HW136359   4.262   3.302   6.151  0.0549 -0.0444  0.3352
 8241SOL    HW236360   4.280   3.276   6.294  2.4935  0.5865 -0.6041
 8242SOL     OW36361   3.361   2.606   8.372 -0.1929 -0.1424 -0.0648
 8242SOL    HW136362   3.430   2.662   8.336  0.7962 -0.3497  1.5500
 8242SOL    HW236363   3.393   2.520   8.344 -1.2793 -0.8309  0.7744
 8243SOL     OW36364   4.725   4.245   9.058  0.5109  0.0795 -0.4827
 8243SOL    HW136365   4.723   4.253   8.963  3.0883 -0.3198 -0.5632
 8243SOL    HW236366   0.020   4.156   9.062 -2.5083 -1.1154 -0.5247
 8244SOL     OW36367   4.268   2.156   6.715  0.1690 -0.6000  0.1404
 8244SOL    HW136368   4.187   2.203   6.738 -0.9833 -2.6268  0.2577
 8244SOL    HW236369   4.264   2.152   6.620  0.9760 -0.3518  0.0975
 8245SOL     OW36370   0.163   0.167  11.583 -0.6061 -0.7089  0.7521
 8245SOL    HW136371   0.151   0.073  11.582  0.0193 -0.7676 -1.5382
 8245SOL    HW236372   0.213   0.169  11.665  0.6680  0.2797 -0.0479
 8246SOL     OW36373   3.186   0.196   4.197 -0.1527  0.0960 -0.1862
 8246SOL    HW136374   3.224   0.283   4.181 -0.4854  0.0212 -1.3787
 8246SOL    HW236375   3.253   0.137   4.165  1.9892  1.3715  1.8630
 8247SOL     OW36376   4.240   2.402   6.355  0.1042  0.7066  0.2671
 8247SOL    HW136377   4.323   2.439   6.323  1.7668 -2.9394  0.3814
 8247SOL    HW236378   4.182   2.477   6.365  1.7058  2.2505 -1.8013
 8248SOL     OW36379   2.641   3.008   5.945 -0.2883 -0.2851  0.5840
 8248SOL    HW136380   2.588   3.038   6.018 -1.5724 -1.3845  0.1101
 8248SOL    HW236381   2.722   3.058   5.961 -0.4696  0.3448 -0.4731
 8249SOL     OW36382   0.681   0.042   6.355 -0.1582 -0.2474 -0.0241
 8249SOL    HW136383   0.759   0.047   6.411 -0.3755 -0.7614  0.3187
 8249SOL    HW236384   0.696   0.116   6.296 -0.3432  0.2680  0.5763
 8250SOL     OW36385   0.572   3.501   7.287  0.2437 -0.2962 -0.0218
 8250SOL    HW136386   0.482   3.473   7.266 -0.2186  0.7649  0.5508
 8250SOL    HW236387   0.556   3.563   7.358  0.0253 -0.3576 -0.0161
 8251SOL     OW36388   2.387   2.081   1.054 -0.3052 -0.7893 -0.3577
 8251SOL    HW136389   2.347   2.159   1.091 -0.0918 -0.6162 -0.4873
 8251SOL    HW236390   2.473   2.076   1.095 -1.2094 -0.9483  1.4833
 8252SOL     OW36391   4.043   0.659  17.746 -0.2752 -0.4708 -0.3521
 8252SOL    HW136392   4.023   0.603   0.064 -1.7833  0.1226 -0.3166
 8252SOL    HW236393   4.023   0.602  17.672 -1.6237  0.0352 -0.3786
 8253SOL     OW36394   4.572   0.363   5.241  0.1798  0.1630  0.1185
 8253SOL    HW136395   4.480   0.373   5.217  0.2243  2.4619  0.9363
 8253SOL    HW236396   4.567   0.392   5.332  1.4197  1.5655 -0.2687
 8254SOL     OW36397   1.154   2.784   1.393  0.0836  0.2023  0.0582
 8254SOL    HW136398   1.158   2.867   1.346 -0.3803 -0.5426 -1.2857
 8254SOL    HW236399   1.173   2.807   1.484  1.3569 -2.2845  0.4376
 8255SOL     OW36400   4.553   1.250   8.102  0.4208 -0.0529  0.3091
 8255SOL    HW136401   4.574   1.213   8.188  0.6119 -1.5891 -0.3925
 8255SOL    HW236402   4.509   1.170   8.071  1.0620  0.4834 -2.0001
 8256SOL     OW36403   1.528   2.577  14.128  0.0388 -0.2054  0.4446
 8256SOL    HW136404   1.557   2.527  14.051  2.2014  2.4213 -0.4344
 8256SOL    HW236405   1.447   2.540  14.163 -0.8536 -0.4351 -1.8115
 8257SOL     OW36406   2.812   4.733   6.927  0.2169  0.0809 -0.4896
 8257SOL    HW136407   2.819   0.007   6.833 -1.2807  1.2853 -0.4157
 8257SOL    HW236408   2.854   4.646   6.929 -1.1844 -0.5716  0.3468
 8258SOL     OW36409   4.279   4.601   6.479 -0.2297 -0.1553 -0.1415
 8258SOL    HW136410   4.355   4.622   6.533  0.3109 -1.9646 -0.1961
 8258SOL    HW236411   4.307   4.580   6.389 -2.4586 -0.1134 -0.8428
 8259SOL     OW36412   4.415   1.305  12.574  0.0106 -0.0597  0.0827
 8259SOL    HW136413   4.465   1.228  12.548 -0.0141 -0.6468  1.7975
 8259SOL    HW236414   4.327   1.281  12.545 -0.0656 -0.0786  0.3292
 8260SOL     OW36415   2.411   3.532   2.917  0.3507  0.2042 -0.1508
 8260SOL    HW136416   2.494   3.569   2.886  1.3754 -0.6501  1.5657
 8260SOL    HW236417   2.352   3.553   2.845  0.3989 -0.2911 -0.3417
 8261SOL     OW36418   1.390   4.646   5.627  0.0900 -0.1448 -0.7244
 8261SOL    HW136419   1.417   4.728   5.585  1.6606  0.6245  1.7545
 8261SOL    HW236420   1.323   4.688   5.681  0.1825 -0.1234 -0.6267
 8262SOL     OW36421   0.192   1.670   5.178 -0.2649  0.3158  0.5425
 8262SOL    HW136422   0.215   1.744   5.235  1.1086  0.2289  0.0986
 8262SOL    HW236423   0.107   1.646   5.216 -1.0530  0.4837 -1.0922
 8263SOL     OW36424   0.565   2.613   5.526 -0.0963 -0.0852  0.5576
 8263SOL    HW136425   0.474   2.589   5.514 -0.2452  1.3653 -1.2152
 8263SOL    HW236426   0.590   2.581   5.613  1.4009  0.2997  0.2735
 8264SOL     OW36427   4.319   3.678   4.664 -0.2342  0.1096 -0.6369
 8264SOL    HW136428   4.258   3.609   4.689 -1.0143  0.9949 -0.1160
 8264SOL    HW236429   4.358   3.649   4.581 -1.6389 -3.1416 -0.1281
 8265SOL     OW36430   1.614   3.170  11.328  0.1309  0.2679  0.5337
 8265SOL    HW136431   1.548   3.129  11.383 -1.4093  0.0551 -1.4798
 8265SOL    HW236432   1.609   3.264  11.348  1.2148  0.7045 -1.1715
 8266SOL     OW36433   1.814   1.225  14.362 -0.1867 -0.1241 -0.0790
 8266SOL    HW136434   1.741   1.191  14.414 -0.8491  1.1401 -0.1721
 8266SOL    HW236435   1.862   1.143  14.351 -1.1767 -0.8560  1.1072
 8267SOL     OW36436   0.463   0.888   5.744  0.2134  0.0244 -0.6771
 8267SOL    HW136437   0.499   0.976   5.749  1.4434 -0.3870 -2.0500
 8267SOL    HW236438   0.457   0.868   5.837  1.0066 -0.5442 -0.7499
 8268SOL     OW36439   2.326   3.592   6.519 -0.6464 -0.6589 -0.1254
 8268SOL    HW136440   2.391   3.616   6.585 -0.3989  1.0151 -0.9775
 8268SOL    HW236441   2.281   3.521   6.565 -2.4401  0.5633  0.0447
 8269SOL     OW36442   1.374   1.671   5.199  0.2925  0.2215 -0.3958
 8269SOL    HW136443   1.393   1.710   5.284  1.2455 -1.1221  0.0136
 8269SOL    HW236444   1.407   1.584   5.222  2.6553  1.0850 -0.4885
 8270SOL     OW36445   2.882   4.423   1.823 -0.3761  0.2424  0.3740
 8270SOL    HW136446   2.927   4.495   1.868 -0.1401 -0.1689  0.7876
 8270SOL    HW236447   2.848   4.384   1.903 -0.2671 -2.5990 -0.9569
 8271SOL     OW36448   0.253   1.324  16.181 -0.5522  0.1636 -0.1345
 8271SOL    HW136449   0.295   1.238  16.182 -1.1656 -0.1189  1.1949
 8271SOL    HW236450   0.173   1.314  16.130 -0.5596 -1.4435  0.1985
 8272SOL     OW36451   2.981   1.743  13.604  0.2074 -0.4809  0.3668
 8272SOL    HW136452   2.919   1.693  13.657 -1.4563 -1.2668 -2.3115
 8272SOL    HW236453   3.058   1.686  13.596  0.1531 -0.2787 -1.6968
 8273SOL     OW36454   4.431   0.358   1.943 -0.5850 -0.2473  0.2270
 8273SOL    HW136455   4.433   0.445   1.982  0.5946 -0.7697  1.3259
 8273SOL    HW236456   4.513   0.327   1.904 -1.1492  0.6330 -1.6716
 8274SOL     OW36457   0.454   2.899   8.189 -0.1158 -0.6337 -0.4288
 8274SOL    HW136458   0.503   2.967   8.235 -0.3771 -1.0129  0.4179
 8274SOL    HW236459   0.373   2.896   8.239  0.5753  0.5971  0.7647
 8275SOL     OW36460   0.451   3.492   3.510 -0.6923 -0.2454  0.0996
 8275SOL    HW136461   0.411   3.459   3.430 -2.3868 -1.3435  1.4027
 8275SOL    HW236462   0.369   3.502   3.559  0.7286  2.5796  1.8868
 8276SOL     OW36463   3.903   3.048   3.339  0.2190  0.0273 -0.0610
 8276SOL    HW136464   3.978   3.087   3.294  0.5069 -1.9525 -1.2533
 8276SOL    HW236465   3.836   3.058   3.272  2.1964  3.2721 -1.5618
 8277SOL     OW36466   1.368   4.382   7.965  0.2533 -0.0984  0.2753
 8277SOL    HW136467   1.307   4.437   8.014  1.3633 -0.3350  1.9333
 8277SOL    HW236468   1.303   4.336   7.912  0.8935  1.9524 -2.2650
 8278SOL     OW36469   3.121   3.764   7.897  0.2364  0.2877 -0.5971
 8278SOL    HW136470   3.085   3.676   7.897 -2.2758  1.3073  0.5301
 8278SOL    HW236471   3.047   3.819   7.923 -0.5608 -1.1292  0.0956
 8279SOL     OW36472   3.897   3.820   6.181  0.3568  0.2160  0.1623
 8279SOL    HW136473   3.949   3.876   6.124  0.5627  0.3194  0.4524
 8279SOL    HW236474   3.816   3.870   6.192  0.0562  0.0274 -1.2277
 8280SOL     OW36475   1.105   1.481  16.891 -0.3952 -0.2126  0.1235
 8280SOL    HW136476   1.136   1.414  16.953 -1.4646  0.6021  1.5453
 8280SOL    HW236477   1.162   1.463  16.816  0.2096 -0.3486  0.6111
 8281SOL     OW36478   1.064   4.607   8.675 -0.2327 -0.3611  0.0186
 8281SOL    HW136479   1.133   4.674   8.671  0.8119 -1.5181 -1.0419
 8281SOL    HW236480   0.991   4.653   8.633 -0.2172  0.4130  0.8092
 8282SOL     OW36481   0.327   3.272  13.447  0.2309  0.0883 -0.0455
 8282SOL    HW136482   0.311   3.289  13.354  0.3797 -1.5122 -0.3747
 8282SOL    HW236483   0.422   3.286  13.447  0.5371 -1.9445  1.3392
 8283SOL     OW36484   1.939   2.814   1.063  0.0622 -0.2000  0.2747
 8283SOL    HW136485   1.856   2.835   1.020  1.4289  2.0509 -1.2597
 8283SOL    HW236486   1.942   2.877   1.135 -0.8314 -1.2012  1.2017
 8284SOL     OW36487   1.170   2.631   6.246  0.0191 -0.3749 -0.4367
 8284SOL    HW136488   1.112   2.602   6.316  0.4570 -0.7583 -0.2290
 8284SOL    HW236489   1.251   2.653   6.292 -0.2613 -1.1202  0.4134
 8285SOL     OW36490   1.881   1.614   4.165  0.7119  0.0776 -0.6058
 8285SOL    HW136491   1.885   1.557   4.242  1.1522  1.2888  0.2878
 8285SOL    HW236492   1.923   1.692   4.203 -0.2455 -0.2850  1.1850
 8286SOL     OW36493   4.652   3.899   5.003  0.2005 -0.2047  0.2744
 8286SOL    HW136494   4.572   3.949   5.015  1.7911  2.0369  1.4093
 8286SOL    HW236495   4.631   3.856   4.920 -2.3585  1.0450  0.2831
 8287SOL     OW36496   0.904   3.152   7.042  0.0097 -0.5331  0.3567
 8287SOL    HW136497   0.933   3.158   6.951 -1.0638 -0.9056 -0.0074
 8287SOL    HW236498   0.809   3.157   7.044 -0.1332 -3.0272  0.2489
 8288SOL     OW36499   4.656   1.428  12.515  0.2616 -0.1997  0.5044
 8288SOL    HW136500   4.601   1.453  12.589 -2.1756 -0.6155 -1.1449
 8288SOL    HW236501   4.625   1.341  12.489  0.4070  0.0033 -0.3340
 8289SOL     OW36502   2.129   4.160   4.451 -0.1586  0.2746  0.0055
 8289SOL    HW136503   2.142   4.124   4.539 -0.2144  0.2986  0.0235
 8289SOL    HW236504   2.037   4.188   4.449 -0.2152  0.0041 -0.8290
 8290SOL     OW36505   0.309   1.003  16.318  0.2640  0.1897 -0.2124
 8290SOL    HW136506   0.236   1.026  16.375  0.8304  2.4851 -0.3956
 8290SOL    HW236507   0.379   1.046  16.367 -1.4102  2.6067  0.0420
 8291SOL     OW36508   1.021   0.899  15.236  0.1432 -0.4060  0.7986
 8291SOL    HW136509   1.061   0.814  15.218  1.5484  0.4319  0.0070
 8291SOL    HW236510   0.935   0.892  15.193 -0.1360 -0.6197  1.3877
 8292SOL     OW36511   1.366   1.618  12.399 -0.0792  0.3635  0.1297
 8292SOL    HW136512   1.363   1.534  12.445 -1.2225  0.4448  0.2107
 8292SOL    HW236513   1.428   1.598  12.329 -0.2922 -1.3952  0.4509
 8293SOL     OW36514   1.265   2.394   5.492 -0.2774 -0.0282 -0.5608
 8293SOL    HW136515   1.174   2.383   5.519 -0.4063  0.9698 -0.6144
 8293SOL    HW236516   1.276   2.460   5.561  0.5407 -0.6204 -0.1146
 8294SOL     OW36517   3.743   0.692   8.168  0.1138  0.5159 -0.0063
 8294SOL    HW136518   3.655   0.665   8.195 -0.6195  2.1324 -0.7997
 8294SOL    HW236519   3.770   0.730   8.251 -3.0121  0.2762  1.1103
 8295SOL     OW36520   2.378   4.503   4.430 -0.3601 -0.1242 -0.0268
 8295SOL    HW136521   2.351   4.425   4.381 -0.2484  0.0690 -0.4002
 8295SOL    HW236522   2.291   4.536   4.451 -0.1852  0.1845  0.2117
 8296SOL     OW36523   2.100   3.940   1.794  0.6566 -0.1227 -0.5085
 8296SOL    HW136524   2.092   4.024   1.749 -1.1292  0.4252  0.8122
 8296SOL    HW236525   2.071   3.966   1.882 -0.4076 -0.2903 -0.8193
 8297SOL     OW36526   1.536   4.689  12.514 -0.1911 -0.1134  0.1448
 8297SOL    HW136527   1.632   4.691  12.524 -0.0882  2.8521 -1.3140
 8297SOL    HW236528   1.509   4.619  12.573 -0.2655  0.2847  0.5830
 8298SOL     OW36529   0.842   3.487   7.819  0.1447 -0.3412  0.0736
 8298SOL    HW136530   0.811   3.490   7.909  2.3716 -0.4679  0.8332
 8298SOL    HW236531   0.820   3.578   7.800 -1.2422 -0.1447  2.6687
 8299SOL     OW36532   3.004   3.541   7.498 -0.4945 -0.6655  0.5421
 8299SOL    HW136533   3.074   3.583   7.547  2.6703 -2.3252 -2.5127
 8299SOL    HW236534   2.937   3.608   7.514 -0.1026  0.4372 -2.2850
 8300SOL     OW36535   1.962   1.301   5.749 -0.3561 -0.4858  0.3369
 8300SOL    HW136536   1.987   1.383   5.790 -0.9155  0.5434 -1.3826
 8300SOL    HW236537   2.012   1.235   5.797 -0.6233 -0.9214  0.0231
 8301SOL     OW36538   3.835   1.793   9.959 -0.2220  0.0434  0.2681
 8301SOL    HW136539   3.813   1.705   9.928 -0.9747  0.6358 -0.9072
 8301SOL    HW236540   3.829   1.774  10.052 -0.3514 -1.1466  0.0152
 8302SOL     OW36541   2.673   2.879   4.114 -0.3563 -0.2603 -0.3676
 8302SOL    HW136542   2.729   2.919   4.048 -1.9379  0.8506 -1.0369
 8302SOL    HW236543   2.736   2.819   4.153 -0.1458  0.6472  0.6784
 8303SOL     OW36544   2.398   0.635   9.620  0.3248 -0.5180  0.0378
 8303SOL    HW136545   2.320   0.611   9.570 -0.7716  1.3842  0.8438
 8303SOL    HW236546   2.374   0.608   9.709  2.9848 -2.0765  0.2730
 8304SOL     OW36547   2.805   1.115   8.078  0.2722  0.3126  0.0997
 8304SOL    HW136548   2.818   1.167   7.999 -0.0455 -0.0464 -0.1893
 8304SOL    HW236549   2.742   1.051   8.044  0.0418  1.0227 -0.7988
 8305SOL     OW36550   2.706   4.114   9.958  0.3208  0.1117  0.1535
 8305SOL    HW136551   2.649   4.117  10.035 -1.2001  2.3786 -1.0573
 8305SOL    HW236552   2.637   4.087   9.897  2.9169 -4.2083 -0.8341
 8306SOL     OW36553   4.623   1.072   2.285  0.5008  0.4792 -0.0525
 8306SOL    HW136554   4.552   1.135   2.299 -0.7081 -0.7009 -0.8422
 8306SOL    HW236555   4.642   1.106   2.197  0.2472 -0.4118 -0.4513
 8307SOL     OW36556   2.504   2.194  15.152  0.2090 -0.4752  0.0150
 8307SOL    HW136557   2.470   2.185  15.241 -1.1900 -1.5118 -0.6324
 8307SOL    HW236558   2.544   2.111  15.126  0.5222 -0.3165 -0.0093
 8308SOL     OW36559   0.849   3.378   4.850 -0.2625  0.1620 -0.0709
 8308SOL    HW136560   0.771   3.425   4.819  0.2069  1.2490  0.3988
 8308SOL    HW236561   0.837   3.384   4.945 -1.8735 -0.5574 -0.2176
 8309SOL     OW36562   4.249   2.174   6.986  0.2446 -0.3149 -0.0386
 8309SOL    HW136563   4.292   2.160   6.902 -0.5321  3.4921 -1.0899
 8309SOL    HW236564   4.207   2.088   6.988  0.6951 -0.5704 -2.0450
 8310SOL     OW36565   2.539   3.593  10.424 -0.0280 -0.5832 -0.3955
 8310SOL    HW136566   2.581   3.669  10.465 -0.7295 -1.4928  1.9490
 8310SOL    HW236567   2.612   3.555  10.375  0.3628 -2.5395  1.7167
 8311SOL     OW36568   3.993   3.304   0.556 -0.2721  0.2452 -0.2202
 8311SOL    HW136569   3.960   3.339   0.639 -0.4915 -2.6018  0.8762
 8311SOL    HW236570   4.048   3.234   0.592  0.6836  0.9163 -0.3614
 8312SOL     OW36571   0.191   3.382  14.270  0.2109 -0.0858 -0.1448
 8312SOL    HW136572   0.180   3.305  14.326  0.8776 -1.6413 -2.1555
 8312SOL    HW236573   0.196   3.345  14.182 -0.3748 -0.2930 -0.0882
 8313SOL     OW36574   1.833   2.805   7.167 -0.8984 -0.0280 -0.7782
 8313SOL    HW136575   1.824   2.825   7.260  1.5534  0.1782 -0.5781
 8313SOL    HW236576   1.817   2.710   7.174 -2.1906  0.4502  2.8662
 8314SOL     OW36577   2.794   3.077   6.226  0.2627  0.2247  0.1297
 8314SOL    HW136578   2.717   3.057   6.278 -0.3972  0.1749 -0.8683
 8314SOL    HW236579   2.827   3.131   6.298 -0.7454 -0.9658  1.4818
 8315SOL     OW36580   4.223   1.477   4.605  0.5175 -0.4869 -0.0449
 8315SOL    HW136581   4.241   1.395   4.558  3.1350 -1.0803  2.0211
 8315SOL    HW236582   4.203   1.433   4.687 -2.6828 -1.1740 -1.1883
 8316SOL     OW36583   0.884   2.570   2.014 -0.1204 -0.3003  0.4153
 8316SOL    HW136584   0.859   2.625   2.088  0.7102 -0.1307  0.5688
 8316SOL    HW236585   0.796   2.542   1.987 -0.2505  1.4528 -0.9556
 8317SOL     OW36586   3.229   0.919   2.490 -0.4616 -0.3222 -0.2794
 8317SOL    HW136587   3.198   0.957   2.407 -1.3807  0.5030  0.4341
 8317SOL    HW236588   3.253   0.997   2.539 -0.0397 -0.5222 -0.1687
 8318SOL     OW36589   3.903   2.891  16.499  0.3818 -0.3185  0.2724
 8318SOL    HW136590   3.856   2.972  16.521 -1.7553 -1.5394  0.1297
 8318SOL    HW236591   3.925   2.910  16.408 -0.0370 -0.9747  0.0389
 8319SOL     OW36592   1.954   1.924   3.849  0.2604 -0.1840 -0.4181
 8319SOL    HW136593   1.870   1.917   3.803  0.1616 -1.0184 -0.1078
 8319SOL    HW236594   1.946   2.015   3.877 -0.1094 -0.2556 -0.2918
 8320SOL     OW36595   2.670   1.152   5.836 -0.2666  0.3649  0.0893
 8320SOL    HW136596   2.714   1.182   5.916 -0.3669  1.9815 -0.4608
 8320SOL    HW236597   2.740   1.116   5.781 -0.3357 -1.1744  1.0345
 8321SOL     OW36598   2.048   1.967   6.570  0.0634  0.2173 -0.1381
 8321SOL    HW136599   2.122   2.024   6.593  1.7161 -1.6874 -0.7092
 8321SOL    HW236600   2.089   1.881   6.576 -0.0438  0.2843  1.6942
 8322SOL     OW36601   2.668   4.526   3.137 -0.0021 -0.4735  0.0098
 8322SOL    HW136602   2.626   4.576   3.067 -0.9748  0.5797  1.3356
 8322SOL    HW236603   2.680   4.440   3.096  1.6421  0.0104 -0.5221
 8323SOL     OW36604   3.972   0.510   0.209  0.2760  0.5713 -0.8000
 8323SOL    HW136605   3.916   0.549   0.276 -1.3642 -1.2404 -1.1210
 8323SOL    HW236606   4.037   0.456   0.256 -0.4860  0.2015 -0.1678
 8324SOL     OW36607   1.299   0.036  12.471  0.0694  0.1568 -0.2582
 8324SOL    HW136608   1.370   4.732  12.517 -1.1196 -1.1967  0.2937
 8324SOL    HW236609   1.320   0.130  12.476 -1.1059  0.3334  1.4246
 8325SOL     OW36610   2.720   3.758   0.205  0.5037 -0.0486 -0.1045
 8325SOL    HW136611   2.752   3.668   0.215  0.6808  0.1610  1.1254
 8325SOL    HW236612   2.755   3.794   0.286  0.3063 -1.2044  0.5039
 8326SOL     OW36613   3.808   3.053   2.293  0.2078 -0.4859  0.5724
 8326SOL    HW136614   3.817   2.991   2.221 -0.7230 -0.6667  0.6035
 8326SOL    HW236615   3.752   3.009   2.357 -1.0363  1.6598  0.9593
 8327SOL     OW36616   3.151   3.962   1.660 -0.2471 -0.2525 -0.3900
 8327SOL    HW136617   3.152   3.974   1.755  1.8208  0.6758 -0.5217
 8327SOL    HW236618   3.057   3.970   1.646 -0.7939  0.0877  3.4427
 8328SOL     OW36619   0.230   4.656   2.528 -0.2394  0.0016  0.0312
 8328SOL    HW136620   0.268   4.669   2.441  1.2001 -0.5226  0.5833
 8328SOL    HW236621   0.300   4.604   2.568  0.2447  1.2944  0.8419
 8329SOL     OW36622   1.666   1.286   8.576 -0.0545  0.2243 -0.1094
 8329SOL    HW136623   1.728   1.262   8.646 -3.2647 -1.5932  2.1131
 8329SOL    HW236624   1.636   1.201   8.544  0.5211  0.1464 -0.4320
 8330SOL     OW36625   2.930   2.608  15.958 -0.7011  0.3952  0.3399
 8330SOL    HW136626   3.001   2.672  15.964 -0.7415  0.4114  0.6783
 8330SOL    HW236627   2.849   2.656  15.979  0.8688  2.5542  1.4610
 8331SOL     OW36628   0.352   4.688  17.612 -0.2378  0.0563  0.5198
 8331SOL    HW136629   0.353   4.686  17.516  1.8839  1.2512  0.5035
 8331SOL    HW236630   0.439   4.726  17.626 -0.2973  1.0612 -1.7979
 8332SOL     OW36631   0.531   3.789   1.137  0.0456  0.1372  0.2501
 8332SOL    HW136632   0.506   3.748   1.054  0.7171  0.5180 -0.1423
 8332SOL    HW236633   0.453   3.840   1.157  2.1421  2.6575  1.9546
 8333SOL     OW36634   0.996   2.850  14.545  0.2531 -0.0401  0.2528
 8333SOL    HW136635   1.063   2.782  14.545 -2.3364 -2.6147 -0.9720
 8333SOL    HW236636   1.049   2.925  14.519 -0.8368  0.6036 -0.1235
 8334SOL     OW36637   1.469   1.258  10.249 -0.3806  0.6405 -0.0638
 8334SOL    HW136638   1.492   1.198  10.178 -3.1337  0.1661 -0.5474
 8334SOL    HW236639   1.557   1.280  10.281 -1.2733 -0.9796  3.4496
 8335SOL     OW36640   2.317   0.730   4.898 -0.0305  0.4078  0.6816
 8335SOL    HW136641   2.270   0.650   4.921  0.3570 -0.0260 -0.0144
 8335SOL    HW236642   2.407   0.698   4.904 -0.4200 -0.9422 -0.5650
 8336SOL     OW36643   0.025   4.682   9.575  0.2086  0.4570  0.1534
 8336SOL    HW136644   0.052   4.592   9.591 -2.2527 -0.1771  0.6833
 8336SOL    HW236645   4.673   4.667   9.555  1.2548 -1.6775 -2.8729
 8337SOL     OW36646   1.571   0.239   9.466  0.1246 -0.1602 -0.0871
 8337SOL    HW136647   1.568   0.293   9.546 -0.1392 -1.2277  0.6186
 8337SOL    HW236648   1.656   0.195   9.473  1.0238  1.3690 -1.4819
 8338SOL     OW36649   1.795   2.863   9.246  0.1719 -0.4834 -0.2488
 8338SOL    HW136650   1.842   2.919   9.307 -1.5168  0.2726  0.3637
 8338SOL    HW236651   1.740   2.807   9.301 -1.3846  1.7776  0.4883
 8339SOL     OW36652   0.620   4.314   8.911  0.3742  0.0205 -0.3948
 8339SOL    HW136653   0.619   4.246   8.843  0.2348 -0.9517  0.5885
 8339SOL    HW236654   0.714   4.323   8.928 -0.0214  2.2828  0.5831
 8340SOL     OW36655   1.763   0.229  11.381  0.0298  0.2620 -0.1639
 8340SOL    HW136656   1.786   0.320  11.395  2.6982 -0.3208 -0.8250
 8340SOL    HW236657   1.838   0.205  11.327  0.7459  0.1048  0.9010
 8341SOL     OW36658   3.406   1.225   5.209 -0.3648 -0.0698 -0.3460
 8341SOL    HW136659   3.436   1.186   5.291 -0.5325  0.3773 -0.0730
 8341SOL    HW236660   3.454   1.177   5.141  2.9397 -1.3371  2.8687
 8342SOL     OW36661   4.094   1.794   4.719 -0.3585 -0.1530 -0.0799
 8342SOL    HW136662   4.089   1.890   4.724 -1.1490 -0.1100 -1.6632
 8342SOL    HW236663   4.002   1.769   4.707 -0.2631 -0.9338  0.8401
 8343SOL     OW36664   4.526   4.421   5.704 -0.5700  0.0380 -0.0279
 8343SOL    HW136665   4.549   4.333   5.671  0.0662  0.3379 -0.3846
 8343SOL    HW236666   4.602   4.427   5.762 -2.0317  1.6567  1.6946
 8344SOL     OW36667   3.238   2.367   7.209  0.5559  0.2222  0.2488
 8344SOL    HW136668   3.212   2.402   7.295 -1.0178  1.7467 -0.8482
 8344SOL    HW236669   3.240   2.449   7.160  1.5105 -0.5677 -1.0282
 8345SOL     OW36670   3.011   1.565   6.135 -0.1934  0.5798 -0.0714
 8345SOL    HW136671   2.998   1.660   6.133 -0.6515  0.5017 -0.9927
 8345SOL    HW236672   3.008   1.551   6.040 -1.3548 -0.4440  0.1112
 8346SOL     OW36673   1.348   4.223  10.018 -0.1235 -0.3140  0.9149
 8346SOL    HW136674   1.291   4.254   9.948  1.9151 -0.3370 -0.7274
 8346SOL    HW236675   1.337   4.129  10.005  1.1694 -0.3323 -0.0534
 8347SOL     OW36676   2.439   1.127   6.236 -0.6066  0.2720  0.4557
 8347SOL    HW136677   2.355   1.149   6.195  0.4480  1.3018 -1.1343
 8347SOL    HW236678   2.465   1.212   6.271  0.9707 -0.0315 -0.0208
 8348SOL     OW36679   1.451   3.112   0.451  0.0273 -0.2722 -0.4620
 8348SOL    HW136680   1.462   3.018   0.444 -1.8492 -0.3951 -1.7707
 8348SOL    HW236681   1.509   3.131   0.378 -2.6057 -0.5233 -2.6130
 8349SOL     OW36682   2.898   0.722   6.605  0.2588 -0.5290  0.3799
 8349SOL    HW136683   2.857   0.755   6.526  2.6296  1.3116 -0.0884
 8349SOL    HW236684   2.960   0.661   6.563  1.2746 -0.0835  1.2180
 8350SOL     OW36685   0.957   3.517   4.639 -0.1274  0.4424 -0.4014
 8350SOL    HW136686   0.910   3.462   4.702  0.4663 -1.8964 -2.0120
 8350SOL    HW236687   1.028   3.458   4.617 -1.3830 -0.5882 -1.6801
 8351SOL     OW36688   1.943   2.611   6.041  0.4163 -0.2275 -0.0718
 8351SOL    HW136689   2.035   2.635   6.037 -0.0895  1.3719 -2.1745
 8351SOL    HW236690   1.915   2.672   6.110  2.1697  0.5114 -0.0140
 8352SOL     OW36691   3.993   3.494  12.443 -0.0347  0.5510  0.1692
 8352SOL    HW136692   3.924   3.514  12.507  0.4884  0.2208  0.8324
 8352SOL    HW236693   3.998   3.399  12.452 -2.5852  0.2453 -1.7239
 8353SOL     OW36694   1.542   4.333  15.065 -0.3655 -0.3899 -0.2152
 8353SOL    HW136695   1.514   4.344  15.156 -0.2983  2.9318 -0.5947
 8353SOL    HW236696   1.466   4.287  15.031 -0.3736 -0.8201  0.3949
 8354SOL     OW36697   4.501   2.775   8.389  0.1048  0.1299 -0.0987
 8354SOL    HW136698   4.485   2.711   8.319 -0.7715  0.9247 -0.6207
 8354SOL    HW236699   4.437   2.743   8.452  1.1938 -0.3821  0.7492
 8355SOL     OW36700   4.253   3.050   4.164  0.1545  0.4007  0.0952
 8355SOL    HW136701   4.310   3.047   4.241  1.2268 -3.3252 -0.8704
 8355SOL    HW236702   4.308   3.009   4.097 -1.8417 -1.4030 -0.4313
 8356SOL     OW36703   1.510   2.431   2.799 -0.0626 -0.2368  0.0511
 8356SOL    HW136704   1.546   2.361   2.853 -0.2780 -1.4667 -1.4210
 8356SOL    HW236705   1.511   2.384   2.716 -0.3136  0.8544 -0.5766
 8357SOL     OW36706   0.081   3.490   7.789 -0.0280 -0.2575  0.4326
 8357SOL    HW136707   0.023   3.421   7.757 -0.2121  0.1333 -0.0642
 8357SOL    HW236708   0.160   3.439   7.803 -0.2493 -0.3337  1.4749
 8358SOL     OW36709   2.681   0.368   1.235  0.5161 -0.2067  0.1554
 8358SOL    HW136710   2.732   0.404   1.163 -0.8359  0.1169 -0.6351
 8358SOL    HW236711   2.598   0.350   1.191 -0.0271  1.7046  0.4218
 8359SOL     OW36712   1.521   2.735   9.079  0.0531 -0.2155  0.6315
 8359SOL    HW136713   1.608   2.760   9.112 -0.2495 -0.7381  1.8253
 8359SOL    HW236714   1.532   2.640   9.067  0.4124  0.1543 -2.0096
 8360SOL     OW36715   3.836   3.048  14.876 -0.1333 -0.0807  0.3057
 8360SOL    HW136716   3.853   2.976  14.937 -1.9054 -1.3613 -0.7152
 8360SOL    HW236717   3.921   3.052  14.832  0.5395  1.1033  1.7219
 8361SOL     OW36718   4.478   1.551   6.334  0.5506  0.0681  0.1151
 8361SOL    HW136719   4.524   1.573   6.416  0.1025  0.7955  0.1742
 8361SOL    HW236720   4.390   1.572   6.363 -0.5051 -2.0174 -1.6614
 8362SOL     OW36721   2.586   2.018   3.690  0.4364 -0.1937 -0.3362
 8362SOL    HW136722   2.571   1.943   3.747  2.2815 -0.9053 -0.7834
 8362SOL    HW236723   2.511   2.015   3.630  0.7181 -0.6968 -0.6670
 8363SOL     OW36724   3.878   2.679   1.755  0.3079  0.0084  0.6495
 8363SOL    HW136725   3.911   2.660   1.842  2.0003  0.8460  0.1946
 8363SOL    HW236726   3.902   2.598   1.710 -1.7841  0.8297 -1.9617
 8364SOL     OW36727   1.877   3.210   3.739  0.2091 -0.1068  0.0264
 8364SOL    HW136728   1.816   3.194   3.667 -0.4705 -1.6783  0.9618
 8364SOL    HW236729   1.826   3.173   3.811 -1.1803  0.5032 -0.6533
 8365SOL     OW36730   4.011   3.207  12.945  0.3257 -0.4777  0.4690
 8365SOL    HW136731   4.001   3.208  13.041 -2.1484  0.5358  0.1850
 8365SOL    HW236732   4.027   3.116  12.921  2.8489 -0.2405  1.2443
 8366SOL     OW36733   2.695   1.076  15.907 -0.3282 -0.3887  0.1741
 8366SOL    HW136734   2.772   1.071  15.964 -0.3003 -1.5890  0.0293
 8366SOL    HW236735   2.693   1.171  15.901  1.0845 -0.3023  1.0413
 8367SOL     OW36736   4.248   2.561   5.395 -0.3966  0.3457 -0.0930
 8367SOL    HW136737   4.204   2.593   5.474 -2.0770  1.1750 -1.3745
 8367SOL    HW236738   4.178   2.577   5.332 -1.2258  1.8992  1.2111
 8368SOL     OW36739   1.600   3.114  10.760 -0.0408 -0.3005 -0.0256
 8368SOL    HW136740   1.517   3.073  10.737  0.0585  0.6843 -2.0828
 8368SOL    HW236741   1.643   3.133  10.677 -1.5061 -1.3626 -1.0392
 8369SOL     OW36742   4.136   3.458   2.255 -0.3814  0.1012  0.0220
 8369SOL    HW136743   4.090   3.412   2.325 -0.7659 -1.8727 -1.5309
 8369SOL    HW236744   4.193   3.391   2.218 -0.0333  0.0429  0.6677
 8370SOL     OW36745   3.508   4.118  14.359  0.1951  0.1286 -0.5255
 8370SOL    HW136746   3.441   4.174  14.318  2.0367  2.7798  0.1204
 8370SOL    HW236747   3.482   4.028  14.341 -2.1194  0.2779  1.9292
 8371SOL     OW36748   1.362   1.734  11.727  0.4876 -0.4732  0.5397
 8371SOL    HW136749   1.431   1.693  11.779  0.9998 -1.3407 -0.8299
 8371SOL    HW236750   1.358   1.664  11.662  0.4147  1.1032 -1.1504
 8372SOL     OW36751   0.650   1.816   6.528  0.7519 -0.1727  0.4495
 8372SOL    HW136752   0.696   1.782   6.605  0.4903  0.9872  1.1198
 8372SOL    HW236753   0.722   1.864   6.487 -0.3850  0.5920 -0.6569
 8373SOL     OW36754   2.025   1.098   4.545 -0.0057  0.4531  0.1938
 8373SOL    HW136755   2.119   1.106   4.530  0.1172  1.9083  1.8163
 8373SOL    HW236756   2.025   1.167   4.611 -0.2534  1.0418 -0.4283
 8374SOL     OW36757   3.445   1.662   8.498 -0.2239  0.0778  0.1421
 8374SOL    HW136758   3.441   1.694   8.408 -1.5733  0.5554  0.3761
 8374SOL    HW236759   3.411   1.740   8.541  3.2668  1.4711  0.3756
 8375SOL     OW36760   0.974   0.666   6.163  0.3185 -0.1245 -0.1220
 8375SOL    HW136761   0.964   0.585   6.113 -2.9974  0.6598 -0.7313
 8375SOL    HW236762   0.961   0.629   6.250 -1.9168 -0.6352 -0.6534
 8376SOL     OW36763   1.419   2.964  10.038 -0.1054 -0.2583 -0.1757
 8376SOL    HW136764   1.442   2.872  10.023  2.5802  0.2014  1.1322
 8376SOL    HW236765   1.345   2.949  10.096 -0.8673  1.1297 -0.7926
 8377SOL     OW36766   1.223   1.733  15.344  0.0438  0.0812 -0.5988
 8377SOL    HW136767   1.288   1.665  15.323  0.0372  0.1258 -0.7674
 8377SOL    HW236768   1.251   1.739  15.435 -0.9687  3.5985 -0.5400
 8378SOL     OW36769   0.630   0.724   4.401  0.4492 -0.5895  0.2617
 8378SOL    HW136770   0.562   0.699   4.339 -0.0981 -0.7662  0.9356
 8378SOL    HW236771   0.589   0.717   4.487  1.0757 -0.1923  0.5906
 8379SOL     OW36772   4.181   2.460  11.252  0.0466  0.1839  0.1531
 8379SOL    HW136773   4.162   2.550  11.227 -0.4742  0.9558  3.2766
 8379SOL    HW236774   4.207   2.476  11.343 -0.5897 -3.9336  1.0967
 8380SOL     OW36775   2.872   1.413   7.054  0.0624 -0.6937 -0.3144
 8380SOL    HW136776   2.955   1.412   7.006 -0.0707  0.6060 -0.5906
 8380SOL    HW236777   2.811   1.432   6.983 -0.9052 -2.8102 -0.0440
 8381SOL     OW36778   1.407   0.063   3.756  0.4908 -0.1842 -0.1026
 8381SOL    HW136779   1.442   0.148   3.728 -1.1443 -0.3394 -2.7003
 8381SOL    HW236780   1.381   0.079   3.846 -0.9950  0.9106 -0.7108
 8382SOL     OW36781   3.507   1.626   9.327 -0.2604 -0.1116  0.0285
 8382SOL    HW136782   3.465   1.581   9.254 -0.1264 -1.9173  1.0653
 8382SOL    HW236783   3.594   1.629   9.289 -0.3405  1.6702 -0.0411
 8383SOL     OW36784   3.393   4.115   3.262  0.1511  0.1965 -0.1622
 8383SOL    HW136785   3.343   4.043   3.299 -0.6213  1.9273  2.1818
 8383SOL    HW236786   3.386   4.184   3.328  0.4403  3.0879 -3.1235
 8384SOL     OW36787   3.303   0.610   5.482  0.1388  0.0379 -0.9658
 8384SOL    HW136788   3.260   0.643   5.403 -1.4919  1.5338  0.5495
 8384SOL    HW236789   3.388   0.603   5.437  0.6308 -1.8491  0.2623
 8385SOL     OW36790   3.879   3.065  15.354  0.2145 -0.2056 -0.4989
 8385SOL    HW136791   3.810   3.113  15.308  0.4603  1.9494  1.4061
 8385SOL    HW236792   3.818   3.015  15.408  1.1880  1.1972  1.8916
 8386SOL     OW36793   3.114   0.549   6.260 -0.3406  0.0895 -0.1075
 8386SOL    HW136794   3.094   0.554   6.166 -1.1197  0.7676  0.0966
 8386SOL    HW236795   3.202   0.586   6.257 -0.1561 -0.5240 -2.5858
 8387SOL     OW36796   3.925   4.093   4.933  0.4518 -0.4491 -0.0702
 8387SOL    HW136797   3.917   4.174   4.983 -0.2569 -0.1812 -0.6153
 8387SOL    HW236798   3.856   4.099   4.867 -0.5209 -1.5906  0.8506
 8388SOL     OW36799   3.653   0.188  14.130 -0.8306 -0.3273  0.3485
 8388SOL    HW136800   3.670   0.225  14.044 -0.9433 -2.7703 -0.7353
 8388SOL    HW236801   3.573   0.235  14.153 -1.3589 -0.7848 -0.5679
 8389SOL     OW36802   4.679   4.569   2.328 -0.1843  0.3718  0.5374
 8389SOL    HW136803   4.631   4.517   2.263 -0.6568 -2.1524  2.9199
 8389SOL    HW236804   4.724   4.501   2.378  0.6168  0.2684 -0.3291
 8390SOL     OW36805   2.117   3.117   2.604  0.4922  0.8056  0.1017
 8390SOL    HW136806   2.058   3.172   2.553  1.2573 -1.5199 -3.2971
 8390SOL    HW236807   2.177   3.186   2.634  0.0434  1.8111 -1.2991
 8391SOL     OW36808   2.740   3.690   9.480  0.0629 -0.2043  0.2763
 8391SOL    HW136809   2.719   3.610   9.433 -1.2524 -0.2180  0.8850
 8391SOL    HW236810   2.829   3.698   9.445 -0.9206 -1.4011 -2.5473
 8392SOL     OW36811   0.011   4.505   9.247 -0.4743 -0.4112 -0.1806
 8392SOL    HW136812   0.094   4.476   9.210  0.6653 -0.1296  2.1932
 8392SOL    HW236813   0.031   4.597   9.262 -0.1796 -0.3649 -0.8513
 8393SOL     OW36814   0.886   1.840   6.171  0.0480  0.7323 -0.1234
 8393SOL    HW136815   0.930   1.764   6.134  0.9938  0.7326  1.0074
 8393SOL    HW236816   0.933   1.910   6.125 -0.3667  1.0557 -0.0655
 8394SOL     OW36817   2.278   2.418   5.586 -0.3464  0.0466 -0.1704
 8394SOL    HW136818   2.340   2.357   5.626 -1.3206 -0.6862  0.2093
 8394SOL    HW236819   2.222   2.368   5.527  0.5024  1.5677 -2.2830
 8395SOL     OW36820   3.885   2.781   0.083 -0.1141 -0.2819 -0.3942
 8395SOL    HW136821   3.863   2.874   0.094 -1.3019 -0.8609  1.9885
 8395SOL    HW236822   3.974   2.776   0.117 -0.1397  0.0917 -0.2703
 8396SOL     OW36823   0.257   3.346  15.699 -0.0899 -0.2809 -0.4707
 8396SOL    HW136824   0.235   3.284  15.768 -0.2285 -0.1232 -0.3736
 8396SOL    HW236825   0.283   3.428  15.741 -0.1261 -0.9030  0.7556
 8397SOL     OW36826   2.034   1.891  15.735 -0.0130 -0.1980  0.0916
 8397SOL    HW136827   2.036   1.840  15.816  1.8004  1.0100  0.8223
 8397SOL    HW236828   1.960   1.854  15.687 -0.4047 -1.6756  1.8498
 8398SOL     OW36829   0.980   3.187  15.121 -0.1975 -0.9808 -0.1061
 8398SOL    HW136830   1.061   3.227  15.151  0.0598  0.5914 -2.8698
 8398SOL    HW236831   1.003   3.137  15.042 -1.9218 -2.0029  0.0212
 8399SOL     OW36832   2.421   3.361   6.279  0.3222  0.1215  0.2486
 8399SOL    HW136833   2.347   3.372   6.220  0.5824 -0.2555 -0.1441
 8399SOL    HW236834   2.394   3.411   6.356  2.9490 -0.6705  1.6894
 8400SOL     OW36835   3.704   3.218   6.827  0.3167 -0.3455  0.0363
 8400SOL    HW136836   3.700   3.284   6.758  2.3754  0.5007  0.7033
 8400SOL    HW236837   3.784   3.179   6.793  0.1887 -0.5681 -0.0065
 8401SOL     OW36838   2.299   4.299   8.468 -0.4632  0.1852 -0.3379
 8401SOL    HW136839   2.227   4.280   8.528  1.5940 -0.5573  1.8865
 8401SOL    HW236840   2.338   4.384   8.491 -1.8649  0.5002  0.8748
 8402SOL     OW36841   0.282   3.450   2.126 -0.0061  0.3976 -0.1841
 8402SOL    HW136842   0.204   3.420   2.080 -1.3508 -0.2228  2.5115
 8402SOL    HW236843   0.331   3.368   2.119 -0.3592 -0.1956  4.8372
 8403SOL     OW36844   1.916   3.433  10.422  0.2101  0.1316 -0.0886
 8403SOL    HW136845   1.881   3.394  10.341 -1.1792 -1.0577  1.0969
 8403SOL    HW236846   2.000   3.469  10.392  1.0609 -2.0561 -0.2792
 8404SOL     OW36847   4.049   1.844   8.553 -0.5788  0.2644  0.3975
 8404SOL    HW136848   4.058   1.749   8.559 -0.3845  0.3503  1.4589
 8404SOL    HW236849   4.143   1.857   8.568 -0.5093 -0.4670  0.6049
 8405SOL     OW36850   3.337   0.813   0.725  0.0627  0.2528  0.0118
 8405SOL    HW136851   3.344   0.867   0.804 -1.5053  0.6681 -0.1403
 8405SOL    HW236852   3.242   0.819   0.721  0.1875  2.1752 -0.3405
 8406SOL     OW36853   0.517   3.855  15.566  0.4517  0.2985  0.4314
 8406SOL    HW136854   0.579   3.825  15.500  0.6971  1.0960  0.3017
 8406SOL    HW236855   0.468   3.775  15.587 -0.6884  1.2111  1.2352
 8407SOL     OW36856   3.471   4.234  17.463  0.5980  0.0398  0.2304
 8407SOL    HW136857   3.564   4.216  17.482  1.1373  0.9325 -1.5486
 8407SOL    HW236858   3.480   4.292  17.388  0.0462 -0.4271 -0.1881
 8408SOL     OW36859   2.163   2.541   2.292  0.1464 -0.5973  0.2419
 8408SOL    HW136860   2.160   2.446   2.291 -0.6093 -0.6244  3.3258
 8408SOL    HW236861   2.106   2.550   2.369 -1.6467 -0.0880 -1.1516
 8409SOL     OW36862   1.806   4.438   8.047  0.1149  0.5913 -0.6028
 8409SOL    HW136863   1.724   4.476   8.077 -1.1902 -0.8655 -2.3235
 8409SOL    HW236864   1.777   4.356   8.007  0.6248 -1.6175  3.5384
 8410SOL     OW36865   2.948   2.843   6.241  0.3544  0.1071 -0.6055
 8410SOL    HW136866   2.908   2.815   6.324 -1.2611  1.9792 -0.7547
 8410SOL    HW236867   2.902   2.926   6.233  2.0515  1.4804  3.7251
 8411SOL     OW36868   1.145   2.681   8.430  0.3945  0.5300 -0.0009
 8411SOL    HW136869   1.156   2.622   8.505 -0.1007  0.6231  0.1438
 8411SOL    HW236870   1.106   2.624   8.365  0.9240  0.9047 -0.6487
 8412SOL     OW36871   1.236   4.423  10.643  0.3936 -0.4958  0.0078
 8412SOL    HW136872   1.250   4.396  10.552  0.0579 -2.2332  0.4659
 8412SOL    HW236873   1.256   4.344  10.693 -1.2342 -0.6495  0.4024
 8413SOL     OW36874   2.171   3.453   4.989  0.3763 -0.1727  0.1642
 8413SOL    HW136875   2.241   3.427   5.049  0.5356 -0.2401 -0.0553
 8413SOL    HW236876   2.089   3.432   5.035 -0.6450 -1.7219 -2.3812
 8414SOL     OW36877   1.225   2.103   2.171 -0.9016  0.0069 -0.4439
 8414SOL    HW136878   1.153   2.128   2.113 -1.3055  0.5043  0.2748
 8414SOL    HW236879   1.225   2.011   2.145  0.7109 -0.0108 -0.3661
 8415SOL     OW36880   2.484   0.729   8.896  0.2418  0.2632  0.2917
 8415SOL    HW136881   2.474   0.821   8.920  0.6204  1.0226 -2.5448
 8415SOL    HW236882   2.501   0.730   8.802 -0.8954  0.1484  0.0832
 8416SOL     OW36883   0.154   1.827   3.148 -0.2611 -1.0271 -0.5368
 8416SOL    HW136884   0.154   1.803   3.241  1.0759  0.2630 -0.2061
 8416SOL    HW236885   0.140   1.740   3.111  3.9455 -2.3883  0.9935
 8417SOL     OW36886   4.066   4.658   4.231  0.4590 -0.5020  0.0134
 8417SOL    HW136887   3.996   4.714   4.197  1.8023  0.5240 -1.0615
 8417SOL    HW236888   4.087   4.585   4.173  0.0558 -2.2983  2.1095
 8418SOL     OW36889   1.540   2.564   3.828 -0.1898 -0.5186  0.5940
 8418SOL    HW136890   1.484   2.496   3.864 -2.3129  0.5265 -0.6951
 8418SOL    HW236891   1.599   2.566   3.903 -0.6975  1.7153  0.9477
 8419SOL     OW36892   0.754   0.075   2.038 -0.0893  0.3589  0.5971
 8419SOL    HW136893   0.727   4.732   2.000  1.0721  1.4134 -2.5079
 8419SOL    HW236894   0.841   0.091   2.003  0.4393 -1.8617  0.8784
 8420SOL     OW36895   1.291   0.640  13.412 -0.2054  0.1807 -0.3106
 8420SOL    HW136896   1.280   0.666  13.503  0.7428 -0.3823 -0.0398
 8420SOL    HW236897   1.293   0.725  13.368 -0.3968  0.4610  0.2319
 8421SOL     OW36898   2.148   0.770   7.587  0.0053  0.0291  0.2344
 8421SOL    HW136899   2.073   0.808   7.542 -0.5371 -0.2347  0.9169
 8421SOL    HW236900   2.169   0.841   7.648  1.7205  2.0858 -2.7540
 8422SOL     OW36901   2.867   0.621  13.195  0.2731  0.3890  0.4036
 8422SOL    HW136902   2.789   0.645  13.145  0.7803  0.1872 -0.4814
 8422SOL    HW236903   2.920   0.589  13.122 -3.9934  0.7744 -2.8686
 8423SOL     OW36904   1.965   0.320   6.140  0.3099 -0.2900  0.0307
 8423SOL    HW136905   1.875   0.351   6.146  0.2379 -0.2686 -1.0262
 8423SOL    HW236906   2.008   0.388   6.191  0.7231 -0.5769  0.0696
 8424SOL     OW36907   2.277   0.679  13.816 -0.0558  0.3993 -0.3702
 8424SOL    HW136908   2.310   0.708  13.731  1.1157 -1.1674 -0.4495
 8424SOL    HW236909   2.189   0.652  13.792  0.1210  0.0621 -0.6422
 8425SOL     OW36910   0.124   4.697  17.173 -0.4078  0.4013 -0.4182
 8425SOL    HW136911   0.179   4.625  17.206 -0.2154  0.3328 -0.8941
 8425SOL    HW236912   0.089   4.660  17.092 -1.2986  0.8892 -0.2516
 8426SOL     OW36913   1.547   2.904   2.904 -0.1624 -0.3362 -0.1324
 8426SOL    HW136914   1.584   2.901   2.993 -1.0310  0.6324  0.2627
 8426SOL    HW236915   1.554   2.998   2.887 -1.0700 -0.1169  0.7098
 8427SOL     OW36916   1.724   3.474   0.958  0.2738 -0.4696 -0.1319
 8427SOL    HW136917   1.668   3.500   0.885 -0.3155  1.0849  0.8819
 8427SOL    HW236918   1.731   3.381   0.934  1.0050 -1.2944  3.2791
 8428SOL     OW36919   0.810   4.035   2.205  0.5008  0.1375 -0.2497
 8428SOL    HW136920   0.827   3.992   2.122 -1.0620 -0.2422 -0.3867
 8428SOL    HW236921   0.869   3.990   2.265  1.4452  0.0674 -1.2260
 8429SOL     OW36922   1.364   3.118   1.410 -0.0168  0.2264  0.1652
 8429SOL    HW136923   1.418   3.117   1.331  0.0235 -2.2573  0.2239
 8429SOL    HW236924   1.283   3.077   1.377  0.8269  0.2779 -1.9734
 8430SOL     OW36925   0.969   2.365   9.662 -0.3207  0.2926  0.3831
 8430SOL    HW136926   0.993   2.308   9.589  1.2825  3.5437 -1.6259
 8430SOL    HW236927   1.049   2.417   9.672 -0.1285 -0.5827  3.2622
 8431SOL     OW36928   4.287   2.289   8.607  0.0931 -0.1255  0.1871
 8431SOL    HW136929   4.249   2.230   8.673  0.5534 -0.9236 -0.2586
 8431SOL    HW236930   4.310   2.223   8.542 -0.4190  0.8665 -0.9904
 8432SOL     OW36931   0.279   1.988   8.448  0.1330 -0.2165 -0.5696
 8432SOL    HW136932   0.312   2.050   8.513 -0.3952  1.1774 -1.6360
 8432SOL    HW236933   0.209   1.950   8.501 -0.8552  2.2568 -0.1520
 8433SOL     OW36934   3.240   4.589   4.310 -0.2397 -0.2007 -0.2476
 8433SOL    HW136935   3.244   4.595   4.215  0.4024 -0.4903 -0.2338
 8433SOL    HW236936   3.179   4.517   4.324  0.9579 -1.1519 -0.0033
 8434SOL     OW36937   0.999   1.999   2.601  0.4960 -0.3790 -0.1264
 8434SOL    HW136938   0.909   2.029   2.591  1.3898  2.1539 -0.5173
 8434SOL    HW236939   1.011   2.024   2.692  0.5788 -0.2549 -0.1715
 8435SOL     OW36940   3.109   3.855  17.647 -1.0129 -0.2899 -0.1894
 8435SOL    HW136941   3.145   3.934  17.687  0.2718 -0.5634 -0.7788
 8435SOL    HW236942   3.025   3.854  17.692 -0.9702  0.2760 -0.0969
 8436SOL     OW36943   1.322   0.997  11.818  0.3257  0.6074 -0.5775
 8436SOL    HW136944   1.256   1.065  11.807  0.3955  0.7591 -0.0592
 8436SOL    HW236945   1.392   1.016  11.756 -0.2575  0.6974 -1.2014
 8437SOL     OW36946   4.460   1.356   0.330 -0.5785 -0.1517 -0.1046
 8437SOL    HW136947   4.524   1.418   0.364  0.2655 -0.4051 -1.2256
 8437SOL    HW236948   4.447   1.299   0.405  0.4190  1.6929  1.4492
 8438SOL     OW36949   1.530   0.004  14.649 -1.0910  0.2245  0.4802
 8438SOL    HW136950   1.437   4.728  14.665 -1.1022  1.3617  1.5258
 8438SOL    HW236951   1.567   4.688  14.717  0.8424  2.3500  1.1554
 8439SOL     OW36952   0.544   0.582  12.433 -0.1189  0.0569 -0.4883
 8439SOL    HW136953   0.476   0.649  12.425  0.4354  0.7446  0.5512
 8439SOL    HW236954   0.576   0.611  12.518  0.8769 -2.7316  0.0884
 8440SOL     OW36955   2.945   0.146  16.949  0.4465  0.1079 -0.4226
 8440SOL    HW136956   2.876   0.098  16.995  0.7714  0.3849  0.3483
 8440SOL    HW236957   3.002   0.071  16.932  0.0958 -0.2513  0.0133
 8441SOL     OW36958   3.763   1.175  10.661  0.3134 -0.3101  0.0791
 8441SOL    HW136959   3.835   1.239  10.666  0.1395  0.1932 -3.6304
 8441SOL    HW236960   3.736   1.180  10.569 -0.2104 -1.4148  0.1853
 8442SOL     OW36961   2.452   1.592   4.207  0.0042  0.3309  0.0229
 8442SOL    HW136962   2.532   1.644   4.195  1.2401 -0.9645  2.4804
 8442SOL    HW236963   2.382   1.644   4.168 -1.2351 -0.0419  1.7640
 8443SOL     OW36964   2.612   3.508   2.442  1.0005  0.1956  0.0042
 8443SOL    HW136965   2.591   3.587   2.392  3.4508  0.9552  0.1571
 8443SOL    HW236966   2.707   3.518   2.449  1.0243  0.5403 -0.8057
 8444SOL     OW36967   4.454   0.025   2.846  0.7814 -0.1218 -0.0300
 8444SOL    HW136968   4.428   0.115   2.866 -0.8415 -0.6914  0.4275
 8444SOL    HW236969   4.486   4.736   2.932  0.1635  1.8497  0.8723
 8445SOL     OW36970   4.433   4.586   8.369  0.2379 -0.0864 -0.1464
 8445SOL    HW136971   4.370   4.540   8.425  1.6048 -0.2115  1.2873
 8445SOL    HW236972   4.371   4.633   8.313  0.8395  0.2602 -0.5159
 8446SOL     OW36973   1.594   1.168   1.670  0.6515  0.0921 -0.1633
 8446SOL    HW136974   1.663   1.220   1.630 -1.7256  1.3918 -2.5752
 8446SOL    HW236975   1.608   1.080   1.635  1.3267 -0.3999  1.3237
 8447SOL     OW36976   0.374   0.889   2.743 -0.2690  0.3429 -0.4662
 8447SOL    HW136977   0.304   0.826   2.761 -0.4624  0.2415 -1.5864
 8447SOL    HW236978   0.436   0.842   2.688 -0.6790  0.4167 -0.9902
 8448SOL     OW36979   3.072   1.679   8.354 -0.5552 -0.2827 -0.6732
 8448SOL    HW136980   3.091   1.771   8.338 -0.6735 -0.2286 -0.5100
 8448SOL    HW236981   3.004   1.685   8.421 -0.0838 -1.5344 -0.0689
 8449SOL     OW36982   2.667   0.164  17.249 -0.2378 -0.3947  0.1920
 8449SOL    HW136983   2.714   0.091  17.208 -2.0539 -0.0436 -2.4819
 8449SOL    HW236984   2.578   0.142  17.221  0.6633 -2.8820 -0.6973
 8450SOL     OW36985   0.621   2.854   7.644 -0.2681 -0.4273 -0.4501
 8450SOL    HW136986   0.529   2.832   7.629 -0.2998  0.7390 -1.8704
 8450SOL    HW236987   0.635   2.944   7.616 -0.6572 -0.1482  0.2373
 8451SOL     OW36988   2.572   2.580  12.401 -0.6686 -0.1746 -0.0152
 8451SOL    HW136989   2.610   2.668  12.398 -2.2434  0.4786 -1.3735
 8451SOL    HW236990   2.627   2.548  12.472  1.0135 -0.1301 -1.2874
 8452SOL     OW36991   2.103   1.081   4.156  0.6374 -0.8944 -1.1520
 8452SOL    HW136992   2.135   1.170   4.169 -0.6574 -0.6668  0.4366
 8452SOL    HW236993   2.088   1.045   4.243  0.4651  1.8259 -0.0460
 8453SOL     OW36994   1.570   3.695   7.369 -0.2899  0.8956  0.2900
 8453SOL    HW136995   1.597   3.708   7.278  0.5194  0.5516  0.4908
 8453SOL    HW236996   1.510   3.770   7.370 -2.0825 -0.6379  4.5255
 8454SOL     OW36997   1.079   0.042   9.644 -0.7260  0.6373 -0.3543
 8454SOL    HW136998   1.136   4.730   9.701 -1.3803 -0.8874 -1.0899
 8454SOL    HW236999   1.042   4.711   9.592  0.5049  0.4292 -0.9633
 8455SOL     OW37000   3.432   1.420   2.655 -0.4020 -0.4339 -0.4313
 8455SOL    HW137001   3.338   1.431   2.641 -0.3250  0.1263 -0.4886
 8455SOL    HW237002   3.446   1.435   2.748 -1.4991  1.8790 -0.6525
 8456SOL     OW37003   4.073   3.678   7.591  0.2365 -0.5021  1.0828
 8456SOL    HW137004   4.143   3.627   7.551  0.8663  1.5792 -0.4671
 8456SOL    HW237005   4.022   3.682   7.510  0.9152 -1.4745  0.6138
 8457SOL     OW37006   3.157   3.523   1.072 -0.2292 -0.0672 -0.0006
 8457SOL    HW137007   3.239   3.565   1.044 -0.9248  0.8904 -0.5687
 8457SOL    HW237008   3.188   3.441   1.111  0.3995 -0.5860 -1.5502
 8458SOL     OW37009   3.286   0.949   7.266 -0.2424 -0.0292  0.1233
 8458SOL    HW137010   3.242   0.866   7.245  0.6620 -0.5116  0.1446
 8458SOL    HW237011   3.283   0.971   7.173  0.7954 -2.6411 -0.5409
 8459SOL     OW37012   3.154   4.124   4.327  0.2048 -0.2964 -0.4384
 8459SOL    HW137013   3.062   4.149   4.328  1.3051  3.6077  3.0885
 8459SOL    HW237014   3.184   4.190   4.264  0.2832 -1.0834 -1.2180
 8460SOL     OW37015   3.703   1.248  14.649 -0.5050  0.4525 -0.2014
 8460SOL    HW137016   3.665   1.207  14.572  0.3077  0.2880 -0.5131
 8460SOL    HW237017   3.689   1.338  14.621 -0.3967  0.0874 -1.4163
 8461SOL     OW37018   0.950   2.242   5.878 -0.0528  0.0074 -0.2490
 8461SOL    HW137019   0.944   2.287   5.793 -2.0088  2.6823  1.2965
 8461SOL    HW237020   0.985   2.316   5.928 -0.1353  0.9304 -1.5491
 8462SOL     OW37021   1.427   2.493   9.356 -0.2778  0.4284  0.3532
 8462SOL    HW137022   1.517   2.511   9.331  0.4836 -3.1493  0.4607
 8462SOL    HW237023   1.384   2.453   9.280 -0.4119  1.6650 -0.2260
 8463SOL     OW37024   1.872   2.094   9.008  0.3450  0.0699  0.3960
 8463SOL    HW137025   1.908   2.013   9.042 -0.5424 -0.6029 -0.2620
 8463SOL    HW237026   1.859   2.073   8.915 -0.6479 -1.6659  0.9269
 8464SOL     OW37027   1.112   3.898   1.011 -0.3597  0.6515 -0.3737
 8464SOL    HW137028   1.106   3.962   0.940 -0.3756  0.1590 -0.8144
 8464SOL    HW237029   1.051   3.938   1.074 -1.0682 -1.2417  0.1467
 8465SOL     OW37030   1.840   0.252  16.336  0.3350 -0.3140  0.0028
 8465SOL    HW137031   1.920   0.255  16.282 -0.0182  0.0326 -0.4976
 8465SOL    HW237032   1.769   0.261  16.273 -0.2986 -3.9487  0.2063
 8466SOL     OW37033   4.379   3.118  16.174 -0.0338 -0.1964 -0.0264
 8466SOL    HW137034   4.473   3.104  16.161 -0.0413  2.0942 -2.5397
 8466SOL    HW237035   4.351   3.207  16.155 -0.1147 -0.1025  0.5275
 8467SOL     OW37036   1.088   1.048   6.101  0.1905 -0.1340  0.2989
 8467SOL    HW137037   1.136   1.130   6.112  0.6744 -0.7303  2.5240
 8467SOL    HW237038   1.159   1.002   6.057  0.3776  0.5382 -0.0994
 8468SOL     OW37039   3.953   0.688   1.658 -0.0438  0.2534 -0.4268
 8468SOL    HW137040   4.036   0.664   1.699 -0.7902  0.8307  1.4382
 8468SOL    HW237041   3.973   0.703   1.566 -1.0724 -0.5284 -0.7788
 8469SOL     OW37042   0.936   0.475   6.338  0.1892 -0.4332 -0.4225
 8469SOL    HW137043   0.852   0.482   6.382 -0.4483  1.7231 -2.0061
 8469SOL    HW237044   0.987   0.444   6.413  0.2576 -0.6667 -0.5648
 8470SOL     OW37045   1.833   4.249  14.253  0.3495 -0.5107 -0.0224
 8470SOL    HW137046   1.907   4.309  14.253  0.8986 -1.1743 -3.6058
 8470SOL    HW237047   1.885   4.174  14.225  0.5249  0.3363 -2.0071
 8471SOL     OW37048   0.049   0.744   2.240 -0.1983 -0.2544 -0.1931
 8471SOL    HW137049   0.059   0.656   2.278 -0.9537  0.5081  1.7805
 8471SOL    HW237050   0.061   0.722   2.148 -0.6965  2.1155 -0.8113
 8472SOL     OW37051   0.425   4.477   7.923  0.1017 -0.0123  0.2288
 8472SOL    HW137052   0.350   4.513   7.971 -0.5922  0.5975 -1.2898
 8472SOL    HW237053   0.383   4.470   7.837 -1.6637  3.3853  0.8338
 8473SOL     OW37054   1.126   4.326   9.228 -0.3865 -0.2118 -0.4375
 8473SOL    HW137055   1.073   4.391   9.181  0.5444  2.1352  1.7814
 8473SOL    HW237056   1.212   4.367   9.231 -0.9857  1.0191 -0.0473
 8474SOL     OW37057   2.508   0.223   2.257  0.3268  0.7389 -0.1253
 8474SOL    HW137058   2.598   0.241   2.229  0.2024  2.5487  0.5973
 8474SOL    HW237059   2.474   0.178   2.180  0.4764  1.1594 -0.4401
 8475SOL     OW37060   4.727   0.089   4.056 -0.4353 -0.5574  0.2791
 8475SOL    HW137061   0.081   0.106   4.051 -0.5913  0.4184  0.6811
 8475SOL    HW237062   4.694   0.167   4.010 -0.5598 -1.8839 -1.8717
 8476SOL     OW37063   1.660   1.827  14.881 -0.3049  0.3468  0.0075
 8476SOL    HW137064   1.747   1.815  14.918 -0.2559 -2.9762 -1.1478
 8476SOL    HW237065   1.674   1.847  14.788 -0.4580  0.9888  0.1255
 8477SOL     OW37066   0.893   0.615  10.371  0.5357  0.5634 -0.3767
 8477SOL    HW137067   0.865   0.595  10.282 -0.5642 -0.9717  0.3174
 8477SOL    HW237068   0.874   0.536  10.421 -0.1147  1.7567  1.2823
 8478SOL     OW37069   4.504   2.132  11.409  0.2741 -0.6848  0.1857
 8478SOL    HW137070   4.584   2.179  11.388 -0.8872  0.8856 -0.6829
 8478SOL    HW237071   4.445   2.148  11.335  1.3315  1.2367 -0.2515
 8479SOL     OW37072   1.468   0.193   2.051 -0.2057 -0.3332  0.2810
 8479SOL    HW137073   1.475   0.263   1.985 -4.0974  1.5831  1.9085
 8479SOL    HW237074   1.418   0.127   2.004  1.5652 -0.9665 -0.7157
 8480SOL     OW37075   1.220   2.904   8.712 -0.3604 -0.6349 -0.2094
 8480SOL    HW137076   1.266   2.960   8.650 -0.1096 -2.5500 -1.7520
 8480SOL    HW237077   1.286   2.841   8.741 -0.5340 -0.0489  1.4604
 8481SOL     OW37078   1.526   4.316   3.731 -0.2633  0.8920  0.3176
 8481SOL    HW137079   1.474   4.236   3.732 -0.9264  1.3288  0.2730
 8481SOL    HW237080   1.554   4.296   3.642  0.4858 -0.3389  0.8161
 8482SOL     OW37081   4.609   4.687   8.797 -0.5726 -0.1960  0.4564
 8482SOL    HW137082   4.630   4.725   8.711 -0.3237 -0.9541  0.1768
 8482SOL    HW237083   4.676   4.732   8.848  1.5671 -1.9473 -0.8144
 8483SOL     OW37084   0.766   1.399  12.896 -0.2062  0.8395  0.3513
 8483SOL    HW137085   0.758   1.343  12.819 -1.5098  0.5777  0.6813
 8483SOL    HW237086   0.841   1.454  12.871 -1.3599  1.2716 -2.1712
 8484SOL     OW37087   1.904   2.300   3.089  0.3362  0.5925  0.2800
 8484SOL    HW137088   1.861   2.326   3.008  2.0909 -1.5417 -1.3225
 8484SOL    HW237089   1.950   2.384   3.080  0.2382  0.6176  0.0145
 8485SOL     OW37090   3.867   2.261   5.327  0.0674 -0.6451  0.2854
 8485SOL    HW137091   3.928   2.207   5.278  0.6606  1.0529 -0.8653
 8485SOL    HW237092   3.898   2.245   5.416  2.7322  0.2002 -0.4691
 8486SOL     OW37093   3.076   3.967  16.922  0.1470 -0.3175  0.0983
 8486SOL    HW137094   3.094   3.879  16.889 -1.8448 -0.6321 -0.1198
 8486SOL    HW237095   2.982   3.953  16.926  0.0000  0.6802  0.0988
 8487SOL     OW37096   1.818   2.400   5.910 -0.1323 -0.1021  0.2583
 8487SOL    HW137097   1.850   2.476   5.958  0.4326 -0.8161  1.0234
 8487SOL    HW237098   1.894   2.392   5.854 -0.6902  0.3774 -0.5586
 8488SOL     OW37099   3.151   0.413  12.088  0.3892 -0.2115  0.4884
 8488SOL    HW137100   3.220   0.466  12.129  0.2413 -0.5968  1.2331
 8488SOL    HW237101   3.190   0.325  12.093 -0.1502 -0.5096 -0.3406
 8489SOL     OW37102   1.675   2.994   7.977  0.3189  0.4090  1.1332
 8489SOL    HW137103   1.738   3.064   7.962 -0.4939  0.6150 -1.2717
 8489SOL    HW237104   1.652   2.995   8.070 -1.9684  0.7201  0.5500
 8490SOL     OW37105   2.275   1.001   3.904 -0.1189  0.5204 -0.2653
 8490SOL    HW137106   2.241   0.995   3.993  1.3273 -1.9747  0.1221
 8490SOL    HW237107   2.227   1.075   3.868 -0.8620  0.5155  0.7224
 8491SOL     OW37108   2.386   4.305   1.576  0.2829 -0.4098  0.1354
 8491SOL    HW137109   2.388   4.400   1.589 -0.1470 -0.3196 -0.5082
 8491SOL    HW237110   2.469   4.279   1.535  0.5243 -2.1024  1.6492
 8492SOL     OW37111   2.670   2.785   0.344  0.4014 -0.0354 -0.2228
 8492SOL    HW137112   2.606   2.779   0.273  1.3130  1.1456 -1.1358
 8492SOL    HW237113   2.656   2.876   0.370 -0.6861 -0.3955  0.5129
 8493SOL     OW37114   4.478   3.963   9.826 -0.5672  0.0491  0.6124
 8493SOL    HW137115   4.523   4.015   9.760 -1.4769  0.3409  0.2115
 8493SOL    HW237116   4.442   4.026   9.888 -3.1037  0.2496 -1.0235
 8494SOL     OW37117   1.044   1.709   7.486 -0.3091  0.0916  0.3770
 8494SOL    HW137118   1.076   1.792   7.449 -0.2618 -0.5440 -0.9822
 8494SOL    HW237119   1.069   1.726   7.577  3.3927 -4.1095  0.1297
 8495SOL     OW37120   4.279   2.935   2.459  0.1353  0.0592 -0.2303
 8495SOL    HW137121   4.360   2.887   2.479 -0.1923 -0.5650 -0.4188
 8495SOL    HW237122   4.227   2.862   2.427  1.7763 -0.6081 -1.4003
 8496SOL     OW37123   0.875   2.863  16.279 -0.0339  0.0531 -0.3305
 8496SOL    HW137124   0.905   2.912  16.355 -1.1613 -1.3146  0.9982
 8496SOL    HW237125   0.783   2.888  16.272 -1.0064 -3.1637  0.6734
 8497SOL     OW37126   3.229   3.345   6.673  0.0623 -0.5706 -0.0129
 8497SOL    HW137127   3.234   3.252   6.651  3.7912  0.0683 -1.7532
 8497SOL    HW237128   3.167   3.337   6.746  1.4574  0.9323  1.3336
 8498SOL     OW37129   0.855   2.034   5.621 -0.4568  0.0223 -0.2575
 8498SOL    HW137130   0.904   2.017   5.702  0.6827  0.6604 -0.8138
 8498SOL    HW237131   0.835   2.126   5.636  0.7705  0.1630  0.5849
 8499SOL     OW37132   4.422   2.519  15.458 -0.1659 -0.4521  0.2085
 8499SOL    HW137133   4.335   2.484  15.478  0.6171 -1.2912  2.1401
 8499SOL    HW237134   4.477   2.441  15.456 -0.0885 -0.4510  2.4135
 8500SOL     OW37135   4.204   0.708   6.981  0.2140 -0.0593 -0.1566
 8500SOL    HW137136   4.273   0.735   6.921  0.0461 -3.5844 -1.8908
 8500SOL    HW237137   4.163   0.791   7.008  0.5992 -0.2456  1.0187
 8501SOL     OW37138   4.394   3.267   9.395 -0.0052 -0.2250 -0.0432
 8501SOL    HW137139   4.451   3.338   9.365  0.7773 -0.7967  0.0730
 8501SOL    HW237140   4.333   3.248   9.324 -0.2653 -0.0816  0.1415
 8502SOL     OW37141   0.608   0.302   3.682 -0.1543 -0.6305 -0.3234
 8502SOL    HW137142   0.594   0.347   3.765 -0.0154 -0.9961 -0.1016
 8502SOL    HW237143   0.546   0.230   3.678 -0.5532 -0.2706 -0.6129
 8503SOL     OW37144   3.662   1.608   3.274  0.6496  0.7431 -0.2643
 8503SOL    HW137145   3.631   1.571   3.357  0.7696  1.1793 -0.0256
 8503SOL    HW237146   3.662   1.703   3.286  0.8643  0.6748  0.3048
 8504SOL     OW37147   2.525   1.687   8.496  0.4465 -0.1725  0.4093
 8504SOL    HW137148   2.506   1.600   8.532 -0.7944 -0.1471 -0.1568
 8504SOL    HW237149   2.584   1.663   8.424 -1.3696 -2.0104 -0.4790
 8505SOL     OW37150   0.783   3.323   8.999 -0.1125  0.8481  0.1610
 8505SOL    HW137151   0.763   3.416   8.995 -3.7210 -0.0435 -2.5757
 8505SOL    HW237152   0.873   3.317   8.966 -0.1835  0.0370  0.1112
 8506SOL     OW37153   1.882   1.556  14.808  0.8668 -0.3163  0.1227
 8506SOL    HW137154   1.798   1.576  14.768  0.9191 -1.6246 -0.6550
 8506SOL    HW237155   1.907   1.481  14.754 -0.8803 -1.0026  0.2373
 8507SOL     OW37156   4.634   3.086   9.223  0.1070  0.3677  0.1805
 8507SOL    HW137157   4.544   3.099   9.253  0.7285  0.7602  1.8671
 8507SOL    HW237158   4.653   2.995   9.242 -0.0699  0.3325  0.1857
 8508SOL     OW37159   1.759   2.443   8.419 -0.5700  0.3992 -0.0828
 8508SOL    HW137160   1.689   2.404   8.471 -1.0536 -1.0015 -1.7674
 8508SOL    HW237161   1.730   2.429   8.328  3.0060 -0.5801 -1.1124
 8509SOL     OW37162   0.201   1.542  16.569  0.1263 -0.3497  0.4657
 8509SOL    HW137163   0.248   1.535  16.485 -1.7184 -1.7831 -0.4587
 8509SOL    HW237164   0.252   1.476  16.616 -0.4737 -1.9412 -1.1191
 8510SOL     OW37165   3.849   1.979   2.907  0.1547 -0.2436 -0.6235
 8510SOL    HW137166   3.868   1.935   2.824  2.0199 -0.6058 -0.0208
 8510SOL    HW237167   3.905   2.056   2.898  0.5709 -0.9362 -4.0217
 8511SOL     OW37168   4.737   4.245   8.790  0.5177  0.0404 -0.2752
 8511SOL    HW137169   0.027   4.328   8.754 -1.8994  0.7903 -0.5840
 8511SOL    HW237170   0.053   4.191   8.734 -0.2172 -1.9185  0.8573
 8512SOL     OW37171   3.109   0.465   3.130 -0.1020  0.6199  0.2368
 8512SOL    HW137172   3.109   0.543   3.186  0.7530  0.5394  0.3545
 8512SOL    HW237173   3.060   0.403   3.184  1.1302 -0.7754 -0.2229
 8513SOL     OW37174   0.302   2.255   5.197 -0.3326  0.0584 -0.0642
 8513SOL    HW137175   0.395   2.233   5.187 -0.1591  0.5170  0.5937
 8513SOL    HW237176   0.309   2.324   5.263 -0.1932  1.3631 -1.4443
 8514SOL     OW37177   0.380   1.198  14.711  0.1621  0.5749 -0.1658
 8514SOL    HW137178   0.407   1.107  14.697 -1.2559  0.3119 -1.2473
 8514SOL    HW237179   0.385   1.238  14.624 -0.9748  2.1307  0.4752
 8515SOL     OW37180   0.406   0.284   4.607  0.7301  0.6691 -0.5163
 8515SOL    HW137181   0.445   0.198   4.589 -0.9019 -0.4812  1.3634
 8515SOL    HW237182   0.339   0.256   4.669  3.0331 -0.3754  1.5174
 8516SOL     OW37183   3.568   2.246   2.328 -0.5299  0.6220 -0.3123
 8516SOL    HW137184   3.521   2.323   2.295 -2.0639 -0.9757 -1.8201
 8516SOL    HW237185   3.615   2.285   2.402 -1.1698 -3.5587  2.2954
 8517SOL     OW37186   3.591   2.996   9.558  0.0926 -0.0939  0.3353
 8517SOL    HW137187   3.501   3.024   9.540  0.9188  3.1402  1.2377
 8517SOL    HW237188   3.611   2.951   9.476 -1.4612 -2.6146  1.3506
 8518SOL     OW37189   3.360   2.280   5.983  0.4566  0.0621 -0.8811
 8518SOL    HW137190   3.301   2.355   5.974  0.0417 -0.3577 -1.6972
 8518SOL    HW237191   3.412   2.286   5.902  1.8837  1.2259  0.1216
 8519SOL     OW37192   3.225   2.521  16.470  0.1000  0.2978  0.8071
 8519SOL    HW137193   3.220   2.464  16.547  0.6907 -1.2144 -0.2715
 8519SOL    HW237194   3.295   2.578  16.499 -1.3437  1.7280  1.4625
 8520SOL     OW37195   0.995   2.638   4.661  0.0755 -0.3383 -0.1284
 8520SOL    HW137196   1.046   2.589   4.726 -0.1866 -1.4715 -0.7694
 8520SOL    HW237197   0.930   2.683   4.715 -1.9992 -0.9159 -2.1587
 8521SOL     OW37198   0.248   2.472   8.026  0.3122 -0.3297  0.0468
 8521SOL    HW137199   0.294   2.544   8.068  1.0877 -1.5087  1.2105
 8521SOL    HW237200   0.162   2.489   8.065  0.3107 -1.0004  0.3325
 8522SOL     OW37201   0.629   0.546   5.218 -0.5134  0.1871 -0.5436
 8522SOL    HW137202   0.614   0.641   5.224  0.7226  0.2780  1.0935
 8522SOL    HW237203   0.661   0.535   5.129 -2.3483  1.2593 -1.3395
 8523SOL     OW37204   2.003   4.081   2.765 -0.5237 -0.2800 -0.0216
 8523SOL    HW137205   2.012   4.105   2.673  0.2841 -0.0722  0.1172
 8523SOL    HW237206   2.056   4.147   2.808 -2.7454  0.5496  1.4634
 8524SOL     OW37207   2.843   4.569   1.372 -0.4347  0.9037 -0.2337
 8524SOL    HW137208   2.808   4.480   1.362 -1.4159  1.3223 -0.5543
 8524SOL    HW237209   2.773   4.617   1.328 -2.1915 -0.6931  0.8012
 8525SOL     OW37210   1.001   1.141   4.084  0.3659  0.3395  0.4622
 8525SOL    HW137211   1.082   1.103   4.119 -0.8281 -2.3777  0.2634
 8525SOL    HW237212   0.972   1.185   4.164 -1.3102 -1.0142  0.5844
 8526SOL     OW37213   2.319   2.881   5.003  0.5824 -0.1248 -0.2044
 8526SOL    HW137214   2.246   2.873   5.065 -0.0044  1.8216 -0.6368
 8526SOL    HW237215   2.387   2.869   5.069 -0.1784 -0.3379  0.5472
 8527SOL     OW37216   2.853   0.893  11.114  0.0097  0.5112  0.1905
 8527SOL    HW137217   2.796   0.970  11.107 -0.6670 -0.2589 -2.9233
 8527SOL    HW237218   2.812   0.843  11.185  0.4886  1.7208  1.3066
 8528SOL     OW37219   3.231   1.460  15.825 -0.0059 -0.5456  0.1273
 8528SOL    HW137220   3.287   1.531  15.793  0.2154 -1.1014 -0.7213
 8528SOL    HW237221   3.279   1.379  15.808 -1.2017 -1.4475  1.1046
 8529SOL     OW37222   3.228   3.770  10.253  0.5959 -0.7083  0.6254
 8529SOL    HW137223   3.222   3.677  10.232 -1.4084 -0.0590 -1.8046
 8529SOL    HW237224   3.323   3.785  10.250  0.2336  1.8358  1.9121
 8530SOL     OW37225   0.722   0.224   4.571 -0.6500  0.3523  0.6127
 8530SOL    HW137226   0.672   0.304   4.560 -0.1895  0.6707  0.8233
 8530SOL    HW237227   0.815   0.232   4.549 -1.0830 -1.1487 -1.8812
 8531SOL     OW37228   4.062   0.311   3.155 -0.2882  0.0833  0.3381
 8531SOL    HW137229   4.131   0.376   3.166  1.1446 -1.1599 -1.1315
 8531SOL    HW237230   4.100   0.238   3.204  0.9378  0.2401 -0.3717
 8532SOL     OW37231   0.422   3.893   6.471  0.1047  0.1174 -0.1681
 8532SOL    HW137232   0.344   3.853   6.433  1.5163 -1.7553 -1.0969
 8532SOL    HW237233   0.413   3.984   6.443 -0.0593 -0.2386 -1.2839
 8533SOL     OW37234   1.414   3.665   8.150 -0.2436 -0.0559 -0.5300
 8533SOL    HW137235   1.416   3.651   8.056  0.4903 -2.8287 -0.1113
 8533SOL    HW237236   1.440   3.578   8.181 -0.2452 -0.6754 -2.2723
 8534SOL     OW37237   2.284   0.977   8.075 -0.2119  0.0542  0.4298
 8534SOL    HW137238   2.307   1.066   8.049 -1.1111 -0.0023 -0.5723
 8534SOL    HW237239   2.228   0.955   8.000  0.7876 -0.2735 -0.2156
 8535SOL     OW37240   0.089   4.015   3.189 -0.1031 -0.4807  0.1367
 8535SOL    HW137241   0.112   3.950   3.256 -0.5011 -0.4476  0.3042
 8535SOL    HW237242   0.028   3.970   3.130 -2.0504  1.0814  0.9641
 8536SOL     OW37243   1.020   1.921   1.755 -0.4955  0.4921 -0.0080
 8536SOL    HW137244   1.068   1.847   1.718 -2.6113  0.1982 -2.1586
 8536SOL    HW237245   0.999   1.901   1.846 -1.6730  0.8150 -0.2126
 8537SOL     OW37246   1.557   4.143   7.514 -0.1974  0.2014  0.4442
 8537SOL    HW137247   1.613   4.203   7.465  1.8368 -1.3269  0.9098
 8537SOL    HW237248   1.525   4.201   7.582 -1.0218  0.7128 -0.3807
 8538SOL     OW37249   2.660   4.211   6.805 -0.0938 -0.0522  0.4522
 8538SOL    HW137250   2.732   4.236   6.863 -1.0995  0.3669  1.5090
 8538SOL    HW237251   2.624   4.138   6.854  1.2601 -0.2835  1.1009
 8539SOL     OW37252   2.863   1.132   6.394  0.3653 -0.2230 -0.0352
 8539SOL    HW137253   2.929   1.085   6.343  0.0706  0.2535 -0.8535
 8539SOL    HW237254   2.923   1.189   6.441 -0.2697  0.8332 -0.5055
 8540SOL     OW37255   0.030   4.387   6.635  0.2844  0.5485 -0.5969
 8540SOL    HW137256   4.731   4.340   6.561 -1.2532  1.5948 -0.4393
 8540SOL    HW237257   4.701   4.371   6.698  1.7923  1.7978  1.3617
 8541SOL     OW37258   1.581   2.718   5.892 -0.2982  0.7451  0.3253
 8541SOL    HW137259   1.640   2.653   5.853 -0.3672 -0.3076  1.9614
 8541SOL    HW237260   1.575   2.765   5.809  0.1525 -0.6901 -0.5194
 8542SOL     OW37261   4.463   0.651  13.412  0.0363  0.1062  0.0120
 8542SOL    HW137262   4.493   0.572  13.366 -0.5788 -1.2191  1.8950
 8542SOL    HW237263   4.503   0.724  13.365  0.2225 -0.5348 -0.8320
 8543SOL     OW37264   4.609   2.620   7.161 -0.0109  0.4773 -0.0950
 8543SOL    HW137265   4.550   2.580   7.224 -0.4612  1.8725  0.3646
 8543SOL    HW237266   4.585   2.562   7.088  1.7720 -1.1631  0.6099
 8544SOL     OW37267   3.637   3.155  10.574  0.4987  0.0988 -0.2354
 8544SOL    HW137268   3.645   3.145  10.479 -0.5709  0.4194 -0.3535
 8544SOL    HW237269   3.726   3.183  10.599  0.5639  0.6058 -1.0180
 8545SOL     OW37270   3.575   2.418   2.795  0.3074 -0.1592 -0.5420
 8545SOL    HW137271   3.664   2.385   2.811 -0.7051 -2.2206  0.7925
 8545SOL    HW237272   3.582   2.495   2.852  1.6076 -0.7840  0.1589
 8546SOL     OW37273   3.739   1.083   6.123  0.1061  0.0611  0.2803
 8546SOL    HW137274   3.755   1.129   6.206  0.5053  0.6392 -0.1173
 8546SOL    HW237275   3.735   1.160   6.067  0.7931 -1.1546 -1.4269
 8547SOL     OW37276   2.686   4.709   7.174 -0.2365 -0.3851 -0.0193
 8547SOL    HW137277   2.605   4.664   7.151 -1.0911 -0.1331  2.4164
 8547SOL    HW237278   2.720   4.731   7.088  1.0340  2.3571  1.1669
 8548SOL     OW37279   0.489   0.533   6.848 -0.8283  0.1807 -0.0731
 8548SOL    HW137280   0.477   0.439   6.853  1.7753 -0.1263 -0.0350
 8548SOL    HW237281   0.406   0.566   6.883  0.0884  0.1070  2.1653
 8549SOL     OW37282   2.792   2.148   3.544 -0.1082  0.5155 -0.4451
 8549SOL    HW137283   2.758   2.227   3.588  1.1090  0.7435  0.0867
 8549SOL    HW237284   2.714   2.094   3.533 -0.5972  2.0367 -4.2042
 8550SOL     OW37285   0.512   0.868   1.793 -0.0328  0.2684 -0.0123
 8550SOL    HW137286   0.488   0.798   1.854  0.9290  0.2740  0.3666
 8550SOL    HW237287   0.570   0.826   1.730 -1.5833 -0.9722 -0.6003
 8551SOL     OW37288   2.348   2.542   6.533  0.3626  0.2937  0.0770
 8551SOL    HW137289   2.281   2.581   6.589 -1.0639 -1.9065 -0.0620
 8551SOL    HW237290   2.418   2.602   6.557  0.3797  0.4614 -0.3872
 8552SOL     OW37291   1.683   2.719   8.717 -0.0957  0.0159  0.2301
 8552SOL    HW137292   1.759   2.681   8.762  0.3615  2.6480  1.7265
 8552SOL    HW237293   1.613   2.672   8.762  1.0193 -1.6239  0.2419
 8553SOL     OW37294   2.542   1.872   8.044  0.2609 -0.2922 -0.2865
 8553SOL    HW137295   2.484   1.863   7.969  1.5037  1.6214 -1.4699
 8553SOL    HW237296   2.490   1.928   8.101 -0.9948 -2.1346  0.3936
 8554SOL     OW37297   3.662   4.035   6.808 -0.2633  0.1132  0.0547
 8554SOL    HW137298   3.735   3.991   6.852 -0.8982  0.2357  1.2323
 8554SOL    HW237299   3.604   4.060   6.879  0.9597 -1.4318  1.6051
 8555SOL     OW37300   1.080   0.894   3.545 -0.4447 -0.0619  0.4730
 8555SOL    HW137301   1.059   0.849   3.463 -0.6638  0.2265  0.3684
 8555SOL    HW237302   1.095   0.984   3.516 -1.3348 -0.5644 -1.6003
 8556SOL     OW37303   0.088   3.019   1.971  0.0765  0.2527 -0.3176
 8556SOL    HW137304   0.007   3.057   1.937 -0.6406 -1.7044 -0.8037
 8556SOL    HW237305   0.065   2.927   1.968  2.0372 -0.2167 -1.2138
 8557SOL     OW37306   1.829   1.630   5.508  0.5377  0.3452 -0.2643
 8557SOL    HW137307   1.762   1.598   5.447 -2.1457  2.7080  1.4901
 8557SOL    HW237308   1.911   1.591   5.476 -0.9148 -1.4390 -1.8539
 8558SOL     OW37309   0.333   1.887   5.272  0.0366 -0.2328  0.3886
 8558SOL    HW137310   0.427   1.873   5.259  0.0567 -1.8346  2.2345
 8558SOL    HW237311   0.331   1.838   5.354 -2.6785 -1.1100 -0.2216
 8559SOL     OW37312   2.305   1.117   4.504 -0.2717  0.5433 -0.0901
 8559SOL    HW137313   2.362   1.179   4.550  2.8378 -1.3952 -1.3433
 8559SOL    HW237314   2.350   1.102   4.421 -2.0830 -0.8958 -0.8155
 8560SOL     OW37315   0.781   2.603   9.439  0.1632 -0.4586 -0.0855
 8560SOL    HW137316   0.868   2.626   9.406  0.3334 -0.2574  0.5034
 8560SOL    HW237317   0.752   2.551   9.364  1.4109  0.5160 -1.2543
 8561SOL     OW37318   1.085   2.508  14.847 -0.1527  0.0977  0.5056
 8561SOL    HW137319   1.066   2.562  14.923  1.2616  1.4895 -0.1401
 8561SOL    HW237320   1.107   2.428  14.896  0.5263  0.8405  1.4103
 8562SOL     OW37321   0.198   2.311   8.674  0.1201 -0.4666  0.0471
 8562SOL    HW137322   0.126   2.369   8.647  0.2131  0.6628  2.1754
 8562SOL    HW237323   0.253   2.323   8.596 -2.5376  2.6598 -1.3792
 8563SOL     OW37324   1.283   0.804  16.658  0.2605  0.0994 -0.1115
 8563SOL    HW137325   1.286   0.826  16.751  4.0123 -0.0212 -0.2327
 8563SOL    HW237326   1.188   0.789  16.648  0.2141  0.9390 -0.8764
 8564SOL     OW37327   0.212   4.726   6.003 -0.4191 -0.0799  0.0517
 8564SOL    HW137328   0.253   0.058   5.955 -2.3086  1.8227  1.2839
 8564SOL    HW237329   0.277   4.657   5.994 -0.0542 -0.0715  2.6248
 8565SOL     OW37330   1.550   1.749  15.741  0.1439  0.0113 -0.3410
 8565SOL    HW137331   1.561   1.690  15.815  1.0940  1.8670  1.0078
 8565SOL    HW237332   1.467   1.793  15.757  0.4355  0.1913  0.6562
 8566SOL     OW37333   0.824   3.185   2.246  0.0030 -0.1237 -0.0822
 8566SOL    HW137334   0.898   3.234   2.209  1.4857 -1.6115  0.8940
 8566SOL    HW237335   0.770   3.184   2.167  1.1501 -1.7421 -0.8565
 8567SOL     OW37336   1.103   2.801  10.150 -0.1581  0.3222  0.4062
 8567SOL    HW137337   1.136   2.723  10.106 -4.0529 -1.9743  1.5762
 8567SOL    HW237338   1.025   2.824  10.098  0.0461  1.6389  0.6693
 8568SOL     OW37339   2.959   3.610   7.212  0.0560  0.5633  0.0346
 8568SOL    HW137340   2.961   3.533   7.155 -1.9159 -0.3974  1.2614
 8568SOL    HW237341   2.971   3.568   7.297  0.3366 -0.8022 -0.6914
 8569SOL     OW37342   4.326   2.313   3.714  0.5731  0.2190 -0.0152
 8569SOL    HW137343   4.255   2.258   3.681 -0.2826  0.9820  0.5683
 8569SOL    HW237344   4.383   2.251   3.760  0.1344 -0.4754 -0.4041
 8570SOL     OW37345   1.428   0.222   0.530  0.0565 -0.1839  0.7625
 8570SOL    HW137346   1.349   0.221   0.475  0.4178 -0.7916  0.2546
 8570SOL    HW237347   1.464   0.133   0.530 -0.3715 -0.3616  0.0985
 8571SOL     OW37348   3.730   1.704  10.202 -0.3180 -0.1990 -0.0734
 8571SOL    HW137349   3.663   1.658  10.252  2.8747 -1.9647  2.6076
 8571SOL    HW237350   3.805   1.686  10.259 -0.0120  0.7525 -0.1660
 8572SOL     OW37351   1.673   2.769   8.195 -0.3043 -0.0786 -0.2422
 8572SOL    HW137352   1.738   2.771   8.265 -0.9601 -3.0075  0.4453
 8572SOL    HW237353   1.606   2.718   8.240  0.4830  0.5745  1.6694
 8573SOL     OW37354   4.676   4.488  13.442 -0.0150 -0.0820  0.3662
 8573SOL    HW137355   4.626   4.435  13.504 -0.5703 -0.4914 -0.4420
 8573SOL    HW237356   4.649   4.458  13.355 -2.4025 -0.1039  1.1116
 8574SOL     OW37357   2.956   1.973  10.711  0.7440 -0.1295 -0.1583
 8574SOL    HW137358   2.914   1.907  10.656  1.5567 -1.0140  0.2837
 8574SOL    HW237359   2.904   2.052  10.728 -1.4364 -1.6051 -0.0108
 8575SOL     OW37360   1.728   3.188  10.493 -0.2277  0.0325 -0.0065
 8575SOL    HW137361   1.684   3.227  10.417  0.4749 -0.9430 -0.8959
 8575SOL    HW237362   1.820   3.188  10.467 -0.6526  1.2368 -1.4778
 8576SOL     OW37363   1.654   2.578  15.823  0.4446  0.0764 -0.0213
 8576SOL    HW137364   1.576   2.523  15.830  0.4982 -0.0826 -0.7042
 8576SOL    HW237365   1.614   2.661  15.848  3.3507  1.2334  0.6919
 8577SOL     OW37366   4.689   0.953  11.645  0.2660  0.2800  0.2810
 8577SOL    HW137367   4.594   0.963  11.633  0.4551  1.0043 -0.6283
 8577SOL    HW237368   4.701   1.037  11.688  0.3335 -0.0354  0.8823
 8578SOL     OW37369   2.114   3.586   1.284 -0.1095 -0.3758  0.9418
 8578SOL    HW137370   2.041   3.526   1.299 -1.5196  1.0193 -0.3510
 8578SOL    HW237371   2.158   3.539   1.213  1.2251  0.7000  1.0568
 8579SOL     OW37372   3.807   2.210   9.322  0.5972 -0.0176 -0.4488
 8579SOL    HW137373   3.854   2.282   9.364 -1.2850  0.6040  0.6264
 8579SOL    HW237374   3.884   2.153   9.318 -0.8835 -2.1656  1.1502
 8580SOL     OW37375   4.044   0.029   8.426  0.4607  0.0435 -0.7706
 8580SOL    HW137376   4.139   0.044   8.431  0.5030 -0.3807 -0.2785
 8580SOL    HW237377   4.031   0.111   8.378  0.4976  1.6077  1.8687
 8581SOL     OW37378   0.613   0.022   9.699  0.5327 -0.2789  0.7419
 8581SOL    HW137379   0.687   4.710   9.668  0.6237  0.0208  0.4617
 8581SOL    HW237380   0.588   4.700   9.767 -0.7663  0.0052  0.5233
 8582SOL     OW37381   2.841   0.631   7.601 -0.1851 -0.0484 -0.0371
 8582SOL    HW137382   2.929   0.614   7.569 -0.1970 -0.3624  0.0967
 8582SOL    HW237383   2.790   0.585   7.534 -1.9908  0.3662  1.0553
 8583SOL     OW37384   0.603   0.231  15.453 -0.1423 -0.0033  0.0059
 8583SOL    HW137385   0.530   0.241  15.391 -0.0913  0.5619  0.0329
 8583SOL    HW237386   0.625   0.139  15.446  1.9304  0.6508 -2.2325
 8584SOL     OW37387   1.912   1.305   7.232 -0.0434 -0.7375 -0.3549
 8584SOL    HW137388   1.943   1.381   7.182 -0.3213 -1.0373 -0.9917
 8584SOL    HW237389   1.859   1.260   7.166 -0.9412  1.3711 -1.1088
 8585SOL     OW37390   4.573   4.334   6.799 -0.0828  0.4090  0.0709
 8585SOL    HW137391   4.498   4.277   6.779 -0.6958  1.8578 -1.7468
 8585SOL    HW237392   4.587   4.305   6.889 -2.6429  2.5624  1.1279
 8586SOL     OW37393   2.776   1.420   6.808  0.3410 -0.0359  0.2243
 8586SOL    HW137394   2.719   1.496   6.804 -0.9941 -0.9297  2.0925
 8586SOL    HW237395   2.855   1.453   6.765  0.5179  0.5355  0.9761
 8587SOL     OW37396   0.770   0.521  17.439 -0.0631  0.1435  0.2259
 8587SOL    HW137397   0.747   0.570  17.518  1.2181  1.9438 -0.5164
 8587SOL    HW237398   0.853   0.476  17.451 -0.3206 -0.5468 -0.5374
 8588SOL     OW37399   2.937   3.954   4.787  0.7316 -0.4248 -0.5179
 8588SOL    HW137400   2.895   4.032   4.822 -0.4066 -0.7628 -1.1278
 8588SOL    HW237401   2.928   3.967   4.692  2.0626  0.4804 -0.5160
 8589SOL     OW37402   3.265   0.417   7.201  0.6683 -0.0427 -0.0111
 8589SOL    HW137403   3.197   0.382   7.143  0.4686  1.2096 -0.5178
 8589SOL    HW237404   3.269   0.342   7.261  1.6889 -0.5842 -0.7581
 8590SOL     OW37405   3.780   1.835   4.290  0.5935 -0.6112 -0.3996
 8590SOL    HW137406   3.733   1.753   4.302  0.2023 -0.8501 -3.5481
 8590SOL    HW237407   3.724   1.867   4.220  0.0054  1.4830  1.0146
 8591SOL     OW37408   0.743   3.089   7.505  0.1817 -0.1853  0.0067
 8591SOL    HW137409   0.823   3.044   7.478 -0.2419 -1.5594  1.0596
 8591SOL    HW237410   0.728   3.145   7.429 -0.1417 -2.6229 -1.7217
 8592SOL     OW37411   3.301   3.044   7.955 -0.2427  0.4278  0.4345
 8592SOL    HW137412   3.364   3.080   8.017  0.6310 -0.3545 -0.0026
 8592SOL    HW237413   3.356   3.009   7.884  3.5617  2.2453  2.4804
 8593SOL     OW37414   0.312   1.734   3.493 -1.0187  0.5252  0.3501
 8593SOL    HW137415   0.236   1.679   3.477  0.4799 -1.1476 -1.0399
 8593SOL    HW237416   0.379   1.675   3.528 -2.3769 -1.2775 -0.1276
 8594SOL     OW37417   1.557   2.414   4.175 -0.9920  0.2680  0.0110
 8594SOL    HW137418   1.520   2.380   4.094 -0.9583  0.0145  0.1016
 8594SOL    HW237419   1.482   2.469   4.198  0.8071  1.6654  2.6545
 8595SOL     OW37420   3.819   3.381   0.344  0.1313 -0.2430  0.1366
 8595SOL    HW137421   3.839   3.355   0.434 -2.2325 -1.0948  0.4209
 8595SOL    HW237422   3.842   3.473   0.360  0.1990 -0.4091  0.9913
 8596SOL     OW37423   0.307   2.592  15.089  0.3647  0.3168 -0.1698
 8596SOL    HW137424   0.313   2.677  15.045 -1.9270  0.4611 -0.2005
 8596SOL    HW237425   0.333   2.605  15.181  0.8942  0.2518 -0.3086
 8597SOL     OW37426   1.608   1.278   3.704  0.1626  0.0413  0.0022
 8597SOL    HW137427   1.568   1.196   3.677 -1.8609  0.5015  1.6059
 8597SOL    HW237428   1.553   1.306   3.777  0.5013 -0.5562  0.4839
 8598SOL     OW37429   1.853   3.279  14.420 -0.2948  0.2774  0.2408
 8598SOL    HW137430   1.908   3.310  14.348  0.2440  1.0226  0.9638
 8598SOL    HW237431   1.775   3.259  14.368 -0.0741 -2.8382  1.1296
 8599SOL     OW37432   3.894   2.359  11.477 -0.5304 -0.0474 -0.1327
 8599SOL    HW137433   3.972   2.326  11.522 -1.3900 -0.6458  0.9307
 8599SOL    HW237434   3.900   2.322  11.389 -0.0119  0.3699 -0.2709
 8600SOL     OW37435   2.281   1.344   1.978  0.5412 -0.3667 -0.2284
 8600SOL    HW137436   2.230   1.284   2.033 -0.6285  0.8946  0.0740
 8600SOL    HW237437   2.209   1.387   1.934 -0.9091 -1.7773  0.7626
 8601SOL     OW37438   0.881   2.980   4.546  0.6520 -0.2248 -0.1791
 8601SOL    HW137439   0.906   2.892   4.572 -1.9892 -1.2745 -1.1772
 8601SOL    HW237440   0.920   3.026   4.621  1.7656  0.6783 -1.3154
 8602SOL     OW37441   4.657   2.764  12.485 -0.2129 -0.2799  0.3147
 8602SOL    HW137442   4.623   2.836  12.433  0.1274 -1.1564 -1.1197
 8602SOL    HW237443   4.738   2.746  12.438 -0.9221  1.0180 -1.3820
 8603SOL     OW37444   1.358   1.005   5.955 -0.1885 -0.0877 -0.2975
 8603SOL    HW137445   1.414   1.044   6.022  0.8020  3.7396 -3.3686
 8603SOL    HW237446   1.415   0.929   5.944  1.5305  1.2114 -0.3310
 8604SOL     OW37447   4.726   0.998   6.447 -0.0186  1.2507 -0.0730
 8604SOL    HW137448   0.026   1.074   6.405  1.8819 -0.2302 -0.9492
 8604SOL    HW237449   4.650   1.037   6.491 -0.5844 -0.3860  0.4118
 8605SOL     OW37450   4.458   3.034   5.768 -0.2779  0.1692  0.8137
 8605SOL    HW137451   4.515   3.039   5.845 -0.2768  1.8041  0.7160
 8605SOL    HW237452   4.484   3.109   5.715 -2.6187  0.0258 -0.5255
 8606SOL     OW37453   0.564   0.941   6.514  0.1131 -0.0850 -0.5012
 8606SOL    HW137454   0.585   0.870   6.574  1.7219 -0.6277 -1.6961
 8606SOL    HW237455   0.586   1.014   6.571 -2.5763  1.2895 -1.2158
 8607SOL     OW37456   0.736   1.196   6.532 -0.4729  0.2007 -0.3575
 8607SOL    HW137457   0.824   1.233   6.544  0.4975 -1.2595 -2.9176
 8607SOL    HW237458   0.685   1.261   6.580 -2.8892 -1.5664 -0.5176
 8608SOL     OW37459   4.042   0.611   9.371 -0.0219 -0.0691 -0.6089
 8608SOL    HW137460   3.956   0.625   9.330  0.1963  0.2372 -0.9689
 8608SOL    HW237461   4.064   0.518   9.371  0.9158  0.1502  1.4331
 8609SOL     OW37462   2.136   0.725   3.778 -0.0443  0.8635 -0.3921
 8609SOL    HW137463   2.225   0.691   3.766  0.9929  3.8138 -0.9762
 8609SOL    HW237464   2.119   0.719   3.872 -3.2088 -0.0114 -1.0050
 8610SOL     OW37465   1.997   4.087   6.189 -0.2025  0.1078 -0.5024
 8610SOL    HW137466   1.916   4.094   6.239  1.3373 -1.2953  2.1439
 8610SOL    HW237467   1.968   4.052   6.105 -1.0945  2.0142 -0.9917
 8611SOL     OW37468   4.600   4.295  11.190 -0.5717  0.1919  0.2264
 8611SOL    HW137469   4.583   4.375  11.140  1.5284 -0.0505 -0.8822
 8611SOL    HW237470   4.692   4.305  11.216 -0.2772  0.1631 -0.8074
 8612SOL     OW37471   4.085   2.611  17.662  0.3385 -0.3534 -0.1743
 8612SOL    HW137472   4.159   2.659  17.698 -1.0398  0.7698  1.1520
 8612SOL    HW237473   4.064   2.569  17.745  0.9084  0.6083  0.4490
 8613SOL     OW37474   2.439   3.781   1.298 -0.1332  0.0204 -0.3831
 8613SOL    HW137475   2.348   3.806   1.287  0.5579  1.8930 -1.8404
 8613SOL    HW237476   2.485   3.858   1.264  2.0064 -1.2008 -0.2714
 8614SOL     OW37477   1.346   3.026   1.853 -0.1026 -0.0676  0.0887
 8614SOL    HW137478   1.286   3.093   1.884 -3.0772 -2.9825  0.5926
 8614SOL    HW237479   1.426   3.026   1.905  0.4408  1.9366 -0.7377
 8615SOL     OW37480   3.191   1.179   8.467  0.0897  0.5748  0.3608
 8615SOL    HW137481   3.267   1.234   8.481  0.9442 -0.3498 -0.5972
 8615SOL    HW237482   3.184   1.180   8.371  3.2193 -0.3807  0.1112
 8616SOL     OW37483   0.764   0.711   2.736  0.2017  0.4629  0.0105
 8616SOL    HW137484   0.684   0.721   2.684 -1.9371 -2.1921  2.7808
 8616SOL    HW237485   0.756   0.787   2.794 -1.2875 -0.3885  0.9449
 8617SOL     OW37486   3.416   4.723   4.013  0.7768 -0.0472  0.1403
 8617SOL    HW137487   3.446   0.054   3.956 -1.8094  0.3361 -0.7339
 8617SOL    HW237488   3.481   4.712   4.082  2.0388 -1.0032 -1.1972
 8618SOL     OW37489   3.192   2.062  11.710 -0.0082 -0.0642 -0.4769
 8618SOL    HW137490   3.270   2.015  11.679 -0.0659  0.2115 -1.0351
 8618SOL    HW237491   3.217   2.095  11.796  1.5696 -1.6193 -0.3417
 8619SOL     OW37492   2.234   2.504  15.038  0.1585  0.1336  0.3997
 8619SOL    HW137493   2.205   2.580  14.987 -1.7686 -1.0490 -0.2745
 8619SOL    HW237494   2.248   2.539  15.125 -1.2271  1.3318  0.1452
 8620SOL     OW37495   4.424   4.697   3.870 -0.0737  0.4366  0.0002
 8620SOL    HW137496   4.370   0.007   3.931 -0.8927  1.1647 -1.3398
 8620SOL    HW237497   4.369   4.697   3.792  1.2230  1.2355 -0.9058
 8621SOL     OW37498   2.241   4.542   1.069  0.4304  0.0554  0.2094
 8621SOL    HW137499   2.151   4.522   1.093 -0.3556  0.8767 -2.0459
 8621SOL    HW237500   2.290   4.485   1.129 -0.3427 -1.2716 -0.4087
 8622SOL     OW37501   0.955   4.112  10.355  0.2425  0.4484 -0.5097
 8622SOL    HW137502   0.889   4.080  10.293  1.5290 -2.9354 -0.1121
 8622SOL    HW237503   0.965   4.031  10.405  2.8189  0.4976 -0.9244
 8623SOL     OW37504   3.920   2.486  17.065  0.0356 -0.4786  0.4866
 8623SOL    HW137505   3.903   2.398  17.031  3.0056 -1.0899  0.6472
 8623SOL    HW237506   4.015   2.484  17.076 -0.0885 -0.2578  1.6559
 8624SOL     OW37507   2.037   0.287   2.658 -0.0374 -0.4966 -0.2581
 8624SOL    HW137508   2.104   0.254   2.598  2.6413  0.2715  2.3357
 8624SOL    HW237509   2.052   0.381   2.651 -1.1905 -0.3413 -0.7620
 8625SOL     OW37510   3.519   1.241  10.211  0.3632  0.3518  0.2889
 8625SOL    HW137511   3.438   1.209  10.172 -0.2203 -0.7810  2.4166
 8625SOL    HW237512   3.540   1.320  10.162  3.1168 -0.1665  0.6279
 8626SOL     OW37513   2.121   2.998   1.672  0.1185  0.3481  0.3448
 8626SOL    HW137514   2.128   3.063   1.602  1.1236  1.3028  1.3195
 8626SOL    HW237515   2.158   3.042   1.749 -0.5533 -0.5571  1.1945
 8627SOL     OW37516   3.840   1.648   4.645 -0.3205 -0.0248  0.2163
 8627SOL    HW137517   3.906   1.608   4.589 -2.6130 -2.2959 -0.8408
 8627SOL    HW237518   3.785   1.572   4.662 -0.8128  1.1878  4.0173
 8628SOL     OW37519   3.951   2.155  17.343  0.4431  0.7692  0.1778
 8628SOL    HW137520   4.002   2.126  17.419 -0.4020 -1.2359 -0.0131
 8628SOL    HW237521   3.895   2.224  17.379 -0.0246  0.1380  0.6631
 8629SOL     OW37522   3.975   2.723   6.539 -0.2281 -0.7291 -0.6044
 8629SOL    HW137523   3.992   2.662   6.611  2.7645  2.4633  1.3809
 8629SOL    HW237524   3.887   2.755   6.559  0.7768  2.6149 -1.5724
 8630SOL     OW37525   1.147   3.061  14.474  0.3542  0.0426  0.0949
 8630SOL    HW137526   1.101   3.107  14.544  1.2493 -1.0350  1.3880
 8630SOL    HW237527   1.162   3.140  14.422  1.4070 -2.3699 -3.2817
 8631SOL     OW37528   3.411   3.190   4.620  0.2234 -0.2282 -0.7709
 8631SOL    HW137529   3.352   3.233   4.682 -1.0495 -1.1368 -1.3559
 8631SOL    HW237530   3.394   3.245   4.543  1.1951  1.4855  0.2262
 8632SOL     OW37531   2.556   2.136   1.677  0.3850 -0.2583  0.0669
 8632SOL    HW137532   2.608   2.068   1.720 -0.2242  0.0713  1.3527
 8632SOL    HW237533   2.498   2.156   1.751 -1.5715 -0.6945 -1.3687
 8633SOL     OW37534   3.781   1.851   7.167  0.0038  0.5482 -0.0805
 8633SOL    HW137535   3.719   1.868   7.239  0.6569 -2.2589  1.1266
 8633SOL    HW237536   3.730   1.793   7.112  2.8418 -2.4691  0.4941
 8634SOL     OW37537   0.450   2.406   3.724 -0.1267  0.1609 -0.5162
 8634SOL    HW137538   0.493   2.445   3.648  1.8455 -1.8473 -0.4075
 8634SOL    HW237539   0.398   2.338   3.681 -0.7237  1.4603 -1.8592
 8635SOL     OW37540   0.466   2.916   6.873  0.6550 -0.4429 -0.5806
 8635SOL    HW137541   0.539   2.894   6.816  1.7378  1.3440  0.1163
 8635SOL    HW237542   0.513   2.953   6.948 -2.8502 -1.4499  2.1330
 8636SOL     OW37543   3.452   3.751   8.898  0.4639 -0.1798  0.2097
 8636SOL    HW137544   3.387   3.818   8.922 -1.1946 -1.3697 -0.9596
 8636SOL    HW237545   3.401   3.683   8.853  0.8356  0.7789 -1.6451
 8637SOL     OW37546   4.126   3.058   0.650  0.3358 -0.1347  0.7781
 8637SOL    HW137547   4.213   3.093   0.667  0.7897 -0.3642 -1.0640
 8637SOL    HW237548   4.152   2.970   0.624  1.3181  0.5961 -0.7270
 8638SOL     OW37549   3.234   1.640  12.730  0.4849 -0.1094 -0.4498
 8638SOL    HW137550   3.301   1.600  12.676  0.7434 -0.4480  0.1281
 8638SOL    HW237551   3.259   1.601  12.814 -0.5534  1.5385  0.6300
 8639SOL     OW37552   0.540   2.027   7.831 -0.4438 -0.2331 -0.4560
 8639SOL    HW137553   0.478   1.961   7.801 -2.0602  0.5499  1.1527
 8639SOL    HW237554   0.611   1.971   7.862 -1.5314 -1.3491  0.0427
 8640SOL     OW37555   2.124   3.771   3.375 -0.3485 -0.3138 -0.1994
 8640SOL    HW137556   2.085   3.720   3.304 -1.0309 -0.8984  0.5971
 8640SOL    HW237557   2.218   3.756   3.368 -0.7640 -1.7305 -2.8406
 8641SOL     OW37558   2.229   2.108  17.667  0.2563  0.3309  0.1518
 8641SOL    HW137559   2.187   2.091  17.751 -1.4241 -2.8305 -1.2892
 8641SOL    HW237560   2.251   2.019  17.639  1.2731  0.7236 -0.2944
 8642SOL     OW37561   3.056   1.333  11.719  0.4791 -0.3423 -0.2214
 8642SOL    HW137562   3.009   1.274  11.661  0.0149  0.2727 -0.4655
 8642SOL    HW237563   3.117   1.277  11.769  1.2656  1.5342  0.9219
 8643SOL     OW37564   3.513   4.548   7.097 -0.2961  0.2305 -0.0084
 8643SOL    HW137565   3.548   4.521   7.182 -1.3565  1.0848  0.7087
 8643SOL    HW237566   3.589   4.562   7.041 -1.8398 -0.2909 -2.2115
 8644SOL     OW37567   4.338   0.840   7.291  0.0450  0.0232 -0.6603
 8644SOL    HW137568   4.299   0.758   7.321  1.6561 -0.4455  0.1629
 8644SOL    HW237569   4.391   0.812   7.216 -0.8321 -2.1868 -0.4641
 8645SOL     OW37570   2.363   3.698   7.771 -0.1818 -0.0253 -0.3848
 8645SOL    HW137571   2.360   3.668   7.862 -2.1096 -0.9516 -0.7628
 8645SOL    HW237572   2.293   3.649   7.729  0.1758  0.2627 -1.3046
 8646SOL     OW37573   0.994   2.818   6.792  0.0325 -0.2244 -0.8393
 8646SOL    HW137574   0.973   2.903   6.831 -2.9042 -1.0639 -0.5836
 8646SOL    HW237575   1.033   2.848   6.710  1.0101  1.2549  0.1809
 8647SOL     OW37576   2.964   0.552   2.608 -0.4129 -0.2382  0.6436
 8647SOL    HW137577   2.985   0.525   2.697  0.2452  0.5110  0.7173
 8647SOL    HW237578   2.936   0.471   2.566  0.9436 -1.7849  2.7145
 8648SOL     OW37579   0.573   0.537   8.587 -0.2202 -0.0615  0.0273
 8648SOL    HW137580   0.663   0.515   8.608 -0.4789 -0.1103  1.0646
 8648SOL    HW237581   0.521   0.467   8.627  0.3771 -1.2452 -1.2680
 8649SOL     OW37582   2.874   3.717   2.123 -0.3009 -0.3914  0.7293
 8649SOL    HW137583   2.818   3.683   2.192 -1.3710  3.3005  1.6977
 8649SOL    HW237584   2.914   3.636   2.092 -1.3488  0.5720 -3.1102
 8650SOL     OW37585   0.341   0.999   9.432  0.0613  0.6494  0.0106
 8650SOL    HW137586   0.303   1.001   9.344 -0.8247 -0.0443  0.3762
 8650SOL    HW237587   0.372   1.089   9.437 -0.4523  0.8351 -0.1952
 8651SOL     OW37588   3.644   1.935  16.092 -0.0041  0.0364  0.2683
 8651SOL    HW137589   3.615   1.994  16.162 -0.8389 -0.4357  0.3148
 8651SOL    HW237590   3.564   1.892  16.065 -0.1330 -0.5695  1.6095
 8652SOL     OW37591   4.231   2.831   3.855 -0.0845  0.0481 -0.2755
 8652SOL    HW137592   4.167   2.901   3.839  1.2533  0.9006 -2.0143
 8652SOL    HW237593   4.178   2.757   3.828  1.0585 -0.1689 -1.9864
 8653SOL     OW37594   1.253   2.007   3.511 -0.6398 -0.2876  1.1365
 8653SOL    HW137595   1.300   1.935   3.469 -2.5305 -0.3128 -0.9244
 8653SOL    HW237596   1.163   1.978   3.498 -0.1487 -1.2825  0.0205
 8654SOL     OW37597   4.236   2.478  10.086  0.1979  0.8609  0.3733
 8654SOL    HW137598   4.166   2.417  10.111  0.2676  0.1298 -1.1766
 8654SOL    HW237599   4.195   2.561  10.112 -1.5441 -0.0157  0.4502
 8655SOL     OW37600   0.622   3.260  13.053  0.4409 -0.0779 -0.1661
 8655SOL    HW137601   0.549   3.317  13.030  0.0450 -0.5737 -0.1276
 8655SOL    HW237602   0.689   3.291  12.992  1.7665  0.2396  1.4359
 8656SOL     OW37603   0.737   4.415   6.724  0.1322 -0.2724 -0.7307
 8656SOL    HW137604   0.828   4.395   6.702  0.4021 -0.2106  0.3047
 8656SOL    HW237605   0.693   4.455   6.648 -0.6891 -1.4091 -0.8540
 8657SOL     OW37606   3.658   4.027   9.591  0.0694  0.0421  0.6996
 8657SOL    HW137607   3.660   4.025   9.496  1.1916  0.9026  0.7071
 8657SOL    HW237608   3.636   4.119   9.602  0.3312  0.1617  0.1713
 8658SOL     OW37609   0.420   0.088   8.047 -0.0477 -0.3145 -0.0587
 8658SOL    HW137610   0.510   0.055   8.049 -0.7205 -2.1807 -0.5044
 8658SOL    HW237611   0.413   0.163   8.106 -0.5008 -0.2562 -0.1877
 8659SOL     OW37612   4.030   3.212   3.676 -0.6749  0.4520 -0.4422
 8659SOL    HW137613   4.109   3.178   3.634 -2.2944 -0.4139 -2.7536
 8659SOL    HW237614   3.957   3.160   3.642 -0.6618  0.7842 -0.9883
 8660SOL     OW37615   1.173   4.156   4.709 -0.3147  0.1087 -0.1577
 8660SOL    HW137616   1.170   4.118   4.797 -0.6315  0.7785  0.1200
 8660SOL    HW237617   1.224   4.234   4.728  0.3825  0.1444 -2.2167
 8661SOL     OW37618   3.861   2.794   8.417  0.2868 -0.0790 -0.5581
 8661SOL    HW137619   3.779   2.746   8.404 -0.5410  0.7200  1.6700
 8661SOL    HW237620   3.834   2.878   8.456  1.9211  0.3144 -0.2911
 8662SOL     OW37621   1.680   4.662  17.235 -0.0275  0.3602 -0.4700
 8662SOL    HW137622   1.738   4.646  17.161 -1.4398  0.5414 -1.6289
 8662SOL    HW237623   1.669   0.018  17.235 -0.0828  0.3536 -0.5680
 8663SOL     OW37624   3.718   0.556   7.618  0.4344 -0.1612  0.3543
 8663SOL    HW137625   3.753   0.616   7.684 -0.3220  0.8040 -0.1249
 8663SOL    HW237626   3.799   0.508   7.599 -1.0883 -1.8851 -1.6429
 8664SOL     OW37627   3.274   3.924   3.435 -0.1489 -0.0219  0.1396
 8664SOL    HW137628   3.313   3.852   3.485  2.9051  0.5620 -1.4118
 8664SOL    HW237629   3.228   3.883   3.362 -2.9383 -0.2575  2.0134
 8665SOL     OW37630   3.246   4.223   5.931 -0.0951 -0.3736 -0.3123
 8665SOL    HW137631   3.155   4.207   5.908  0.0173  0.1705 -1.1210
 8665SOL    HW237632   3.265   4.289   5.865 -1.0376  1.4433  1.2466
 8666SOL     OW37633   4.187   4.205  12.712 -0.1585  0.3097  0.0977
 8666SOL    HW137634   4.144   4.290  12.704  0.1779  0.3803 -0.9914
 8666SOL    HW237635   4.189   4.178  12.620 -1.3201  1.7007 -0.3326
 8667SOL     OW37636   2.749   2.001  11.183 -0.5329  0.1174 -0.0642
 8667SOL    HW137637   2.721   1.999  11.092  1.1193  2.5431 -0.6121
 8667SOL    HW237638   2.791   2.085  11.197  3.1715 -1.7896  0.2638
 8668SOL     OW37639   2.167   1.186   6.187 -0.3535 -0.0658  0.7878
 8668SOL    HW137640   2.093   1.230   6.146  1.0028  2.3512  0.9336
 8668SOL    HW237641   2.139   1.095   6.193  0.8760 -0.3890  1.5235
 8669SOL     OW37642   1.679   1.558  11.995  0.3389 -0.0521  0.1111
 8669SOL    HW137643   1.621   1.508  11.938 -1.5158  1.4496  0.6872
 8669SOL    HW237644   1.691   1.633  11.937 -1.4651  0.6556  0.6404
 8670SOL     OW37645   0.236   3.130   1.207 -0.1239  0.0731  0.2307
 8670SOL    HW137646   0.314   3.138   1.263 -0.1337  0.8102  0.1454
 8670SOL    HW237647   0.258   3.194   1.138 -0.8240  0.9456  0.8203
 8671SOL     OW37648   0.914   0.804  13.378 -0.2054 -0.0948  0.3688
 8671SOL    HW137649   0.847   0.873  13.373  0.7921  0.7825 -0.7301
 8671SOL    HW237650   0.868   0.747  13.440  0.2940  0.6041  1.3881
 8672SOL     OW37651   0.737   2.994  16.481  0.0611 -0.1856  0.1451
 8672SOL    HW137652   0.678   2.965  16.411  1.1098 -1.9649  0.0027
 8672SOL    HW237653   0.688   3.072  16.505  0.0100 -0.4642  0.9520
 8673SOL     OW37654   0.787   3.618   8.936  0.1929  0.6891 -0.2684
 8673SOL    HW137655   0.780   3.631   9.030 -1.0242 -1.2590 -0.0856
 8673SOL    HW237656   0.879   3.611   8.912 -0.0500 -3.9290  0.2783
 8674SOL     OW37657   2.609   0.278   8.634 -0.2284 -0.0469  0.5171
 8674SOL    HW137658   2.650   0.233   8.560  2.0436 -1.0074  2.3835
 8674SOL    HW237659   2.516   0.272   8.610  0.7631 -2.0748 -2.8270
 8675SOL     OW37660   4.455   1.841   3.751 -0.3837 -0.3279 -0.1152
 8675SOL    HW137661   4.516   1.858   3.823  2.3249 -0.6277 -2.3624
 8675SOL    HW237662   4.379   1.810   3.799 -0.4029 -1.6718 -1.0281
 8676SOL     OW37663   0.883   1.067   9.695  0.3394 -0.2792  0.0131
 8676SOL    HW137664   0.862   0.993   9.639  0.8193 -0.1183 -0.3812
 8676SOL    HW237665   0.943   1.030   9.760  0.9756 -0.5813 -0.7422
 8677SOL     OW37666   2.052   3.215   2.017  0.2782  0.3941 -0.0537
 8677SOL    HW137667   2.141   3.189   1.994  0.8261  1.6825  0.5722
 8677SOL    HW237668   2.028   3.294   1.967 -1.9109  0.6942  1.4580
 8678SOL     OW37669   0.963   4.065   9.668  0.0167  0.5609  0.3368
 8678SOL    HW137670   0.978   3.971   9.679  0.2607  0.7743  1.7830
 8678SOL    HW237671   1.029   4.097   9.606 -0.8264  0.4868 -0.5982
 8679SOL     OW37672   2.697   0.854   7.240 -0.2698 -0.2645  0.0269
 8679SOL    HW137673   2.742   0.896   7.314  1.2279 -0.9970 -0.4721
 8679SOL    HW237674   2.634   0.919   7.211 -0.9013 -0.0714  1.8086
 8680SOL     OW37675   1.355   4.346   4.802 -0.6089 -0.1327  0.3129
 8680SOL    HW137676   1.422   4.338   4.735  0.3724  1.7718  1.0716
 8680SOL    HW237677   1.396   4.334   4.887 -0.0437  1.3230  0.2386
 8681SOL     OW37678   1.584   1.784   6.095  0.4086  0.2068  0.4470
 8681SOL    HW137679   1.609   1.841   6.022 -0.1211 -2.4395 -1.7814
 8681SOL    HW237680   1.492   1.805   6.113 -0.0522 -0.2653 -1.3683
 8682SOL     OW37681   1.330   3.635  16.286 -0.3791  0.1198  0.0269
 8682SOL    HW137682   1.283   3.654  16.367 -0.7896  1.5757 -0.5449
 8682SOL    HW237683   1.262   3.664  16.224  1.2477  3.3231 -0.2883
 8683SOL     OW37684   3.844   1.364   0.593 -1.0807 -0.1257 -0.1208
 8683SOL    HW137685   3.762   1.371   0.545 -0.9163  3.6820  0.1929
 8683SOL    HW237686   3.884   1.294   0.540 -0.9565 -2.4170  2.9595
 8684SOL     OW37687   0.462   1.566   6.040 -0.7457  0.1811  0.3109
 8684SOL    HW137688   0.542   1.572   6.093 -1.1586 -1.3347  1.1010
 8684SOL    HW237689   0.485   1.486   5.993 -2.7021 -1.2004  1.7383
 8685SOL     OW37690   2.041   4.704   1.343  0.1607  0.3926 -1.1775
 8685SOL    HW137691   2.051   4.613   1.314  1.8039  0.1121  0.2778
 8685SOL    HW237692   1.951   4.714   1.314 -0.7991  0.2255  1.7645
 8686SOL     OW37693   2.491   2.713   0.126 -0.4749  0.5768  0.5487
 8686SOL    HW137694   2.450   2.682   0.046 -0.3410  0.1726  0.6395
 8686SOL    HW237695   2.422   2.685   0.185  0.2418 -0.9656  0.6413
 8687SOL     OW37696   2.846   3.988   7.477  0.2261 -0.4089  0.0369
 8687SOL    HW137697   2.849   4.063   7.418  1.5813 -0.4589  0.0468
 8687SOL    HW237698   2.933   3.950   7.468  0.6923  1.0612 -1.6278
 8688SOL     OW37699   0.133   1.678   6.541 -0.3152 -0.1056  0.2295
 8688SOL    HW137700   0.177   1.728   6.473  0.6854  2.9984  3.1439
 8688SOL    HW237701   0.125   1.749   6.605 -1.1690 -2.1403  2.3466
 8689SOL     OW37702   2.651   2.000  16.551 -0.7538  0.2799  0.1876
 8689SOL    HW137703   2.682   2.024  16.638  2.4519  1.9749 -1.4352
 8689SOL    HW237704   2.658   1.905  16.553 -0.5087  0.3054  0.6164
 8690SOL     OW37705   3.754   2.658  15.944 -0.5115 -0.5041  0.4984
 8690SOL    HW137706   3.831   2.688  15.993  0.4470 -1.1682 -0.6302
 8690SOL    HW237707   3.735   2.570  15.977  0.5945 -1.8698 -2.5495
 8691SOL     OW37708   3.798   1.753  10.866  0.2710  0.1793  0.0752
 8691SOL    HW137709   3.788   1.682  10.802  2.1604 -0.1288  0.1160
 8691SOL    HW237710   3.876   1.730  10.918  0.5402 -1.7976 -1.1997
 8692SOL     OW37711   4.718   2.186   7.654 -0.2980 -0.3534  0.0275
 8692SOL    HW137712   0.031   2.107   7.665 -0.3432 -0.3415  0.3230
 8692SOL    HW237713   4.653   2.178   7.723 -0.3236 -1.1669 -0.0834
 8693SOL     OW37714   4.455   1.850   8.794  0.4244  0.5212 -0.0935
 8693SOL    HW137715   4.408   1.902   8.859 -1.3634 -0.5676 -0.5114
 8693SOL    HW237716   4.503   1.786   8.845  1.7615  1.4562 -0.1892
 8694SOL     OW37717   4.533   3.792  12.346 -0.5325  0.0857 -0.2674
 8694SOL    HW137718   4.513   3.834  12.430 -0.5470 -2.5192  1.0310
 8694SOL    HW237719   4.477   3.837  12.283  0.2146  1.7130  0.2292
 8695SOL     OW37720   0.762   4.501  12.443 -0.0972 -0.3465 -0.1164
 8695SOL    HW137721   0.772   4.416  12.399  4.1870 -0.6562  1.4839
 8695SOL    HW237722   0.691   4.482  12.505 -0.9351  1.2834 -0.5832
 8696SOL     OW37723   4.440   2.761  13.259  1.0556 -0.2942  0.8567
 8696SOL    HW137724   4.401   2.759  13.346 -0.3030 -0.3067  0.2506
 8696SOL    HW237725   4.520   2.711  13.275  1.0030 -0.0671  1.8044
 8697SOL     OW37726   0.831   0.257  10.082 -0.2006 -0.2776 -0.0051
 8697SOL    HW137727   0.759   0.203  10.051 -0.0958 -0.4569  0.0670
 8697SOL    HW237728   0.895   0.245  10.012  2.2370  4.7819  1.2980
 8698SOL     OW37729   4.650   3.990  13.057 -0.6156 -0.4307 -0.0140
 8698SOL    HW137730   4.703   3.947  13.124 -2.3468 -0.5480  1.2944
 8698SOL    HW237731   4.660   4.082  13.082  1.9816 -0.1896 -1.8619
 8699SOL     OW37732   1.240   3.337  14.227 -0.1906 -0.2470 -0.1856
 8699SOL    HW137733   1.179   3.380  14.288 -0.1610 -1.2318  0.5304
 8699SOL    HW237734   1.227   3.394  14.151 -1.1839  0.6741  0.6773
 8700SOL     OW37735   4.291   0.210  17.569 -0.2311 -0.0606  0.0598
 8700SOL    HW137736   4.366   0.152  17.570  0.1854  0.4812  3.2655
 8700SOL    HW237737   4.331   0.275  17.512 -2.0498 -0.7362 -1.9823
 8701SOL     OW37738   3.977   0.470  17.546 -0.0258  0.7413 -0.2442
 8701SOL    HW137739   3.892   0.435  17.573  0.1962  1.9566  2.0407
 8701SOL    HW237740   4.022   0.386  17.549  0.5350  1.0819  0.7799
 8702SOL     OW37741   3.442   1.212   6.345  0.1901 -0.1613  0.2637
 8702SOL    HW137742   3.535   1.204   6.363  0.2225 -0.2889  0.0336
 8702SOL    HW237743   3.430   1.175   6.258  1.1594  0.6566 -0.2219
 8703SOL     OW37744   4.313   3.021   8.542 -0.0884 -0.2280 -0.3194
 8703SOL    HW137745   4.393   3.044   8.494 -0.1064  0.5044  0.0058
 8703SOL    HW237746   4.264   2.968   8.479  3.6981 -2.6906 -1.1776
 8704SOL     OW37747   3.563   3.771  15.254 -0.1317  0.1513  0.5313
 8704SOL    HW137748   3.647   3.734  15.226 -0.2776  1.0087 -1.1164
 8704SOL    HW237749   3.518   3.688  15.263 -1.3756  0.6801 -0.7488
 8705SOL     OW37750   1.833   3.669  10.118  0.2683  0.7878  0.0677
 8705SOL    HW137751   1.858   3.591  10.069  1.2246  1.1943 -0.0890
 8705SOL    HW237752   1.760   3.643  10.174 -0.0811  0.4922 -0.5259
 8706SOL     OW37753   3.172   0.701   7.208  0.0759 -0.6652 -0.2295
 8706SOL    HW137754   3.174   0.605   7.202 -2.2623 -0.7189  0.0735
 8706SOL    HW237755   3.148   0.720   7.117  0.9176 -1.7134 -0.6697
 8707SOL     OW37756   2.959   2.421   6.958 -0.0486 -0.4874 -0.3659
 8707SOL    HW137757   3.050   2.432   6.930 -0.4686 -0.4232 -1.7209
 8707SOL    HW237758   2.954   2.326   6.952  2.4797 -0.5765 -1.1429
 8708SOL     OW37759   4.378   4.240   2.584  0.5646 -0.0942  0.7251
 8708SOL    HW137760   4.287   4.219   2.604  1.1055 -1.6767  1.4980
 8708SOL    HW237761   4.424   4.157   2.595 -2.2708 -1.9016 -0.9617
 8709SOL     OW37762   0.614   1.032   6.804 -0.3390 -0.6697  0.2328
 8709SOL    HW137763   0.691   1.089   6.806 -2.5701  2.4656 -2.4361
 8709SOL    HW237764   0.553   1.098   6.838 -0.1383 -0.5330  0.3297
 8710SOL     OW37765   0.443   3.089   8.947 -0.3741 -0.2672  0.3003
 8710SOL    HW137766   0.499   3.094   9.024 -0.0134 -2.0128  0.1390
 8710SOL    HW237767   0.364   3.065   8.997  0.1160 -0.8194  0.8011
 8711SOL     OW37768   2.547   2.698   3.855 -0.2654 -0.3458  0.0784
 8711SOL    HW137769   2.638   2.668   3.859  0.0863  1.0666  2.5518
 8711SOL    HW237770   2.548   2.776   3.911  1.3333 -0.5080  0.2818
 8712SOL     OW37771   1.060   1.664   4.614  0.4184 -0.0634  0.4601
 8712SOL    HW137772   1.051   1.755   4.641  1.7702  0.2503 -0.1020
 8712SOL    HW237773   1.015   1.676   4.530 -0.8058  0.1165  1.1535
 8713SOL     OW37774   3.149   3.408   5.917  0.0073  0.8278  0.3856
 8713SOL    HW137775   3.072   3.428   5.970  0.6991  1.9561  0.9448
 8713SOL    HW237776   3.108   3.365   5.841  0.5375  1.5846 -0.3222
 8714SOL     OW37777   0.460   1.559   6.434  0.1187  0.0505 -0.3405
 8714SOL    HW137778   0.427   1.618   6.502  0.4490 -0.3918  0.1937
 8714SOL    HW237779   0.526   1.615   6.393 -1.0725  1.0096 -0.9520
 8715SOL     OW37780   2.912   1.213  14.826 -0.7035 -0.0862  0.1447
 8715SOL    HW137781   2.947   1.246  14.743 -0.6621  0.8035  0.5173
 8715SOL    HW237782   2.947   1.283  14.881  0.5191 -0.9481  0.4304
 8716SOL     OW37783   0.785   3.060   6.503  0.0671 -0.2766 -0.1783
 8716SOL    HW137784   0.691   3.077   6.491  0.0586  0.0694  0.3670
 8716SOL    HW237785   0.791   3.004   6.425 -2.2932 -0.8643  0.0642
 8717SOL     OW37786   4.011   1.580   7.443 -0.2860  0.0962  0.0920
 8717SOL    HW137787   3.957   1.505   7.419 -1.8994  0.9934  0.9505
 8717SOL    HW237788   3.972   1.615   7.523 -1.5859  1.0013 -0.9345
 8718SOL     OW37789   2.099   0.129  12.180  0.3050 -0.2827  0.3167
 8718SOL    HW137790   2.157   0.087  12.243 -1.0129 -2.6693 -0.0764
 8718SOL    HW237791   2.149   0.200  12.138  0.2297  0.2814  1.1768
 8719SOL     OW37792   1.047   1.683   5.775 -0.0243  0.1684 -0.3069
 8719SOL    HW137793   1.082   1.673   5.686  0.9899  0.5517  0.0560
 8719SOL    HW237794   1.128   1.679   5.825  0.8260  0.0195 -1.7025
 8720SOL     OW37795   1.083   2.287   7.046 -0.9719  0.3594 -0.0811
 8720SOL    HW137796   1.023   2.242   7.105  0.4002  0.6164  1.5111
 8720SOL    HW237797   1.110   2.363   7.097 -1.1658  0.3448  0.0416
 8721SOL     OW37798   0.092   3.170   2.614 -0.6043 -0.1569  0.3005
 8721SOL    HW137799   0.132   3.196   2.532 -0.3935 -1.9373 -0.1755
 8721SOL    HW237800   0.077   3.078   2.589  3.3322 -0.8291  0.4536
 8722SOL     OW37801   1.838   1.204  13.767  0.1361  0.0243 -0.2241
 8722SOL    HW137802   1.845   1.114  13.800 -2.3609  0.1036  0.5292
 8722SOL    HW237803   1.746   1.221  13.789  0.3692  0.0164  0.7551
 8723SOL     OW37804   3.234   1.341   1.100 -0.0581 -0.0437 -0.0186
 8723SOL    HW137805   3.319   1.331   1.143  0.2850 -0.7450 -0.8739
 8723SOL    HW237806   3.256   1.301   1.016 -0.6497  2.2209 -1.2551
 8724SOL     OW37807   4.613   3.995   2.899 -0.4888  0.3998  0.6270
 8724SOL    HW137808   4.654   4.072   2.938  2.7698 -1.5128  1.0296
 8724SOL    HW237809   4.520   4.018   2.903 -1.2536 -2.6540  0.8265
 8725SOL     OW37810   2.554   1.573   3.068  0.1003  0.3777  0.2972
 8725SOL    HW137811   2.543   1.488   3.110  1.4752  0.5505  1.0006
 8725SOL    HW237812   2.614   1.547   2.998 -1.6256  1.7708 -1.7186
 8726SOL     OW37813   3.013   0.484   6.510 -0.1761  0.2224  0.1958
 8726SOL    HW137814   2.999   0.399   6.470 -0.5141  0.5030 -0.2912
 8726SOL    HW237815   3.061   0.528   6.440 -1.3276  0.2718 -0.5664
 8727SOL     OW37816   4.102   1.031  10.368  0.1367 -0.2554 -0.0580
 8727SOL    HW137817   4.037   1.063  10.306  1.0531 -1.4630 -1.6221
 8727SOL    HW237818   4.048   0.984  10.432 -1.4947  2.3946  0.5492
 8728SOL     OW37819   3.291   2.943  11.560 -0.5459  0.4041  0.8158
 8728SOL    HW137820   3.322   3.031  11.543  1.3826 -0.5324 -0.4618
 8728SOL    HW237821   3.233   2.946  11.636 -0.1426 -0.7566  1.1688
 8729SOL     OW37822   1.087   0.918  14.155  0.0080 -0.0347 -0.1994
 8729SOL    HW137823   1.103   1.012  14.156 -1.9688  0.3045 -1.2322
 8729SOL    HW237824   1.098   0.897  14.248 -0.4020 -0.0901 -0.1614
 8730SOL     OW37825   4.126   2.087   8.240 -0.1149 -0.3049 -0.3191
 8730SOL    HW137826   4.149   2.031   8.166 -2.7292  0.0495 -1.3824
 8730SOL    HW237827   4.038   2.108   8.210 -0.5728 -0.1114  1.1833
 8731SOL     OW37828   1.248   4.632   2.294  0.9597  0.1845 -0.5591
 8731SOL    HW137829   1.261   4.539   2.309 -1.1457 -0.2683 -1.4876
 8731SOL    HW237830   1.157   4.629   2.263  0.5125 -1.9278  1.0120
 8732SOL     OW37831   2.218   1.482   3.967 -0.1126 -0.1971 -0.4358
 8732SOL    HW137832   2.279   1.535   3.915 -1.2240 -0.1534 -1.7079
 8732SOL    HW237833   2.138   1.523   3.934 -0.6788  0.5066  1.8121
 8733SOL     OW37834   2.786   1.109   4.849  0.1525  0.2242 -0.0029
 8733SOL    HW137835   2.828   1.187   4.813  1.5666 -0.0570  1.0508
 8733SOL    HW237836   2.857   1.077   4.905  1.6495 -0.7054 -2.4676
 8734SOL     OW37837   1.178   3.680   5.011 -0.5839  0.6675  0.0078
 8734SOL    HW137838   1.258   3.708   4.966  1.4459 -2.6452  1.5749
 8734SOL    HW237839   1.117   3.661   4.940  1.1783 -1.7128 -0.8632
 8735SOL     OW37840   0.428   0.050   9.165  0.3188 -0.0211  0.1116
 8735SOL    HW137841   0.469   0.067   9.250  1.0062 -0.8240 -0.0579
 8735SOL    HW237842   0.351   0.008   9.205  1.2985 -1.7100  0.2308
 8736SOL     OW37843   3.670   1.729  15.793  0.4617 -0.6736  0.6274
 8736SOL    HW137844   3.600   1.794  15.789  0.5595 -0.4826  2.0583
 8736SOL    HW237845   3.743   1.781  15.759 -1.0975 -0.7220 -2.7225
 8737SOL     OW37846   4.204   4.080   5.756  0.5114 -0.4119  0.2313
 8737SOL    HW137847   4.152   4.088   5.676  0.5381 -0.5303  0.2008
 8737SOL    HW237848   4.189   4.165   5.795 -2.6513 -1.6152  1.6131
 8738SOL     OW37849   0.983   2.586   1.397  0.1477  0.1585  0.1681
 8738SOL    HW137850   0.983   2.520   1.466 -0.5623 -0.3468 -0.3133
 8738SOL    HW237851   1.063   2.639   1.404  1.0872 -1.0569 -1.5983
 8739SOL     OW37852   1.344   1.828   9.261 -0.1231 -0.2506  0.1749
 8739SOL    HW137853   1.435   1.816   9.288 -0.1617  3.5700  2.0531
 8739SOL    HW237854   1.355   1.851   9.169 -1.7650 -1.1745 -0.2491
 8740SOL     OW37855   1.114   1.969   4.593 -0.2089  0.7593  0.5129
 8740SOL    HW137856   1.195   1.923   4.570 -0.7341  1.2393 -2.3287
 8740SOL    HW237857   1.088   2.020   4.516 -3.7815 -0.1593  1.0783
 8741SOL     OW37858   1.956   4.645  10.727  0.4645  0.5781  0.2073
 8741SOL    HW137859   1.871   4.686  10.712 -0.2907 -0.9433  0.3528
 8741SOL    HW237860   1.950   4.577  10.661  2.2849  0.3369  0.2807
 8742SOL     OW37861   1.373   3.530   4.686 -0.5423  0.0757 -0.3389
 8742SOL    HW137862   1.359   3.551   4.594  1.2425  0.3737 -0.5462
 8742SOL    HW237863   1.464   3.503   4.694 -0.8353 -0.0814  2.5894
 8743SOL     OW37864   3.140   2.461   1.491  0.1302  0.3461  0.1842
 8743SOL    HW137865   3.164   2.522   1.421 -1.5382  0.6071 -0.1559
 8743SOL    HW237866   3.046   2.475   1.499 -0.0171 -0.7373  0.2345
 8744SOL     OW37867   4.388   3.376   1.935  0.3388 -0.1096 -0.3226
 8744SOL    HW137868   4.449   3.450   1.943  0.7373 -0.5516  0.6965
 8744SOL    HW237869   4.306   3.415   1.906  0.7005 -0.5099 -1.8981
 8745SOL     OW37870   0.336   3.456  11.706  0.2301  0.6773  0.2025
 8745SOL    HW137871   0.375   3.523  11.763 -2.6432  2.1995  0.3758
 8745SOL    HW237872   0.376   3.485  11.624  0.4484 -0.9901 -0.2766
 8746SOL     OW37873   3.732   1.704  13.491 -0.4171  0.0745  0.5245
 8746SOL    HW137874   3.657   1.717  13.550 -0.8370 -1.2178  0.2772
 8746SOL    HW237875   3.703   1.776  13.435 -2.2127 -1.0127  0.0476
 8747SOL     OW37876   0.392   3.092  11.382  0.3799 -0.1151  0.4380
 8747SOL    HW137877   0.371   3.171  11.431  1.4312  0.8926 -0.7436
 8747SOL    HW237878   0.411   3.131  11.297 -2.7711 -1.3159 -0.8060
 8748SOL     OW37879   3.655   3.259   0.987 -0.4838  0.7977  0.0916
 8748SOL    HW137880   3.663   3.259   1.083  3.7938  1.1364 -0.2344
 8748SOL    HW237881   3.720   3.194   0.958 -0.3791  0.0403  2.0129
 8749SOL     OW37882   2.927   0.163  10.997 -0.4953 -0.3379  0.1292
 8749SOL    HW137883   2.845   0.164  11.047  1.0492  0.3214  2.6794
 8749SOL    HW237884   2.897   0.198  10.914  0.4576  1.9671  0.7630
 8750SOL     OW37885   3.111   0.398   7.969 -0.2125  0.4110 -0.4773
 8750SOL    HW137886   3.021   0.373   7.950 -0.1587 -1.0973  1.2776
 8750SOL    HW237887   3.153   0.320   8.006  0.4304  0.0900 -1.8850
 8751SOL     OW37888   2.392   4.436   1.262 -0.4666 -0.3117 -0.2512
 8751SOL    HW137889   2.469   4.485   1.233 -0.0133 -1.3677 -0.8466
 8751SOL    HW237890   2.377   4.479   1.346  0.1498  1.0427 -0.8331
 8752SOL     OW37891   0.553   0.343   6.315 -0.3121  0.2379 -0.5714
 8752SOL    HW137892   0.632   0.318   6.268  1.0688  1.1752  1.2550
 8752SOL    HW237893   0.574   0.325   6.406  2.2882 -2.1102 -1.6499
 8753SOL     OW37894   2.501   2.841  10.525  0.5955 -1.3509 -0.1963
 8753SOL    HW137895   2.446   2.765  10.505  0.5871 -0.6357 -2.9675
 8753SOL    HW237896   2.532   2.822  10.613 -0.9613 -0.5963  0.5079
 8754SOL     OW37897   0.060   4.340   4.904  0.3507  0.3562  0.4474
 8754SOL    HW137898   0.033   4.399   4.834  2.1867 -0.2794 -0.8010
 8754SOL    HW237899   0.103   4.273   4.852 -0.4509 -0.1614  0.4510
 8755SOL     OW37900   4.392   3.956   3.296 -0.2597  0.6825 -0.4649
 8755SOL    HW137901   4.464   3.894   3.296 -0.6322  0.2525 -0.5883
 8755SOL    HW237902   4.353   3.928   3.378  0.1225  2.4891  0.3444
 8756SOL     OW37903   1.048   0.713  16.726 -0.0221 -0.4304  0.5109
 8756SOL    HW137904   1.017   0.708  16.817 -1.3400 -0.7867  0.0448
 8756SOL    HW237905   0.985   0.773  16.685  1.7867  0.2594 -1.2380
 8757SOL     OW37906   1.636   2.166   8.213 -0.6605 -0.2812  0.0345
 8757SOL    HW137907   1.669   2.256   8.205 -0.9050 -0.2190 -0.2620
 8757SOL    HW237908   1.621   2.161   8.307 -3.9189 -0.1004 -0.4788
 8758SOL     OW37909   4.131   2.569   3.455  0.4992  0.3404  0.0334
 8758SOL    HW137910   4.094   2.633   3.516 -1.4951 -1.4903  0.7195
 8758SOL    HW237911   4.224   2.577   3.478  0.3651 -1.9479  1.3100
 8759SOL     OW37912   1.945   4.433   5.265 -0.2823  0.0402 -0.4113
 8759SOL    HW137913   1.967   4.504   5.325 -0.5648 -0.3667  0.1710
 8759SOL    HW237914   1.996   4.359   5.299  0.3668 -0.0875 -1.6763
 8760SOL     OW37915   2.381   1.927   5.169 -0.1387 -0.1323 -0.5716
 8760SOL    HW137916   2.346   1.872   5.098 -0.7821  1.1060 -1.2080
 8760SOL    HW237917   2.467   1.933   5.127  0.7830  0.1700  1.3930
 8761SOL     OW37918   3.653   1.676   1.857  0.2434  0.3417  0.0365
 8761SOL    HW137919   3.613   1.737   1.920 -0.9954  0.6461 -1.0543
 8761SOL    HW237920   3.595   1.704   1.786 -0.8792  2.3566  1.7386
 8762SOL     OW37921   1.044   2.962  15.901  0.3648  0.3575  0.0515
 8762SOL    HW137922   0.956   2.951  15.938 -0.2884  1.1525 -1.2841
 8762SOL    HW237923   1.042   2.885  15.844  1.8187  0.5802 -0.2806
 8763SOL     OW37924   2.518   4.044   2.513 -0.8056  0.1538 -0.1566
 8763SOL    HW137925   2.544   4.093   2.435  2.6058 -1.2176  0.1310
 8763SOL    HW237926   2.560   4.094   2.582 -0.3107 -0.9427  0.3336
 8764SOL     OW37927   3.593   3.013  17.025  0.4294  0.9433  0.0287
 8764SOL    HW137928   3.610   2.928  16.985  1.0420 -0.0709  2.4510
 8764SOL    HW237929   3.500   3.000  17.046  0.3004 -2.1368 -2.5258
 8765SOL     OW37930   0.589   3.403   0.537  0.0147 -0.1262 -0.6281
 8765SOL    HW137931   0.549   3.481   0.575 -0.2924 -1.2313  1.3060
 8765SOL    HW237932   0.530   3.328   0.538  0.1489 -0.1881  2.5706
 8766SOL     OW37933   3.984   3.004   1.448  0.3043 -0.0524  0.5784
 8766SOL    HW137934   4.010   3.091   1.479 -1.9146  0.0455  2.1376
 8766SOL    HW237935   3.902   3.023   1.403  0.0751 -0.9836  0.6097
 8767SOL     OW37936   0.597   1.830   5.266 -0.2847 -0.3441  0.2806
 8767SOL    HW137937   0.632   1.785   5.343  0.4492 -0.8442 -0.3544
 8767SOL    HW237938   0.680   1.855   5.225 -0.3521 -1.5958 -0.6254
 8768SOL     OW37939   0.046   1.428  10.791 -0.2291 -0.1887 -0.2803
 8768SOL    HW137940   4.735   1.493  10.744 -0.7534 -1.2663 -1.2125
 8768SOL    HW237941   4.732   1.414  10.869 -0.8688 -0.4487 -0.7723
 8769SOL     OW37942   3.368   0.704   3.083 -0.5882  0.1278 -0.0744
 8769SOL    HW137943   3.402   0.785   3.120  0.6358  0.0061 -0.9231
 8769SOL    HW237944   3.396   0.630   3.136 -1.3978  0.0386  0.2345
 8770SOL     OW37945   1.458   1.552  12.924 -0.2500 -0.3675 -0.2506
 8770SOL    HW137946   1.369   1.517  12.933 -0.4704  0.0888 -0.6449
 8770SOL    HW237947   1.496   1.471  12.888 -0.0631 -1.0465  1.4715
 8771SOL     OW37948   2.020   1.822   1.836 -0.0100 -0.0040 -0.6161
 8771SOL    HW137949   2.009   1.917   1.841 -0.4898  0.0207 -2.0832
 8771SOL    HW237950   1.975   1.803   1.753  1.0682 -1.9571 -0.7462
 8772SOL     OW37951   1.248   1.523  10.449 -0.4634 -0.3979 -0.6963
 8772SOL    HW137952   1.155   1.528  10.427 -0.8166 -0.0626  0.8872
 8772SOL    HW237953   1.274   1.431  10.457  1.1085  0.1053 -0.0001
 8773SOL     OW37954   0.486   3.511   2.937  0.1099  0.2495 -0.1513
 8773SOL    HW137955   0.543   3.525   2.862  1.4884  1.4992  1.1263
 8773SOL    HW237956   0.409   3.564   2.914 -0.4708 -0.0991  0.9978
 8774SOL     OW37957   4.394   1.080   9.729 -0.5583 -0.2161 -0.1353
 8774SOL    HW137958   4.356   1.157   9.773 -2.3331 -0.5311 -1.1442
 8774SOL    HW237959   4.322   1.017   9.725 -0.4525 -0.2570 -1.3784
 8775SOL     OW37960   1.804   4.699   1.169 -0.6608  0.0549  0.3863
 8775SOL    HW137961   1.712   4.681   1.190 -0.4563 -1.5149 -0.0745
 8775SOL    HW237962   1.792   0.044   1.126  0.0956 -0.1087 -0.1460
 8776SOL     OW37963   2.243   1.090   3.198 -0.1215  0.0818 -0.3062
 8776SOL    HW137964   2.250   0.996   3.214 -0.0864  0.2357  0.5622
 8776SOL    HW237965   2.216   1.115   3.286 -0.1251  0.0106 -0.2873
 8777SOL     OW37966   0.241   3.795   8.550  0.6779 -0.1347  0.3227
 8777SOL    HW137967   0.188   3.760   8.478  2.8821  1.0866 -1.8379
 8777SOL    HW237968   0.268   3.715   8.595  0.7710 -0.9163 -1.1189
 8778SOL     OW37969   2.135   2.768   2.154  0.4201 -0.6736  0.2428
 8778SOL    HW137970   2.150   2.680   2.188  2.6374 -0.2219  0.4306
 8778SOL    HW237971   2.096   2.806   2.233 -1.4910  0.3613 -1.1805
 8779SOL     OW37972   2.399   3.016  15.552 -0.0994 -0.9205 -0.1988
 8779SOL    HW137973   2.330   2.953  15.534  1.2895 -2.0470 -1.6067
 8779SOL    HW237974   2.361   3.092  15.508 -0.2209 -1.6089 -1.2831
 8780SOL     OW37975   2.758   1.875   0.528 -0.5858  0.7923 -0.1505
 8780SOL    HW137976   2.820   1.893   0.598  2.3072  2.1156 -3.0759
 8780SOL    HW237977   2.732   1.787   0.557 -0.2354  0.3160 -1.2740
 8781SOL     OW37978   3.568   3.348   9.522 -0.3625  0.5467  0.0620
 8781SOL    HW137979   3.557   3.272   9.464 -0.3652 -0.8416  1.8633
 8781SOL    HW237980   3.654   3.330   9.561 -0.3049  0.6655 -0.0108
 8782SOL     OW37981   0.097   4.383   7.192 -0.1578  1.1615 -0.5880
 8782SOL    HW137982   0.086   4.320   7.120  0.0497  0.0637  0.3296
 8782SOL    HW237983   0.014   4.430   7.191 -0.1217  1.2298  0.1930
 8783SOL     OW37984   1.634   0.435   4.179 -0.3212  0.0667  0.5073
 8783SOL    HW137985   1.727   0.446   4.156 -0.8689  1.6081 -0.9652
 8783SOL    HW237986   1.637   0.445   4.274  0.7616  1.1010  0.3695
 8784SOL     OW37987   3.063   1.928   2.212 -0.0297  0.2959 -0.0980
 8784SOL    HW137988   3.074   2.022   2.228  2.5730  0.3835 -2.4238
 8784SOL    HW237989   3.156   1.903   2.218 -0.5746 -2.2824 -2.6945
 8785SOL     OW37990   1.860   2.886   7.800 -0.2576 -0.2893 -0.0450
 8785SOL    HW137991   1.847   2.942   7.724  0.1137 -1.3832 -0.9159
 8785SOL    HW237992   1.783   2.906   7.853 -0.9069 -0.4629 -0.9291
 8786SOL     OW37993   4.492   4.381   9.110 -0.2741 -0.4121  0.4302
 8786SOL    HW137994   4.513   4.474   9.125 -0.3642 -0.4155  0.5851
 8786SOL    HW237995   4.578   4.340   9.097 -0.1163 -0.6559  2.1973
 8787SOL     OW37996   0.314   3.654   3.975 -0.0373 -0.0935  0.1022
 8787SOL    HW137997   0.367   3.641   3.896  1.0576  0.0569  0.8131
 8787SOL    HW237998   0.334   3.576   4.027 -1.0371 -0.1200  0.4419
 8788SOL     OW37999   2.559   1.159   2.985  0.1992  0.2695  0.2249
 8788SOL    HW138000   2.601   1.086   3.030  1.6250  0.9010 -0.0910
 8788SOL    HW238001   2.631   1.197   2.935  1.3963  0.4965  2.1435
 8789SOL     OW38002   2.436   3.907  12.274 -0.6056 -0.2512  0.6999
 8789SOL    HW138003   2.366   3.842  12.285  0.9773 -1.7708  1.8415
 8789SOL    HW238004   2.515   3.854  12.269  0.0925  0.9539 -0.8880
 8790SOL     OW38005   1.888   1.369   8.420  0.3007  0.0060 -0.0613
 8790SOL    HW138006   1.945   1.293   8.407 -1.8346 -1.5103 -0.5262
 8790SOL    HW238007   1.797   1.338   8.415  1.8412 -4.5355  0.1414
 8791SOL     OW38008   3.243   1.959  10.763 -0.2332  0.0917 -0.5239
 8791SOL    HW138009   3.153   1.964  10.730 -0.3657 -1.5047 -0.4220
 8791SOL    HW238010   3.229   1.909  10.843 -0.5213 -1.1316 -1.3355
 8792SOL     OW38011   4.050   0.921   1.974  0.5301 -0.1171 -0.3360
 8792SOL    HW138012   4.084   0.834   1.996 -0.5813 -0.0787  1.5127
 8792SOL    HW238013   4.095   0.971   2.042 -0.0533 -0.0828  0.0292
 8793SOL     OW38014   1.589   0.030   7.756 -0.6585 -0.4255  0.1915
 8793SOL    HW138015   1.501   0.027   7.794 -1.7057 -0.2853 -2.2323
 8793SOL    HW238016   1.626   4.689   7.792 -0.1536  0.3010  1.2948
 8794SOL     OW38017   0.501   2.951   9.438 -0.1454  0.6437  0.0842
 8794SOL    HW138018   0.519   2.860   9.413  1.4084  0.5552  1.4815
 8794SOL    HW238019   0.496   2.978   9.347  2.4429  1.6921  0.2600
 8795SOL     OW38020   2.384   2.938  16.685 -0.0418 -0.6838 -0.3802
 8795SOL    HW138021   2.457   2.976  16.636 -1.5950  2.3112 -0.4164
 8795SOL    HW238022   2.314   2.998  16.660 -0.8489 -0.4149  2.5612
 8796SOL     OW38023   0.150   4.075   9.400 -0.0100 -0.4071 -0.8933
 8796SOL    HW138024   0.186   4.014   9.336 -0.4604  0.4079 -1.9299
 8796SOL    HW238025   0.225   4.132   9.416 -0.4325  0.0853 -0.6635
 8797SOL     OW38026   0.670   2.611   6.908 -0.0973  0.4563  0.0962
 8797SOL    HW138027   0.639   2.525   6.877  1.0705  0.6181 -1.5432
 8797SOL    HW238028   0.640   2.678   6.847 -1.8874  1.2833  1.9077
 8798SOL     OW38029   0.152   2.443   3.706  0.2735  0.0041 -0.7145
 8798SOL    HW138030   0.146   2.428   3.612 -0.1492  0.7127 -0.7957
 8798SOL    HW238031   0.214   2.372   3.721 -1.4871 -1.4310 -0.1647
 8799SOL     OW38032   2.096   4.569   2.612 -0.1501  0.1364  0.0380
 8799SOL    HW138033   2.081   4.542   2.521 -0.6935  1.6145 -0.3056
 8799SOL    HW238034   2.029   4.637   2.616 -1.5720 -1.1958 -0.8558
 8800SOL     OW38035   1.482   4.453   4.405  0.2946  0.1066  0.2246
 8800SOL    HW138036   1.532   4.496   4.335 -0.3062  3.0079  1.5717
 8800SOL    HW238037   1.400   4.433   4.360  0.3430 -1.0023  0.6180
 8801SOL     OW38038   0.609   2.691   3.746  0.0276  0.0088  0.3847
 8801SOL    HW138039   0.528   2.668   3.791 -1.1515  1.3832 -1.0151
 8801SOL    HW238040   0.615   2.784   3.768 -2.8203  0.2670  0.0810
 8802SOL     OW38041   4.476   1.687  17.321 -0.1386 -0.0912  0.2318
 8802SOL    HW138042   4.540   1.743  17.276 -1.5943  0.7930 -0.7528
 8802SOL    HW238043   4.445   1.648  17.239  0.7136 -1.8092  0.7259
 8803SOL     OW38044   1.506   1.907   4.776 -0.0767  0.0599  0.0187
 8803SOL    HW138045   1.481   1.836   4.834  1.0023 -0.5861 -0.3064
 8803SOL    HW238046   1.589   1.868   4.747 -0.6173 -0.4616 -0.8108
 8804SOL     OW38047   2.121   2.336   4.385  0.0646 -0.4001  0.2675
 8804SOL    HW138048   2.209   2.362   4.357 -1.1875  1.6257 -1.7568
 8804SOL    HW238049   2.088   2.412   4.432  0.3753  1.4213 -2.4405
 8805SOL     OW38050   2.640   2.551   2.053 -0.1634  0.3741  0.0524
 8805SOL    HW138051   2.558   2.600   2.062  0.9440  1.9467  1.6606
 8805SOL    HW238052   2.682   2.597   2.126 -0.2386  3.5797 -1.9110
 8806SOL     OW38053   2.019   4.031   3.308  0.2268  0.2753 -0.3752
 8806SOL    HW138054   2.049   3.954   3.355  0.5017  1.7659  1.9047
 8806SOL    HW238055   2.076   4.032   3.231  3.4782  1.0861  2.0314
 8807SOL     OW38056   0.800   4.285  13.416 -0.2449 -0.1386 -0.4117
 8807SOL    HW138057   0.773   4.355  13.476  1.6930 -0.0006  0.3150
 8807SOL    HW238058   0.819   4.214  13.477 -1.9560 -2.7176 -2.8677
 8808SOL     OW38059   3.614   4.271   5.902 -0.5229 -0.6745 -0.6449
 8808SOL    HW138060   3.578   4.349   5.860  0.8024  0.3900  0.1889
 8808SOL    HW238061   3.658   4.299   5.982 -1.8030  1.0408 -0.5467
 8809SOL     OW38062   4.496   4.198   8.281 -0.0661 -0.4216  0.5519
 8809SOL    HW138063   4.585   4.185   8.314  0.4208  0.1592 -0.5421
 8809SOL    HW238064   4.506   4.278   8.229 -0.4783 -0.8193 -0.1367
 8810SOL     OW38065   4.317   3.193   2.386 -0.5158  0.1874 -0.0056
 8810SOL    HW138066   4.304   3.188   2.292 -1.6726  1.0480  0.1123
 8810SOL    HW238067   4.336   3.101   2.408 -0.4641 -0.2188 -1.7561
 8811SOL     OW38068   3.594   2.657   4.527  0.3584 -0.0025  0.6896
 8811SOL    HW138069   3.515   2.608   4.505 -0.4881  0.4754  2.6646
 8811SOL    HW238070   3.659   2.597   4.489  0.8364  1.0470 -0.1399
 8812SOL     OW38071   4.023   2.728  15.371 -0.2683  0.3597  0.1754
 8812SOL    HW138072   3.982   2.729  15.458 -2.8276  0.4182 -1.0539
 8812SOL    HW238073   4.002   2.646  15.327 -0.6199 -0.5164  1.9666
 8813SOL     OW38074   1.015   3.575   6.232 -0.2185 -0.3310 -0.1897
 8813SOL    HW138075   0.930   3.532   6.220 -1.0603  0.7697  1.8122
 8813SOL    HW238076   0.984   3.665   6.243 -0.4378 -0.5386  0.9110
 8814SOL     OW38077   1.676   2.944   4.234  0.3716 -0.1808 -0.2428
 8814SOL    HW138078   1.760   2.903   4.255  2.1589  3.1490 -0.7550
 8814SOL    HW238079   1.621   2.873   4.203  0.9592 -1.4583  1.6423
 8815SOL     OW38080   2.065   1.077   6.904 -0.0728  0.0399 -0.5754
 8815SOL    HW138081   2.139   1.129   6.872 -0.4556  0.6034 -0.5540
 8815SOL    HW238082   2.094   1.052   6.991 -2.8395  0.7391  0.5623
 8816SOL     OW38083   0.692   1.968   8.065  0.4389 -0.0777 -0.5442
 8816SOL    HW138084   0.681   2.063   8.068 -0.6089 -0.2337  0.6762
 8816SOL    HW238085   0.611   1.936   8.105 -0.3774  0.3255 -1.9113
 8817SOL     OW38086   1.724   2.846   0.876 -0.3738 -0.0915 -0.0504
 8817SOL    HW138087   1.633   2.850   0.906  0.2435 -0.5871  1.8907
 8817SOL    HW238088   1.726   2.906   0.802  2.7486  0.9023  0.8124
 8818SOL     OW38089   0.859   4.574   4.589  0.0749  0.5735  0.6849
 8818SOL    HW138090   0.878   4.607   4.677  0.7268  1.0225  0.3786
 8818SOL    HW238091   0.764   4.581   4.582  0.1202  1.1458  0.6217
 8819SOL     OW38092   0.031   4.138   8.354  0.3133 -0.3982 -0.5162
 8819SOL    HW138093   0.127   4.135   8.351  0.3553 -1.1912  1.9983
 8819SOL    HW238094   0.011   4.066   8.413  1.2138  0.6163  1.0177
 8820SOL     OW38095   0.709   0.748   2.176 -0.6001 -0.3982  0.0245
 8820SOL    HW138096   0.681   0.839   2.189 -0.6306 -0.2072 -1.4431
 8820SOL    HW238097   0.664   0.708   2.250 -1.3178 -0.3911 -0.4101
 8821SOL     OW38098   2.287   2.240  11.190  0.2758 -0.0897  0.5256
 8821SOL    HW138099   2.381   2.222  11.198  0.5783  1.5162  0.5779
 8821SOL    HW238100   2.252   2.177  11.254 -0.1352 -2.0958 -1.6926
 8822SOL     OW38101   4.172   1.586   6.938 -0.2923  0.4438 -0.3491
 8822SOL    HW138102   4.128   1.627   6.863  2.3503  0.9480 -1.6082
 8822SOL    HW238103   4.106   1.530   6.980 -1.3823 -0.2085 -2.8979
 8823SOL     OW38104   3.081   3.141   3.080  0.0034 -0.2365 -0.4440
 8823SOL    HW138105   3.071   3.047   3.092 -1.5822 -0.1726 -1.1736
 8823SOL    HW238106   3.031   3.175   3.154  0.6602  0.4684 -0.3254
 8824SOL     OW38107   3.309   0.702   3.794  0.1934 -0.1968  0.3049
 8824SOL    HW138108   3.344   0.763   3.859  0.4229  0.7150 -0.6639
 8824SOL    HW238109   3.260   0.641   3.848  0.5176 -1.3676 -0.7218
 8825SOL     OW38110   0.266   4.118   7.800 -0.2322  0.4647  0.1772
 8825SOL    HW138111   0.202   4.112   7.871 -0.9606  0.4605 -0.4821
 8825SOL    HW238112   0.259   4.206   7.763 -1.9720  1.1179  2.0506
 8826SOL     OW38113   0.636   0.179  13.082  0.3685  0.0490 -0.2735
 8826SOL    HW138114   0.707   0.121  13.054 -1.2437 -1.6515 -0.8711
 8826SOL    HW238115   0.671   0.260  13.045 -2.8673  1.6895  0.3468
 8827SOL     OW38116   0.564   0.692   5.548 -0.0512 -0.4441  0.3181
 8827SOL    HW138117   0.627   0.644   5.602 -0.7406  0.4334  1.8617
 8827SOL    HW238118   0.556   0.777   5.591 -2.8930  1.0559 -3.1367
 8828SOL     OW38119   4.679   3.236   0.970 -0.3148  0.2019  0.2863
 8828SOL    HW138120   4.692   3.330   0.975  2.7166 -0.1543 -0.9193
 8828SOL    HW238121   4.584   3.226   0.977 -0.7000  1.9217 -2.2480
 8829SOL     OW38122   1.613   3.439  12.864 -0.2129 -0.0514 -0.3757
 8829SOL    HW138123   1.630   3.349  12.892  2.2763  0.7173  0.6434
 8829SOL    HW238124   1.636   3.447  12.772  2.2310  1.7519  0.3955
 8830SOL     OW38125   4.689   2.131   4.167  0.2639  0.3675  0.0216
 8830SOL    HW138126   4.740   2.156   4.090 -0.3215  0.4742 -0.3329
 8830SOL    HW238127   4.713   2.192   4.237  1.0491 -0.1094  0.1692
 8831SOL     OW38128   2.316   2.949   5.837  0.4799 -1.0685 -0.0730
 8831SOL    HW138129   2.228   2.981   5.814  1.2476  1.5790  0.6137
 8831SOL    HW238130   2.363   2.942   5.754 -0.0537 -2.6121 -0.2366
 8832SOL     OW38131   0.184   4.205   3.851 -0.8395  0.2795  0.6748
 8832SOL    HW138132   0.156   4.296   3.862  0.5667  0.6607  1.1229
 8832SOL    HW238133   0.278   4.222   3.857 -1.1493  2.6762 -1.4227
 8833SOL     OW38134   2.879   3.037   9.802 -0.0868  0.0402  0.2492
 8833SOL    HW138135   2.832   3.119   9.786  1.2684  0.6464 -0.6590
 8833SOL    HW238136   2.966   3.069   9.826 -1.1714  1.6152  2.0982
 8834SOL     OW38137   1.031   3.783  17.195 -0.0104  0.0777  0.5869
 8834SOL    HW138138   0.976   3.861  17.188  0.8556  0.8102  1.9405
 8834SOL    HW238139   1.068   3.756  17.111 -0.3453 -1.6116  0.9944
 8835SOL     OW38140   3.573   0.806   7.749 -0.0343  0.3754 -0.4757
 8835SOL    HW138141   3.597   0.746   7.820 -1.9362 -1.6516 -1.5320
 8835SOL    HW238142   3.485   0.828   7.780  0.9659  1.7008  1.4595
 8836SOL     OW38143   0.653   0.206   3.048  0.1436  0.2807  0.6959
 8836SOL    HW138144   0.559   0.221   3.060 -0.0581 -0.3854 -0.0075
 8836SOL    HW238145   0.669   0.148   3.122 -3.1868 -1.0721  0.4020
 8837SOL     OW38146   1.126   2.571  10.017 -0.3735  0.1042  0.4014
 8837SOL    HW138147   1.113   2.481  10.049 -0.1904 -0.7879 -1.9928
 8837SOL    HW238148   1.149   2.561   9.924 -1.3697  0.5457  0.1069
 8838SOL     OW38149   0.729   3.268   7.311 -0.4428  0.5393 -0.0907
 8838SOL    HW138150   0.676   3.346   7.301 -0.6467  0.0674 -2.7704
 8838SOL    HW238151   0.757   3.241   7.223  1.1858  1.2264  0.2088
 8839SOL     OW38152   0.921   3.305   6.467  0.0921 -0.6031  0.2399
 8839SOL    HW138153   0.868   3.226   6.459  0.2856 -0.4853 -2.2759
 8839SOL    HW238154   0.922   3.326   6.561 -1.8971  0.5887  0.0136
 8840SOL     OW38155   1.343   3.000  16.501  0.1313 -0.1708  0.2855
 8840SOL    HW138156   1.358   3.047  16.419  0.3392 -1.8636 -0.6627
 8840SOL    HW238157   1.279   2.937  16.466 -0.3386  0.3601  0.1990
 8841SOL     OW38158   3.110   3.161   1.458  0.9573  0.4685 -0.6739
 8841SOL    HW138159   3.105   3.135   1.366  0.3918 -1.0294 -0.2270
 8841SOL    HW238160   3.176   3.230   1.455  1.2387  0.2052 -0.6456
 8842SOL     OW38161   0.364   2.298   7.881  0.1789 -0.2111  0.0157
 8842SOL    HW138162   0.338   2.369   7.939  1.4446 -0.3183  0.7194
 8842SOL    HW238163   0.280   2.253   7.869 -0.4805  0.7920  0.8763
 8843SOL     OW38164   3.461   3.095   1.532  1.0045  0.7488 -0.2031
 8843SOL    HW138165   3.503   3.013   1.507  0.2499 -0.2060  1.6388
 8843SOL    HW238166   3.442   3.073   1.624  1.5012  1.4027  0.0593
 8844SOL     OW38167   1.755   4.183   7.931  0.3653 -0.1884 -0.1703
 8844SOL    HW138168   1.720   4.215   7.848  1.9245 -0.7618 -1.0397
 8844SOL    HW238169   1.808   4.111   7.897 -0.6742 -0.4482 -1.2231
 8845SOL     OW38170   1.289   3.110   9.149  0.2890 -0.3768  0.4635
 8845SOL    HW138171   1.273   3.201   9.175 -3.2550 -0.7885 -0.2544
 8845SOL    HW238172   1.219   3.096   9.085 -1.0954  1.6911  1.5185
 8846SOL     OW38173   0.051   4.398   9.661  0.2005  0.1639 -0.4050
 8846SOL    HW138174   0.137   4.365   9.636  0.9961  0.1100  2.3903
 8846SOL    HW238175   4.731   4.347   9.607 -0.4290  1.2298 -0.7062
 8847SOL     OW38176   3.981   2.433   7.977  0.1818 -0.7844  0.7530
 8847SOL    HW138177   4.068   2.393   7.973  0.7123  0.3664  0.4864
 8847SOL    HW238178   4.003   2.518   8.017  1.0283 -1.2203  1.2105
 8848SOL     OW38179   0.055   0.992   3.990  0.0713  0.2880 -0.6148
 8848SOL    HW138180   0.113   1.014   3.917 -0.2548  1.0349 -0.6526
 8848SOL    HW238181   0.039   1.077   4.033 -0.1480 -0.1254  0.1256
 8849SOL     OW38182   1.732   0.160   1.007  0.6688  0.1783 -0.5799
 8849SOL    HW138183   1.647   0.163   0.963 -0.9531  0.2572  2.6075
 8849SOL    HW238184   1.791   0.216   0.956 -1.4482  1.0639 -2.0851
 8850SOL     OW38185   1.879   3.246   1.414  0.2984 -0.3751  0.1250
 8850SOL    HW138186   1.973   3.234   1.425  0.4714 -0.0575 -1.0286
 8850SOL    HW238187   1.842   3.158   1.409 -0.2015 -0.3296  2.9388
 8851SOL     OW38188   2.514   1.198   2.015 -1.1122  0.2997 -0.5895
 8851SOL    HW138189   2.427   1.231   1.992 -1.4450  0.3037  0.7188
 8851SOL    HW238190   2.563   1.276   1.989  0.6931 -1.1999 -1.6563
 8852SOL     OW38191   1.768   4.486   2.170  0.0143 -0.4248  0.9794
 8852SOL    HW138192   1.719   4.569   2.168  2.0897  0.7764  0.4916
 8852SOL    HW238193   1.810   4.483   2.084 -2.8900 -0.3229 -0.4404
 8853SOL     OW38194   2.913   1.966   7.348 -0.1770 -0.1870  0.4411
 8853SOL    HW138195   2.921   1.933   7.437 -2.7265 -2.9248 -0.3599
 8853SOL    HW238196   2.851   2.036   7.365  2.3359  2.2505 -0.3719
 8854SOL     OW38197   0.547   0.535   4.632  0.2302 -0.6762  0.2662
 8854SOL    HW138198   0.580   0.539   4.722  0.1065 -0.8321  0.3184
 8854SOL    HW238199   0.496   0.454   4.625  0.0232 -0.4989 -0.2521
 8855SOL     OW38200   2.181   3.824   2.363  0.0291  0.8385 -0.1313
 8855SOL    HW138201   2.252   3.793   2.420 -0.2640  0.5589  0.0795
 8855SOL    HW238202   2.203   3.917   2.366 -1.5954  1.2306 -0.6448
 8856SOL     OW38203   2.742   0.797   2.029 -0.2525 -0.1616 -0.1310
 8856SOL    HW138204   2.774   0.833   2.112  1.3868 -0.4627 -0.6206
 8856SOL    HW238205   2.808   0.839   1.974  0.0285  0.5316  0.7175
 8857SOL     OW38206   2.666   2.957   1.885  0.3014 -0.2746  0.6965
 8857SOL    HW138207   2.694   3.043   1.852 -0.3178 -0.1956  0.3726
 8857SOL    HW238208   2.599   2.991   1.944 -1.9554 -0.4793 -1.7540
 8858SOL     OW38209   0.406   2.521  12.472  0.8791  0.4178 -0.1484
 8858SOL    HW138210   0.424   2.517  12.566  1.8767  1.0487 -0.3158
 8858SOL    HW238211   0.314   2.497  12.478  0.8784  0.7575  1.1037
 8859SOL     OW38212   4.523   4.413  13.238 -0.4027 -0.2454  0.1046
 8859SOL    HW138213   4.527   4.451  13.150 -0.5136 -0.0468  0.1869
 8859SOL    HW238214   4.444   4.358  13.238 -0.4706 -0.1555 -1.4144
 8860SOL     OW38215   2.617   4.099   9.528  0.6668  0.2628  0.1396
 8860SOL    HW138216   2.658   4.108   9.614  0.1238  0.4326  0.3791
 8860SOL    HW238217   2.691   4.132   9.476 -0.7406  0.4910 -1.7024
 8861SOL     OW38218   4.454   1.141   5.683  0.3896  0.0276  0.1888
 8861SOL    HW138219   4.392   1.214   5.689 -2.6029 -2.4938  0.1054
 8861SOL    HW238220   4.475   1.129   5.776 -0.8589 -1.4752  0.2804
 8862SOL     OW38221   2.153   2.236   4.734 -0.6886  0.0783  0.0841
 8862SOL    HW138222   2.072   2.279   4.762 -0.8681 -0.0624 -0.2286
 8862SOL    HW238223   2.177   2.297   4.665  0.5680 -1.0286 -0.4420
 8863SOL     OW38224   1.955   2.352  13.701  0.3826  0.4647 -0.2903
 8863SOL    HW138225   2.019   2.322  13.766  0.5766  0.1988 -0.6017
 8863SOL    HW238226   2.008   2.385  13.628  1.5449 -1.6625 -0.4054
 8864SOL     OW38227   1.609   0.417   7.441 -0.2344  0.0766  0.0508
 8864SOL    HW138228   1.579   0.496   7.487 -0.2976  1.2432 -2.0161
 8864SOL    HW238229   1.629   0.459   7.358  0.0192  0.5510  0.3524
 8865SOL     OW38230   2.412   3.703  14.191 -0.3676  0.0441  0.1902
 8865SOL    HW138231   2.452   3.737  14.111 -1.4697 -0.9914 -0.7903
 8865SOL    HW238232   2.398   3.611  14.172 -0.3646  0.1626 -0.3768
 8866SOL     OW38233   4.253   1.833   9.686  0.0211 -0.5409 -0.2165
 8866SOL    HW138234   4.229   1.745   9.716 -1.9438  0.8982  2.3362
 8866SOL    HW238235   4.241   1.888   9.763  1.6385  1.1314 -1.1624
 8867SOL     OW38236   1.906   3.366   2.772  0.1759 -0.7935  0.0941
 8867SOL    HW138237   1.846   3.441   2.775 -1.0460 -1.7468 -0.2470
 8867SOL    HW238238   1.990   3.402   2.799  0.4461 -0.6450 -0.9827
 8868SOL     OW38239   3.617   3.891   6.149  0.3776 -0.1373 -0.5762
 8868SOL    HW138240   3.532   3.892   6.105  0.4676 -1.4964 -0.7701
 8868SOL    HW238241   3.605   3.971   6.200  0.2619 -1.6242  1.7497
 8869SOL     OW38242   2.591   3.724   3.546  0.3646 -0.1847  0.0269
 8869SOL    HW138243   2.515   3.670   3.525  0.9702 -0.7607 -0.6905
 8869SOL    HW238244   2.624   3.678   3.624  1.4750  2.4370  1.1176
 8870SOL     OW38245   1.347   2.118   5.149  0.2663 -0.1729 -0.7522
 8870SOL    HW138246   1.413   2.058   5.185  0.3729 -0.8756 -2.1116
 8870SOL    HW238247   1.399   2.172   5.090 -0.8549  0.6571 -0.9849
 8871SOL     OW38248   3.080   2.158   4.757  0.3737 -0.2699 -0.5530
 8871SOL    HW138249   3.063   2.251   4.743  2.2719  0.4102  1.7369
 8871SOL    HW238250   3.044   2.150   4.846 -0.0663  1.5040 -0.5726
 8872SOL     OW38251   2.746   4.147   1.929  0.4015  0.3849 -0.2981
 8872SOL    HW138252   2.682   4.127   1.861  0.3489 -1.8023  0.3787
 8872SOL    HW238253   2.789   4.061   1.926  0.1824  0.2171  1.0639
 8873SOL     OW38254   4.609   0.736   9.537  0.5710 -0.0584 -0.0756
 8873SOL    HW138255   4.659   0.664   9.576 -1.0219  0.0910  2.2775
 8873SOL    HW238256   4.532   0.744   9.594  1.8159 -1.8783  1.8929
 8874SOL     OW38257   1.742   3.040   7.062 -0.1173 -0.0120 -0.0735
 8874SOL    HW138258   1.730   3.069   7.153 -1.2454 -1.3733  0.2143
 8874SOL    HW238259   1.765   2.947   7.069 -1.1054 -0.4153 -2.2669
 8875SOL     OW38260   2.145   2.928  10.544 -0.6970 -0.2876 -0.4069
 8875SOL    HW138261   2.118   2.888  10.627 -0.4356  0.7390  0.1755
 8875SOL    HW238262   2.197   2.857  10.507 -1.6966 -1.3020  0.1365
 8876SOL     OW38263   0.795   4.634  14.302  0.0137 -0.0636 -0.2571
 8876SOL    HW138264   0.791   4.540  14.320  1.5141 -0.5803 -2.5624
 8876SOL    HW238265   0.830   4.632  14.213 -0.7439  1.4667 -0.5847
 8877SOL     OW38266   3.436   2.078   2.814 -0.0466 -0.5034 -0.4999
 8877SOL    HW138267   3.521   2.084   2.857  0.1155  0.0825 -0.8969
 8877SOL    HW238268   3.396   2.019   2.877 -0.2849  2.2002  1.8859
 8878SOL     OW38269   3.329   4.483   7.926 -0.0681 -0.7270  0.2824
 8878SOL    HW138270   3.404   4.542   7.928 -0.1049 -0.7480  2.6636
 8878SOL    HW238271   3.272   4.535   7.870  0.7676 -1.6825 -1.4734
 8879SOL     OW38272   1.467   3.310   7.345 -0.2386  0.2899  0.3810
 8879SOL    HW138273   1.489   3.398   7.376  1.2998 -1.1784  3.4037
 8879SOL    HW238274   1.407   3.291   7.417 -1.7612 -1.4403 -1.3133
 8880SOL     OW38275   1.394   3.623  15.367  0.0885  0.6828  0.4092
 8880SOL    HW138276   1.397   3.713  15.399  1.7947 -0.0758  2.3749
 8880SOL    HW238277   1.442   3.577  15.436  0.8953  0.2195 -0.4541
 8881SOL     OW38278   4.412   3.957  13.374  0.6311  0.4366  0.2387
 8881SOL    HW138279   4.503   3.929  13.386 -0.0621 -2.1805 -0.5980
 8881SOL    HW238280   4.374   3.891  13.316  0.1677  0.5690  0.3887
 8882SOL     OW38281   0.618   0.499   3.429  0.9750 -0.2594  0.4145
 8882SOL    HW138282   0.612   0.413   3.470  2.6379 -1.4851 -1.9278
 8882SOL    HW238283   0.578   0.567   3.484 -1.5652 -0.7682 -0.7935
 8883SOL     OW38284   4.311   1.968  12.909  0.0614  0.0389  0.6809
 8883SOL    HW138285   4.275   1.880  12.922  0.2795 -0.2472 -0.6056
 8883SOL    HW238286   4.343   1.990  12.997  0.7315  1.0897  0.1777
 8884SOL     OW38287   1.269   0.007   7.290  0.5648 -0.0602 -0.3478
 8884SOL    HW138288   1.209   4.707   7.226  0.7025  0.1746 -0.6243
 8884SOL    HW238289   1.318   4.669   7.316 -2.1069 -1.3723  0.8464
 8885SOL     OW38290   3.528   4.738   6.490  0.4244  0.3791 -0.5923
 8885SOL    HW138291   3.521   4.653   6.447 -1.5275  1.1560 -1.8350
 8885SOL    HW238292   3.548   4.718   6.581  0.1429  1.2370 -0.3418
 8886SOL     OW38293   1.776   0.495   5.698 -0.6229 -0.5626  0.1491
 8886SOL    HW138294   1.772   0.471   5.605  1.9139  0.3134 -0.1827
 8886SOL    HW238295   1.862   0.534   5.709 -0.4075 -1.1249  0.4368
 8887SOL     OW38296   4.235   4.265  11.725 -0.4034  0.2938 -0.4563
 8887SOL    HW138297   4.280   4.229  11.649 -1.0895  0.6519 -1.0242
 8887SOL    HW238298   4.309   4.294  11.778 -2.5956  2.8333  1.2146
 8888SOL     OW38299   0.597   4.732   4.373  0.1375  0.1115  0.5393
 8888SOL    HW138300   0.658   4.668   4.336 -0.6248  0.5681 -1.5116
 8888SOL    HW238301   0.518   4.679   4.382  0.0159  0.5286  1.9062
 8889SOL     OW38302   3.717   3.599   2.646  0.0193  0.0677 -0.1553
 8889SOL    HW138303   3.771   3.666   2.688 -0.6232 -1.4433  3.1282
 8889SOL    HW238304   3.696   3.542   2.720  0.4075 -1.0623 -0.9043
 8890SOL     OW38305   2.732   0.243   4.088  0.2907  0.2973 -0.5605
 8890SOL    HW138306   2.741   0.335   4.065  1.5384  0.5074  0.8196
 8890SOL    HW238307   2.707   0.243   4.180 -2.7516 -2.4537 -1.3593
 8891SOL     OW38308   4.681   3.252   7.350  0.2527 -0.7929  0.6010
 8891SOL    HW138309   4.678   3.298   7.434  0.5662  2.2332 -1.0527
 8891SOL    HW238310   4.729   3.169   7.356  0.3674 -0.6009  2.3073
 8892SOL     OW38311   2.668   2.568   7.425 -0.1657 -0.0433  0.3195
 8892SOL    HW138312   2.717   2.532   7.351  0.2135 -1.1691  1.1137
 8892SOL    HW238313   2.745   2.585   7.479 -0.9402  1.0229  1.0755
 8893SOL     OW38314   0.763   2.308   5.630 -0.5347 -0.3967 -0.0290
 8893SOL    HW138315   0.712   2.262   5.563 -1.8105  1.7493 -0.5301
 8893SOL    HW238316   0.696   2.338   5.691 -1.1420 -1.3203 -0.2453
 8894SOL     OW38317   1.921   0.989  17.448 -0.3077 -0.0645  0.7446
 8894SOL    HW138318   1.831   1.016  17.433 -0.1558  0.1084  0.1563
 8894SOL    HW238319   1.904   0.898  17.473 -0.2877 -0.2970 -0.0978
 8895SOL     OW38320   1.341   4.182   8.992  0.3560 -0.0601  0.4760
 8895SOL    HW138321   1.398   4.217   8.924  0.2410  0.3560  0.5887
 8895SOL    HW238322   1.397   4.119   9.038  2.2886  0.4439 -1.2253
 8896SOL     OW38323   2.313   0.340   8.739 -0.6957 -0.3199  0.9539
 8896SOL    HW138324   2.237   0.366   8.790 -0.2774  1.3218  0.7597
 8896SOL    HW238325   2.370   0.299   8.804  2.9587 -0.5253 -2.3631
 8897SOL     OW38326   1.659   2.957   8.527  0.9160 -0.0829 -0.1525
 8897SOL    HW138327   1.664   2.872   8.571 -0.0704 -0.0646  0.0151
 8897SOL    HW238328   1.742   2.947   8.482  1.1642 -0.5634  0.4108
 8898SOL     OW38329   2.305   4.438  12.973  0.5748 -0.2616  0.1484
 8898SOL    HW138330   2.275   4.524  13.003  0.0979 -0.3606 -0.0403
 8898SOL    HW238331   2.257   4.432  12.891  1.8995 -0.8316 -0.5734
 8899SOL     OW38332   0.383   0.747   8.149 -0.0567  0.7743  0.0439
 8899SOL    HW138333   0.383   0.816   8.082  0.7795  0.2009 -0.5604
 8899SOL    HW238334   0.476   0.755   8.172  0.4055 -0.9718 -1.2283
 8900SOL     OW38335   2.764   0.583  11.496  0.8290 -0.5735 -0.3374
 8900SOL    HW138336   2.838   0.552  11.547 -0.7404 -4.0160 -0.1408
 8900SOL    HW238337   2.704   0.578  11.570  0.6022  1.4500 -0.3700
 8901SOL     OW38338   0.486   3.016   0.611 -0.5238  0.1169  0.0034
 8901SOL    HW138339   0.413   3.001   0.671 -0.5819 -0.4194 -0.2040
 8901SOL    HW238340   0.443   3.061   0.538  0.3011 -0.0663 -0.6095
 8902SOL     OW38341   3.879   0.873   4.660  0.2232  0.4009  0.4770
 8902SOL    HW138342   3.917   0.793   4.622 -0.3690 -0.2628  1.2809
 8902SOL    HW238343   3.892   0.939   4.591  1.2191 -1.0780 -0.7637
 8903SOL     OW38344   4.046   0.603   0.515 -0.0388 -0.6714 -0.0633
 8903SOL    HW138345   3.974   0.544   0.495 -1.3500  0.8137  0.3394
 8903SOL    HW238346   4.025   0.677   0.457 -0.0347  0.5480  1.5012
 8904SOL     OW38347   3.084   4.570   0.294 -0.0069 -0.2490 -0.2267
 8904SOL    HW138348   3.153   4.625   0.257  0.5740  0.1902  1.5063
 8904SOL    HW238349   3.121   4.565   0.382 -1.8853  2.1278  0.7013
 8905SOL     OW38350   2.689   0.705   3.749 -0.3590  0.4294 -0.1706
 8905SOL    HW138351   2.604   0.688   3.790  0.0818 -1.0505  0.1125
 8905SOL    HW238352   2.697   0.797   3.726  3.2996  0.2614  0.5499
 8906SOL     OW38353   1.058   2.382   2.666 -0.2658  0.4863  0.2293
 8906SOL    HW138354   1.116   2.454   2.690 -0.8151  1.3375 -0.9741
 8906SOL    HW238355   1.124   2.325   2.627  2.4571  0.3362  5.0910
 8907SOL     OW38356   2.915   3.112  13.356  0.1816 -0.1856  0.2718
 8907SOL    HW138357   2.973   3.119  13.281  1.0596  3.6420  1.3057
 8907SOL    HW238358   2.923   3.021  13.385  1.5958 -0.7031 -1.7928
 8908SOL     OW38359   0.496   0.390   2.791 -0.0494 -0.1129  0.7860
 8908SOL    HW138360   0.582   0.380   2.830  1.3787  1.8559 -1.8306
 8908SOL    HW238361   0.472   0.475   2.828  2.3579  0.7677  0.3362
 8909SOL     OW38362   0.810   3.808   6.118  0.6521  0.9853 -0.1898
 8909SOL    HW138363   0.768   3.728   6.151 -0.2725  2.8960  3.2687
 8909SOL    HW238364   0.766   3.810   6.033 -0.2756 -0.2866  0.2645
 8910SOL     OW38365   4.714   4.247  13.163 -0.2926 -0.3002 -0.3618
 8910SOL    HW138366   0.063   4.249  13.199 -0.5032  2.7686 -0.0536
 8910SOL    HW238367   4.663   4.306  13.218 -0.2103  0.4337 -1.0757
 8911SOL     OW38368   3.916   3.826  14.072 -0.2661  0.3453  0.0256
 8911SOL    HW138369   3.933   3.787  13.986  1.1486  1.4936 -0.2076
 8911SOL    HW238370   3.926   3.746  14.123  1.0889  0.9210  0.6616
 8912SOL     OW38371   3.633   1.591  16.281 -0.3298  0.4242 -0.2162
 8912SOL    HW138372   3.692   1.626  16.214  0.2310 -2.0686 -0.9998
 8912SOL    HW238373   3.560   1.654  16.281 -0.3977  0.3527 -1.5059
 8913SOL     OW38374   1.443   0.499  13.233 -0.2924 -0.1060 -0.1844
 8913SOL    HW138375   1.509   0.462  13.292  0.0223  1.3487  0.3736
 8913SOL    HW238376   1.384   0.552  13.287 -0.8675 -2.0976  1.1582
 8914SOL     OW38377   1.139   2.253  14.986 -0.2454  0.0237  0.5341
 8914SOL    HW138378   1.066   2.225  15.041 -1.5921  1.4457 -0.5284
 8914SOL    HW238379   1.212   2.193  15.004 -0.7451 -0.7657 -0.0443
 8915SOL     OW38380   3.062   4.293   4.824  0.2481 -0.3243  0.4182
 8915SOL    HW138381   3.068   4.272   4.731 -0.2478 -1.9424  0.7509
 8915SOL    HW238382   3.093   4.212   4.866 -0.0842 -0.5172  0.2901
 8916SOL     OW38383   0.148   1.956   4.328 -0.0223 -0.0827  0.3318
 8916SOL    HW138384   0.133   2.038   4.281 -1.6484 -1.3130 -1.3256
 8916SOL    HW238385   0.086   1.963   4.400 -0.6410 -0.4771 -0.1697
 8917SOL     OW38386   3.005   0.181   2.976 -0.4179 -0.1571  0.1082
 8917SOL    HW138387   2.943   0.121   2.935  0.3835 -0.9211  0.0300
 8917SOL    HW238388   3.088   0.162   2.933 -2.0192 -0.3176 -2.9123
 8918SOL     OW38389   0.591   3.235   4.984 -0.1777 -0.1329  0.4279
 8918SOL    HW138390   0.584   3.317   4.934 -0.3027 -0.4025  0.0072
 8918SOL    HW238391   0.596   3.273   5.072  3.0632  0.4575  0.0128
 8919SOL     OW38392   3.139   3.082   4.247 -0.8158  0.0253  0.1697
 8919SOL    HW138393   3.210   3.037   4.293 -1.2396  1.4239  2.1924
 8919SOL    HW238394   3.069   3.055   4.307 -0.0046  0.3733  1.2595
 8920SOL     OW38395   2.453   0.319   4.249  0.5298 -0.0298  0.8097
 8920SOL    HW138396   2.420   0.232   4.225  0.7007  0.0563  0.2519
 8920SOL    HW238397   2.525   0.310   4.310  0.4507  1.7567  1.1568
 8921SOL     OW38398   4.461   3.985  11.063 -0.0744 -0.1100  0.4488
 8921SOL    HW138399   4.512   4.019  10.989 -1.2139  0.5901 -0.0038
 8921SOL    HW238400   4.532   3.935  11.104  0.0003 -0.0218  0.4286
 8922SOL     OW38401   1.963   4.551   2.891  0.3607 -0.4823 -0.4058
 8922SOL    HW138402   2.049   4.525   2.856  1.5583  1.7474  0.9437
 8922SOL    HW238403   1.904   4.519   2.822  0.1344  0.4109 -0.6212
 8923SOL     OW38404   4.300   1.825   6.501 -0.3604  0.3713 -0.3133
 8923SOL    HW138405   4.312   1.897   6.438  2.2172  1.4192  1.3740
 8923SOL    HW238406   4.261   1.751   6.454  1.1612 -1.7416  1.7341
 8924SOL     OW38407   3.349   0.382  16.052 -0.6422  0.3783  0.0149
 8924SOL    HW138408   3.387   0.469  16.059 -0.2049  0.1125  0.9195
 8924SOL    HW238409   3.388   0.357  15.968  1.8309  2.8685  0.4230
 8925SOL     OW38410   4.583   2.400   9.778 -0.6904  0.4366 -0.3407
 8925SOL    HW138411   4.556   2.332   9.716  0.1786  0.0261 -0.2803
 8925SOL    HW238412   4.521   2.372   9.846  1.2866  0.5265  1.5098
 8926SOL     OW38413   4.369   4.099   6.879  0.1668 -0.0180  0.5138
 8926SOL    HW138414   4.333   4.078   6.793  0.3857 -3.4351  1.2492
 8926SOL    HW238415   4.327   4.040   6.941 -3.1092  1.8742  0.0832
 8927SOL     OW38416   2.951   0.175   1.972  1.1004 -0.2620 -0.0218
 8927SOL    HW138417   2.881   0.207   1.915  0.4128 -1.4664  0.1600
 8927SOL    HW238418   3.017   0.235   1.936  0.8517  0.5569  0.8986
 8928SOL     OW38419   0.464   0.919   3.207  0.1636  0.3650 -0.1597
 8928SOL    HW138420   0.410   0.940   3.131  0.6508  0.3218 -0.5178
 8928SOL    HW238421   0.555   0.919   3.177 -0.6130 -1.0177 -2.4820
 8929SOL     OW38422   0.131   4.739   5.661 -0.2632  0.4677 -0.2581
 8929SOL    HW138423   0.167   4.690   5.587 -0.7529 -0.1138 -0.1098
 8929SOL    HW238424   0.091   4.671   5.715  1.0247  1.1464  1.5896
 8930SOL     OW38425   1.202   4.202   2.111  0.1404 -0.0761 -0.2332
 8930SOL    HW138426   1.193   4.241   2.198 -0.6981 -0.5416 -0.1156
 8930SOL    HW238427   1.183   4.277   2.056 -0.5861  0.9784  1.4682
 8931SOL     OW38428   3.365   4.597   6.002  0.2649  0.0135  0.4150
 8931SOL    HW138429   3.440   4.576   6.058  1.4321 -0.1506 -1.1896
 8931SOL    HW238430   3.361   4.692   6.014  0.2901  0.0758 -0.0592
 8932SOL     OW38431   3.251   3.264   1.156 -0.4132 -0.1387 -0.1792
 8932SOL    HW138432   3.247   3.169   1.170  3.3210  0.0093  1.9218
 8932SOL    HW238433   3.209   3.273   1.071 -0.2857  3.8036  0.1989
 8933SOL     OW38434   4.641   1.895  17.269 -0.2102  0.7976 -0.0973
 8933SOL    HW138435   4.624   1.941  17.351 -0.1666  0.0146  0.3518
 8933SOL    HW238436   4.668   1.968  17.214  1.0470  0.9080  0.6688
 8934SOL     OW38437   4.562   2.312   1.207  0.1048  0.1588  0.0089
 8934SOL    HW138438   4.647   2.317   1.250  0.6639  0.8750 -1.1884
 8934SOL    HW238439   4.554   2.403   1.177  1.3382  0.0252 -0.7253
 8935SOL     OW38440   1.826   0.318   1.366 -0.4688 -0.4088  0.5651
 8935SOL    HW138441   1.891   0.328   1.296 -1.0256  0.7010  0.2099
 8935SOL    HW238442   1.877   0.289   1.442 -1.4087  1.6048  1.9339
 8936SOL     OW38443   0.293   0.905  10.530 -0.0261 -0.1466  0.4139
 8936SOL    HW138444   0.349   0.950  10.468 -2.5869 -1.6716 -3.0011
 8936SOL    HW238445   0.334   0.939  10.610  0.4668 -0.1395  0.1561
 8937SOL     OW38446   4.354   1.411  15.617 -0.2611 -0.2861 -0.0071
 8937SOL    HW138447   4.288   1.350  15.583  1.1067 -1.0821 -1.2121
 8937SOL    HW238448   4.434   1.366  15.589 -0.1086 -0.0698  0.0854
 8938SOL     OW38449   1.895   1.485   6.410 -0.4489  0.2280 -0.6566
 8938SOL    HW138450   1.978   1.533   6.406 -0.9659  1.3743  2.6729
 8938SOL    HW238451   1.833   1.548   6.375 -0.5350  0.9285  0.7900
 8939SOL     OW38452   3.947   4.197   8.673  0.4820 -0.2986  0.0126
 8939SOL    HW138453   3.890   4.120   8.670  1.1773 -0.8710  1.4505
 8939SOL    HW238454   3.918   4.254   8.602  1.3851 -0.7899 -0.7510
 8940SOL     OW38455   3.512   0.834  13.893  0.6384 -0.0892 -0.1202
 8940SOL    HW138456   3.592   0.874  13.927 -1.1317  2.5428  0.9919
 8940SOL    HW238457   3.465   0.917  13.902  2.1661  0.5989  1.5937
 8941SOL     OW38458   4.647   2.465   1.950 -0.9781  0.3587 -0.0034
 8941SOL    HW138459   4.586   2.425   2.012  0.5907 -1.1374  0.5640
 8941SOL    HW238460   4.614   2.434   1.866 -1.9336  4.5013 -1.1600
 8942SOL     OW38461   3.790   3.645   1.841  0.2488  0.1651 -0.0721
 8942SOL    HW138462   3.738   3.694   1.777  1.4440 -0.3658 -1.4280
 8942SOL    HW238463   3.730   3.580   1.878 -1.0722  0.5119 -1.6036
 8943SOL     OW38464   1.024   2.747  17.027 -0.1840 -0.7881  0.7487
 8943SOL    HW138465   0.991   2.756  16.938 -0.4887 -0.6114  0.8790
 8943SOL    HW238466   1.057   2.657  17.024  0.2917 -0.5678 -0.7000
 8944SOL     OW38467   3.560   2.387   1.585  0.4689  0.3942 -0.3716
 8944SOL    HW138468   3.473   2.359   1.615 -0.0047  2.6504  0.3961
 8944SOL    HW238469   3.609   2.319   1.630  0.2162  0.3117 -0.2205
 8945SOL     OW38470   2.891   2.423   8.390  0.1552 -0.6431 -0.0926
 8945SOL    HW138471   2.863   2.408   8.300  0.9368 -0.8303 -0.3028
 8945SOL    HW238472   2.978   2.389   8.411 -0.4980 -3.2058 -1.5675
 8946SOL     OW38473   2.629   4.216   4.038  0.0758  0.4874  0.1220
 8946SOL    HW138474   2.631   4.216   4.134  0.0808 -0.3169  0.1191
 8946SOL    HW238475   2.607   4.124   4.026 -1.8523  0.8164  1.2304
 8947SOL     OW38476   1.885   3.567   9.275 -0.2869  0.0248 -0.2438
 8947SOL    HW138477   1.933   3.606   9.202 -0.0398  0.1939  0.0080
 8947SOL    HW238478   1.801   3.552   9.232  0.9892  0.6755 -2.9476
 8948SOL     OW38479   1.537   2.666   7.606  0.2649 -0.1715  0.4401
 8948SOL    HW138480   1.546   2.648   7.513 -3.7345 -0.4573  0.1091
 8948SOL    HW238481   1.601   2.603   7.640  0.7352  1.1999  2.1283
 8949SOL     OW38482   0.461   3.236  11.668 -0.5513  0.3188 -0.2333
 8949SOL    HW138483   0.483   3.281  11.586 -1.1143 -0.0763 -0.6001
 8949SOL    HW238484   0.412   3.308  11.708  0.7470 -0.0452  1.9711
 8950SOL     OW38485   1.339   3.591   2.953  0.3116 -0.3276 -0.4499
 8950SOL    HW138486   1.321   3.511   3.003  0.1702  0.0129  0.0430
 8950SOL    HW238487   1.425   3.619   2.986 -0.8220  0.8714  1.4445
 8951SOL     OW38488   2.798   1.290   2.824 -0.1717  0.0670 -0.0212
 8951SOL    HW138489   2.850   1.266   2.748 -0.6585 -1.0175 -0.0153
 8951SOL    HW238490   2.761   1.374   2.797 -1.9349  0.6706  4.1568
 8952SOL     OW38491   2.789   2.614   2.583 -0.0731  0.0329 -0.0141
 8952SOL    HW138492   2.798   2.546   2.516  1.3837  1.8838 -1.7024
 8952SOL    HW238493   2.703   2.598   2.624 -1.4353  0.0622 -2.8762
 8953SOL     OW38494   3.816   4.684   9.289  0.3691 -0.5238 -0.3178
 8953SOL    HW138495   3.746   4.736   9.249  0.0563 -0.0728  0.8134
 8953SOL    HW238496   3.880   4.669   9.219  0.5956  0.1917 -0.2576
 8954SOL     OW38497   1.991   0.455   5.093  0.4437 -0.4122  0.2409
 8954SOL    HW138498   2.057   0.416   5.151  0.6066 -1.6257 -0.7481
 8954SOL    HW238499   1.959   0.520   5.156 -2.4095 -1.9161  0.3385
 8955SOL     OW38500   0.679   2.536  12.511 -0.0130  0.6956 -0.0836
 8955SOL    HW138501   0.682   2.594  12.587 -2.8893 -1.5761  1.7047
 8955SOL    HW238502   0.587   2.539  12.487  0.2082  0.8329 -0.9405
 8956SOL     OW38503   1.305   2.975   4.306 -0.3901 -0.2590  0.4754
 8956SOL    HW138504   1.317   3.037   4.234 -0.7634  0.7912  1.3235
 8956SOL    HW238505   1.212   2.956   4.293  0.0586 -0.5298 -2.4062
 8957SOL     OW38506   3.204   2.079   3.867  0.4150 -0.2916 -0.5198
 8957SOL    HW138507   3.125   2.096   3.816 -1.4476 -0.4263  2.2621
 8957SOL    HW238508   3.169   2.092   3.956 -0.6523  0.2740 -1.0284
 8958SOL     OW38509   4.033   3.257   4.881  0.3633  0.0538 -0.1132
 8958SOL    HW138510   4.043   3.225   4.971  2.0585 -1.2542 -0.7684
 8958SOL    HW238511   3.961   3.204   4.848  1.5065 -0.7834 -1.2659
 8959SOL     OW38512   3.090   3.691  13.962 -0.2498  0.1984  0.2697
 8959SOL    HW138513   3.124   3.755  14.024 -0.9963  1.2108 -0.3799
 8959SOL    HW238514   3.080   3.749  13.887 -0.2820 -0.7673 -0.4774
 8960SOL     OW38515   3.872   2.053  15.934  0.0936  0.3364 -0.1573
 8960SOL    HW138516   3.795   2.025  15.984  1.3986  2.2150  2.8911
 8960SOL    HW238517   3.865   2.003  15.853 -1.1306  0.8149 -0.3394
 8961SOL     OW38518   0.482   4.043   3.305  0.2225 -0.3125  0.3388
 8961SOL    HW138519   0.425   3.976   3.268 -1.9985  1.2480  0.9422
 8961SOL    HW238520   0.528   4.066   3.224 -0.5624 -0.8545 -0.2532
 8962SOL     OW38521   3.978   1.910   9.545 -0.9902 -0.2921 -0.0560
 8962SOL    HW138522   3.970   1.852   9.469 -1.2632  1.3115 -1.2566
 8962SOL    HW238523   4.069   1.890   9.565 -0.8728  1.4909  1.2283
 8963SOL     OW38524   4.122   2.965  15.237  0.1025 -0.5020 -0.4668
 8963SOL    HW138525   4.056   3.011  15.289  0.8683 -0.5324  0.5402
 8963SOL    HW238526   4.105   2.875  15.266 -0.4964 -0.1973  0.1155
 8964SOL     OW38527   4.034   3.354   7.005 -0.2948  0.2326  0.2778
 8964SOL    HW138528   4.129   3.344   7.002 -0.4846 -1.7620  0.8138
 8964SOL    HW238529   4.011   3.316   7.090  1.8662  0.0186  0.7733
 8965SOL     OW38530   2.953   4.150   6.186 -0.2826  0.3206  0.3012
 8965SOL    HW138531   2.891   4.081   6.208 -0.8883  1.1731  1.2764
 8965SOL    HW238532   2.934   4.167   6.094  0.0586 -0.9105  0.0040
 8966SOL     OW38533   1.136   0.956   4.529 -0.1546  0.2334 -1.0427
 8966SOL    HW138534   1.210   0.974   4.588 -1.9430  0.8784  0.9997
 8966SOL    HW238535   1.059   0.977   4.582  0.1911  0.3516 -0.5876
 8967SOL     OW38536   0.676   0.189   7.097  0.2023 -0.3529 -0.0698
 8967SOL    HW138537   0.631   0.111   7.129  2.6391 -1.0740  1.6205
 8967SOL    HW238538   0.735   0.193   7.172  1.2636 -0.4275 -0.8980
 8968SOL     OW38539   3.181   4.223   0.337  0.2532 -0.5638 -0.0902
 8968SOL    HW138540   3.195   4.170   0.259 -4.3997 -0.9278 -0.6772
 8968SOL    HW238541   3.262   4.274   0.341 -1.2906  1.7725  1.6176
 8969SOL     OW38542   2.238   0.708   5.290 -1.1733  0.5797  0.4526
 8969SOL    HW138543   2.310   0.750   5.243 -1.5300 -1.2321 -1.7194
 8969SOL    HW238544   2.266   0.620   5.263 -0.9336  0.6029  0.6243
 8970SOL     OW38545   3.854   3.619   7.399  0.2345  0.0894 -0.1938
 8970SOL    HW138546   3.775   3.622   7.345 -0.1866 -2.8341  0.2555
 8970SOL    HW238547   3.821   3.562   7.468 -0.1514  1.1021  0.4604
 8971SOL     OW38548   0.566   3.061   9.191 -0.4499  0.0572  0.8525
 8971SOL    HW138549   0.657   3.032   9.185 -0.5729 -0.3580  1.0161
 8971SOL    HW238550   0.575   3.154   9.213 -1.3403  0.4998 -0.6399
 8972SOL     OW38551   3.101   1.288   4.121 -0.4989  0.0458  0.3589
 8972SOL    HW138552   3.119   1.238   4.042  1.7077  2.3336 -0.5727
 8972SOL    HW238553   3.135   1.227   4.186  0.1049 -0.6727 -0.6529
 8973SOL     OW38554   2.467   4.155   5.124  0.4238 -0.0972 -0.5349
 8973SOL    HW138555   2.416   4.196   5.193 -2.6070 -1.6522 -1.8533
 8973SOL    HW238556   2.448   4.062   5.132 -0.6776 -0.0536 -2.5497
 8974SOL     OW38557   0.543   1.921  16.309  0.2041  0.7757  0.0021
 8974SOL    HW138558   0.619   1.980  16.299  0.9395 -0.5692 -2.4303
 8974SOL    HW238559   0.583   1.836  16.324 -1.9914 -0.0988  0.8019
 8975SOL     OW38560   1.486   3.102  11.560 -0.1631 -0.1922  0.2782
 8975SOL    HW138561   1.407   3.081  11.610 -0.6891 -1.5751 -1.1489
 8975SOL    HW238562   1.529   3.152  11.630  1.6316 -1.3698  0.0108
 8976SOL     OW38563   1.476   0.718   4.349 -0.2866 -0.6629 -0.2273
 8976SOL    HW138564   1.519   0.632   4.354  1.5325  0.2681  0.1652
 8976SOL    HW238565   1.413   0.702   4.280  3.1184 -0.7781 -3.3133
 8977SOL     OW38566   3.609   1.429  15.142  0.0087 -0.5524  0.3202
 8977SOL    HW138567   3.534   1.374  15.118 -0.2282  0.3784 -1.1193
 8977SOL    HW238568   3.674   1.388  15.085  1.4969  1.5101  0.5492
 8978SOL     OW38569   1.170   1.852  11.936  0.1833  0.0393  0.2972
 8978SOL    HW138570   1.093   1.841  11.991  0.2081 -0.6354  0.2014
 8978SOL    HW238571   1.201   1.761  11.931 -1.6590 -0.5511 -0.2758
 8979SOL     OW38572   2.277   0.601   5.676 -0.2596  0.9838  0.0021
 8979SOL    HW138573   2.334   0.544   5.624 -1.6555 -0.6586  0.2705
 8979SOL    HW238574   2.328   0.682   5.674 -2.3094  2.2798 -0.0103
 8980SOL     OW38575   3.990   2.626  14.983  0.1773 -0.2955 -0.0233
 8980SOL    HW138576   3.954   2.595  15.067 -0.3176  0.5327  0.0709
 8980SOL    HW238577   3.997   2.719  15.006 -0.4939 -0.5796  1.3795
 8981SOL     OW38578   4.107   3.679  15.133  0.6192  0.2376  0.2618
 8981SOL    HW138579   4.090   3.588  15.159  3.3733  0.1807  1.9284
 8981SOL    HW238580   4.174   3.667  15.065 -0.9495  2.3177 -1.6320
 8982SOL     OW38581   3.477   3.370  14.525  0.6895  0.1092  0.4058
 8982SOL    HW138582   3.447   3.365  14.434  0.8041 -1.4974  0.4563
 8982SOL    HW238583   3.476   3.464  14.542  1.3478  0.6804 -2.6953
 8983SOL     OW38584   1.639   0.886  14.430 -0.1938 -0.1512 -0.2591
 8983SOL    HW138585   1.727   0.906  14.398  0.2980  0.4756  1.4794
 8983SOL    HW238586   1.627   0.804  14.382  2.6629  0.4720 -2.0258
 8984SOL     OW38587   2.701   1.254  16.497 -0.6817 -0.0294 -0.6077
 8984SOL    HW138588   2.773   1.292  16.547  1.7556 -3.1111 -1.7162
 8984SOL    HW238589   2.637   1.270  16.566  1.3829 -0.8763  1.4890
 8985SOL     OW38590   1.655   0.714   8.944  0.4072 -0.5559 -0.3207
 8985SOL    HW138591   1.579   0.658   8.959 -0.5356  0.5031 -1.1593
 8985SOL    HW238592   1.629   0.784   9.004  3.3813  0.8609 -0.6984
 8986SOL     OW38593   2.198   2.951   9.978 -0.3531  0.0318 -0.1651
 8986SOL    HW138594   2.201   2.897  10.057  0.6274 -1.4142 -1.1857
 8986SOL    HW238595   2.257   2.908   9.915  0.8716  2.3128 -0.5821
 8987SOL     OW38596   3.605   3.430   7.919  0.3989  0.2655 -0.2486
 8987SOL    HW138597   3.611   3.400   7.828  0.2465  0.5543 -0.3534
 8987SOL    HW238598   3.631   3.350   7.965  0.8328  0.9933  0.7626
 8988SOL     OW38599   2.097   0.912   9.389  0.1940 -0.3325 -0.3834
 8988SOL    HW138600   2.170   0.857   9.361  0.4563  0.3181 -0.9824
 8988SOL    HW238601   2.136   0.951   9.468  1.4008  2.2321 -2.2213
 8989SOL     OW38602   4.056   3.585  12.853 -0.7798 -0.2223 -0.5434
 8989SOL    HW138603   3.974   3.576  12.804 -2.3136  1.1035  1.7645
 8989SOL    HW238604   4.021   3.603  12.940 -1.2757  0.7186 -0.9411
 8990SOL     OW38605   0.332   0.298   5.445  0.3227 -0.7365 -0.7580
 8990SOL    HW138606   0.300   0.294   5.535  4.6164 -1.7521  0.7268
 8990SOL    HW238607   0.247   0.283   5.404  1.0803 -3.7709 -1.2474
 8991SOL     OW38608   3.067   0.626  11.926 -0.3104  0.3094  0.1889
 8991SOL    HW138609   3.088   0.691  11.992  1.1005  0.8962 -0.8301
 8991SOL    HW238610   3.092   0.551  11.979  0.0691 -0.5486 -1.2087
 8992SOL     OW38611   2.261   0.747   9.233 -0.6679 -0.7727  0.4966
 8992SOL    HW138612   2.294   0.688   9.166  0.4157  0.5078 -0.0894
 8992SOL    HW238613   2.228   0.821   9.182 -0.3258 -0.7485  0.3130
 8993SOL     OW38614   4.072   0.267  17.729 -0.1752 -0.1540  0.1108
 8993SOL    HW138615   4.064   0.194   0.033 -0.6098 -0.8495 -0.7730
 8993SOL    HW238616   4.155   0.250  17.684  0.4289 -2.0170  1.9105
 8994SOL     OW38617   3.778   1.951   7.519  0.6139  0.3432 -0.2238
 8994SOL    HW138618   3.786   2.034   7.472  0.2568  0.4121 -0.1705
 8994SOL    HW238619   3.688   1.933   7.491  0.6180 -1.1636  0.7549
 8995SOL     OW38620   1.785   1.359   1.310 -0.3330 -0.4516 -0.3624
 8995SOL    HW138621   1.783   1.276   1.356 -0.1683  0.1437  0.7037
 8995SOL    HW238622   1.810   1.418   1.381  1.9605 -0.5978 -1.0615
 8996SOL     OW38623   1.415   2.882   9.756 -0.4207  0.0800  0.0571
 8996SOL    HW138624   1.377   2.942   9.820 -1.0063 -0.7101  0.4511
 8996SOL    HW238625   1.337   2.837   9.725  1.1976 -0.7305 -2.9404
 8997SOL     OW38626   1.010   0.975   6.352  0.0806  0.2967  0.1403
 8997SOL    HW138627   1.044   0.958   6.265 -0.1795 -0.7909  0.2485
 8997SOL    HW238628   1.090   0.966   6.403 -0.0480  1.3932  0.5452
 8998SOL     OW38629   2.393   2.216   6.093 -0.3197  0.5808  0.0522
 8998SOL    HW138630   2.308   2.239   6.130 -1.3368 -3.3076  0.1504
 8998SOL    HW238631   2.442   2.297   6.103 -0.0501  0.4910 -0.5518
 8999SOL     OW38632   0.521   0.139  13.329  0.2557  0.6728  0.6127
 8999SOL    HW138633   0.580   0.156  13.255  0.0862 -1.7102 -0.0734
 8999SOL    HW238634   0.537   0.221  13.376  0.3416 -0.6484  2.8863
 9000SOL     OW38635   2.408   1.336   0.605 -0.1657  0.0426  0.1977
 9000SOL    HW138636   2.471   1.274   0.641 -1.0282 -2.2327 -2.2533
 9000SOL    HW238637   2.335   1.330   0.667 -0.5288 -0.5235 -0.2878
 9001SOL     OW38638   1.700   1.862   4.242  0.2578 -0.1599 -0.3314
 9001SOL    HW138639   1.645   1.903   4.309  2.1952  2.9619 -0.6566
 9001SOL    HW238640   1.637   1.810   4.191  0.0067 -1.3916  1.2437
 9002SOL     OW38641   2.055   0.383   7.584  0.0556 -0.2077 -0.5089
 9002SOL    HW138642   1.989   0.452   7.589 -0.0157 -0.1967 -1.7972
 9002SOL    HW238643   2.030   0.341   7.502  0.1458  0.0585 -0.6719
 9003SOL     OW38644   4.720   4.359  12.887 -0.0286  0.4015  0.5134
 9003SOL    HW138645   4.732   4.453  12.896 -0.3451  0.5589 -0.6591
 9003SOL    HW238646   4.721   4.328  12.978  0.5665 -0.3137  0.2650
 9004SOL     OW38647   2.337   3.215   4.099  0.5407  0.4021  0.3683
 9004SOL    HW138648   2.305   3.217   4.189 -0.2777  1.1076  0.0608
 9004SOL    HW238649   2.431   3.227   4.113  0.5883 -0.6995  1.0018
 9005SOL     OW38650   3.844   0.124   6.316 -0.1741  0.5531  0.0732
 9005SOL    HW138651   3.939   0.112   6.319 -0.0418  2.0002  1.5546
 9005SOL    HW238652   3.822   0.211   6.347  0.8228  0.5502  0.8078
 9006SOL     OW38653   3.968   3.305  16.341 -0.4789  0.0484  0.1079
 9006SOL    HW138654   3.980   3.367  16.268 -0.4760  0.6509  0.6159
 9006SOL    HW238655   3.985   3.221  16.298  0.0712  0.4926 -0.5481
 9007SOL     OW38656   4.336   3.467   5.203  0.2141  0.1281  0.7223
 9007SOL    HW138657   4.348   3.384   5.250 -0.6215 -0.8072 -0.7320
 9007SOL    HW238658   4.303   3.520   5.277 -0.1779 -0.7667  1.1885
 9008SOL     OW38659   2.518   2.685   5.082 -0.7122 -0.0633  0.3338
 9008SOL    HW138660   2.444   2.651   5.033 -1.5649  0.0228  1.5475
 9008SOL    HW238661   2.482   2.678   5.171 -0.2294  1.9905  0.6882
 9009SOL     OW38662   1.828   0.548   3.449 -0.0722  0.4943  0.6226
 9009SOL    HW138663   1.765   0.476   3.449  1.4247 -0.7947  0.7407
 9009SOL    HW238664   1.776   0.613   3.402  1.0204  1.3705  0.6359
 9010SOL     OW38665   4.002   1.509   8.138  0.3117  0.3458  0.3727
 9010SOL    HW138666   3.988   1.499   8.043 -0.9503 -1.5206  0.7660
 9010SOL    HW238667   4.064   1.437   8.148 -0.2231 -0.1720 -0.0687
 9011SOL     OW38668   3.700   3.637   4.238 -0.1334  0.2546 -0.6885
 9011SOL    HW138669   3.680   3.711   4.295  1.4158 -0.0374  0.2144
 9011SOL    HW238670   3.774   3.604   4.289 -0.6239  1.8593  1.0753
 9012SOL     OW38671   1.252   3.270  15.189 -0.4565  0.2478 -0.0110
 9012SOL    HW138672   1.317   3.340  15.181 -0.4960  0.2905  0.0411
 9012SOL    HW238673   1.276   3.216  15.113 -0.3585 -0.8219  0.7866
 9013SOL     OW38674   3.846   3.518   9.522  0.4983 -0.2286 -0.0730
 9013SOL    HW138675   3.902   3.441   9.528 -0.2712 -0.7970 -0.0647
 9013SOL    HW238676   3.820   3.528   9.430 -1.9234 -1.5233  0.4550
 9014SOL     OW38677   4.267   0.503   3.167  0.1745 -0.2161 -0.1240
 9014SOL    HW138678   4.350   0.461   3.146  1.1084  0.9172  1.2595
 9014SOL    HW238679   4.295   0.563   3.237 -1.1261  1.0374 -0.6857
 9015SOL     OW38680   3.131   3.686   6.640 -0.9091 -0.3664  0.5194
 9015SOL    HW138681   3.204   3.629   6.662 -1.6921 -1.1385  1.1348
 9015SOL    HW238682   3.084   3.681   6.723  1.2921  0.4278  1.8154
 9016SOL     OW38683   3.312   1.110   2.700  0.6996  0.0864  0.0982
 9016SOL    HW138684   3.358   1.060   2.767  3.5809  0.3652 -1.6722
 9016SOL    HW238685   3.374   1.177   2.672 -0.8757  1.1981 -0.6978
 9017SOL     OW38686   0.415   0.224   5.022 -0.5605 -0.5062 -0.1204
 9017SOL    HW138687   0.492   0.257   4.975 -0.3729 -0.2913  0.3361
 9017SOL    HW238688   0.398   0.293   5.087 -0.9726  0.3418 -1.1248
 9018SOL     OW38689   3.475   0.626  12.132  0.0810  0.5325  0.3404
 9018SOL    HW138690   3.530   0.585  12.199  0.4654 -3.2981 -2.2838
 9018SOL    HW238691   3.397   0.642  12.185 -0.2960  1.7927 -0.6100
 9019SOL     OW38692   1.619   1.108  14.576 -0.1985  0.2870  0.5801
 9019SOL    HW138693   1.535   1.130  14.534 -0.0081  0.5223  0.3250
 9019SOL    HW238694   1.630   1.018  14.543  2.2118  0.7369  0.1457
 9020SOL     OW38695   0.307   1.796   6.349  0.3942 -0.6297  0.2448
 9020SOL    HW138696   0.307   1.885   6.314  1.1762 -0.1401  1.4782
 9020SOL    HW238697   0.380   1.757   6.301 -0.4337 -0.3733 -1.2176
 9021SOL     OW38698   4.720   0.031  14.543  0.3173  0.4410 -0.1511
 9021SOL    HW138699   4.682   0.020  14.455  0.4598 -0.1541 -0.1335
 9021SOL    HW238700   0.040   0.104  14.527  1.3879 -0.8634 -2.1826
 9022SOL     OW38701   2.399   3.517   0.276  0.0310  0.0438 -0.4177
 9022SOL    HW138702   2.488   3.518   0.311 -0.3033 -0.5205  0.4611
 9022SOL    HW238703   2.379   3.605   0.310  0.9426  0.3746 -0.7569
 9023SOL     OW38704   3.449   0.105  16.076 -0.3154  0.0757 -0.2856
 9023SOL    HW138705   3.406   0.054  16.007 -0.8654 -0.1976  0.2537
 9023SOL    HW238706   3.372   0.158  16.098  0.4314  0.1715  2.0250
 9024SOL     OW38707   3.718   2.465   7.888 -0.5982  0.3178 -0.3995
 9024SOL    HW138708   3.794   2.432   7.935 -0.9445 -0.3488 -0.3188
 9024SOL    HW238709   3.713   2.399   7.818 -1.4786  0.1410 -0.1664
 9025SOL     OW38710   2.729   0.614   9.316 -0.3276 -0.1456 -0.5296
 9025SOL    HW138711   2.680   0.680   9.363  0.9400  0.7861 -0.5082
 9025SOL    HW238712   2.663   0.545   9.315 -2.6964  2.1918 -1.6792
 9026SOL     OW38713   3.787   1.915   8.623 -0.2998 -0.2964 -0.1049
 9026SOL    HW138714   3.753   1.878   8.542  0.1205 -0.0041 -0.4169
 9026SOL    HW238715   3.881   1.919   8.605 -0.4264 -1.1060 -0.9403
 9027SOL     OW38716   1.716   0.713   3.212  0.2509  0.6321 -0.0135
 9027SOL    HW138717   1.631   0.751   3.188  0.4150  0.9933 -0.0189
 9027SOL    HW238718   1.749   0.678   3.129 -2.0180 -0.5823 -0.4027
 9028SOL     OW38719   2.046   1.546   8.918 -0.0545 -0.2430 -0.1671
 9028SOL    HW138720   2.113   1.605   8.881 -0.2896 -0.2307 -0.5822
 9028SOL    HW238721   1.993   1.530   8.840 -0.5447  3.5902 -0.6647
 9029SOL     OW38722   4.325   2.963   6.411 -0.4612 -0.1765 -0.5525
 9029SOL    HW138723   4.362   2.921   6.334  1.7417  0.1127  0.3317
 9029SOL    HW238724   4.230   2.964   6.399 -0.5116 -0.0770 -0.1614
 9030SOL     OW38725   1.292   2.506   3.479  0.0514 -0.1294 -0.3730
 9030SOL    HW138726   1.375   2.487   3.435 -1.2307 -0.3151 -2.7511
 9030SOL    HW238727   1.254   2.421   3.458 -2.0732  1.2312 -2.0830
 9031SOL     OW38728   4.136   0.717  12.832 -0.2418 -0.2437  0.0753
 9031SOL    HW138729   4.212   0.684  12.786 -2.4781 -0.3990 -3.4835
 9031SOL    HW238730   4.111   0.791  12.777 -4.2144 -2.5630 -1.2742
 9032SOL     OW38731   4.105   0.535   3.802  0.2027 -0.0545 -0.4028
 9032SOL    HW138732   4.061   0.618   3.813  2.5647  0.9203  1.7115
 9032SOL    HW238733   4.048   0.479   3.749  1.4604 -1.6875 -0.0388
 9033SOL     OW38734   0.886   4.124  13.197 -0.5086  0.2851  0.0316
 9033SOL    HW138735   0.887   4.183  13.273 -2.6355 -0.9526  1.0119
 9033SOL    HW238736   0.898   4.187  13.126  1.5174 -0.0676  0.0652
 9034SOL     OW38737   1.718   1.476   9.583  0.4512 -0.4315  0.2629
 9034SOL    HW138738   1.665   1.397   9.576 -0.5000 -0.0864  3.6250
 9034SOL    HW238739   1.694   1.508   9.670  2.3321 -2.2190  1.4419
 9035SOL     OW38740   2.440   3.453  14.107 -0.5973  0.8989  0.5942
 9035SOL    HW138741   2.352   3.414  14.107  0.1477 -0.7400 -0.7991
 9035SOL    HW238742   2.454   3.437  14.201 -3.7795 -0.3279  0.8751
 9036SOL     OW38743   4.196   4.154   3.446  0.2064 -0.1247  0.1680
 9036SOL    HW138744   4.177   4.146   3.539  2.4164 -0.8809  0.5528
 9036SOL    HW238745   4.285   4.126   3.425  0.3987 -0.8094  1.9325
 9037SOL     OW38746   1.816   1.337   2.599  0.2393  0.2316  0.2432
 9037SOL    HW138747   1.794   1.429   2.605 -1.0713 -0.0093 -0.9367
 9037SOL    HW238748   1.864   1.316   2.680 -0.1132 -2.0977 -0.1301
 9038SOL     OW38749   1.104   4.061   2.465 -0.2008  0.6148 -0.0144
 9038SOL    HW138750   1.046   3.986   2.481  0.9574 -0.3194 -0.2441
 9038SOL    HW238751   1.117   4.093   2.555  1.8043 -0.0859 -0.0533
 9039SOL     OW38752   3.941   3.396   6.774  0.3740  0.2543  0.1994
 9039SOL    HW138753   3.974   3.386   6.863  1.2901 -0.6055 -0.2333
 9039SOL    HW238754   4.017   3.382   6.718 -0.0864 -0.7824 -0.1692
 9040SOL     OW38755   4.330   0.110   6.155 -0.2971 -0.0784  0.1236
 9040SOL    HW138756   4.261   0.157   6.202  0.2893 -0.0384  0.9452
 9040SOL    HW238757   4.307   0.135   6.065 -1.5332 -0.9877  0.1829
 9041SOL     OW38758   2.891   3.307  15.742  0.5185  0.5586 -0.0770
 9041SOL    HW138759   2.827   3.337  15.807  2.0666 -1.7103  2.5309
 9041SOL    HW238760   2.910   3.224  15.786 -0.8874  0.6458  0.7054
 9042SOL     OW38761   1.763   3.058   3.529 -0.1243 -0.2792  0.2102
 9042SOL    HW138762   1.813   2.977   3.528  0.9949  0.4288 -0.7157
 9042SOL    HW238763   1.831   3.116   3.496 -0.2753  0.8248  1.8276
 9043SOL     OW38764   2.461   0.010   8.775  0.5811 -0.1907  0.1299
 9043SOL    HW138765   2.510   0.047   8.848 -0.6401  1.1746  0.2538
 9043SOL    HW238766   2.375   0.042   8.803  0.1475 -0.2711 -1.1003
 9044SOL     OW38767   0.444   0.447  12.226 -0.2646  0.2124 -0.2983
 9044SOL    HW138768   0.476   0.491  12.305 -0.5977  0.4045 -0.2701
 9044SOL    HW238769   0.432   0.520  12.165 -1.5939  1.1284  1.0658
 9045SOL     OW38770   3.632   4.125   6.530  0.0450  0.4681 -0.1307
 9045SOL    HW138771   3.620   4.059   6.599 -0.9132 -0.2278 -0.9701
 9045SOL    HW238772   3.721   4.153   6.552 -0.6533  1.5129  1.3710
 9046SOL     OW38773   1.420   3.809   7.716 -0.0413  0.1444  0.0264
 9046SOL    HW138774   1.426   3.751   7.791 -0.9663  1.4061  1.0767
 9046SOL    HW238775   1.372   3.882   7.755  1.0891 -1.1258  3.8146
 9047SOL     OW38776   1.759   0.354   6.588 -0.0344  0.2660 -0.2648
 9047SOL    HW138777   1.822   0.284   6.568  2.2158  2.4415 -0.8556
 9047SOL    HW238778   1.676   0.310   6.569  0.5155 -1.2215  0.8007
 9048SOL     OW38779   1.230   4.352  15.784 -0.1999 -0.4555  0.1512
 9048SOL    HW138780   1.244   4.260  15.808  1.1922 -0.5554 -1.0163
 9048SOL    HW238781   1.316   4.372  15.748  0.9247  0.0568  3.2127
 9049SOL     OW38782   4.634   2.301   4.852 -0.3570  0.4805  0.2375
 9049SOL    HW138783   4.714   2.331   4.894  0.3305 -1.7401  0.5438
 9049SOL    HW238784   4.667   2.225   4.803 -1.0219 -0.5588  1.3910
 9050SOL     OW38785   1.981   4.163  15.633  0.7253  0.0181  0.5426
 9050SOL    HW138786   2.017   4.109  15.703  0.1971  0.6548  1.3167
 9050SOL    HW238787   1.944   4.101  15.570  1.7038  0.6670 -0.6733
 9051SOL     OW38788   0.832   0.207   7.312  0.3710  0.3237  0.8199
 9051SOL    HW138789   0.926   0.192   7.301  0.7193  1.1699  2.7377
 9051SOL    HW238790   0.825   0.258   7.393  1.5003  2.1283 -0.2056
 9052SOL     OW38791   4.413   0.975   6.295 -0.9323 -0.2738 -0.2312
 9052SOL    HW138792   4.367   1.056   6.278 -3.2534 -1.4234  0.5935
 9052SOL    HW238793   4.484   0.982   6.231 -1.1949 -0.1451 -0.5058
 9053SOL     OW38794   2.410   4.354   9.769  0.6744  0.0362  0.0717
 9053SOL    HW138795   2.366   4.270   9.756  1.2967 -0.7033  2.6504
 9053SOL    HW238796   2.338   4.409   9.801  0.6671  0.1315 -0.1077
 9054SOL     OW38797   1.693   3.865  14.316  0.0774  0.3321  0.1122
 9054SOL    HW138798   1.729   3.867  14.405 -0.7517  0.9322  0.4409
 9054SOL    HW238799   1.656   3.777  14.314  0.1593  0.3233 -1.0764
 9055SOL     OW38800   0.464   1.960   2.209  0.8850  0.5137 -0.3851
 9055SOL    HW138801   0.485   2.021   2.138  1.6825  1.8993  1.0610
 9055SOL    HW238802   0.369   1.960   2.201  0.6444 -0.0779  2.5863
 9056SOL     OW38803   1.326   4.310  10.375  0.0999 -0.2623 -0.3699
 9056SOL    HW138804   1.371   4.395  10.371 -1.2845  0.5063  0.3398
 9056SOL    HW238805   1.366   4.264  10.301 -2.0187  1.1626 -2.4013
 9057SOL     OW38806   2.951   3.111   3.747  0.1544  0.0285 -0.5249
 9057SOL    HW138807   2.964   3.164   3.668  0.7498 -0.9335 -1.0754
 9057SOL    HW238808   3.038   3.121   3.786 -0.2182 -1.0818  0.5879
 9058SOL     OW38809   2.944   2.779   1.705 -0.4728  0.2989 -0.7525
 9058SOL    HW138810   2.849   2.785   1.718 -0.3107  0.2259  0.4928
 9058SOL    HW238811   2.965   2.871   1.688  1.3189 -0.0854 -0.5908
 9059SOL     OW38812   0.889   0.213   2.392  0.4010  0.1721  0.2180
 9059SOL    HW138813   0.969   0.177   2.352  0.2799  1.3540 -1.0995
 9059SOL    HW238814   0.898   0.308   2.382  0.6961  0.0448 -0.7020
 9060SOL     OW38815   0.702   2.460   9.191 -0.6043 -0.0048  0.3815
 9060SOL    HW138816   0.620   2.411   9.181  0.8170 -2.7535  1.9205
 9060SOL    HW238817   0.763   2.386   9.193  1.4001  1.6759  0.6675
 9061SOL     OW38818   1.190   4.544   8.085 -0.2470  0.4500  0.1661
 9061SOL    HW138819   1.134   4.560   8.008 -0.4861 -0.1820  0.2034
 9061SOL    HW238820   1.130   4.578   8.152 -0.2325 -2.8142  1.8322
 9062SOL     OW38821   2.914   1.588  11.653 -0.4713 -0.0688 -0.1382
 9062SOL    HW138822   2.929   1.674  11.691  0.9385 -0.5555  0.3896
 9062SOL    HW238823   2.978   1.531  11.695  0.0436  1.7450  1.5251
 9063SOL     OW38824   2.516   1.513  13.609 -0.0128 -0.2523  0.0826
 9063SOL    HW138825   2.485   1.573  13.541  0.8602  0.1000 -0.0065
 9063SOL    HW238826   2.575   1.452  13.564  1.0471  1.0116 -0.2306
 9064SOL     OW38827   0.210   3.048  12.111 -0.0736  0.0245 -0.1021
 9064SOL    HW138828   0.251   3.132  12.092  1.1648 -0.6396 -0.3162
 9064SOL    HW238829   0.187   3.060  12.203  0.5159 -0.1724  0.0679
 9065SOL     OW38830   4.084   0.865  13.373 -0.0993 -0.3068  0.0207
 9065SOL    HW138831   4.091   0.880  13.468 -0.4177  0.0892 -0.0173
 9065SOL    HW238832   4.111   0.774  13.371  0.3064 -0.2326  1.5185
 9066SOL     OW38833   3.774   1.427  12.936  0.0641 -0.2005 -0.5058
 9066SOL    HW138834   3.749   1.475  12.857  0.6842  1.4747  0.3160
 9066SOL    HW238835   3.701   1.451  12.993 -0.0835 -1.9480  0.0465
 9067SOL     OW38836   3.094   0.251   4.620 -0.4299 -0.5048  0.0849
 9067SOL    HW138837   3.183   0.286   4.608 -1.0015  1.2592  1.1016
 9067SOL    HW238838   3.100   0.181   4.555 -3.0387 -0.1542 -0.4947
 9068SOL     OW38839   1.019   2.518   8.265  0.3791 -0.3407  0.2823
 9068SOL    HW138840   0.994   2.448   8.204 -0.2922 -0.9557  1.2598
 9068SOL    HW238841   0.946   2.578   8.250 -0.0720 -1.0455 -0.3354
 9069SOL     OW38842   0.636   4.457   6.974 -0.4059  0.1378  0.5990
 9069SOL    HW138843   0.666   4.443   6.885  0.7124 -0.4362  1.0648
 9069SOL    HW238844   0.574   4.384   6.975 -0.7571  0.4396  0.9806
 9070SOL     OW38845   2.894   1.062   2.438 -0.8210 -0.5372  0.2924
 9070SOL    HW138846   2.857   1.146   2.465 -1.1350 -0.7093  0.3997
 9070SOL    HW238847   2.949   1.076   2.361 -1.5746 -2.4261 -0.6003
 9071SOL     OW38848   1.146   3.010   4.934 -0.0986 -0.3691  0.1600
 9071SOL    HW138849   1.224   2.958   4.915  1.0193  0.1852  3.2198
 9071SOL    HW238850   1.110   3.039   4.850 -3.2934  1.3287  2.1217
 9072SOL     OW38851   3.565   3.593   4.592 -0.4819 -0.3717  0.3745
 9072SOL    HW138852   3.616   3.667   4.559  0.4891 -0.1980  2.2673
 9072SOL    HW238853   3.489   3.593   4.534 -0.8110 -1.3023  0.8037
 9073SOL     OW38854   1.437   4.403   0.370 -0.2791 -0.8273  0.0922
 9073SOL    HW138855   1.357   4.419   0.420 -0.7379  0.0996 -0.9525
 9073SOL    HW238856   1.501   4.418   0.440  0.8282  0.6294 -1.2406
 9074SOL     OW38857   2.983   2.604  12.959 -0.2764  0.7039 -0.2170
 9074SOL    HW138858   3.002   2.528  12.904  2.1861  1.9784 -1.1312
 9074SOL    HW238859   3.005   2.676  12.900  1.5026  1.4469  1.3450
 9075SOL     OW38860   2.247   0.471   3.015 -0.1284  0.4064 -0.0516
 9075SOL    HW138861   2.295   0.526   3.077  0.1225 -1.4468  1.3971
 9075SOL    HW238862   2.308   0.399   3.032 -1.4732 -0.8974 -0.7033
 9076SOL     OW38863   2.495   2.476  14.264  0.4228 -0.1665 -0.4867
 9076SOL    HW138864   2.566   2.526  14.303  0.0837 -0.2021  0.1700
 9076SOL    HW238865   2.496   2.389  14.304  0.4792 -0.1825 -0.5221
 9077SOL     OW38866   2.982   0.012   3.715  0.1997  0.0762 -0.2282
 9077SOL    HW138867   2.896   0.052   3.723  0.5420  0.4080  1.5975
 9077SOL    HW238868   2.961   4.658   3.718 -0.5592  0.2462 -0.3325
 9078SOL     OW38869   0.967   3.113   1.576 -0.1491  0.5952  0.5294
 9078SOL    HW138870   0.949   3.053   1.503 -3.8953 -0.5722  2.4212
 9078SOL    HW238871   0.986   3.050   1.646  0.5770 -1.0209 -1.1211
 9079SOL     OW38872   2.528   4.573   7.006 -0.2377 -0.2521  0.2652
 9079SOL    HW138873   2.562   4.529   6.928  2.7205  0.5227  1.1009
 9079SOL    HW238874   2.476   4.502   7.044 -0.1209 -0.1747  0.5731
 9080SOL     OW38875   1.145   1.481   5.060  0.4247 -0.3850  0.4320
 9080SOL    HW138876   1.240   1.480   5.059  0.4256  0.2935 -0.5834
 9080SOL    HW238877   1.130   1.554   5.121 -1.5628  0.1431 -0.6823
 9081SOL     OW38878   2.262   2.592   9.180  0.2367 -0.4024 -0.5810
 9081SOL    HW138879   2.187   2.640   9.217  0.1900 -0.4924 -0.5587
 9081SOL    HW238880   2.319   2.584   9.256 -1.0118 -1.1158  0.2851
 9082SOL     OW38881   3.695   3.859  17.455  0.0320 -0.0456  0.3394
 9082SOL    HW138882   3.779   3.850  17.502  0.0772 -0.6267  0.1498
 9082SOL    HW238883   3.682   3.953  17.468  1.3325  0.0622  0.8558
 9083SOL     OW38884   1.708   0.099   2.837  0.6831 -1.1122 -0.3302
 9083SOL    HW138885   1.665   0.042   2.773  0.8496  0.6539 -1.9809
 9083SOL    HW238886   1.663   0.181   2.820  2.3698  0.0144  0.7170
 9084SOL     OW38887   0.286   2.840   6.456  0.6625 -0.6380 -0.0095
 9084SOL    HW138888   0.313   2.903   6.523  0.1517 -0.6011  0.1646
 9084SOL    HW238889   0.373   2.808   6.432  0.1067 -2.2860  0.1342
 9085SOL     OW38890   4.163   2.054   4.028 -0.3826 -0.3520 -0.2129
 9085SOL    HW138891   4.243   2.056   4.081 -0.0735  0.2473 -0.7093
 9085SOL    HW238892   4.106   2.043   4.105 -0.6677  1.0259 -0.2188
 9086SOL     OW38893   1.898   1.986   0.043  0.2934  0.9373 -0.0055
 9086SOL    HW138894   1.825   1.987   0.105 -1.2255 -1.1599 -1.7599
 9086SOL    HW238895   1.969   2.015   0.100  1.0681 -1.2045  0.1187
 9087SOL     OW38896   0.965   1.774   8.875  0.1784 -0.2052 -0.1235
 9087SOL    HW138897   1.003   1.729   8.800 -0.6928 -1.4696  0.1687
 9087SOL    HW238898   0.889   1.820   8.839 -0.4458  0.4979  2.0591
 9088SOL     OW38899   2.042   0.090   5.600 -0.0860  0.1756  0.1296
 9088SOL    HW138900   2.067   0.182   5.592 -1.7313  0.3570 -2.7306
 9088SOL    HW238901   2.100   0.055   5.668  0.5276 -1.2445 -1.1206
 9089SOL     OW38902   4.363   0.903  13.259  0.2982  0.1828 -0.2143
 9089SOL    HW138903   4.298   0.894  13.328 -0.5490  1.1046 -0.8747
 9089SOL    HW238904   4.353   0.830  13.198 -2.7239  1.0108 -0.7154
 9090SOL     OW38905   1.444   0.640  10.883 -0.2135 -0.1115 -0.4120
 9090SOL    HW138906   1.438   0.595  10.968  0.7048  0.3274 -0.1110
 9090SOL    HW238907   1.418   0.726  10.917  1.1781  0.6263 -1.2611
 9091SOL     OW38908   3.152   4.372   0.576  0.2361  0.6012  0.2144
 9091SOL    HW138909   3.209   4.448   0.562 -1.1192  1.3368 -1.4136
 9091SOL    HW238910   3.152   4.335   0.488  0.6870 -0.2543  0.5735
 9092SOL     OW38911   2.793   1.496  11.426 -0.1965  0.4183  0.1556
 9092SOL    HW138912   2.838   1.572  11.390 -0.3556 -0.5341 -2.0350
 9092SOL    HW238913   2.826   1.510  11.515 -4.3388  1.4461  1.5210
 9093SOL     OW38914   0.790   4.659   8.499 -0.0181  0.0040  0.3829
 9093SOL    HW138915   0.805   4.568   8.473  0.0415 -0.1077  0.8134
 9093SOL    HW238916   0.720   4.687   8.440  0.3852 -0.8566 -0.5014
 9094SOL     OW38917   4.306   1.764   8.550 -0.2657  0.0073  0.4895
 9094SOL    HW138918   4.353   1.811   8.619  0.1350 -0.5241  0.5754
 9094SOL    HW238919   4.370   1.699   8.520  0.3809  0.7716  0.2359
 9095SOL     OW38920   1.253   2.730   3.731  0.5282 -0.0678  0.3113
 9095SOL    HW138921   1.301   2.651   3.708 -0.0560 -0.3000 -0.1226
 9095SOL    HW238922   1.215   2.750   3.645 -1.3170 -1.3721  0.8210
 9096SOL     OW38923   0.506   2.768   0.967 -0.1471  1.0741 -0.8511
 9096SOL    HW138924   0.423   2.751   0.922 -0.0443 -1.2816 -0.1329
 9096SOL    HW238925   0.564   2.751   0.893 -1.5306  1.2347 -1.9647
 9097SOL     OW38926   2.893   3.481   3.854  0.1361 -0.1167 -0.2334
 9097SOL    HW138927   2.949   3.536   3.909  0.9653 -0.2703 -0.9251
 9097SOL    HW238928   2.869   3.410   3.913  0.6699  0.6498  0.9057
 9098SOL     OW38929   2.054   0.996   1.800 -0.1829 -0.3878  1.0463
 9098SOL    HW138930   2.103   0.914   1.806  1.4102  0.3957 -1.2969
 9098SOL    HW238931   1.989   0.994   1.871 -1.4191 -1.2597 -0.1170
 9099SOL     OW38932   3.744   2.225   7.737  0.3575  0.2747  0.3106
 9099SOL    HW138933   3.827   2.211   7.691  0.1623  0.6372 -0.1515
 9099SOL    HW238934   3.687   2.166   7.688 -0.8772  1.2567  0.5511
 9100SOL     OW38935   3.812   1.152   5.153  0.1523  0.1034  0.9803
 9100SOL    HW138936   3.904   1.171   5.170  0.4835 -2.1325  1.6974
 9100SOL    HW238937   3.789   1.141   5.245 -1.3162 -0.5940  0.5435
 9101SOL     OW38938   2.742   3.400  15.950 -0.1802  0.2300 -0.0496
 9101SOL    HW138939   2.716   3.487  15.981  1.4838  0.9374 -0.5870
 9101SOL    HW238940   2.736   3.367  16.040 -0.5945 -0.4855 -0.3412
 9102SOL     OW38941   3.272   0.876   6.786  0.4863 -0.2307  0.2634
 9102SOL    HW138942   3.250   0.796   6.833 -0.1909 -1.5701 -2.3351
 9102SOL    HW238943   3.340   0.839   6.730  0.5645  0.9580 -0.4324
 9103SOL     OW38944   3.292   2.183   6.229  0.3760  0.3233  0.0508
 9103SOL    HW138945   3.313   2.189   6.135 -0.4004 -1.3785 -0.2234
 9103SOL    HW238946   3.204   2.218   6.235  0.4251  0.1052  1.9227
 9104SOL     OW38947   3.245   4.548   5.315 -0.2300 -0.0821 -0.1966
 9104SOL    HW138948   3.279   4.493   5.386 -0.1360  0.7607  0.4217
 9104SOL    HW238949   3.234   4.484   5.245 -3.0356  0.1357  0.0326
 9105SOL     OW38950   1.824   0.735   2.206  0.1668  0.0815 -0.3270
 9105SOL    HW138951   1.891   0.761   2.269  0.0072 -0.1588 -0.0616
 9105SOL    HW238952   1.757   0.698   2.262  0.3848 -1.7600 -1.2926
 9106SOL     OW38953   1.566   2.073   7.133  0.1196  0.2814  0.0960
 9106SOL    HW138954   1.511   2.126   7.076  0.1858 -2.3879 -2.4775
 9106SOL    HW238955   1.588   1.992   7.085 -1.6068  0.6063 -1.2703
 9107SOL     OW38956   0.680   1.775   4.749 -0.3134 -0.0636 -0.1559
 9107SOL    HW138957   0.727   1.830   4.686  0.0976 -0.3686 -0.1173
 9107SOL    HW238958   0.756   1.769   4.807  0.9617  0.0342 -1.8036
 9108SOL     OW38959   1.623   1.776   7.882 -0.8065 -0.1895 -0.1854
 9108SOL    HW138960   1.628   1.772   7.977  0.3216  2.7186 -0.1379
 9108SOL    HW238961   1.553   1.840   7.872 -1.6264 -1.0997 -0.2871
 9109SOL     OW38962   0.201   3.518   3.635  0.2019  0.2418 -0.3697
 9109SOL    HW138963   0.127   3.460   3.621  0.6237 -0.0783 -1.2871
 9109SOL    HW238964   0.211   3.532   3.729 -2.1329  2.1824 -0.4046
 9110SOL     OW38965   3.629   2.409   5.417  0.1686  0.4137 -0.7999
 9110SOL    HW138966   3.709   2.368   5.384  0.6540  0.3737  0.4350
 9110SOL    HW238967   3.567   2.337   5.433 -0.4187  1.0898 -0.0367
 9111SOL     OW38968   2.634   0.171   2.860 -0.3755  0.4257 -0.2534
 9111SOL    HW138969   2.689   0.225   2.917  0.3357  0.3889 -0.8939
 9111SOL    HW238970   2.586   0.240   2.814 -0.2738  0.8310  0.2569
 9112SOL     OW38971   4.507   1.918   2.108 -0.2265  0.9350 -0.1080
 9112SOL    HW138972   4.483   1.972   2.183 -1.4154  0.0354  0.1607
 9112SOL    HW238973   4.444   1.850   2.131 -0.8486  2.1575  1.7935
 9113SOL     OW38974   3.687   1.569  13.922  0.1887  0.5215 -0.1201
 9113SOL    HW138975   3.659   1.492  13.872 -2.1672 -1.2939  4.0661
 9113SOL    HW238976   3.603   1.615  13.924 -0.5401 -0.7302 -1.6366
 9114SOL     OW38977   3.033   1.930   6.932  0.3814 -0.2405 -0.7573
 9114SOL    HW138978   3.013   1.875   7.008  0.3737  0.7768 -0.0204
 9114SOL    HW238979   3.129   1.927   6.934  0.3831 -0.4344 -1.2328
 9115SOL     OW38980   3.648   0.617   3.768  0.1216 -0.8437  0.2509
 9115SOL    HW138981   3.565   0.570   3.763  0.6645 -1.8392  0.3910
 9115SOL    HW238982   3.676   0.576   3.850 -0.3812  1.4723  1.5724
 9116SOL     OW38983   3.076   1.519   5.238 -0.2102  0.3263  0.1599
 9116SOL    HW138984   3.064   1.462   5.314  1.8103 -3.2256 -2.1992
 9116SOL    HW238985   3.168   1.545   5.234 -0.0026 -0.7061 -1.5692
 9117SOL     OW38986   3.083   3.592   8.403  0.1661  0.3584  0.2999
 9117SOL    HW138987   3.143   3.520   8.384 -0.2854 -0.9622  3.8183
 9117SOL    HW238988   3.008   3.575   8.346 -0.6356 -0.7664  1.6722
 9118SOL     OW38989   4.095   1.315   9.729 -0.4896 -0.4374  0.2772
 9118SOL    HW138990   4.087   1.250   9.659 -3.7022 -0.9287  1.0881
 9118SOL    HW238991   4.005   1.316   9.761 -1.1352  1.5819 -1.5677
 9119SOL     OW38992   0.909   3.750   0.838 -0.0424  0.0055  0.0510
 9119SOL    HW138993   0.916   3.658   0.812  2.7636  0.8530 -2.2743
 9119SOL    HW238994   0.994   3.774   0.876  0.0107  0.7899 -0.5574
 9120SOL     OW38995   1.429   3.264   7.948 -0.3689  0.3680  0.0091
 9120SOL    HW138996   1.520   3.263   7.918 -0.9554  1.4036 -1.8039
 9120SOL    HW238997   1.442   3.216   8.030  0.0098 -0.2121 -0.3875
 9121SOL     OW38998   4.350   4.226   3.104 -0.0557 -0.1592 -0.1230
 9121SOL    HW138999   4.379   4.157   3.043  1.5195  0.8935 -0.5491
 9121SOL    HW239000   4.267   4.256   3.067  0.2083 -1.7638 -2.0531
 9122SOL     OW39001   2.393   1.980  13.581 -0.1613  0.0747  0.0802
 9122SOL    HW139002   2.385   1.947  13.670  1.7988 -0.0893  0.1950
 9122SOL    HW239003   2.410   1.894  13.543 -1.1564  0.2843 -0.8063
 9123SOL     OW39004   2.991   2.809   9.122 -0.2335  0.6175 -0.4190
 9123SOL    HW139005   3.014   2.855   9.202  1.1916 -0.3624 -0.2486
 9123SOL    HW239006   2.896   2.817   9.125 -0.2979 -0.3103 -0.0058
 9124SOL     OW39007   0.348   1.369   9.100  0.5137 -0.2220 -0.1732
 9124SOL    HW139008   0.354   1.372   9.005 -4.0487 -1.0655 -0.4926
 9124SOL    HW239009   0.435   1.340   9.127  0.2725 -0.7284  0.0545
 9125SOL     OW39010   0.571   3.098  17.450  0.0951 -0.1712 -0.2343
 9125SOL    HW139011   0.586   3.180  17.404  2.5924 -0.5321 -0.0342
 9125SOL    HW239012   0.643   3.048  17.410  0.6515  2.1451 -2.1164
 9126SOL     OW39013   3.137   0.686   3.571  0.1531 -0.1016  0.0288
 9126SOL    HW139014   3.215   0.688   3.626  0.4577 -3.2229 -0.3116
 9126SOL    HW239015   3.090   0.761   3.609  2.6135  1.2603  0.3927
 9127SOL     OW39016   4.439   0.487   8.812  0.1883  0.2393  0.0043
 9127SOL    HW139017   4.361   0.432   8.810 -1.6549  2.8865 -1.4124
 9127SOL    HW239018   4.446   0.509   8.719 -1.0155 -2.5699 -0.7312
 9128SOL     OW39019   2.305   2.372   3.480 -0.0891  0.4333  0.6874
 9128SOL    HW139020   2.361   2.440   3.517  0.9750 -0.7144  1.1924
 9128SOL    HW239021   2.222   2.393   3.524  0.1277  2.6101  0.0184
 9129SOL     OW39022   4.152   2.814  15.801  0.0522  0.4040 -0.4535
 9129SOL    HW139023   4.130   2.740  15.744 -0.9225 -1.1313  1.9362
 9129SOL    HW239024   4.137   2.771  15.885 -0.7712  1.3553 -0.1081
 9130SOL     OW39025   1.401   2.435   8.741 -0.5298  0.0063 -0.4599
 9130SOL    HW139026   1.369   2.515   8.700 -0.0240  0.6767  0.4827
 9130SOL    HW239027   1.410   2.452   8.834  0.5684  0.7522 -0.6953
 9131SOL     OW39028   1.980   0.070   5.207 -0.0221  0.0632 -0.1693
 9131SOL    HW139029   1.885   0.071   5.189  0.1657  0.7683 -1.1044
 9131SOL    HW239030   2.015   0.015   5.137 -1.1185  1.2196 -1.6287
 9132SOL     OW39031   0.760   1.998  15.302 -0.1858  0.5278 -0.2761
 9132SOL    HW139032   0.687   1.951  15.262  0.1233 -0.1353 -0.0529
 9132SOL    HW239033   0.720   2.083  15.319 -0.1776  1.0200 -2.6948
 9133SOL     OW39034   3.785   2.469   5.627  0.0578  0.0670  0.3784
 9133SOL    HW139035   3.713   2.479   5.566  0.3545  0.4355  0.0907
 9133SOL    HW239036   3.746   2.437   5.709 -0.5886  1.3229  0.5668
 9134SOL     OW39037   3.360   1.484   5.193 -0.1909 -0.4872  0.1049
 9134SOL    HW139038   3.370   1.389   5.191 -0.3586 -0.4631 -1.8175
 9134SOL    HW239039   3.411   1.507   5.115 -0.0052  1.0349  0.6752
 9135SOL     OW39040   4.736   1.785   6.949  0.1107  0.4584  0.8133
 9135SOL    HW139041   0.046   1.703   6.945  1.2257  1.2348 -1.0192
 9135SOL    HW239042   0.033   1.827   6.872 -1.2378  1.3302  0.6552
 9136SOL     OW39043   3.693   2.232   6.387 -0.1798 -0.1611  0.4567
 9136SOL    HW139044   3.786   2.229   6.367 -0.1751  2.5390  0.0752
 9136SOL    HW239045   3.672   2.289   6.313  0.7022  0.2706  0.5485
 9137SOL     OW39046   2.729   2.849  16.704  0.0447 -0.5889  0.3778
 9137SOL    HW139047   2.677   2.869  16.626  0.1244  0.8966  0.6989
 9137SOL    HW239048   2.797   2.790  16.671 -1.4560 -2.4455  0.6640
 9138SOL     OW39049   3.781   1.652   0.339  0.4180 -0.0561 -0.0476
 9138SOL    HW139050   3.745   1.565   0.322 -2.6253  1.5575 -1.9356
 9138SOL    HW239051   3.852   1.665   0.276  0.7980 -2.5222 -0.1382
 9139SOL     OW39052   4.414   0.879   5.346  0.0398  0.5921 -0.8039
 9139SOL    HW139053   4.442   0.796   5.307  1.7710  0.2722  1.1361
 9139SOL    HW239054   4.427   0.873   5.440  0.6847 -1.0988 -0.9899
 9140SOL     OW39055   0.367   3.160  11.123  0.2427  0.3205 -0.2958
 9140SOL    HW139056   0.434   3.177  11.058  0.7730 -2.6026 -0.4984
 9140SOL    HW239057   0.287   3.162  11.070  0.1006 -1.1776 -0.1206
 9141SOL     OW39058   3.283   0.034   1.295  0.0177 -0.0218 -0.1049
 9141SOL    HW139059   3.331   4.692   1.281  0.7126  0.2706  0.6116
 9141SOL    HW239060   3.211   0.022   1.232  0.7612 -1.3764 -0.7154
 9142SOL     OW39061   3.901   1.034   1.172  0.2514 -0.5641 -0.0978
 9142SOL    HW139062   3.864   0.949   1.197 -0.1336  0.4524  2.8598
 9142SOL    HW239063   3.950   1.010   1.093  1.2153 -0.3379  0.4326
 9143SOL     OW39064   1.929   2.663   6.753 -0.4072  0.5634  0.1563
 9143SOL    HW139065   1.834   2.672   6.761 -0.6173  1.3564 -3.0221
 9143SOL    HW239066   1.941   2.695   6.663  1.3015 -0.6986 -0.0729
 9144SOL     OW39067   0.320   0.156  13.087  0.6621  0.4751 -0.2727
 9144SOL    HW139068   0.415   0.167  13.076  0.4750  0.0950 -2.2285
 9144SOL    HW239069   0.323   0.127  13.178 -0.0136 -1.1515 -0.7701
 9145SOL     OW39070   1.886   3.301   7.344 -0.1042 -0.5644  0.7567
 9145SOL    HW139071   1.856   3.374   7.291  2.1577  1.0155  1.6557
 9145SOL    HW239072   1.811   3.242   7.347 -0.4802 -0.0449  1.7898
 9146SOL     OW39073   2.731   3.467   6.282  0.3870  0.0977 -0.4134
 9146SOL    HW139074   2.706   3.504   6.367  0.4275 -1.3371  0.2162
 9146SOL    HW239075   2.814   3.426   6.304 -0.1790 -1.4293 -1.1241
 9147SOL     OW39076   1.072   1.379   1.623 -0.5776 -0.2620 -0.5978
 9147SOL    HW139077   1.068   1.291   1.658  2.4831  0.1826  0.8780
 9147SOL    HW239078   0.977   1.387   1.631 -0.7222 -1.1564 -1.3459
 9148SOL     OW39079   3.573   3.824   4.408 -0.0246  0.6392 -0.9119
 9148SOL    HW139080   3.613   3.904   4.442 -1.7689  0.6425  1.1876
 9148SOL    HW239081   3.504   3.863   4.355  0.5816 -0.5669 -2.5627
 9149SOL     OW39082   1.930   2.561   4.346  0.3413 -0.4622 -0.4791
 9149SOL    HW139083   1.985   2.601   4.412  3.5841 -1.5647 -2.5078
 9149SOL    HW239084   1.852   2.616   4.345  2.0587  1.9663 -1.1435
 9150SOL     OW39085   3.258   2.883   2.263 -0.1888  0.2432 -0.5802
 9150SOL    HW139086   3.256   2.793   2.296  0.3111  0.2199 -0.6067
 9150SOL    HW239087   3.242   2.875   2.169  1.3071 -0.1690 -0.8067
 9151SOL     OW39088   4.643   0.664  13.098  0.1661  0.6939 -0.1113
 9151SOL    HW139089   4.657   0.583  13.146  1.1110  0.0836 -1.4147
 9151SOL    HW239090   4.703   0.728  13.137  1.1370  0.0403 -0.5397
 9152SOL     OW39091   2.891   0.839   1.510 -0.1606  0.3043  0.1725
 9152SOL    HW139092   2.914   0.927   1.480  0.7782  0.0211  0.0502
 9152SOL    HW239093   2.812   0.847   1.562 -1.5568 -0.1016 -1.8869
 9153SOL     OW39094   1.513   0.828   7.356  0.6438 -0.9113  0.0576
 9153SOL    HW139095   1.515   0.922   7.336 -0.4143 -0.4664  2.0443
 9153SOL    HW239096   1.600   0.809   7.321  1.4009  2.7681 -0.0779
 9154SOL     OW39097   1.525   2.662   2.533 -0.6515 -0.3211 -0.0771
 9154SOL    HW139098   1.479   2.578   2.522 -4.1475  1.4541  0.8537
 9154SOL    HW239099   1.547   2.684   2.442 -1.6585 -0.8328 -0.4532
 9155SOL     OW39100   3.283   4.160   5.265 -0.2263 -0.5144 -0.2089
 9155SOL    HW139101   3.257   4.081   5.216  1.3040 -1.0709 -0.1355
 9155SOL    HW239102   3.372   4.175   5.232 -0.5900  1.4846 -0.2437
 9156SOL     OW39103   1.382   2.342   3.940  0.4402 -0.3381 -0.4492
 9156SOL    HW139104   1.291   2.325   3.968  1.1344 -0.3686  1.8152
 9156SOL    HW239105   1.394   2.292   3.859 -0.8308  0.0064 -0.8639
 9157SOL     OW39106   2.551   4.026   1.355  0.1134  0.1059  0.1477
 9157SOL    HW139107   2.554   3.987   1.442  2.1281 -1.7030 -0.7158
 9157SOL    HW239108   2.582   4.114   1.377 -2.4834  1.0874 -0.2301
 9158SOL     OW39109   2.259   1.104  16.253  0.3831  0.3760 -0.5263
 9158SOL    HW139110   2.343   1.102  16.207  0.2792  1.6301 -0.7678
 9158SOL    HW239111   2.281   1.035  16.315 -0.4067  0.5188 -0.0984
 9159SOL     OW39112   0.218   1.499   4.434 -0.0501 -0.3015 -0.1071
 9159SOL    HW139113   0.290   1.539   4.386  1.0076 -0.6499  1.1736
 9159SOL    HW239114   0.249   1.413   4.465  1.1217 -0.2837 -1.2156
 9160SOL     OW39115   0.803   0.598   5.901  0.0537 -0.8419 -0.2361
 9160SOL    HW139116   0.842   0.511   5.903  1.4936 -0.1609  1.4652
 9160SOL    HW239117   0.806   0.609   5.806 -0.5421  2.6040  0.1162
 9161SOL     OW39118   1.879   0.560   4.583 -0.6664  0.1214 -0.0701
 9161SOL    HW139119   1.901   0.533   4.672  0.4230 -1.3340 -0.8025
 9161SOL    HW239120   1.965   0.570   4.542  1.0303 -2.5575  2.8812
 9162SOL     OW39121   3.177   1.763   1.656  0.6351  0.0756  0.3164
 9162SOL    HW139122   3.268   1.779   1.630  1.3921 -1.6792  1.9216
 9162SOL    HW239123   3.179   1.756   1.751 -0.8340 -1.2658  0.2456
 9163SOL     OW39124   0.334   2.211   4.312  0.4201 -0.1115  0.2829
 9163SOL    HW139125   0.392   2.266   4.259 -0.7058  1.8014  1.0464
 9163SOL    HW239126   0.335   2.250   4.400  0.5666  0.1266  0.1737
 9164SOL     OW39127   0.090   2.165  14.203 -0.1686  0.3380 -0.0171
 9164SOL    HW139128   0.179   2.168  14.239 -1.2343  0.8649  2.6339
 9164SOL    HW239129   0.042   2.188  14.283  0.7258 -2.2448  1.2807
 9165SOL     OW39130   3.639   4.425   7.714  0.2810 -0.2205  1.1281
 9165SOL    HW139131   3.645   4.351   7.775 -2.5948 -2.3174 -1.1264
 9165SOL    HW239132   3.545   4.418   7.694  0.3784  0.8912  0.3190
 9166SOL     OW39133   0.354   4.230   5.123  0.2477  0.1971 -0.0480
 9166SOL    HW139134   0.348   4.179   5.042  2.1266 -1.2763  0.7330
 9166SOL    HW239135   0.302   4.310   5.117 -1.6404 -1.0453 -0.1699
 9167SOL     OW39136   4.694   4.496   5.309 -0.3007  0.3714  0.2721
 9167SOL    HW139137   4.717   4.540   5.227  2.8322 -0.8744  0.4798
 9167SOL    HW239138   4.608   4.531   5.332 -0.2325  1.2161 -0.7532
 9168SOL     OW39139   0.999   0.980   8.314 -0.2875  0.6057 -0.2016
 9168SOL    HW139140   0.988   1.072   8.292 -1.1556  1.4633  3.7105
 9168SOL    HW239141   0.975   0.932   8.234  0.0767  0.3402 -0.1516
 9169SOL     OW39142   4.504   0.345   8.112 -0.1133  0.3466  0.2170
 9169SOL    HW139143   4.532   0.432   8.141 -1.5723  1.2268 -1.0200
 9169SOL    HW239144   4.566   0.323   8.043  2.0577  2.8592  1.3585
 9170SOL     OW39145   1.596   3.641   9.008 -0.0038 -0.1893  0.3703
 9170SOL    HW139146   1.659   3.650   8.938  1.6554  0.7325  1.9788
 9170SOL    HW239147   1.641   3.696   9.073  2.2634  1.2228 -2.4250
 9171SOL     OW39148   0.493   3.088  10.013  0.4127  0.3349 -0.1178
 9171SOL    HW139149   0.575   3.134  10.031 -0.0518  0.7879  0.8329
 9171SOL    HW239150   0.525   3.004   9.980  0.6411 -0.1952  1.4941
 9172SOL     OW39151   0.486   2.924   2.144  0.2821 -0.1721  0.0097
 9172SOL    HW139152   0.569   2.917   2.097 -0.4585  0.2019 -1.3395
 9172SOL    HW239153   0.510   2.972   2.224 -2.1092  1.6227 -0.3480
 9173SOL     OW39154   4.458   3.307   5.646 -0.1921 -0.0089 -0.4002
 9173SOL    HW139155   4.494   3.391   5.617  1.2324 -0.2121  0.8525
 9173SOL    HW239156   4.369   3.334   5.672  1.0429  0.1068  3.6052
 9174SOL     OW39157   2.336   3.508   1.502  0.4715 -0.7059  0.2799
 9174SOL    HW139158   2.308   3.549   1.420  2.6548  1.1523  0.4641
 9174SOL    HW239159   2.280   3.554   1.565 -0.1857  0.9423 -1.4920
 9175SOL     OW39160   4.123   0.890   5.943 -0.1592  0.2628  0.0241
 9175SOL    HW139161   4.125   0.833   6.019  1.7234  0.4505  0.1238
 9175SOL    HW239162   4.202   0.855   5.901 -0.2407  1.7429 -1.3975
 9176SOL     OW39163   4.497   1.488   7.774 -0.0176  0.5745 -0.6911
 9176SOL    HW139164   4.525   1.397   7.785  0.7418  1.0928  1.7654
 9176SOL    HW239165   4.469   1.517   7.861  0.8411  0.6779 -0.4459
 9177SOL     OW39166   0.571   0.661  10.161 -0.0909 -0.4021  0.3178
 9177SOL    HW139167   0.560   0.588  10.223  1.0099 -0.1374  0.8230
 9177SOL    HW239168   0.632   0.619  10.101  2.1504  0.2176  2.1513
 9178SOL     OW39169   1.387   1.650   6.379 -0.5247 -0.1722 -0.1122
 9178SOL    HW139170   1.327   1.615   6.314 -0.3934 -2.7745  1.1461
 9178SOL    HW239171   1.316   1.687   6.431 -0.5202  3.0625 -2.4549
 9179SOL     OW39172   0.722   4.597  13.261 -0.1360  0.3284 -0.0701
 9179SOL    HW139173   0.731   4.564  13.350 -0.4483  2.9475  0.9466
 9179SOL    HW239174   0.659   4.664  13.290 -0.2258  0.5777 -0.8468
 9180SOL     OW39175   4.101   0.111   6.382  0.2187 -0.1691  1.1584
 9180SOL    HW139176   4.152   0.051   6.437 -0.1601  0.2380  1.9513
 9180SOL    HW239177   4.106   0.199   6.418 -0.8520  0.3409  0.0606
 9181SOL     OW39178   4.215   2.436   8.226  0.3032  0.5854  0.1190
 9181SOL    HW139179   4.166   2.507   8.184  1.0092  0.7798 -0.3791
 9181SOL    HW239180   4.154   2.401   8.291 -1.9285  0.7075 -1.9243
 9182SOL     OW39181   3.556   0.738   7.425 -0.1122  0.0987 -1.1974
 9182SOL    HW139182   3.611   0.683   7.481 -0.9519  0.3685 -0.1152
 9182SOL    HW239183   3.510   0.671   7.373 -0.0218 -0.3828 -0.6531
 9183SOL     OW39184   2.074   2.544   3.090 -0.1267  0.2799  0.4048
 9183SOL    HW139185   2.042   2.547   3.000  0.8098 -0.4392  0.0596
 9183SOL    HW239186   2.029   2.621   3.126 -1.3745  0.7150 -2.1112
 9184SOL     OW39187   4.037   3.166  16.065 -0.5522 -0.0577 -0.7281
 9184SOL    HW139188   4.097   3.127  16.002  1.0110  2.4500 -0.7969
 9184SOL    HW239189   4.007   3.240  16.011 -2.1291 -1.0311 -1.1760
 9185SOL     OW39190   2.014   0.357   1.177  0.2025 -0.1691  0.3373
 9185SOL    HW139191   1.981   0.357   1.087 -0.3418  3.1774  0.5238
 9185SOL    HW239192   2.096   0.307   1.172 -0.8701 -1.8444 -0.4633
 9186SOL     OW39193   4.328   3.468  12.077  0.3187 -0.0550 -0.0156
 9186SOL    HW139194   4.321   3.551  12.125  0.8571  0.4812 -0.8531
 9186SOL    HW239195   4.320   3.507  11.990 -1.2593  0.4596  0.3550
 9187SOL     OW39196   0.230   3.634   5.434  0.5148  0.1185 -0.7051
 9187SOL    HW139197   0.271   3.639   5.520  0.0540 -1.5515 -0.3757
 9187SOL    HW239198   0.238   3.725   5.408  1.6454 -0.1229 -1.1928
 9188SOL     OW39199   0.316   4.242   9.518  0.1200  0.8900  0.4442
 9188SOL    HW139200   0.362   4.197   9.589  2.2922  0.5500 -1.1664
 9188SOL    HW239201   0.379   4.226   9.447 -1.0496 -1.2520 -0.1243
 9189SOL     OW39202   4.017   1.620  12.987 -0.1325 -0.4275  0.3574
 9189SOL    HW139203   3.943   1.575  12.948 -0.7381  0.2826  0.6913
 9189SOL    HW239204   4.047   1.567  13.061 -2.2091 -0.4560  1.1770
 9190SOL     OW39205   4.149   1.737   1.995  0.1219 -0.1171  0.0738
 9190SOL    HW139206   4.164   1.706   1.906 -1.3325  0.8960 -0.5195
 9190SOL    HW239207   4.060   1.773   1.989  0.7649  1.2273 -1.0695
 9191SOL     OW39208   0.232   4.506  13.422  0.1904  0.0723  0.1991
 9191SOL    HW139209   0.234   4.599  13.396  1.5839 -0.8627 -3.0433
 9191SOL    HW239210   0.137   4.491  13.421  0.2590 -0.4557  1.6359
 9192SOL     OW39211   3.036   2.905   8.580  0.4706 -0.7081 -0.1334
 9192SOL    HW139212   3.003   2.825   8.621 -1.2003  0.1649  0.2137
 9192SOL    HW239213   3.130   2.892   8.582  0.9757  2.7178 -1.5539
 9193SOL     OW39214   0.430   4.528   4.421  0.5609  0.4086  0.3197
 9193SOL    HW139215   0.368   4.520   4.494 -0.0532 -0.7559 -0.3254
 9193SOL    HW239216   0.427   4.444   4.375  2.1173  1.4438 -1.6642
 9194SOL     OW39217   3.014   3.056   5.347 -0.2345 -0.7374  0.2348
 9194SOL    HW139218   2.986   3.085   5.433  1.0609  0.4576  0.2382
 9194SOL    HW239219   3.102   3.093   5.355 -0.3071 -0.2737 -1.1252
 9195SOL     OW39220   1.568   3.056   4.877 -0.2986  0.1810 -0.0676
 9195SOL    HW139221   1.590   3.131   4.821  1.1056  0.0400  0.2927
 9195SOL    HW239222   1.637   3.069   4.942 -1.5053  1.4114  0.9452
 9196SOL     OW39223   0.604   0.446   8.335  0.1414  0.1791 -0.4628
 9196SOL    HW139224   0.587   0.470   8.426  3.4024  2.8605 -0.5465
 9196SOL    HW239225   0.593   0.530   8.291 -1.6038 -0.9855 -2.2289
 9197SOL     OW39226   4.508   4.219  12.083 -0.0848  0.3133 -0.2104
 9197SOL    HW139227   4.431   4.265  12.050  0.2999  0.8707 -0.3305
 9197SOL    HW239228   4.580   4.265  12.040 -0.8313  0.0070 -1.7779
 9198SOL     OW39229   0.762   1.723   6.761 -0.2797 -0.1732 -0.2036
 9198SOL    HW139230   0.684   1.688   6.806 -0.2687 -1.0100 -0.8379
 9198SOL    HW239231   0.822   1.659   6.797  0.5715  0.1174 -1.1237
 9199SOL     OW39232   1.383   1.883  16.075  0.3696  0.7674  0.8627
 9199SOL    HW139233   1.366   1.845  15.989  0.4651 -0.9787  1.6090
 9199SOL    HW239234   1.434   1.961  16.054  0.3985  0.1603 -1.3398
 9200SOL     OW39235   0.400   4.276  14.115  0.5425  0.1556 -0.1734
 9200SOL    HW139236   0.344   4.200  14.101 -0.1341  0.5266  0.5345
 9200SOL    HW239237   0.366   4.303  14.200 -4.5308  0.9604 -2.4537
 9201SOL     OW39238   2.720   0.020   5.956  0.6173  0.8578 -0.2672
 9201SOL    HW139239   2.713   4.666   5.975  0.4105  0.8018 -0.6113
 9201SOL    HW239240   2.632   0.056   5.954 -0.3080 -1.2829  0.7616
 9202SOL     OW39241   2.476   3.480   8.505  0.0040  0.2587 -0.0717
 9202SOL    HW139242   2.494   3.477   8.599  2.5392 -2.4413 -0.6203
 9202SOL    HW239243   2.559   3.520   8.477 -0.8154  0.7713 -1.8042
 9203SOL     OW39244   2.653   3.044   9.432  0.4209  0.0257  0.0069
 9203SOL    HW139245   2.590   3.000   9.490  1.2259 -3.5204 -1.8597
 9203SOL    HW239246   2.724   2.980   9.433  1.9796  1.7932  1.1094
 9204SOL     OW39247   3.790   3.328   2.318 -0.3500 -0.1208 -0.0136
 9204SOL    HW139248   3.791   3.233   2.305 -0.9999 -0.7550  4.7844
 9204SOL    HW239249   3.851   3.360   2.251  1.4834 -0.2115  1.6422
 9205SOL     OW39250   0.893   2.574  10.900  0.1281  0.1055  0.4802
 9205SOL    HW139251   0.926   2.525  10.976  0.9942  0.3633  0.2637
 9205SOL    HW239252   0.814   2.521  10.890  0.5448  0.0480 -2.4106
 9206SOL     OW39253   3.235   3.033   6.974 -0.1320 -0.1836 -0.0176
 9206SOL    HW139254   3.173   3.043   7.046  0.2625  5.2596 -0.4597
 9206SOL    HW239255   3.291   3.111   6.977 -0.3522 -0.0449  0.4803
 9207SOL     OW39256   1.818   3.503   7.150 -0.5656  0.3874  0.3059
 9207SOL    HW139257   1.768   3.475   7.074 -0.2956  0.9020 -0.0610
 9207SOL    HW239258   1.905   3.529   7.119 -1.1843  1.4051 -0.5950
 9208SOL     OW39259   1.743   4.130  15.310 -0.3234  0.1980  0.6604
 9208SOL    HW139260   1.781   4.055  15.357  0.3573  0.9491  1.3103
 9208SOL    HW239261   1.771   4.126  15.219 -0.9104  0.0529  0.4863
 9209SOL     OW39262   2.229   3.123   6.165  0.2215  0.5960  0.0555
 9209SOL    HW139263   2.208   3.075   6.245 -0.1915 -0.7381 -0.8472
 9209SOL    HW239264   2.150   3.103   6.115 -0.3655 -0.0225  1.2412
 9210SOL     OW39265   0.664   2.205  13.653  0.0667 -0.2861  0.3113
 9210SOL    HW139266   0.757   2.184  13.665 -0.2687 -0.2873  2.9201
 9210SOL    HW239267   0.621   2.149  13.717  1.3267 -2.4782 -0.7731
 9211SOL     OW39268   1.650   3.139   8.325 -0.2056  0.5113  0.2170
 9211SOL    HW139269   1.728   3.194   8.323  0.4744 -0.4395  0.0636
 9211SOL    HW239270   1.663   3.089   8.406  1.3465 -1.0867 -1.0161
 9212SOL     OW39271   0.740   3.346  16.744  0.4630 -0.3702  0.1050
 9212SOL    HW139272   0.799   3.335  16.818  0.5099  2.4794  0.4852
 9212SOL    HW239273   0.764   3.437  16.724 -0.3864 -0.0241  0.6414
 9213SOL     OW39274   3.865   2.430  14.856  0.0710 -0.3216 -0.6327
 9213SOL    HW139275   3.812   2.389  14.925  0.1436  1.7507  0.6529
 9213SOL    HW239276   3.897   2.509  14.899 -0.2908 -1.5548  1.9189
 9214SOL     OW39277   4.035   0.383   5.418 -0.8829 -0.0939  0.1339
 9214SOL    HW139278   4.104   0.331   5.460 -0.2110  1.5498  1.0431
 9214SOL    HW239279   4.026   0.326   5.341  2.9197 -3.1396  1.9274
 9215SOL     OW39280   3.316   0.427   2.601  0.2564 -0.1076  0.0871
 9215SOL    HW139281   3.292   0.513   2.635  2.1588 -1.0187  3.7113
 9215SOL    HW239282   3.316   0.378   2.683 -2.4217 -0.3255 -0.0460
 9216SOL     OW39283   3.508   1.777   1.635 -0.1201  0.0944  0.2067
 9216SOL    HW139284   3.565   1.850   1.661 -0.4319  0.8138 -1.1438
 9216SOL    HW239285   3.530   1.749   1.546 -4.2515 -0.0621 -0.7871
 9217SOL     OW39286   2.240   0.161   9.159  0.2656 -0.0262  0.0316
 9217SOL    HW139287   2.160   0.193   9.117  0.8409 -0.2187 -1.2260
 9217SOL    HW239288   2.234   0.190   9.250 -2.6103 -1.2303  0.2340
 9218SOL     OW39289   4.381   3.451   1.079  0.1246  0.2829  0.1519
 9218SOL    HW139290   4.306   3.491   1.036 -0.5614 -0.6046  0.5050
 9218SOL    HW239291   4.405   3.516   1.145  2.0981 -1.4061  1.1122
 9219SOL     OW39292   1.464   2.573   4.621 -0.1053  0.2724  0.1130
 9219SOL    HW139293   1.411   2.499   4.594 -1.9152  1.5066  0.3019
 9219SOL    HW239294   1.420   2.634   4.562  1.7365  1.1483 -0.3614
 9220SOL     OW39295   2.222   3.908  15.389 -0.0177  0.3978  0.0595
 9220SOL    HW139296   2.253   3.993  15.356 -0.4074  0.0329 -1.2650
 9220SOL    HW239297   2.292   3.872  15.444  0.7167  1.5888 -0.0892
 9221SOL     OW39298   2.326   2.379   8.914  0.2599 -0.1040  0.3315
 9221SOL    HW139299   2.334   2.398   8.821  2.3775  0.4236  0.6117
 9221SOL    HW239300   2.416   2.350   8.925  0.3769  1.2524  3.0399
 9222SOL     OW39301   0.351   2.094   6.275  0.2173  0.3958 -0.0336
 9222SOL    HW139302   0.382   2.179   6.304  1.1663  0.4222 -1.1163
 9222SOL    HW239303   0.432   2.045   6.289 -1.4088 -1.9890  1.0714
 9223SOL     OW39304   2.399   2.187   4.847  0.0789 -0.4467  0.3344
 9223SOL    HW139305   2.324   2.208   4.791 -0.5841 -0.4094  1.2296
 9223SOL    HW239306   2.350   2.222   4.922  0.8929  0.4251  0.4632
 9224SOL     OW39307   2.753   0.283   6.915  0.2447  0.9027 -0.1802
 9224SOL    HW139308   2.792   0.196   6.907  1.3060  1.3410  0.1810
 9224SOL    HW239309   2.791   0.320   6.835 -0.3401  0.6847 -0.5587
 9225SOL     OW39310   1.698   3.035   0.674  0.0633 -0.2049  0.6603
 9225SOL    HW139311   1.681   2.996   0.589  1.9606 -0.4366  0.3875
 9225SOL    HW239312   1.718   3.124   0.645 -1.0093 -1.2538 -3.2484
 9226SOL     OW39313   1.118   3.244   8.701  0.2290 -0.0419  0.1630
 9226SOL    HW139314   1.131   3.339   8.707  0.5799 -0.0606 -0.3161
 9226SOL    HW239315   1.071   3.225   8.619  1.2821 -0.1163 -0.4190
 9227SOL     OW39316   3.715   2.106   3.830 -0.0252 -0.5803  0.0264
 9227SOL    HW139317   3.809   2.108   3.811 -0.1049  0.6068 -0.2737
 9227SOL    HW239318   3.686   2.017   3.810  1.3656 -0.8549 -0.7651
 9228SOL     OW39319   2.946   4.190   2.935  0.2166 -0.6641 -0.4279
 9228SOL    HW139320   2.935   4.275   2.892  0.1515 -1.1277 -1.3153
 9228SOL    HW239321   3.032   4.169   2.899  0.2195 -2.5668  0.7158
 9229SOL     OW39322   0.325   0.314  16.631 -0.8302 -0.6092 -0.0044
 9229SOL    HW139323   0.313   0.342  16.540  0.7699 -1.8981 -0.6116
 9229SOL    HW239324   0.386   0.243  16.614  1.2640  0.3236  3.7938
 9230SOL     OW39325   3.848   0.097  12.483  0.3307 -0.6313 -0.4356
 9230SOL    HW139326   3.772   0.151  12.503  2.1067  1.2304  1.1890
 9230SOL    HW239327   3.799   0.015  12.474 -2.2305  0.6278  2.0084
 9231SOL     OW39328   2.874   2.022   5.693  0.0361  0.3663 -0.2759
 9231SOL    HW139329   2.961   2.062   5.700  0.1151 -0.0958  1.4536
 9231SOL    HW239330   2.821   2.100   5.711  0.8132  0.6358  0.8380
 9232SOL     OW39331   2.259   0.254  13.873  0.7862 -0.1100 -0.1750
 9232SOL    HW139332   2.313   0.285  13.946 -0.9348  0.5887  0.8057
 9232SOL    HW239333   2.181   0.307  13.888  0.5262 -0.5518  0.0404
 9233SOL     OW39334   4.566   4.255   7.387 -0.1076  0.6226 -0.0325
 9233SOL    HW139335   4.587   4.331   7.333 -0.1356  1.0398  0.5442
 9233SOL    HW239336   4.490   4.220   7.341  0.5616 -0.6548 -0.1589
 9234SOL     OW39337   0.902   3.032   3.752 -0.2699 -0.0063 -0.2446
 9234SOL    HW139338   0.978   3.012   3.806  1.3043  1.3321 -1.9707
 9234SOL    HW239339   0.930   3.010   3.664  1.8780  0.9306  0.1884
 9235SOL     OW39340   1.981   1.374   5.199  0.1179  0.3391  0.4482
 9235SOL    HW139341   2.024   1.408   5.277 -2.7144 -0.1431  2.2567
 9235SOL    HW239342   1.895   1.349   5.233 -0.0243  2.8297  1.9752
 9236SOL     OW39343   0.866   3.024  17.013  0.1281 -0.0856 -0.3746
 9236SOL    HW139344   0.772   3.007  16.999  0.5579 -0.7238 -2.6005
 9236SOL    HW239345   0.914   2.953  16.970  1.7767  0.5588  0.4391
 9237SOL     OW39346   2.714   2.853   0.633  0.0880  0.2385 -0.2604
 9237SOL    HW139347   2.772   2.904   0.689 -1.6980  1.0581  0.8144
 9237SOL    HW239348   2.702   2.912   0.558 -2.4305  0.3439  0.2481
 9238SOL     OW39349   1.258   0.875  13.930 -0.8930 -0.7085 -0.0251
 9238SOL    HW139350   1.222   0.894  14.017  1.9118  2.0282  0.5456
 9238SOL    HW239351   1.176   0.868  13.881 -2.0367  2.3555  1.4015
 9239SOL     OW39352   3.346   2.409   1.009  0.1196  0.2441  0.1130
 9239SOL    HW139353   3.399   2.427   1.087  0.0781 -3.9246  1.1303
 9239SOL    HW239354   3.396   2.433   0.931 -0.5893 -0.2103 -0.4739
 9240SOL     OW39355   2.469   2.823   4.510 -0.3245  0.1664  0.0506
 9240SOL    HW139356   2.418   2.831   4.591 -2.0351  1.2743 -1.1453
 9240SOL    HW239357   2.546   2.873   4.538  0.9009 -0.5168 -2.1057
 9241SOL     OW39358   0.077   3.400   6.099 -0.1136  0.4087  0.1981
 9241SOL    HW139359   4.730   3.370   6.124 -0.6353  1.0433 -0.8687
 9241SOL    HW239360   0.127   3.319   6.107 -0.0417  0.4257 -0.0601
 9242SOL     OW39361   0.896   1.027   2.019 -0.2637 -0.4349  0.2087
 9242SOL    HW139362   0.834   1.012   1.948  1.2014  0.1355 -1.1835
 9242SOL    HW239363   0.982   1.033   1.976 -0.2669 -0.6120  0.1797
 9243SOL     OW39364   0.654   1.453   5.432 -0.1169  0.5511 -0.0011
 9243SOL    HW139365   0.643   1.535   5.480  0.7059  1.0636 -0.6764
 9243SOL    HW239366   0.585   1.456   5.366  1.7974 -1.6813 -2.0886
 9244SOL     OW39367   4.406   4.652  17.471  0.6200 -0.5505 -0.3453
 9244SOL    HW139368   4.391   4.705  17.393 -0.7565 -0.2856  0.1078
 9244SOL    HW239369   4.328   4.598  17.466  0.1811 -0.1820  2.3666
 9245SOL     OW39370   1.726   1.985   1.743 -0.5907  0.3045 -0.1949
 9245SOL    HW139371   1.760   1.902   1.708  2.0070  2.4835 -2.8634
 9245SOL    HW239372   1.771   1.999   1.826 -0.3963 -2.2445  0.1349
 9246SOL     OW39373   0.946   2.870  11.703 -0.0715  0.0243  0.1579
 9246SOL    HW139374   0.902   2.816  11.769  0.2248 -0.5899 -0.1409
 9246SOL    HW239375   0.891   2.948  11.702 -0.4133 -0.2178 -0.0657
 9247SOL     OW39376   4.096   3.145   2.596  0.1164  0.0903 -0.2416
 9247SOL    HW139377   4.085   3.229   2.551 -0.5752 -0.2928 -0.7892
 9247SOL    HW239378   4.137   3.095   2.526  0.3414  0.1294 -0.1357
 9248SOL     OW39379   4.662   3.049  10.115  0.6608  0.3008 -0.0129
 9248SOL    HW139380   4.618   3.111  10.057 -1.2085 -0.8636  0.1308
 9248SOL    HW239381   4.632   2.971  10.067  0.2139  0.4098  0.0895
 9249SOL     OW39382   4.620   3.789   6.713  0.0850 -0.2073 -0.5393
 9249SOL    HW139383   4.634   3.697   6.734  0.1031 -0.1074 -0.1263
 9249SOL    HW239384   4.614   3.826   6.801 -1.6662  2.7958 -1.9173
 9250SOL     OW39385   2.844   2.582   7.613  0.4632  0.2281  0.1064
 9250SOL    HW139386   2.924   2.552   7.657 -0.7079 -2.7171  0.2282
 9250SOL    HW239387   2.817   2.648   7.677 -1.7370  0.1864 -0.7983
 9251SOL     OW39388   3.903   1.011   8.805  0.7093  0.1538 -0.1672
 9251SOL    HW139389   3.960   1.081   8.837  1.7621 -0.2368 -1.1800
 9251SOL    HW239390   3.818   1.054   8.811  1.4672  1.6912 -0.3909
 9252SOL     OW39391   2.622   3.752   5.110  0.2797 -0.0258  0.3420
 9252SOL    HW139392   2.553   3.808   5.144  0.1762  0.5811 -0.8693
 9252SOL    HW239393   2.633   3.796   5.025  1.1507  0.1267  0.5393
 9253SOL     OW39394   0.499   2.663   9.477  0.2143 -0.1133  0.6938
 9253SOL    HW139395   0.584   2.627   9.451  0.4972 -0.4422  2.0639
 9253SOL    HW239396   0.527   2.682   9.567 -0.9371  0.7176  0.8716
 9254SOL     OW39397   1.015   3.536  17.611  0.5341  0.4734 -0.6593
 9254SOL    HW139398   1.007   3.446  17.579  2.6425 -0.7839  2.4632
 9254SOL    HW239399   1.067   3.525  17.690  0.1484 -1.3959 -0.6514
 9255SOL     OW39400   1.527   4.505  13.275  0.7666 -0.0669  0.0166
 9255SOL    HW139401   1.583   4.492  13.199  0.5088  1.0760 -0.3720
 9255SOL    HW239402   1.448   4.537  13.231  1.2600 -0.1077 -0.8912
 9256SOL     OW39403   1.305   1.975  10.126 -0.1606  0.6789 -0.6354
 9256SOL    HW139404   1.378   2.007  10.072 -0.5367 -0.2366 -1.6925
 9256SOL    HW239405   1.316   2.029  10.204  2.3130 -2.1315  0.9208
 9257SOL     OW39406   1.017   3.520   8.382 -0.4714  0.1672 -0.1935
 9257SOL    HW139407   0.998   3.588   8.317  0.9742 -0.3048 -1.1041
 9257SOL    HW239408   1.094   3.476   8.346  0.1801  0.9080  0.2879
 9258SOL     OW39409   4.204   1.548   5.987 -0.1687  0.0156  0.3450
 9258SOL    HW139410   4.273   1.610   5.964 -1.1274  0.6116 -0.8859
 9258SOL    HW239411   4.138   1.613   6.012 -1.3276 -0.5473 -1.2365
 9259SOL     OW39412   1.895   0.401   8.480  0.0311 -0.2973  0.0431
 9259SOL    HW139413   1.942   0.388   8.398 -1.2514 -1.4836 -0.5121
 9259SOL    HW239414   1.951   0.471   8.514  0.8311 -0.1716 -1.5186
 9260SOL     OW39415   1.649   3.511   7.764  0.1602 -0.3428 -0.4160
 9260SOL    HW139416   1.733   3.537   7.727  1.3821 -1.4528  1.5716
 9260SOL    HW239417   1.679   3.430   7.805 -1.4074 -0.5518  0.3329
 9261SOL     OW39418   4.738   2.478   3.925  0.5214  0.6397 -0.2973
 9261SOL    HW139419   0.054   2.538   3.974 -0.0114  1.7733 -1.0751
 9261SOL    HW239420   0.052   2.482   3.846  0.8917 -0.1741 -0.0746
 9262SOL     OW39421   1.602   0.098   4.090  0.0861  0.3010 -0.2833
 9262SOL    HW139422   1.546   0.164   4.048 -2.4079 -0.0393  2.5124
 9262SOL    HW239423   1.682   0.151   4.101  1.4079 -2.0012  1.2993
 9263SOL     OW39424   2.139   4.420   2.370  0.2548  0.2013  0.0657
 9263SOL    HW139425   2.212   4.446   2.313 -0.2932 -1.3027 -1.3355
 9263SOL    HW239426   2.159   4.330   2.394 -0.2852  0.1440  0.2968
 9264SOL     OW39427   4.241   4.081  12.475  0.1266 -0.3641 -0.1840
 9264SOL    HW139428   4.239   4.100  12.381 -1.4865  1.6419  0.2360
 9264SOL    HW239429   4.336   4.089  12.483  0.1693  1.2408 -2.0715
 9265SOL     OW39430   2.377   0.381   0.854  0.1650  0.4842 -0.1261
 9265SOL    HW139431   2.458   0.372   0.804 -0.3873 -0.4456 -0.8458
 9265SOL    HW239432   2.334   0.458   0.818 -0.6698  0.8700  1.6798
 9266SOL     OW39433   3.528   0.665   6.035 -0.0311 -0.7042  0.1364
 9266SOL    HW139434   3.599   0.728   6.027 -2.2787  1.8533  0.1818
 9266SOL    HW239435   3.467   0.702   6.099 -0.2812 -2.9093  1.1913
 9267SOL     OW39436   0.763   2.575   5.869 -0.5557  0.3611 -0.4793
 9267SOL    HW139437   0.686   2.631   5.857 -1.2346 -0.7878 -1.4695
 9267SOL    HW239438   0.720   2.490   5.873  2.1916 -0.9568  0.6599
 9268SOL     OW39439   2.414   4.112   3.539 -0.3225  0.1064 -0.1196
 9268SOL    HW139440   2.430   4.074   3.625 -2.8886  0.1079  0.3646
 9268SOL    HW239441   2.320   4.095   3.533 -0.5101  0.3049  2.4617
 9269SOL     OW39442   3.968   1.262  15.766  0.0614  0.1345 -0.2053
 9269SOL    HW139443   3.884   1.307  15.767 -1.3871 -2.5309 -1.8871
 9269SOL    HW239444   3.976   1.259  15.671  2.2775 -0.6511 -0.0012
 9270SOL     OW39445   3.320   2.416   4.899 -0.2197  0.6337  0.2717
 9270SOL    HW139446   3.256   2.367   4.847 -1.1576  0.0228  2.0060
 9270SOL    HW239447   3.313   2.496   4.848  3.9373  1.3618  0.8712
 9271SOL     OW39448   3.373   3.959   4.310 -0.1546  0.4432  0.4177
 9271SOL    HW139449   3.289   3.987   4.275  0.0458 -0.8260 -1.0812
 9271SOL    HW239450   3.364   3.995   4.398  1.9187 -1.4672  1.4057
 9272SOL     OW39451   1.047   3.296   9.723 -0.0127  0.2177 -0.0485
 9272SOL    HW139452   1.070   3.220   9.670 -0.9759 -1.3285  1.7571
 9272SOL    HW239453   1.126   3.320   9.772  0.2293 -1.8913  0.6187
 9273SOL     OW39454   1.457   2.941   2.414 -0.4622  0.0861 -0.1129
 9273SOL    HW139455   1.465   3.015   2.354  0.7199 -0.0492 -0.1085
 9273SOL    HW239456   1.545   2.932   2.450 -1.4522 -3.7708  1.3191
 9274SOL     OW39457   2.970   0.138   3.478 -0.1177  0.3608  0.4857
 9274SOL    HW139458   2.972   0.095   3.564  1.8677  1.1602  0.8533
 9274SOL    HW239459   2.891   0.094   3.445  0.2547  0.5786 -0.7179
 9275SOL     OW39460   1.684   3.903   1.599 -0.0562  0.0432  0.2070
 9275SOL    HW139461   1.691   3.967   1.528 -1.3726 -0.0682 -0.0316
 9275SOL    HW239462   1.671   3.821   1.550  0.1464  1.1741 -1.7402
 9276SOL     OW39463   1.620   1.860   7.484 -0.5428 -0.8616  0.1249
 9276SOL    HW139464   1.557   1.846   7.554 -3.5115 -1.1905 -2.6508
 9276SOL    HW239465   1.593   1.779   7.440 -2.6237  0.1440 -0.4416
 9277SOL     OW39466   4.662   4.320   7.662  0.2764  0.3630  0.1470
 9277SOL    HW139467   4.627   4.295   7.576 -0.6069 -1.7086  1.1238
 9277SOL    HW239468   4.629   4.242   7.706 -0.0319 -0.3389 -1.3044
 9278SOL     OW39469   0.408   4.498   9.340  1.1490 -0.3719 -0.5871
 9278SOL    HW139470   0.372   4.564   9.400  0.4213 -2.2215  1.0107
 9278SOL    HW239471   0.389   4.417   9.387 -1.2597 -0.0286 -0.9589
 9279SOL     OW39472   3.413   0.405  12.479  0.4931  0.5946  1.0451
 9279SOL    HW139473   3.340   0.360  12.522 -1.2061  1.4758 -0.9452
 9279SOL    HW239474   3.388   0.373  12.392 -2.0813  3.3190  0.8182
 9280SOL     OW39475   4.240   1.213  15.825  0.1647 -0.0043  0.3397
 9280SOL    HW139476   4.286   1.297  15.812  1.3770 -0.9262 -1.2650
 9280SOL    HW239477   4.154   1.253  15.837  1.2660  2.6495 -0.5409
 9281SOL     OW39478   0.576   4.244  10.224  0.6621  0.1818  0.2306
 9281SOL    HW139479   0.589   4.315  10.288  2.9811  0.1851 -0.2322
 9281SOL    HW239480   0.493   4.272  10.186  1.8408  0.7267 -1.9997
 9282SOL     OW39481   1.390   0.516  11.128  0.7622  0.0063 -0.2656
 9282SOL    HW139482   1.475   0.541  11.165  1.8686 -0.9896 -2.0876
 9282SOL    HW239483   1.359   0.447  11.186  1.0716  0.7486  0.7878
 9283SOL     OW39484   0.581   1.297   4.755 -0.1902  0.2930  0.2304
 9283SOL    HW139485   0.535   1.369   4.799 -0.3294  0.9363 -0.9874
 9283SOL    HW239486   0.662   1.337   4.727  0.6497 -0.5097  1.5034
 9284SOL     OW39487   1.100   1.382  15.708 -0.2077  0.2933 -0.7180
 9284SOL    HW139488   1.018   1.399  15.661 -1.0063  2.9968  1.6012
 9284SOL    HW239489   1.165   1.368  15.640  0.9549  1.6165  0.1297
 9285SOL     OW39490   1.369   0.146   5.445 -0.2137  0.3513  0.0046
 9285SOL    HW139491   1.453   0.192   5.442 -0.2035  0.2245 -1.9687
 9285SOL    HW239492   1.343   0.164   5.535 -0.0591 -2.0074  0.5182
 9286SOL     OW39493   2.510   4.549   4.191  0.1501 -0.1190 -0.0658
 9286SOL    HW139494   2.491   4.509   4.276  1.6049  1.8424  1.1896
 9286SOL    HW239495   2.438   4.612   4.200  1.6973  1.6977 -0.4078
 9287SOL     OW39496   1.834   0.752   4.262  0.2363 -0.1526 -0.8920
 9287SOL    HW139497   1.790   0.792   4.187 -2.2369 -0.3829  0.4203
 9287SOL    HW239498   1.809   0.659   4.261  1.2155 -0.4085 -1.5468
 9288SOL     OW39499   1.146   1.976  14.769  0.4113  0.1438 -0.8398
 9288SOL    HW139500   1.144   1.966  14.674 -1.5793 -2.7473 -0.5153
 9288SOL    HW239501   1.131   2.069  14.783 -0.1602  0.2201 -1.9516
 9289SOL     OW39502   1.412   1.545   5.699 -0.1168  0.0062  0.2516
 9289SOL    HW139503   1.321   1.535   5.670 -0.2097 -0.9486  0.8977
 9289SOL    HW239504   1.441   1.456   5.717  3.1423  0.7269 -1.3100
 9290SOL     OW39505   1.281   4.226   5.939 -0.2703  0.1281  0.0263
 9290SOL    HW139506   1.295   4.300   5.880 -0.3104 -0.7850 -1.1353
 9290SOL    HW239507   1.364   4.228   5.988 -0.5672 -0.5370  0.5558
 9291SOL     OW39508   2.590   1.456  10.072 -0.4166 -0.1469 -0.5452
 9291SOL    HW139509   2.516   1.508  10.105 -1.1148 -0.7476 -1.1362
 9291SOL    HW239510   2.606   1.411  10.155 -1.4125  0.7846  0.1571
 9292SOL     OW39511   3.315   2.811   8.603 -0.2569  0.3407  0.2404
 9292SOL    HW139512   3.351   2.773   8.524  0.7942 -1.3570  1.5430
 9292SOL    HW239513   3.357   2.758   8.671  0.3187  0.8770  0.2982
 9293SOL     OW39514   3.029   3.589   6.889  0.3447 -0.1240  0.4053
 9293SOL    HW139515   2.942   3.629   6.902  0.4083 -0.2013  1.0748
 9293SOL    HW239516   3.005   3.498   6.906  0.4734 -0.4114 -1.0261
 9294SOL     OW39517   2.276   4.186   7.522 -0.1953 -0.2193  0.2194
 9294SOL    HW139518   2.368   4.198   7.498  0.0686 -0.0287  1.3277
 9294SOL    HW239519   2.287   4.108   7.577  1.1708 -1.4614 -1.8195
 9295SOL     OW39520   4.459   4.113   4.735 -0.4298  0.1415  0.6142
 9295SOL    HW139521   4.467   4.079   4.824  1.1538  1.8136  1.1081
 9295SOL    HW239522   4.385   4.067   4.695 -0.8714  1.2414  0.1586
 9296SOL     OW39523   1.456   3.545   9.370  0.2932 -0.0111 -0.2411
 9296SOL    HW139524   1.518   3.496   9.315  1.3714  0.7226  0.3084
 9296SOL    HW239525   1.478   3.495   9.449 -0.3996  0.5190  0.2800
 9297SOL     OW39526   1.485   2.711  10.048 -0.1511 -0.0459 -0.0290
 9297SOL    HW139527   1.449   2.622  10.043  0.5288 -0.2380 -1.4616
 9297SOL    HW239528   1.564   2.706   9.994  2.5426  1.5408  3.7739
 9298SOL     OW39529   3.225   2.527   6.651  0.1258 -0.0447 -0.1073
 9298SOL    HW139530   3.183   2.604   6.612  2.2370  0.7710 -0.7442
 9298SOL    HW239531   3.311   2.540   6.612 -0.7818  1.3384 -1.6798
 9299SOL     OW39532   4.354   3.323   7.716 -0.2052  0.7126 -0.1129
 9299SOL    HW139533   4.278   3.266   7.701  1.1950 -0.6761 -1.9696
 9299SOL    HW239534   4.418   3.268   7.761 -0.7408  0.9076  0.8841
 9300SOL     OW39535   2.492   3.172   5.489  0.1559  0.5773  0.3066
 9300SOL    HW139536   2.580   3.193   5.458  0.2764 -0.2049  0.1104
 9300SOL    HW239537   2.509   3.154   5.581 -1.0622 -0.2937  0.3634
 9301SOL     OW39538   0.515   4.071   7.695 -0.0115 -0.2118 -0.0081
 9301SOL    HW139539   0.554   3.985   7.712  1.9490  0.1814 -2.5057
 9301SOL    HW239540   0.436   4.079   7.749 -0.4708 -1.2142 -0.5326
 9302SOL     OW39541   1.416   4.053   2.372 -0.4323 -0.1881 -0.3241
 9302SOL    HW139542   1.332   4.074   2.413 -0.4364 -0.8125 -0.0061
 9302SOL    HW239543   1.401   3.967   2.334 -2.2165 -1.0664  2.3146
 9303SOL     OW39544   1.493   1.244   9.280  0.0724 -0.1869  0.2625
 9303SOL    HW139545   1.579   1.284   9.268 -1.6300  3.9312  1.7993
 9303SOL    HW239546   1.439   1.306   9.231 -0.3221 -1.7021 -1.1891
 9304SOL     OW39547   3.263   1.902  17.511 -0.0958  0.2187 -0.2239
 9304SOL    HW139548   3.258   1.824  17.456  2.3988  0.1106 -0.2946
 9304SOL    HW239549   3.353   1.932  17.496  0.5602 -2.2465 -1.3004
 9305SOL     OW39550   3.593   1.450   6.101  0.0605  0.1335  0.0954
 9305SOL    HW139551   3.686   1.429   6.111  0.0714 -0.2788 -0.8727
 9305SOL    HW239552   3.589   1.407   6.016 -1.2681 -1.3111  0.8979
 9306SOL     OW39553   3.890   1.445   1.964  0.8051  0.1902 -0.2937
 9306SOL    HW139554   3.848   1.481   2.042  1.7959  1.0442 -0.1452
 9306SOL    HW239555   3.944   1.512   1.921  1.2712  0.1084  0.1623
 9307SOL     OW39556   3.452   1.094  13.852 -0.0339  0.5603  0.2835
 9307SOL    HW139557   3.424   1.118  13.941 -0.7877  1.5196 -0.2169
 9307SOL    HW239558   3.512   1.168  13.837 -0.0291  0.7379  1.1356
 9308SOL     OW39559   4.309   1.752   7.446  0.6455 -0.7362  0.2802
 9308SOL    HW139560   4.367   1.691   7.401  2.2406  1.5488 -0.7511
 9308SOL    HW239561   4.265   1.700   7.514  0.4015 -0.3609  0.4066
 9309SOL     OW39562   0.039   0.411   2.326 -0.6550 -1.0584  0.4224
 9309SOL    HW139563   4.724   0.400   2.403  0.5660  0.1693  1.4744
 9309SOL    HW239564   0.123   0.383   2.362  0.5853  0.3873 -1.3401
 9310SOL     OW39565   4.190   0.976   7.090 -0.1946 -0.0962 -0.0096
 9310SOL    HW139566   4.226   1.065   7.088  0.5977 -0.4461 -1.1550
 9310SOL    HW239567   4.221   0.934   7.171  1.4569 -0.0818 -0.6309
 9311SOL     OW39568   1.909   3.295   4.205 -0.2678 -0.0378  0.1342
 9311SOL    HW139569   1.976   3.344   4.251 -0.2758 -1.3307  1.5123
 9311SOL    HW239570   1.892   3.350   4.128 -1.3064  2.6845  2.3159
 9312SOL     OW39571   3.873   1.045   7.371 -0.2517 -0.7171  0.6670
 9312SOL    HW139572   3.805   1.012   7.430 -3.5307  3.3142 -0.8270
 9312SOL    HW239573   3.907   0.967   7.329  0.8669 -0.2747  0.7535
 9313SOL     OW39574   4.123   4.215  13.807 -0.0901  0.3710  0.3364
 9313SOL    HW139575   4.138   4.122  13.787 -1.0209  0.2344  0.2598
 9313SOL    HW239576   4.094   4.240  13.720  1.1115 -0.7484 -0.3885
 9314SOL     OW39577   1.584   2.479   9.918 -0.0564 -0.4527  0.1122
 9314SOL    HW139578   1.625   2.507  10.000  3.1928 -0.0605 -1.6520
 9314SOL    HW239579   1.511   2.421   9.938  0.2298 -0.3262  1.5348
 9315SOL     OW39580   3.927   0.610   4.530 -0.3860  0.0883  0.1530
 9315SOL    HW139581   3.970   0.587   4.448 -0.7684  1.8427 -0.5422
 9315SOL    HW239582   3.835   0.582   4.524 -0.6440  0.9143  0.2572
 9316SOL     OW39583   3.660   1.438   8.105 -0.3152  0.2747  1.1130
 9316SOL    HW139584   3.680   1.530   8.117 -2.3726  0.9065 -0.3352
 9316SOL    HW239585   3.645   1.418   8.197  0.6558  0.6107  1.3452
 9317SOL     OW39586   3.357   4.646  13.353 -0.3714  0.2768 -0.5316
 9317SOL    HW139587   3.319   4.573  13.305 -1.9520  1.4750 -1.1158
 9317SOL    HW239588   3.277   4.674  13.398  0.8238  2.2460  0.3830
 9318SOL     OW39589   2.243   0.516   7.170 -0.2151  0.4301 -0.1002
 9318SOL    HW139590   2.211   0.510   7.260 -0.9970  2.3666 -0.2465
 9318SOL    HW239591   2.246   0.610   7.153  2.1691  0.2652 -0.5113
 9319SOL     OW39592   0.889   0.584   4.124 -0.1895  0.4312  0.2017
 9319SOL    HW139593   0.823   0.575   4.056 -1.1843 -1.6798  1.4394
 9319SOL    HW239594   0.904   0.492   4.145  0.7496 -0.0543 -2.6280
 9320SOL     OW39595   3.127   0.330  15.261  0.3686  0.4707  0.9452
 9320SOL    HW139596   3.034   0.305  15.259  0.2774  0.7857  1.3191
 9320SOL    HW239597   3.121   0.425  15.248  2.0378  0.6346  1.3136
 9321SOL     OW39598   3.766   1.967   4.608 -0.3309 -0.9150  0.5719
 9321SOL    HW139599   3.787   1.876   4.588 -2.0872 -0.6742 -2.2448
 9321SOL    HW239600   3.850   2.004   4.582  0.6270 -2.6021  1.2260
 9322SOL     OW39601   1.528   2.147  16.866  0.4452 -1.0467 -0.0961
 9322SOL    HW139602   1.458   2.173  16.807 -0.9559 -0.5941  1.7857
 9322SOL    HW239603   1.487   2.063  16.889  0.8030 -1.5739 -1.3449
 9323SOL     OW39604   0.100   2.706   2.111  0.0003 -0.1648  0.0891
 9323SOL    HW139605   0.121   2.630   2.165 -1.5002 -0.0879  0.7909
 9323SOL    HW239606   0.048   2.754   2.176  0.6084  1.1946 -0.4282
 9324SOL     OW39607   2.248   1.318   4.200 -0.1074 -0.7661  0.1890
 9324SOL    HW139608   2.247   1.375   4.123  0.3232 -0.4422  0.4188
 9324SOL    HW239609   2.206   1.375   4.265  1.9890  0.6513  0.3255
 9325SOL     OW39610   3.522   4.243   8.222  0.4928  0.1906  0.4363
 9325SOL    HW139611   3.466   4.169   8.200 -1.3012  1.7959 -0.3643
 9325SOL    HW239612   3.517   4.246   8.317  0.6015  1.1962  0.4097
 9326SOL     OW39613   1.522   0.305   9.782 -0.9758 -0.1910 -0.0407
 9326SOL    HW139614   1.572   0.382   9.753  0.3622 -1.0999 -0.1256
 9326SOL    HW239615   1.583   0.263   9.843  1.0529  2.3479 -0.3046
 9327SOL     OW39616   0.254   4.569  10.343 -0.0827  0.4901 -0.2613
 9327SOL    HW139617   0.256   4.480  10.378 -0.5614 -0.4174 -2.5368
 9327SOL    HW239618   0.332   4.605  10.385 -0.3211 -0.3101  0.8817
 9328SOL     OW39619   0.991   1.493   3.424  0.1720  0.2699  0.1533
 9328SOL    HW139620   1.073   1.449   3.445 -0.2600  0.6811  2.6929
 9328SOL    HW239621   0.926   1.423   3.437  0.7237 -0.2180  0.2861
 9329SOL     OW39622   3.413   0.796   9.120  0.0800  0.0326 -0.3013
 9329SOL    HW139623   3.337   0.738   9.110 -0.8953  1.0764  1.1293
 9329SOL    HW239624   3.377   0.882   9.101  0.4147  0.5370  1.3695
 9330SOL     OW39625   0.469   1.723   7.154  0.6931 -0.7872  0.5250
 9330SOL    HW139626   0.464   1.675   7.236  2.4658 -1.9863 -0.0583
 9330SOL    HW239627   0.466   1.655   7.086  0.8129  1.5499 -1.8356
 9331SOL     OW39628   4.032   2.965   6.393  0.4337 -0.3347 -0.2647
 9331SOL    HW139629   4.021   2.905   6.467 -0.9265 -1.6985 -1.5689
 9331SOL    HW239630   3.949   3.013   6.394  0.2149 -0.6967 -0.8091
 9332SOL     OW39631   0.562   2.798   4.381  0.4655  0.1217  0.2423
 9332SOL    HW139632   0.590   2.728   4.439  2.6929 -1.2933 -2.5329
 9332SOL    HW239633   0.577   2.763   4.293 -2.5759 -0.6092 -0.0034
 9333SOL     OW39634   0.889   0.866   5.926  0.3697 -0.2170  0.3154
 9333SOL    HW139635   0.822   0.800   5.908  0.6972 -0.3159 -0.5182
 9333SOL    HW239636   0.943   0.830   5.997  1.6571  0.1259 -0.5060
 9334SOL     OW39637   2.681   0.619  13.402 -0.3586 -0.5624  0.4036
 9334SOL    HW139638   2.762   0.582  13.367 -1.0924 -1.6022 -0.1861
 9334SOL    HW239639   2.622   0.574  13.342 -0.3441 -0.8579  0.6115
 9335SOL     OW39640   2.808   2.777   2.192  0.0085  0.7335 -0.4137
 9335SOL    HW139641   2.739   2.829   2.233 -0.0286 -0.7073  1.3561
 9335SOL    HW239642   2.837   2.839   2.125 -3.3031  0.0449 -2.4934
 9336SOL     OW39643   1.952   1.496   1.122  0.2269  0.6121 -0.2995
 9336SOL    HW139644   1.893   1.431   1.161 -1.9756  1.1934 -2.6598
 9336SOL    HW239645   2.032   1.452   1.151 -0.6125  0.1898  1.4279
 9337SOL     OW39646   0.971   3.655   3.994 -0.4479  0.1698 -0.2881
 9337SOL    HW139647   0.939   3.745   3.993  0.5044  0.4801 -2.2445
 9337SOL    HW239648   1.055   3.657   3.948  0.1238  3.5926  0.8614
 9338SOL     OW39649   4.173   1.700   7.925 -0.1644  0.0507 -0.0066
 9338SOL    HW139650   4.092   1.649   7.924  1.3890 -2.3936  0.4145
 9338SOL    HW239651   4.211   1.670   7.842  0.0402  0.3367 -0.0163
 9339SOL     OW39652   0.800   1.883   7.746 -0.0855  0.1778  0.0229
 9339SOL    HW139653   0.823   1.898   7.654  2.6522 -1.0321  0.4932
 9339SOL    HW239654   0.715   1.841   7.737  0.7465 -1.4536 -0.2317
 9340SOL     OW39655   3.299   3.509   2.434 -0.5777 -0.2282  0.0657
 9340SOL    HW139656   3.280   3.443   2.501 -2.0696 -1.1178 -1.2376
 9340SOL    HW239657   3.392   3.522   2.451 -0.4225 -0.7712 -0.3719
 9341SOL     OW39658   1.313   1.881   8.171 -0.2935  0.1485 -0.0740
 9341SOL    HW139659   1.396   1.833   8.161 -0.4255  0.0813 -0.8197
 9341SOL    HW239660   1.342   1.972   8.167 -1.1223  0.4726  1.1497
 9342SOL     OW39661   3.456   2.796   5.948 -0.1951  0.0633  0.0982
 9342SOL    HW139662   3.448   2.882   5.908  1.0142  0.5391  0.8883
 9342SOL    HW239663   3.376   2.785   5.999  1.3164 -2.3549  1.9933
 9343SOL     OW39664   2.519   0.716   5.215  0.0754 -0.2662 -0.0525
 9343SOL    HW139665   2.528   0.622   5.196  1.6718  0.1367 -1.2965
 9343SOL    HW239666   2.543   0.742   5.126 -0.6629  0.1572 -0.1208
 9344SOL     OW39667   2.202   3.746  12.277  0.1330  0.0737 -0.4027
 9344SOL    HW139668   2.137   3.725  12.344  1.1493 -0.3459  0.4501
 9344SOL    HW239669   2.204   3.662  12.231  2.0848 -0.0727 -0.0531
 9345SOL     OW39670   0.960   1.734  16.974  0.1557 -0.6227 -0.2017
 9345SOL    HW139671   0.947   1.640  16.982  0.0291 -0.5222  0.8364
 9345SOL    HW239672   0.887   1.763  17.030 -0.1813 -0.3972 -0.7606
 9346SOL     OW39673   0.319   3.696   5.693 -0.3338 -0.3468  0.3189
 9346SOL    HW139674   0.328   3.791   5.708  0.9462 -0.1022 -1.9953
 9346SOL    HW239675   0.365   3.660   5.769  1.0035  2.2485  0.7775
 9347SOL     OW39676   4.083   4.003   6.385  0.1130 -0.0769  0.2315
 9347SOL    HW139677   4.022   3.930   6.398 -0.0800  0.0572  0.0731
 9347SOL    HW239678   4.042   4.070   6.439  1.8839 -0.7972  2.4899
 9348SOL     OW39679   1.617   0.364   3.412 -0.4512  0.2072  0.1119
 9348SOL    HW139680   1.659   0.342   3.329  2.5605 -0.1290  1.7329
 9348SOL    HW239681   1.559   0.433   3.380 -0.9923  0.1744  1.0220
 9349SOL     OW39682   2.590   0.946   8.419 -0.2600 -0.7673 -0.3636
 9349SOL    HW139683   2.598   1.041   8.429 -0.5867 -0.9599  1.5892
 9349SOL    HW239684   2.681   0.927   8.395  0.7327  1.2320  1.8781
 9350SOL     OW39685   1.284   2.621   7.604  0.3822  0.3196 -0.4902
 9350SOL    HW139686   1.296   2.677   7.527 -1.5121  1.6703  0.2134
 9350SOL    HW239687   1.373   2.635   7.637  1.6020 -0.2139 -3.5457
 9351SOL     OW39688   1.149   1.097  13.437  0.6225 -0.1792 -0.0329
 9351SOL    HW139689   1.081   1.079  13.503  0.9728  1.7550  0.8362
 9351SOL    HW239690   1.093   1.108  13.360  0.5373  0.0993  0.0702
 9352SOL     OW39691   3.136   1.652   7.485  0.2580  0.0261  0.3861
 9352SOL    HW139692   3.214   1.704   7.466 -1.4154  2.6207  0.7618
 9352SOL    HW239693   3.145   1.569   7.437 -1.1614  0.2182 -0.2167
 9353SOL     OW39694   2.465   0.146   1.607  0.1723 -0.0755 -0.0942
 9353SOL    HW139695   2.475   0.238   1.629  0.7577  0.0515 -0.8920
 9353SOL    HW239696   2.429   0.105   1.686 -0.5089  0.0661 -0.3318
 9354SOL     OW39697   1.539   0.227   6.541 -0.1830  0.3660 -0.1062
 9354SOL    HW139698   1.523   0.210   6.448 -0.2696  0.5074 -0.1157
 9354SOL    HW239699   1.457   0.267   6.570 -0.8447 -0.2945 -1.0993
 9355SOL     OW39700   2.937   2.308   5.412  0.7096 -0.1024  0.2591
 9355SOL    HW139701   2.898   2.388   5.447  0.2891  0.2790 -1.0546
 9355SOL    HW239702   2.871   2.241   5.426 -2.5535  2.5392 -2.3180
 9356SOL     OW39703   1.863   3.071   0.053  0.2312  0.1000  0.2871
 9356SOL    HW139704   1.889   3.062  17.719  0.8179  2.6137  0.1945
 9356SOL    HW239705   1.892   2.985   0.085  0.1754  0.7909  2.2383
 9357SOL     OW39706   3.077   0.468  12.431  0.1926 -0.3557  0.5173
 9357SOL    HW139707   3.037   0.532  12.490 -0.9923 -1.7429  1.2132
 9357SOL    HW239708   3.101   0.398  12.493 -1.8091 -1.0540  0.4994
 9358SOL     OW39709   2.255   4.407   6.478  0.2159 -0.3534 -0.2649
 9358SOL    HW139710   2.237   4.386   6.570 -0.1621 -1.1375 -0.5165
 9358SOL    HW239711   2.216   4.331   6.435 -1.4792  0.1545  0.3744
 9359SOL     OW39712   3.801   0.790   1.281  0.2176  0.1846  0.0646
 9359SOL    HW139713   3.866   0.720   1.291  1.6573  1.1087 -3.1896
 9359SOL    HW239714   3.734   0.746   1.335 -1.6784 -1.1846 -3.4114
 9360SOL     OW39715   4.446   1.581   7.022 -0.6515 -0.0403 -0.6373
 9360SOL    HW139716   4.352   1.602   7.017 -0.5428  0.4240 -0.7520
 9360SOL    HW239717   4.488   1.667   7.025  0.2081 -0.4001 -2.9004
 9361SOL     OW39718   0.238   4.156  11.789  0.1733  0.3101  0.0417
 9361SOL    HW139719   0.189   4.217  11.734 -0.4060  0.7013  0.9865
 9361SOL    HW239720   0.192   4.073  11.798 -0.7937  0.7627 -0.7118
 9362SOL     OW39721   1.562   4.622  10.635 -0.1243  0.3227  0.0353
 9362SOL    HW139722   1.595   4.546  10.683  1.4750 -0.5813 -2.5043
 9362SOL    HW239723   1.479   4.640  10.680 -0.4680  0.6642 -0.7287
 9363SOL     OW39724   4.609   4.235   7.051  0.5438 -0.4120  0.0362
 9363SOL    HW139725   4.600   4.294   7.126 -0.1738 -2.5313  1.6196
 9363SOL    HW239726   4.567   4.161   7.093 -0.0901 -0.2276 -0.2576
 9364SOL     OW39727   0.917   2.675   3.124  0.2554  0.0476  0.2108
 9364SOL    HW139728   1.003   2.634   3.127 -0.7120 -2.1147 -1.8429
 9364SOL    HW239729   0.929   2.712   3.036  0.9351  0.9038  0.6676
 9365SOL     OW39730   3.148   3.758  11.366  0.0789 -0.9847 -0.1203
 9365SOL    HW139731   3.078   3.808  11.408  0.3018 -0.0285 -0.8978
 9365SOL    HW239732   3.101   3.717  11.292  2.1492 -0.1973 -1.8758
 9366SOL     OW39733   0.124   4.551   6.286  0.0710  0.6330 -0.0732
 9366SOL    HW139734   0.041   4.551   6.239  0.3218  1.3849 -0.5149
 9366SOL    HW239735   0.131   4.645   6.301 -0.3780  0.9368 -1.9045
 9367SOL     OW39736   4.350   1.286  10.114  0.0930  0.4230  0.3303
 9367SOL    HW139737   4.373   1.314  10.025  0.0996  1.5006  0.6841
 9367SOL    HW239738   4.294   1.210  10.102 -3.5703  2.9970  1.3738
 9368SOL     OW39739   4.310   1.127   2.781  0.0814 -0.1823  0.1749
 9368SOL    HW139740   4.314   1.050   2.838 -0.2129  1.0068  1.7921
 9368SOL    HW239741   4.371   1.184   2.828 -0.7832 -1.0265  2.3038
 9369SOL     OW39742   1.693   1.568   1.061 -0.1183 -0.4312  0.5310
 9369SOL    HW139743   1.682   1.659   1.088 -0.1711  0.1980 -1.6091
 9369SOL    HW239744   1.786   1.564   1.083  0.1037 -1.3010 -0.5581
 9370SOL     OW39745   3.240   2.455  10.436 -0.1052  0.2639  0.0200
 9370SOL    HW139746   3.310   2.515  10.413 -0.6725  0.1447 -1.9960
 9370SOL    HW239747   3.185   2.447  10.358  1.1878 -1.2786 -0.7153
 9371SOL     OW39748   2.575   1.336  17.370 -0.4029 -0.5408 -0.8557
 9371SOL    HW139749   2.624   1.393  17.429 -1.9294  0.2231 -0.3199
 9371SOL    HW239750   2.612   1.372  17.290 -1.3113  2.5286  0.1114
 9372SOL     OW39751   3.332   3.493  13.176  0.2927 -0.5202  0.0555
 9372SOL    HW139752   3.243   3.464  13.159 -0.1757  0.5311  0.7727
 9372SOL    HW239753   3.316   3.500  13.270 -1.4785 -1.3606 -0.1814
 9373SOL     OW39754   3.789   2.794   5.453 -0.0257 -0.2017  0.5187
 9373SOL    HW139755   3.800   2.889   5.459 -1.8328 -0.2665  4.3002
 9373SOL    HW239756   3.727   2.783   5.524  1.3385 -1.1061  1.5647
 9374SOL     OW39757   1.687   1.084   2.710 -0.3151  0.4453 -0.4651
 9374SOL    HW139758   1.605   1.110   2.752  0.6647  2.0527  0.4330
 9374SOL    HW239759   1.712   1.164   2.664 -3.0344  0.7213 -1.4468
 9375SOL     OW39760   4.613   1.621   7.553 -0.0039  0.1721  0.4887
 9375SOL    HW139761   4.600   1.705   7.598 -0.3868 -0.3890  1.4340
 9375SOL    HW239762   4.550   1.571   7.605 -0.2548  1.9130  1.8640
 9376SOL     OW39763   1.949   3.935   7.865  0.0207  0.1572  0.9776
 9376SOL    HW139764   1.913   3.957   7.779 -0.5329 -1.2116  0.8659
 9376SOL    HW239765   2.042   3.950   7.848 -0.5830  3.4487  0.4539
 9377SOL     OW39766   3.115   4.094   3.625  0.2876 -0.0074  0.2246
 9377SOL    HW139767   3.180   4.157   3.656  0.1783  0.3449 -0.2609
 9377SOL    HW239768   3.166   4.041   3.564  0.7956  0.0774  0.5724
 9378SOL     OW39769   0.132   0.981   2.350 -0.1398  0.2142  0.4768
 9378SOL    HW139770   0.117   0.895   2.311  0.3752  0.4776 -0.2968
 9378SOL    HW239771   0.064   1.024   2.299  1.4178  0.9946 -0.9239
 9379SOL     OW39772   4.223   1.319   0.203  0.2215  0.3047 -0.3762
 9379SOL    HW139773   4.312   1.331   0.238  0.4483 -2.7630  0.0864
 9379SOL    HW239774   4.237   1.345   0.112 -0.0849 -0.9482 -0.7858
 9380SOL     OW39775   0.318   4.292   8.708 -0.1924  0.6118 -0.9541
 9380SOL    HW139776   0.317   4.292   8.804 -1.2057 -1.2382 -0.9642
 9380SOL    HW239777   0.266   4.213   8.693 -0.2071  0.1619  1.4256
 9381SOL     OW39778   0.003   2.796   3.464  0.2487  0.6835  0.4838
 9381SOL    HW139779   4.694   2.879   3.457 -1.6272 -0.5579 -1.2420
 9381SOL    HW239780   4.739   2.773   3.556 -1.4990  0.0082  0.2518
 9382SOL     OW39781   0.293   2.704   4.301  0.1713  0.1471  0.0686
 9382SOL    HW139782   0.378   2.742   4.282  1.2173 -2.2201  0.0231
 9382SOL    HW239783   0.279   2.719   4.395  0.8393  2.6309 -0.2194
 9383SOL     OW39784   0.956   3.535  16.058 -0.1388  0.2924 -0.5110
 9383SOL    HW139785   0.990   3.610  16.106  0.4882 -0.2524 -0.1113
 9383SOL    HW239786   1.030   3.478  16.040 -0.9968 -0.7365 -0.7948
 9384SOL     OW39787   2.428   0.599   2.713  0.2450  0.1133 -0.4285
 9384SOL    HW139788   2.339   0.626   2.736  0.1904  0.0259 -0.5398
 9384SOL    HW239789   2.443   0.655   2.637 -2.6016  0.8473 -0.4522
 9385SOL     OW39790   2.265   4.458   1.933 -0.0546 -0.5740  0.4196
 9385SOL    HW139791   2.348   4.428   1.968  0.2804  2.1405  1.9332
 9385SOL    HW239792   2.298   4.527   1.875 -1.9984  0.1524  0.1747
 9386SOL     OW39793   0.050   3.384   1.986 -0.5185  0.5569 -0.5777
 9386SOL    HW139794   0.038   3.474   1.958  0.6182  0.6394 -0.7767
 9386SOL    HW239795   4.711   3.370   2.039  0.7758  3.1753  2.0079
 9387SOL     OW39796   3.066   0.789   9.233 -0.0918  0.3853  0.5663
 9387SOL    HW139797   3.011   0.852   9.186 -1.4095 -0.1505  1.3911
 9387SOL    HW239798   3.098   0.739   9.157  0.9913  1.6608  0.1906
 9388SOL     OW39799   2.086   2.601   1.004  0.1453  0.1264  0.1044
 9388SOL    HW139800   2.182   2.599   1.000  0.0945 -1.5957 -0.1136
 9388SOL    HW239801   2.059   2.693   1.003 -0.1855  0.0327  0.3592
 9389SOL     OW39802   2.751   2.947  14.790  0.2831 -0.1262  0.7558
 9389SOL    HW139803   2.753   2.935  14.885  1.3752  3.2450  1.1461
 9389SOL    HW239804   2.667   2.991  14.780  0.0387 -0.7501 -0.0161
 9390SOL     OW39805   2.303   2.442   7.050  0.1126 -0.0102  0.4085
 9390SOL    HW139806   2.219   2.455   7.094  0.8611  0.2256  1.7516
 9390SOL    HW239807   2.272   2.450   6.960  0.5053  0.4008  0.3098
 9391SOL     OW39808   3.174   2.766   5.659 -0.0511 -0.2958  0.1710
 9391SOL    HW139809   3.177   2.700   5.729 -1.1359 -0.2919  0.2280
 9391SOL    HW239810   3.162   2.847   5.709  0.6275  0.1654 -0.4321
 9392SOL     OW39811   3.477   4.475   5.803 -0.0591  0.2677  0.0635
 9392SOL    HW139812   3.537   4.548   5.792 -0.5036  0.4520 -1.2138
 9392SOL    HW239813   3.405   4.505   5.858 -0.3785  1.2807 -0.9077
 9393SOL     OW39814   4.236   1.873   5.624  0.2247  0.3600  0.6114
 9393SOL    HW139815   4.264   1.943   5.684 -0.7344 -0.0214  1.5007
 9393SOL    HW239816   4.311   1.864   5.566  0.5056  0.2086  1.0017
 9394SOL     OW39817   2.952   0.451   9.172 -0.0191  0.3267 -0.2855
 9394SOL    HW139818   2.925   0.368   9.211  2.1887  0.2329  1.0596
 9394SOL    HW239819   2.914   0.512   9.235  1.1510  0.9027 -0.1434
 9395SOL     OW39820   0.282   3.043   9.844 -0.0926 -0.4105 -0.2534
 9395SOL    HW139821   0.358   3.069   9.896 -1.9303  1.8591  1.2660
 9395SOL    HW239822   0.231   2.990   9.906  0.6651 -0.4708  0.3291
 9396SOL     OW39823   0.167   2.650   4.065  0.0839  0.1873 -0.5474
 9396SOL    HW139824   0.213   2.666   4.148  1.0566  0.7852 -1.2077
 9396SOL    HW239825   0.090   2.707   4.076 -0.1069  0.0014 -0.9215
 9397SOL     OW39826   0.775   0.576   3.860  0.4430 -0.1563 -0.0553
 9397SOL    HW139827   0.785   0.658   3.812 -1.1733  0.7250  1.1335
 9397SOL    HW239828   0.824   0.509   3.810  0.8649  0.0380  0.0957
 9398SOL     OW39829   3.388   3.406   5.729 -0.5076  0.5370  0.4422
 9398SOL    HW139830   3.355   3.391   5.817 -0.0003 -1.6373  0.2616
 9398SOL    HW239831   3.366   3.497   5.709 -0.0902  0.6634  0.5568
 9399SOL     OW39832   3.501   0.240   4.193  0.2139  0.0648  0.0797
 9399SOL    HW139833   3.590   0.233   4.228 -0.7459  0.6224  2.6785
 9399SOL    HW239834   3.515   0.216   4.102 -2.2909  0.1620 -0.3384
 9400SOL     OW39835   1.097   3.286   4.485  0.0049  0.6421  0.0451
 9400SOL    HW139836   1.119   3.352   4.420 -0.1422  0.3415 -0.3108
 9400SOL    HW239837   1.087   3.203   4.438  0.6330  0.2307  0.6321
 9401SOL     OW39838   1.633   0.822   3.561 -0.6292 -0.8113  0.7415
 9401SOL    HW139839   1.638   0.766   3.639  2.3987 -1.7016 -0.1195
 9401SOL    HW239840   1.724   0.826   3.534  0.1371  0.2428  3.5129
 9402SOL     OW39841   1.754   3.099   5.079 -0.2827 -0.4650  0.3119
 9402SOL    HW139842   1.845   3.074   5.096 -0.0065  0.2865 -0.0373
 9402SOL    HW239843   1.706   3.087   5.161 -1.4328  0.5653 -0.2156
 9403SOL     OW39844   2.270   1.393  14.574 -0.4317 -0.2777  0.2273
 9403SOL    HW139845   2.205   1.436  14.631 -1.6708  0.2175 -1.5633
 9403SOL    HW239846   2.318   1.349  14.645  1.8030  0.7816 -0.6209
 9404SOL     OW39847   0.223   0.729   7.158 -0.3004  0.3354  0.1233
 9404SOL    HW139848   0.273   0.686   7.227  1.1609  1.0060 -0.5100
 9404SOL    HW239849   0.206   0.806   7.212 -0.7111  0.4254 -0.1323
 9405SOL     OW39850   1.803   3.229   0.286 -0.8877 -0.0909 -0.4622
 9405SOL    HW139851   1.878   3.286   0.268  0.4063 -1.2929  1.0427
 9405SOL    HW239852   1.805   3.160   0.220  1.7272  1.3308 -1.8905
 9406SOL     OW39853   0.361   1.531   7.816  0.5539 -0.2479 -0.5887
 9406SOL    HW139854   0.427   1.476   7.774  0.3068  0.4377 -1.8426
 9406SOL    HW239855   0.315   1.466   7.869  0.2511 -0.2403 -0.8424
 9407SOL     OW39856   0.002   2.034  17.536  0.5302  0.2387  0.2069
 9407SOL    HW139857   0.011   2.114  17.587  0.6040  0.1104  0.3932
 9407SOL    HW239858   4.670   1.992  17.585 -1.0666  2.1911 -0.4459
 9408SOL     OW39859   1.719   4.500   3.246 -0.1150  0.4232 -0.0515
 9408SOL    HW139860   1.725   4.511   3.151 -1.5773 -0.9341 -0.3161
 9408SOL    HW239861   1.773   4.421   3.250 -1.2283 -0.3355  0.2520
 9409SOL     OW39862   4.081   3.207   7.767 -0.1852 -0.9085  0.2387
 9409SOL    HW139863   4.136   3.200   7.845  1.0486 -1.6124 -0.7041
 9409SOL    HW239864   3.996   3.212   7.812 -0.4790  1.5152 -0.5703
 9410SOL     OW39865   2.924   1.348  16.646  0.4520  0.5188  0.2119
 9410SOL    HW139866   3.003   1.307  16.680 -1.0567 -1.5704  1.1650
 9410SOL    HW239867   2.969   1.408  16.586 -0.1642  0.3003 -0.4698
 9411SOL     OW39868   0.283   3.465   7.295 -0.4081 -0.3654  0.3006
 9411SOL    HW139869   0.243   3.492   7.212 -0.6429  1.6578  1.0854
 9411SOL    HW239870   0.224   3.508   7.357  0.8236  0.6862  0.7151
 9412SOL     OW39871   4.589   3.982   6.515  0.5730  0.0366  0.1102
 9412SOL    HW139872   4.684   3.995   6.512  0.6297 -0.3006  0.4548
 9412SOL    HW239873   4.580   3.944   6.603 -0.3864 -0.4358 -0.1860
 9413SOL     OW39874   4.307   1.454  15.173  0.1622 -0.1148 -0.6298
 9413SOL    HW139875   4.349   1.440  15.258 -1.0003  2.5665  0.4127
 9413SOL    HW239876   4.337   1.543  15.151  0.0163  0.2492  0.5960
 9414SOL     OW39877   4.357   4.725   7.946  0.0065 -0.3890  0.6608
 9414SOL    HW139878   4.335   0.074   7.975 -1.5583 -0.7471  0.5885
 9414SOL    HW239879   4.451   0.003   7.937 -0.0105 -0.1000  1.0698
 9415SOL     OW39880   2.654   3.315   1.207 -0.4332 -0.1586 -0.1094
 9415SOL    HW139881   2.578   3.371   1.191  0.0083  0.3897 -0.3175
 9415SOL    HW239882   2.706   3.333   1.128  0.5828 -0.5306  0.4676
 9416SOL     OW39883   4.206   4.647   5.231  0.9805 -0.2511 -0.3881
 9416SOL    HW139884   4.188   4.626   5.140  0.3710 -0.3523 -0.2427
 9416SOL    HW239885   4.298   4.624   5.244  0.7573  0.1613  1.8885
 9417SOL     OW39886   3.046   1.686  10.535 -0.0312 -0.1617 -0.1001
 9417SOL    HW139887   2.968   1.742  10.532  0.4200  0.3180 -2.9640
 9417SOL    HW239888   2.992   1.612  10.563  0.0225 -0.4789 -0.8203
 9418SOL     OW39889   4.674   3.375  15.376  0.2191 -0.1046 -0.1865
 9418SOL    HW139890   4.720   3.308  15.325 -1.3840 -1.1546 -0.2384
 9418SOL    HW239891   4.582   3.350  15.375 -0.1314  1.1224  0.8641
 9419SOL     OW39892   0.098   0.467   8.595 -0.2601 -0.5507 -0.0506
 9419SOL    HW139893   0.175   0.516   8.621 -1.1105  0.2258  1.0066
 9419SOL    HW239894   0.057   0.515   8.523 -0.4185  0.3526  0.6508
 9420SOL     OW39895   4.285   3.891   1.694 -0.0926 -0.2860  0.9382
 9420SOL    HW139896   4.305   3.876   1.787  1.9879 -0.4674  0.4784
 9420SOL    HW239897   4.246   3.807   1.669 -2.1012  1.3600 -1.3157
 9421SOL     OW39898   4.724   4.326  15.897  0.2546  0.4350 -0.2649
 9421SOL    HW139899   4.636   4.293  15.880  1.1359 -2.7273  1.3512
 9421SOL    HW239900   0.010   4.351  15.809 -0.5107  1.0067 -0.3257
 9422SOL     OW39901   1.199   1.798  12.267 -0.0065 -0.6086  0.0708
 9422SOL    HW139902   1.264   1.761  12.327 -0.2493 -0.1077  0.6532
 9422SOL    HW239903   1.202   1.741  12.190  1.2178  0.0408 -0.3742
 9423SOL     OW39904   1.768   4.129  15.047 -0.0985  0.5667 -0.1433
 9423SOL    HW139905   1.833   4.183  15.001 -0.7572  0.9448 -0.6324
 9423SOL    HW239906   1.701   4.198  15.054 -0.7803 -0.3826  2.7812
 9424SOL     OW39907   1.454   3.008   7.816  0.1066 -0.4500 -0.1570
 9424SOL    HW139908   1.395   3.058   7.872  0.3481  0.3225 -0.5882
 9424SOL    HW239909   1.527   2.998   7.877  0.0627 -0.1786 -0.0629
 9425SOL     OW39910   1.971   0.133   9.712 -0.0032  0.1923  0.2350
 9425SOL    HW139911   1.896   0.080   9.737  0.1028  0.1810  0.5393
 9425SOL    HW239912   2.036   0.070   9.682 -0.5894 -0.2912  0.0150
 9426SOL     OW39913   2.542   0.148   2.516 -0.1812  0.4428 -0.5792
 9426SOL    HW139914   2.593   0.225   2.540 -2.6042  1.3146  1.8560
 9426SOL    HW239915   2.502   0.180   2.435 -0.7079  0.2005 -0.4130
 9427SOL     OW39916   3.654   0.522  12.345 -0.1750 -0.4832 -0.6695
 9427SOL    HW139917   3.675   0.605  12.386 -0.7665 -1.2042  1.0817
 9427SOL    HW239918   3.615   0.470  12.416  0.4792 -0.7420 -0.5028
 9428SOL     OW39919   1.083   2.591   6.881  0.4690 -0.3661  0.0442
 9428SOL    HW139920   1.056   2.680   6.858 -0.8886 -1.2715 -1.9139
 9428SOL    HW239921   1.043   2.589   6.968  0.4993 -0.4702  0.0558
 9429SOL     OW39922   4.454   3.956   5.827  0.2906  1.0564 -0.4116
 9429SOL    HW139923   4.443   3.950   5.922  1.0866  3.7117 -0.1381
 9429SOL    HW239924   4.365   3.980   5.804  0.2078  1.3441  0.2097
 9430SOL     OW39925   0.752   2.740  10.496  0.3227 -0.5740  0.0399
 9430SOL    HW139926   0.720   2.706  10.412  1.4529  1.0869 -1.0695
 9430SOL    HW239927   0.829   2.790  10.468  0.4019 -1.5958 -1.6055
 9431SOL     OW39928   3.408   3.933   7.066 -0.1994 -0.3260  0.8425
 9431SOL    HW139929   3.407   4.017   7.020  2.8965 -0.4202  0.5866
 9431SOL    HW239930   3.325   3.952   7.109 -0.4648 -0.1908  0.2784
 9432SOL     OW39931   0.622   2.639  16.870 -0.5133  0.9863  0.0099
 9432SOL    HW139932   0.665   2.667  16.789  0.3261  1.8391  0.7540
 9432SOL    HW239933   0.652   2.549  16.870  1.9831  1.8206  0.8440
 9433SOL     OW39934   2.796   4.228   7.130  0.1213 -0.4338 -0.0396
 9433SOL    HW139935   2.849   4.279   7.069 -0.9076 -0.1954 -0.7346
 9433SOL    HW239936   2.794   4.141   7.092  0.0659 -0.1043 -0.7867
 9434SOL     OW39937   2.531   2.357   5.089 -0.2688  0.2824 -0.0044
 9434SOL    HW139938   2.488   2.295   5.148  0.4472  0.2938  0.5183
 9434SOL    HW239939   2.457   2.384   5.034  1.9605 -0.7833 -3.5756
 9435SOL     OW39940   2.130   3.263  10.638 -0.3620 -0.3300  0.5144
 9435SOL    HW139941   2.164   3.205  10.707  0.5668 -2.1036 -1.4158
 9435SOL    HW239942   2.189   3.338  10.635  0.9243 -1.3517 -0.2960
 9436SOL     OW39943   1.252   0.782   5.589 -0.3130 -0.6318  0.8799
 9436SOL    HW139944   1.289   0.762   5.675 -0.2935 -0.2417  0.9634
 9436SOL    HW239945   1.214   0.697   5.567 -2.6327  0.4306  0.6821
 9437SOL     OW39946   0.074   4.670   6.823  0.3416  0.2322 -0.1112
 9437SOL    HW139947   0.123   0.012   6.825  2.9161 -1.2764 -0.7681
 9437SOL    HW239948   0.108   4.621   6.749 -0.0927  0.5445 -0.5165
 9438SOL     OW39949   2.863   2.865   5.248  0.4630  0.8976  0.4922
 9438SOL    HW139950   2.848   2.830   5.336 -1.6939 -1.9069 -0.9838
 9438SOL    HW239951   2.926   2.936   5.262  1.4328  0.2856 -0.6983
 9439SOL     OW39952   3.026   2.179   6.838 -0.0326  0.0981  0.1099
 9439SOL    HW139953   3.094   2.169   6.771 -0.1323  0.3457 -0.0277
 9439SOL    HW239954   3.023   2.090   6.873 -3.2669 -0.1702 -0.8115
 9440SOL     OW39955   4.203   0.780   4.160 -0.1332  0.2179 -0.2848
 9440SOL    HW139956   4.236   0.811   4.076  1.6784 -0.6600  0.0941
 9440SOL    HW239957   4.145   0.851   4.186 -0.4437 -0.3213  0.4888
 9441SOL     OW39958   0.892   1.034   8.648 -0.0006  0.3561 -0.1042
 9441SOL    HW139959   0.866   0.996   8.565  0.8320 -0.9676  0.2417
 9441SOL    HW239960   0.823   0.999   8.705 -0.0888  1.0138  0.1958
 9442SOL     OW39961   4.496   2.507  15.063 -0.4454  0.1385 -0.2202
 9442SOL    HW139962   4.487   2.591  15.108  4.4214  1.3733 -1.4980
 9442SOL    HW239963   4.409   2.498  15.025  0.5732 -1.3842 -2.2254
 9443SOL     OW39964   1.001   3.666   4.419 -0.2094 -0.1151  0.1158
 9443SOL    HW139965   0.969   3.609   4.489 -0.7401  0.2818  0.1925
 9443SOL    HW239966   0.981   3.605   4.348  1.0706 -1.8847  1.2566
 9444SOL     OW39967   2.932   3.134   7.817  0.0914 -0.4093 -0.3031
 9444SOL    HW139968   2.895   3.210   7.862  0.8759 -0.9561  1.2684
 9444SOL    HW239969   2.993   3.180   7.760 -0.8701  2.2792  0.8309
 9445SOL     OW39970   0.890   1.069  13.598  0.1694  0.8933  0.3854
 9445SOL    HW139971   0.823   1.010  13.563  0.4577  1.4691 -1.1470
 9445SOL    HW239972   0.836   1.144  13.625 -0.3245  0.9220 -0.6832
 9446SOL     OW39973   1.450   4.512   8.991  0.4084 -0.6495 -0.0009
 9446SOL    HW139974   1.429   4.465   8.911 -1.3305 -1.2281  0.7919
 9446SOL    HW239975   1.538   4.536   8.962 -0.3939  2.5325  0.1833
 9447SOL     OW39976   0.120   4.619   7.507 -0.1721 -0.0277  0.4802
 9447SOL    HW139977   0.181   4.659   7.444  0.0013 -2.5991 -0.9906
 9447SOL    HW239978   0.071   4.577   7.437  0.0183 -0.3010  0.5088
 9448SOL     OW39979   4.473   4.428  11.834 -0.4550  0.7198  0.3447
 9448SOL    HW139980   4.443   4.458  11.920 -0.3605 -3.4872  1.8349
 9448SOL    HW239981   4.427   4.490  11.777  0.7871  0.5333 -0.8705
 9449SOL     OW39982   3.595   0.508   5.535 -0.0536 -0.2922 -0.6237
 9449SOL    HW139983   3.550   0.444   5.591  1.0461  0.0119  0.6207
 9449SOL    HW239984   3.682   0.508   5.576 -1.2043 -1.8300  1.8798
 9450SOL     OW39985   3.596   1.095  15.707 -0.3228  0.5284  0.0915
 9450SOL    HW139986   3.548   1.014  15.689 -0.0192  0.0965  1.2136
 9450SOL    HW239987   3.621   1.104  15.615  2.0724 -0.0911  0.6751
 9451SOL     OW39988   0.066   0.881   3.345 -0.7802 -0.0858  0.1525
 9451SOL    HW139989   4.723   0.838   3.325  0.3268 -1.8952 -0.6118
 9451SOL    HW239990   0.069   0.956   3.285  3.2966 -1.7329 -1.7364
 9452SOL     OW39991   1.480   0.418   1.870  0.0591 -0.2260 -0.2401
 9452SOL    HW139992   1.438   0.383   1.792  0.8232 -0.3439 -0.6028
 9452SOL    HW239993   1.570   0.391   1.852  0.1091  0.0014 -0.3383
 9453SOL     OW39994   0.559   2.131   2.408  0.2578 -0.0083  0.2636
 9453SOL    HW139995   0.529   2.043   2.382  2.6946 -1.1143  1.2124
 9453SOL    HW239996   0.579   2.174   2.325  1.4351  1.7589  1.4856
 9454SOL     OW39997   2.177   4.130   1.623 -0.0875 -0.1212  0.5362
 9454SOL    HW139998   2.144   4.160   1.538 -0.3001  0.6046  0.8668
 9454SOL    HW239999   2.261   4.174   1.628  0.1337 -0.3827 -0.7846
 9455SOL     OW40000   2.837   2.846  13.068 -0.2068 -0.0212  0.1977
 9455SOL    HW140001   2.791   2.784  13.011  0.3692 -0.2316 -0.0361
 9455SOL    HW240002   2.895   2.790  13.119  0.4519  0.4004 -0.0945
 9456SOL     OW40003   3.425   3.935  14.996  0.2908 -0.2399 -0.4475
 9456SOL    HW140004   3.407   3.972  15.082 -3.0552 -0.6674 -0.9489
 9456SOL    HW240005   3.494   3.995  14.969  0.2512  0.5047  1.1005
 9457SOL     OW40006   0.238   3.183   9.398  0.1104 -0.1389 -0.1727
 9457SOL    HW140007   0.301   3.198   9.469  1.1554 -1.6139 -0.7959
 9457SOL    HW240008   0.265   3.098   9.362  0.1259 -1.4586  2.9412
 9458SOL     OW40009   1.504   4.550  15.300 -0.2293 -0.7954 -0.3143
 9458SOL    HW140010   1.414   4.532  15.328 -0.1920 -2.2447 -1.1457
 9458SOL    HW240011   1.563   4.514  15.366 -1.4893 -0.5438  0.9432
 9459SOL     OW40012   0.680   4.265  12.661 -0.0020 -0.0888 -0.3966
 9459SOL    HW140013   0.670   4.171  12.678 -0.5389 -0.5108 -3.1017
 9459SOL    HW240014   0.686   4.259  12.566  0.8269 -0.8613 -0.2984
 9460SOL     OW40015   1.590   4.425   0.589 -0.3648 -0.1161 -0.1296
 9460SOL    HW140016   1.594   4.349   0.647  1.3943  0.7215  0.8423
 9460SOL    HW240017   1.678   4.462   0.596 -0.6970  0.5827  0.3392
 9461SOL     OW40018   4.161   0.022   4.861  0.2308  0.0445 -0.0051
 9461SOL    HW140019   4.241   0.006   4.911  0.9724  0.8089 -0.9398
 9461SOL    HW240020   4.135   0.113   4.879 -1.8193 -0.3054 -1.1497
 9462SOL     OW40021   0.064   3.842   5.877 -0.2136  0.3431 -0.3034
 9462SOL    HW140022   0.025   3.787   5.945  1.5874 -1.6745 -0.8919
 9462SOL    HW240023   0.149   3.864   5.917  0.2456  0.8151 -1.5403
 9463SOL     OW40024   3.587   4.679  12.444 -0.8443  0.1173 -0.1020
 9463SOL    HW140025   3.577   4.696  12.538 -1.3443 -0.1580 -0.1099
 9463SOL    HW240026   3.509   4.626  12.436 -0.9556  0.5578 -1.8215
 9464SOL     OW40027   2.622   3.748   2.315  0.3404  0.6804 -0.2123
 9464SOL    HW140028   2.644   3.836   2.285  0.3580  0.4713 -0.8267
 9464SOL    HW240029   2.545   3.770   2.367 -0.0323 -0.1673 -0.3900
 9465SOL     OW40030   0.831   1.821   0.837  0.3361  0.1287 -0.1340
 9465SOL    HW140031   0.849   1.801   0.745 -1.5602 -1.6988 -0.1260
 9465SOL    HW240032   0.779   1.901   0.835  1.3952  0.8147 -0.2785
 9466SOL     OW40033   0.005   0.295   8.773  0.7543 -0.4510  0.1050
 9466SOL    HW140034   4.728   0.234   8.701  1.1729 -1.4304  0.8175
 9466SOL    HW240035   0.027   0.373   8.723 -0.5055  0.7918  1.5174
 9467SOL     OW40036   2.251   3.960   6.081  0.0590 -0.0341  0.2488
 9467SOL    HW140037   2.164   3.990   6.107  0.6354  2.3093 -0.4803
 9467SOL    HW240038   2.276   3.891   6.141  0.8753 -1.0721 -1.2846
 9468SOL     OW40039   1.482   1.336   3.949  0.3694  0.2862 -0.3663
 9468SOL    HW140040   1.448   1.249   3.931 -2.4408  0.6287  3.4072
 9468SOL    HW240041   1.522   1.318   4.034 -1.8809  1.0227  0.8336
 9469SOL     OW40042   2.268   3.398   3.255 -0.1751  0.2293  0.1053
 9469SOL    HW140043   2.232   3.476   3.213  0.7692  0.7715  0.3110
 9469SOL    HW240044   2.231   3.402   3.344  0.0405  2.4248  0.0974
 9470SOL     OW40045   2.852   1.223   5.153  0.0954  0.0776  0.3417
 9470SOL    HW140046   2.946   1.206   5.152  0.3201  1.3393 -1.9008
 9470SOL    HW240047   2.854   1.298   5.092 -1.5444 -0.9096 -0.9345
 9471SOL     OW40048   0.648   0.760   8.279  0.1856 -0.0368  0.0545
 9471SOL    HW140049   0.722   0.769   8.339  2.3405 -0.3717 -2.5779
 9471SOL    HW240050   0.613   0.848   8.287 -2.5210 -1.0940  0.1101
 9472SOL     OW40051   0.619   2.694  17.219  0.4919  0.3323 -0.2875
 9472SOL    HW140052   0.706   2.721  17.249  0.9718  0.7881 -2.0240
 9472SOL    HW240053   0.568   2.745  17.281  1.3205 -0.4943  1.0595
 9473SOL     OW40054   2.685   0.237   6.611 -0.5804  0.7591  0.3426
 9473SOL    HW140055   2.663   0.264   6.522  0.4637 -2.1762 -0.7937
 9473SOL    HW240056   2.749   0.304   6.636 -1.8199  2.9078 -2.2897
 9474SOL     OW40057   4.141   0.206   5.203 -0.4987  0.2057  0.2346
 9474SOL    HW140058   4.146   0.117   5.238  1.5258  0.2329  0.0076
 9474SOL    HW240059   4.163   0.191   5.111  0.9390 -1.0637  0.7871
 9475SOL     OW40060   1.202   0.793   6.176  0.3923 -0.2747  0.1329
 9475SOL    HW140061   1.122   0.745   6.156 -0.6843  0.7191  2.0336
 9475SOL    HW240062   1.249   0.797   6.093 -0.2547 -0.7219 -0.2464
 9476SOL     OW40063   1.966   2.079   6.324  0.2771 -0.0812  0.5366
 9476SOL    HW140064   1.967   2.030   6.406 -2.6663 -0.9893  0.0103
 9476SOL    HW240065   1.909   2.153   6.346  0.3916  0.2705 -0.3385
 9477SOL     OW40066   1.681   1.076   2.267  0.1215  0.1641  0.0437
 9477SOL    HW140067   1.763   1.105   2.305 -1.1334  1.7981  1.4901
 9477SOL    HW240068   1.639   1.043   2.347  0.4284 -0.0825  0.1039
 9478SOL     OW40069   1.559   2.144   6.185  0.3241  0.1240 -0.1863
 9478SOL    HW140070   1.586   2.236   6.175  2.4611 -0.5890 -1.0675
 9478SOL    HW240071   1.623   2.105   6.126 -0.1268 -3.2138  1.5734
 9479SOL     OW40072   0.022   3.029   0.819  0.8463  0.7066  0.8258
 9479SOL    HW140073   4.727   2.976   0.890  1.5033  0.4000  0.9227
 9479SOL    HW240074   0.000   3.116   0.852  1.5796  0.3615  2.1978
 9480SOL     OW40075   0.412   2.544  12.740  0.3590 -0.2888  0.3218
 9480SOL    HW140076   0.370   2.462  12.764 -0.1640  0.4993  2.0902
 9480SOL    HW240077   0.460   2.557  12.822 -0.3881 -1.9454  1.0289
 9481SOL     OW40078   4.536   3.824  16.573 -0.4445  0.2437 -0.1171
 9481SOL    HW140079   4.478   3.853  16.643 -2.0599 -1.5914 -0.6900
 9481SOL    HW240080   4.618   3.867  16.598  0.1332 -0.6831 -0.4249
 9482SOL     OW40081   3.198   0.125   0.415 -0.0100 -0.4546  0.3519
 9482SOL    HW140082   3.210   0.205   0.363 -2.8435  1.0256  1.9901
 9482SOL    HW240083   3.113   0.147   0.453  0.1159 -1.9034  1.5074
 9483SOL     OW40084   0.550   1.014   8.292 -0.6067  0.0589  0.7380
 9483SOL    HW140085   0.459   0.996   8.271 -0.8374  1.6264  0.3860
 9483SOL    HW240086   0.538   1.050   8.380 -0.2879  0.7336  0.5129
 9484SOL     OW40087   3.905   0.735   8.846  0.1532  0.0239 -0.3869
 9484SOL    HW140088   3.991   0.735   8.887  0.7273 -3.1461 -1.6018
 9484SOL    HW240089   3.896   0.826   8.816 -1.5318  0.4064  1.2953
 9485SOL     OW40090   1.261   4.302   3.462  0.1206 -0.0703  0.3484
 9485SOL    HW140091   1.326   4.277   3.396  1.7076 -2.5149  2.8141
 9485SOL    HW240092   1.308   4.365   3.517  2.2653 -2.3396  1.1481
 9486SOL     OW40093   2.636   1.300   8.692 -0.2115 -0.4399 -0.3884
 9486SOL    HW140094   2.719   1.334   8.661 -1.7820  2.6922 -1.1238
 9486SOL    HW240095   2.587   1.271   8.615 -1.2738  4.0570 -1.4301
 9487SOL     OW40096   1.268   2.537   2.736  0.4771  0.0981  0.1738
 9487SOL    HW140097   1.311   2.622   2.743 -1.4702  1.3147 -2.8125
 9487SOL    HW240098   1.342   2.481   2.758 -0.5956 -0.9351  1.2059
 9488SOL     OW40099   1.159   4.695   9.107 -0.6420  0.3181 -0.4932
 9488SOL    HW140100   1.176   4.602   9.098 -1.3599 -0.0067  1.5367
 9488SOL    HW240101   1.118   4.700   9.193 -1.2120 -2.3857 -0.6213
 9489SOL     OW40102   4.611   3.154   5.999 -0.0331 -0.0115 -0.5666
 9489SOL    HW140103   4.678   3.153   5.931  0.2106 -1.2674 -0.3072
 9489SOL    HW240104   4.660   3.139   6.080 -0.3970 -1.3081 -0.5948
 9490SOL     OW40105   0.442   0.650   1.949 -0.7554 -0.4076  0.2854
 9490SOL    HW140106   0.461   0.609   2.034 -1.2117 -3.3144 -0.9930
 9490SOL    HW240107   0.482   0.587   1.889 -0.6666  0.5544 -0.6413
 9491SOL     OW40108   4.127   0.706   8.992 -0.1273  0.3245  0.6157
 9491SOL    HW140109   4.102   0.725   9.083  1.2729  1.3632  0.7781
 9491SOL    HW240110   4.207   0.660   9.016  0.0572  0.1228 -0.3980
 9492SOL     OW40111   3.634   2.450  15.706 -0.3016 -0.6622  0.2371
 9492SOL    HW140112   3.561   2.403  15.748 -0.6106 -0.6628 -0.2920
 9492SOL    HW240113   3.703   2.423  15.765  1.4010  1.4922 -0.7786
 9493SOL     OW40114   4.395   2.013   5.805  0.2523 -0.0291 -0.0118
 9493SOL    HW140115   4.484   2.042   5.785  0.1342  0.3015 -0.0536
 9493SOL    HW240116   4.380   2.068   5.882  0.5231 -0.7032  0.5276
 9494SOL     OW40117   1.672   2.806  11.807  0.0234  0.1406 -0.0854
 9494SOL    HW140118   1.731   2.865  11.855 -0.1784  0.0114  0.3221
 9494SOL    HW240119   1.665   2.836  11.717  0.5084  0.3610 -0.0538
 9495SOL     OW40120   0.456   4.507   8.968 -0.1229  0.0993 -0.0137
 9495SOL    HW140121   0.452   4.555   8.886  2.3917 -0.4597 -0.4610
 9495SOL    HW240122   0.507   4.432   8.938 -0.7715  0.1606 -1.2641
 9496SOL     OW40123   1.440   2.149  14.800 -0.1661 -0.6733  0.0206
 9496SOL    HW140124   1.422   2.118  14.889  0.5800  1.6816  1.0165
 9496SOL    HW240125   1.447   2.073  14.742 -0.7448 -0.3229 -0.4962
 9497SOL     OW40126   3.773   0.363   9.076  0.5906  0.0785 -0.6165
 9497SOL    HW140127   3.834   0.337   9.008 -0.2789  0.8192 -1.6836
 9497SOL    HW240128   3.815   0.320   9.151  1.5010 -2.0574 -2.3779
 9498SOL     OW40129   4.181   4.363   3.818  0.0510 -0.0684  0.3600
 9498SOL    HW140130   4.103   4.387   3.768 -0.0512 -0.0798  0.5123
 9498SOL    HW240131   4.199   4.273   3.791  0.4555 -0.8798  3.2941
 9499SOL     OW40132   4.667   4.643   4.835  0.2621 -0.7644  0.2388
 9499SOL    HW140133   4.700   4.585   4.767  2.3566 -0.3595  0.8847
 9499SOL    HW240134   4.598   4.693   4.791 -1.1205 -0.5084  2.7061
 9500SOL     OW40135   0.903   3.173   5.995 -0.0146  0.1652  0.3236
 9500SOL    HW140136   0.978   3.161   5.937 -1.5120  0.9231 -1.7870
 9500SOL    HW240137   0.941   3.217   6.071  0.7651  3.1158 -1.7528
 9501SOL     OW40138   1.123   0.681   4.558 -0.2335  0.4815  0.7212
 9501SOL    HW140139   1.140   0.774   4.550 -0.4903  0.4276 -0.4032
 9501SOL    HW240140   1.046   0.669   4.502 -1.6640 -0.0254  2.7937
 9502SOL     OW40141   2.544   3.831  14.377  0.0770 -0.1033  0.3600
 9502SOL    HW140142   2.497   3.793  14.304  0.3781  0.2144  0.0015
 9502SOL    HW240143   2.497   3.914  14.392 -3.2442 -1.3431 -3.3886
 9503SOL     OW40144   3.632   3.494   8.336  0.1304 -0.0109  0.2707
 9503SOL    HW140145   3.570   3.556   8.299 -1.8388 -0.8821  2.0863
 9503SOL    HW240146   3.668   3.539   8.412  1.8313 -1.0392  0.0767
 9504SOL     OW40147   0.616   2.018   2.912 -0.3732  0.4199  0.2445
 9504SOL    HW140148   0.548   2.054   2.969 -2.3049 -3.5526  0.3906
 9504SOL    HW240149   0.615   2.068   2.830 -1.0369  2.4212  1.4730
 9505SOL     OW40150   1.418   4.705   8.455  0.2964  0.7109 -0.0062
 9505SOL    HW140151   1.408   4.611   8.446 -1.7148  0.7556  1.6705
 9505SOL    HW240152   1.344   4.726   8.512 -0.1265 -1.2284  0.1341
 9506SOL     OW40153   2.233   1.194   0.943  0.4010  0.0420 -0.1142
 9506SOL    HW140154   2.210   1.242   0.863  0.0802 -0.0474 -0.0727
 9506SOL    HW240155   2.328   1.209   0.941  0.3449  0.4540  0.4042
 9507SOL     OW40156   3.555   3.203   7.772  0.1862  0.5706  0.2386
 9507SOL    HW140157   3.488   3.148   7.732  0.4098  0.6475 -0.2393
 9507SOL    HW240158   3.629   3.178   7.717  0.7952  0.4862  1.1005
 9508SOL     OW40159   4.279   2.831   7.888 -0.4104 -0.1246 -0.0412
 9508SOL    HW140160   4.317   2.836   7.800 -0.3623  0.6737  0.0256
 9508SOL    HW240161   4.186   2.851   7.875 -0.5180  0.1736  1.2159
 9509SOL     OW40162   3.190   0.404   3.814 -0.0254  0.6667  0.6336
 9509SOL    HW140163   3.182   0.320   3.769  2.0924  0.3817  0.7801
 9509SOL    HW240164   3.128   0.388   3.886 -0.2339 -1.8052 -0.0992
 9510SOL     OW40165   2.590   4.214   4.324  0.2588  0.9220 -0.3244
 9510SOL    HW140166   2.592   4.224   4.419  0.0360 -1.7569 -0.0256
 9510SOL    HW240167   2.498   4.200   4.301  0.3913 -2.7830  1.3796
 9511SOL     OW40168   3.968   3.179   5.687 -0.7206 -0.0421  0.0477
 9511SOL    HW140169   4.043   3.232   5.660 -0.0098 -1.1443 -0.1158
 9511SOL    HW240170   3.959   3.214   5.776 -1.0888  0.3954 -0.1601
 9512SOL     OW40171   0.777   2.480   3.781 -0.1651 -0.2561  0.3181
 9512SOL    HW140172   0.726   2.560   3.767 -1.1941 -0.9061  0.4002
 9512SOL    HW240173   0.703   2.420   3.790 -0.0967 -0.1925  1.2732
 9513SOL     OW40174   1.741   1.375   9.250  0.0517  0.3508  0.4109
 9513SOL    HW140175   1.764   1.429   9.326  0.7685 -0.8314  1.0227
 9513SOL    HW240176   1.813   1.401   9.193  2.5698 -0.5320  3.2098
 9514SOL     OW40177   0.687   0.987  15.895 -1.0973 -0.0080  0.2504
 9514SOL    HW140178   0.759   1.021  15.948 -0.1568 -1.3608 -0.1516
 9514SOL    HW240179   0.722   0.997  15.807  3.2631 -2.4309  1.6913
 9515SOL     OW40180   3.463   2.038   3.396  0.0202 -0.6603 -0.3069
 9515SOL    HW140181   3.425   1.952   3.412  2.4799 -1.7807 -0.4708
 9515SOL    HW240182   3.554   2.018   3.375 -0.1788 -0.7056 -1.1480
 9516SOL     OW40183   0.607   4.474   9.699  0.2118 -0.1719 -0.2650
 9516SOL    HW140184   0.545   4.412   9.737 -0.8232  0.8511 -0.3152
 9516SOL    HW240185   0.685   4.417   9.698 -0.2991 -0.8720 -0.2217
 9517SOL     OW40186   2.651   3.568   3.769  0.0508  0.0320 -0.5826
 9517SOL    HW140187   2.590   3.524   3.828 -1.6937 -1.5142 -3.5344
 9517SOL    HW240188   2.736   3.536   3.799 -2.0364 -3.7478  1.1397
 9518SOL     OW40189   3.397   3.130   6.399  0.0095 -0.0520  0.5383
 9518SOL    HW140190   3.487   3.160   6.410  0.0824  0.9354 -2.9550
 9518SOL    HW240191   3.379   3.111   6.492  0.0892 -1.0269  0.3548
 9519SOL     OW40192   3.190   4.112   2.197  0.0170 -0.0913 -0.1463
 9519SOL    HW140193   3.248   4.091   2.270  0.1015  1.7695  0.3077
 9519SOL    HW240194   3.163   4.200   2.221  0.3616  0.0311 -0.2238
 9520SOL     OW40195   0.834   4.152   4.077 -0.6872 -0.0650  0.6023
 9520SOL    HW140196   0.744   4.118   4.079 -0.0385 -1.7624  1.1174
 9520SOL    HW240197   0.806   4.243   4.070  1.4957  0.8408  3.3750
 9521SOL     OW40198   4.449   1.385   4.382 -0.0221 -0.0402  0.0010
 9521SOL    HW140199   4.473   1.423   4.467 -1.5387 -2.3993  1.4832
 9521SOL    HW240200   4.433   1.467   4.336 -1.9463 -0.1142  0.5492
 9522SOL     OW40201   2.918   0.774   8.028 -0.0874  0.4396  0.0334
 9522SOL    HW140202   2.912   0.841   7.960 -1.5034 -0.9347 -1.1704
 9522SOL    HW240203   3.003   0.803   8.061 -1.5039  2.2426  2.0974
 9523SOL     OW40204   3.639   2.606   7.686  0.1933 -0.4300 -0.1037
 9523SOL    HW140205   3.693   2.556   7.748  1.3363  1.3444  0.3672
 9523SOL    HW240206   3.672   2.694   7.708  0.7474 -0.7810  0.5017
 9524SOL     OW40207   0.848   3.722  16.981  0.2505 -0.2953 -0.8323
 9524SOL    HW140208   0.843   3.721  16.885  0.0773  0.9246 -0.8358
 9524SOL    HW240209   0.764   3.682  17.002  0.7419 -0.2033  1.2769
 9525SOL     OW40210   2.113   0.703  11.208  0.0090 -0.1586  0.4787
 9525SOL    HW140211   2.204   0.699  11.237  0.9200 -2.7326 -2.5954
 9525SOL    HW240212   2.066   0.758  11.270 -0.3805  1.7249 -1.4828
 9526SOL     OW40213   1.700   2.726   5.493  0.0706 -0.2202 -0.5102
 9526SOL    HW140214   1.772   2.759   5.547  1.9535 -1.7480 -2.0609
 9526SOL    HW240215   1.630   2.789   5.513 -0.4822 -1.1563  0.4859
 9527SOL     OW40216   4.524   0.758   4.990  0.3445 -0.0221  0.2946
 9527SOL    HW140217   4.536   0.852   5.003 -2.3505  0.0293  2.5865
 9527SOL    HW240218   4.562   0.730   5.074 -3.1729 -1.0052  1.5764
 9528SOL     OW40219   0.638   1.727   5.527 -0.1141  0.5236 -0.1067
 9528SOL    HW140220   0.554   1.761   5.558 -0.1009 -0.2015  0.7028
 9528SOL    HW240221   0.692   1.729   5.606  0.7538 -1.3702 -0.6513
 9529SOL     OW40222   2.721   4.622   4.459 -0.1403 -0.1373 -0.6643
 9529SOL    HW140223   2.770   4.690   4.504 -1.8254  2.0697 -2.1893
 9529SOL    HW240224   2.762   4.602   4.374  2.5091 -0.0684  0.5854
 9530SOL     OW40225   4.131   4.315  13.538  0.3425  0.7736  0.9334
 9530SOL    HW140226   4.128   4.235  13.486  0.0485  2.2502 -1.3241
 9530SOL    HW240227   4.210   4.348  13.495  0.6394 -0.6433  0.4084
 9531SOL     OW40228   3.286   0.174   9.483 -0.0813  0.0070  0.0673
 9531SOL    HW140229   3.263   0.262   9.452  0.5749 -0.7974 -2.7663
 9531SOL    HW240230   3.247   0.187   9.569  0.0331 -1.3498  0.3191
 9532SOL     OW40231   1.136   1.702   5.503 -0.3136  0.7425  0.0756
 9532SOL    HW140232   1.056   1.746   5.474 -1.5052  0.7260  3.3536
 9532SOL    HW240233   1.121   1.612   5.477  0.6986  0.7899 -0.6667
 9533SOL     OW40234   4.680   3.945   8.533 -0.0378 -0.2017  0.7134
 9533SOL    HW140235   4.631   3.951   8.615 -1.1462  1.5171 -0.0731
 9533SOL    HW240236   4.660   3.859   8.498 -0.6384 -0.3427  1.4073
 9534SOL     OW40237   3.591   3.529   6.481  0.4754  0.5429  0.0740
 9534SOL    HW140238   3.568   3.497   6.568 -0.6668 -1.9307 -1.1590
 9534SOL    HW240239   3.540   3.610   6.470 -1.6464 -0.7091  0.7127
 9535SOL     OW40240   2.059   4.089   3.824 -0.6860  0.2867 -0.5669
 9535SOL    HW140241   2.026   4.153   3.888  0.3036  0.6988 -0.4783
 9535SOL    HW240242   2.030   4.123   3.740 -0.1653  1.6245 -0.1933
 9536SOL     OW40243   3.912   2.536  15.224 -0.1906  0.1561 -0.0161
 9536SOL    HW140244   3.918   2.441  15.216 -0.0600 -0.1498  3.6102
 9536SOL    HW240245   3.818   2.549  15.213 -0.0233  2.2097  1.1011
 9537SOL     OW40246   0.561   4.388   2.417  0.0014  0.4190 -0.1489
 9537SOL    HW140247   0.549   4.309   2.366  1.0091  0.7041 -0.8391
 9537SOL    HW240248   0.484   4.369   2.471 -1.1012 -0.0550 -1.8978
 9538SOL     OW40249   4.732   1.538  15.772  0.7673 -0.1170 -0.1037
 9538SOL    HW140250   4.716   1.475  15.701  0.6336  1.1197 -1.1875
 9538SOL    HW240251   0.081   1.516  15.799  0.8872  1.6413  0.9202
 9539SOL     OW40252   0.497   2.481  12.197 -0.3213  0.1684  0.0007
 9539SOL    HW140253   0.438   2.533  12.251  0.1661  0.3881  0.3139
 9539SOL    HW240254   0.451   2.397  12.198 -0.3288  0.1787  0.4057
 9540SOL     OW40255   4.296   0.981  12.584  0.4204  0.6937 -0.3271
 9540SOL    HW140256   4.248   0.960  12.664  0.6341  1.5767  0.0340
 9540SOL    HW240257   4.259   1.069  12.571  0.6526  1.0871  1.7528
 9541SOL     OW40258   2.635   3.676   4.117 -0.4145 -0.0885 -0.9601
 9541SOL    HW140259   2.730   3.666   4.124 -0.2324  1.2070 -1.5330
 9541SOL    HW240260   2.604   3.616   4.049  0.0086 -1.0782 -0.2821
 9542SOL     OW40261   3.005   3.523   0.842 -0.0828  0.1284  0.0585
 9542SOL    HW140262   3.059   3.535   0.920 -0.7845  1.8892  0.2649
 9542SOL    HW240263   2.972   3.610   0.822 -0.4554  0.2537  1.2184
 9543SOL     OW40264   0.940   0.418   1.960 -0.0720 -0.6731  0.3560
 9543SOL    HW140265   0.996   0.481   1.913 -0.4019 -0.7019 -0.0764
 9543SOL    HW240266   0.864   0.470   1.985  0.0879 -0.2747  0.0164
 9544SOL     OW40267   2.296   3.223   1.585  0.1692 -0.2805 -0.1567
 9544SOL    HW140268   2.280   3.317   1.581  0.1167 -0.3836 -2.8527
 9544SOL    HW240269   2.255   3.198   1.502 -1.5105 -1.4069  1.0129
 9545SOL     OW40270   2.791   4.624  17.396 -0.0800 -0.3998  0.4861
 9545SOL    HW140271   2.696   4.635  17.400 -0.0133  0.4061 -0.2879
 9545SOL    HW240272   2.801   4.607  17.303  2.9301  1.5054  0.4918
 9546SOL     OW40273   3.479   4.669   6.785 -0.5600  0.0880 -1.1132
 9546SOL    HW140274   3.564   4.654   6.826 -1.0912 -0.3245 -0.1560
 9546SOL    HW240275   3.465   0.022   6.804 -0.6592 -0.6069  2.2852
 9547SOL     OW40276   3.193   4.717   6.678 -0.4994  0.2806 -0.4279
 9547SOL    HW140277   3.126   4.726   6.611 -0.5988  0.6521 -0.2781
 9547SOL    HW240278   3.227   4.631   6.652 -1.1111  0.0271 -0.3822
 9548SOL     OW40279   3.148   3.674   3.818  0.0521 -0.2137  0.6451
 9548SOL    HW140280   3.101   3.757   3.812 -1.5676 -1.1762 -0.2348
 9548SOL    HW240281   3.161   3.665   3.912 -3.5959  0.7754  1.2225
 9549SOL     OW40282   0.272   0.055  13.352  0.8781 -0.5064  0.0183
 9549SOL    HW140283   0.367   0.052  13.363  0.7375 -1.6962  0.9008
 9549SOL    HW240284   0.234   0.119  13.412 -0.4182 -1.4714  0.2413
 9550SOL     OW40285   2.509   2.784  10.785 -0.0369  0.4801 -0.1669
 9550SOL    HW140286   2.431   2.733  10.809  0.0987  0.5375  0.3792
 9550SOL    HW240287   2.584   2.736  10.821  0.0646  0.2358 -0.7049
 9551SOL     OW40288   0.210   3.073   9.123 -0.2704 -0.9411  0.2636
 9551SOL    HW140289   0.169   3.142   9.176  0.6486 -0.5845  0.5113
 9551SOL    HW240290   0.211   2.995   9.179  1.4479 -0.4346  0.9375
 9552SOL     OW40291   0.674   1.081   4.204 -0.4202 -0.0583  0.3265
 9552SOL    HW140292   0.666   1.035   4.121 -0.9074 -1.7715  1.3226
 9552SOL    HW240293   0.582   1.076   4.230 -0.7424  1.4694 -0.5120
 9553SOL     OW40294   2.094   2.434   7.961  0.2977 -0.0698  0.4426
 9553SOL    HW140295   2.067   2.496   8.028 -2.9978  2.1337 -2.9122
 9553SOL    HW240296   2.076   2.493   7.888  3.0083 -2.8364 -2.4824
 9554SOL     OW40297   3.648   3.562   7.247 -0.2222  0.1060  0.1992
 9554SOL    HW140298   3.658   3.481   7.197  1.1135  0.7754 -0.6064
 9554SOL    HW240299   3.570   3.602   7.209  1.0805  1.1610 -1.3202
 9555SOL     OW40300   1.035   2.553   3.989 -0.2914  0.1358  0.3433
 9555SOL    HW140301   0.969   2.489   4.015 -0.4773 -0.8196 -2.4071
 9555SOL    HW240302   1.063   2.505   3.910 -0.7130 -0.5948  0.6407
 9556SOL     OW40303   0.977   4.354  13.988  0.2933  0.4276  0.1197
 9556SOL    HW140304   0.994   4.296  14.061 -2.8360 -0.2626  0.3276
 9556SOL    HW240305   0.930   4.426  14.030  0.2787  0.4965 -0.0125
 9557SOL     OW40306   2.208   2.015   5.422  0.0104 -0.0544  0.1800
 9557SOL    HW140307   2.134   1.957   5.405  1.3354 -1.4990 -0.6276
 9557SOL    HW240308   2.278   1.980   5.368 -0.0093 -2.3761  1.6663
 9558SOL     OW40309   1.099   4.515  15.623  0.4729 -0.1141 -0.1437
 9558SOL    HW140310   1.146   4.460  15.685 -0.8435 -2.1171 -0.8986
 9558SOL    HW240311   1.160   4.502  15.550  0.1688  0.6555 -0.5391
 9559SOL     OW40312   4.598   3.793   3.335 -0.1286  0.1541  0.0816
 9559SOL    HW140313   4.614   3.727   3.268 -1.4919  0.6461 -0.7355
 9559SOL    HW240314   4.686   3.815   3.364 -0.0681 -1.3338  0.9798
 9560SOL     OW40315   4.351   0.394   5.929  0.2214  0.3513  0.2635
 9560SOL    HW140316   4.289   0.365   5.996 -1.2826  2.2416 -0.3120
 9560SOL    HW240317   4.417   0.438   5.983  0.1178  0.6972  0.1103
 9561SOL     OW40318   1.532   0.229   8.585  0.3437 -0.1671 -0.1789
 9561SOL    HW140319   1.497   0.185   8.507  1.1559 -2.7513  0.8859
 9561SOL    HW240320   1.497   0.174   8.655 -1.3490  0.5766 -0.4467
 9562SOL     OW40321   0.783   3.693  16.468 -0.1332 -0.3220 -0.3631
 9562SOL    HW140322   0.750   3.751  16.399 -1.8054 -2.1034 -1.0548
 9562SOL    HW240323   0.729   3.614  16.467  0.6785 -0.8961  1.1274
 9563SOL     OW40324   4.050   0.564   6.028  1.0032 -0.1347  0.8373
 9563SOL    HW140325   4.001   0.631   6.074  0.4516  1.5195 -2.1512
 9563SOL    HW240326   4.018   0.569   5.938 -1.1690 -2.5354  1.4718
 9564SOL     OW40327   0.117   0.106   3.582 -0.4385  0.0454  0.1420
 9564SOL    HW140328   0.040   0.052   3.598  0.3702 -1.0370  0.4477
 9564SOL    HW240329   0.162   0.087   3.665  0.0494 -0.9679 -0.3538
 9565SOL     OW40330   2.915   1.876   4.356 -0.0008  0.7488 -0.0894
 9565SOL    HW140331   2.835   1.929   4.360  0.3027  1.2728 -0.9006
 9565SOL    HW240332   2.972   1.930   4.412  0.5653  0.6296 -0.5441
 9566SOL     OW40333   1.410   3.232   8.803 -0.0523  0.1249 -0.3178
 9566SOL    HW140334   1.336   3.202   8.750 -0.0688 -0.5483  0.0769
 9566SOL    HW240335   1.472   3.254   8.734 -0.7262 -2.1641 -1.6548
 9567SOL     OW40336   1.432   0.340   7.622  0.3876  0.6643  0.4771
 9567SOL    HW140337   1.356   0.293   7.588  0.3527  2.7257 -2.3705
 9567SOL    HW240338   1.487   0.350   7.544 -1.2420  1.0564 -0.6141
 9568SOL     OW40339   4.292   2.575   3.056  0.0835  0.3502  0.6065
 9568SOL    HW140340   4.385   2.563   3.076  0.8391  4.1035 -0.7415
 9568SOL    HW240341   4.275   2.496   3.004 -0.0693  0.3803  0.6102
 9569SOL     OW40342   3.788   0.929  10.802 -0.3685  0.1180  0.2929
 9569SOL    HW140343   3.766   1.021  10.783 -0.0555 -0.0276 -0.7263
 9569SOL    HW240344   3.729   0.888  10.739  0.0506  1.1137 -0.7482
   4.73999   4.73999  17.75755
