Membrane in water
40344
    1TMC1    C1    1   3.520   1.240  11.250  0.5387 -0.4008 -0.1456
    1TMC1    C2    2   3.582   1.167  11.152  0.2892 -0.4483 -0.1812
    1TMC1    C3    3   3.672   1.230  11.071  0.3971  0.0659 -0.2675
    1TMC1    C4    4   3.529   1.373  11.259 -0.5325  0.1507  0.3227
    1TMC1    C5    5   3.631   1.432  11.187 -1.1354  1.0823  0.2254
    1TMC1    C6    6   3.694   1.365  11.087 -0.3163 -0.0205  1.2049
    1TMC1     C    7   3.460   1.183  11.374 -0.4950  0.2628  0.0121
    1TMC1     O    8   3.377   1.249  11.430 -0.1445  0.1346 -0.3542
    1TMC1     H    9   3.557   1.064  11.129  1.2525 -1.0927  1.7101
    1TMC1    H1   10   3.513   1.420  11.355 -0.7558 -0.8874  0.7905
    1TMC1    H2   11   3.763   1.410  11.017 -1.1198 -0.8682 -0.1124
    1TMC1    C7   12   3.676   1.557  11.243  0.0883 -0.3291  0.5243
    1TMC1    C8   13   3.758   1.151  10.984  0.1718  0.4907 -0.4650
    1TMC1    O1   14   3.609   1.618  11.328 -0.2100 -0.2874  0.2107
    1TMC1    O2   15   3.716   1.055  10.919 -0.1953  0.5265 -0.3084
    1TMC1    O3   16   3.803   1.584  11.200  0.0429 -0.8307  0.0389
    1TMC1    H3   17   3.855   1.510  11.162 -0.0154 -0.4035 -0.8857
    1TMC1    O5   18   3.877   1.208  10.975 -0.2567 -0.1784  0.4498
    1TMC1    H5   19   3.905   1.278  11.038  0.2837 -0.8601  0.9666
    2MPD2     C   20   3.408   0.796  11.712 -0.3773  0.4951  0.0129
    2MPD2    C1   21   3.327   0.905  11.680  0.1638 -0.6701  0.2552
    2MPD2    C2   22   3.358   0.994  11.582  0.6863 -0.1744 -0.4987
    2MPD2    C3   23   3.477   0.979  11.512 -0.4841  0.0157 -0.1843
    2MPD2    C4   24   3.561   0.876  11.543 -0.3750  0.1673 -0.2745
    2MPD2    C5   25   3.529   0.792  11.647 -0.2611  0.3837  0.7526
    2MPD2     H   26   3.286   1.075  11.581  1.9073  0.9370  1.2262
    2MPD2    H1   27   3.652   0.863  11.485  0.0709 -1.4763  0.7609
    2MPD2    H2   28   3.388   0.720  11.787  1.0366  0.8493  0.7425
    2MPD2    H3   29   3.600   0.715  11.674 -0.3897  0.1096  0.3132
    2MPD2     N   30   3.519   1.064  11.407 -0.3217 -0.0915  0.1465
    2MPD2    H5   31   3.595   1.036  11.346 -1.0969 -0.1694 -0.7978
    2MPD2    N1   32   3.199   0.932  11.738  0.1025  0.3515 -0.3261
    2MPD2    H7   33   3.145   1.008  11.699 -0.1407  1.0535  1.3865
    3TMC1    C1   34   3.134   1.899  10.384 -1.0408  0.2590 -0.4851
    3TMC1    C2   35   3.228   1.999  10.402  0.0698  0.7139  0.0977
    3TMC1    C3   36   3.320   2.022  10.300 -0.2023 -0.4775 -0.0853
    3TMC1    C4   37   3.122   1.847  10.256  0.1219  0.6799  0.3567
    3TMC1    C5   38   3.213   1.873  10.160  0.4839  0.0888 -0.5303
    3TMC1    C6   39   3.315   1.963  10.176 -0.1902  0.1756  0.5379
    3TMC1     C   40   3.010   1.905  10.456 -0.6012  0.1168  0.4485
    3TMC1     O   41   2.939   1.805  10.443 -0.2304 -0.2831 -0.0157
    3TMC1     H   42   3.244   2.044  10.499 -1.4353 -0.0097  0.6857
    3TMC1    H1   43   3.041   1.778  10.235  0.1996  0.6590  0.1348
    3TMC1    H2   44   3.378   1.992  10.092  0.6865  1.1299  1.5261
    3TMC1    C7   45   3.174   1.841  10.024  0.4326  0.4422  0.7493
    3TMC1    C8   46   3.380   2.152  10.307  0.7238  1.0025  0.3250
    3TMC1    O1   47   3.061   1.837   9.979  0.1271  0.3931 -0.5042
    3TMC1    O2   48   3.317   2.249  10.349  0.1966  0.1191 -0.1985
    3TMC1    O3   49   3.286   1.844   9.946  0.5520  0.3774 -0.9363
    3TMC1    H3   50   3.365   1.828  10.001  1.5190  0.5038 -2.2857
    3TMC1    O5   51   3.485   2.155  10.218 -0.3061 -0.1775 -0.2494
    3TMC1    H5   52   3.526   2.067  10.231  2.1288  0.9093 -0.7216
    4MPD2     C   53   2.652   2.113  10.755 -0.2770  0.1439 -0.6080
    4MPD2    C1   54   2.740   2.216  10.728  0.1133  0.6635 -0.3999
    4MPD2    C2   55   2.841   2.187  10.635  0.0701  0.0304  0.3719
    4MPD2    C3   56   2.863   2.055  10.590 -0.9299  0.0736  0.8334
    4MPD2    C4   57   2.779   1.953  10.630  0.0064  0.1955  0.2728
    4MPD2    C5   58   2.672   1.981  10.713  0.5624  0.1543 -0.1136
    4MPD2     H   59   2.907   2.266  10.601 -0.2846  0.2333  0.1509
    4MPD2    H1   60   2.782   1.852  10.591 -2.7136  0.0512  0.4228
    4MPD2    H2   61   2.563   2.121  10.816 -0.8376  0.7921 -1.5143
    4MPD2    H3   62   2.596   1.908  10.740 -0.5739  1.4138  0.1345
    4MPD2     N   63   2.980   2.025  10.519 -0.7211  0.6636 -0.1079
    4MPD2    H5   64   3.054   2.093  10.528 -1.1365  1.1111 -0.1014
    4MPD2    N1   65   2.729   2.343  10.797 -0.5236  0.1127 -0.6869
    4MPD2    H7   66   2.809   2.402  10.780 -0.4640  0.6785  1.4686
    5TCq1    O1   67   3.651   3.978  12.596 -0.3858  0.1890  0.3759
    5TCq1    C1   68   3.554   4.026  12.678 -0.5995 -0.4447  0.7225
    5TCq1    O2   69   3.532   3.996  12.796 -0.3273 -0.4245 -0.2721
    5TCq1    C2   70   3.433   4.013  12.590  0.4251  0.0495  0.0390
    5TCq1    C3   71   3.319   3.976  12.643  0.7723 -0.2031 -0.7114
    5TCq1    C4   72   3.213   3.929  12.569  0.1007  0.1600 -0.8351
    5TCq1    C5   73   3.226   3.920  12.434  0.0999 -0.0493  0.6830
    5TCq1    C6   74   3.344   3.962  12.378  0.1189  0.2252  0.0692
    5TCq1    C7   75   3.449   4.011  12.456 -0.1774 -0.0305  0.2031
    5TCq1    C8   76   3.346   3.976  12.233 -0.1347 -0.1958  0.8312
    5TCq1    O4   77   3.453   4.010  12.187  0.4959 -0.1196 -0.1720
    5TCq1    C9   78   3.087   3.880  12.623  0.1196 -0.1829 -0.1244
    5TCq1    O5   79   2.992   3.857  12.542 -0.5671  0.1107 -0.3732
    5TCq1    O6   80   3.069   3.882  12.747 -0.5121  0.2483  0.2689
    5TCq1    H1   81   3.653   4.017  12.506  3.0638 -0.9481 -0.0334
    5TCq1    H2   82   3.297   3.978  12.749 -0.4945  1.8539 -1.0215
    5TCq1    H3   83   3.158   3.860  12.374  2.2725 -0.4235 -1.3849
    5TCq1    H4   84   3.528   4.063  12.404 -1.6945  1.4304 -0.6542
    6MPD2     C   85   3.064   4.103  12.029 -0.0908  0.0958  0.3930
    6MPD2    C1   86   3.187   4.043  12.056  0.0953  0.3156  1.2193
    6MPD2    C2   87   3.269   4.019  11.945 -0.5477 -0.0122 -0.0417
    6MPD2    C3   88   3.228   4.041  11.817  0.3534  0.3367  0.4581
    6MPD2    C4   89   3.110   4.104  11.796  0.7279 -1.1071 -0.1271
    6MPD2    C5   90   3.027   4.135  11.900 -0.0029  0.8407  0.5327
    6MPD2     H   91   3.368   3.974  11.951 -1.1580 -1.4643 -0.7209
    6MPD2    H1   92   3.074   4.137  11.700  0.3046 -0.2308  0.3285
    6MPD2    H2   93   2.993   4.112  12.110 -0.6950 -1.3060  0.0214
    6MPD2    H3   94   2.935   4.186  11.875 -0.8441 -1.0141 -0.1067
    6MPD2     N   95   3.311   3.992  11.712 -1.0478  0.5682 -0.1156
    6MPD2    H5   96   3.396   3.946  11.745  0.1613  3.1630  0.3620
    6MPD2    N1   97   3.220   4.006  12.194 -0.1845 -0.0898 -0.1993
    6MPD2    H7   98   3.151   4.020  12.267  1.0952 -4.6263  1.8678
    7TCq1    O1   99   0.959   3.350  13.767 -0.0137  0.9384  0.5267
    7TCq1    C1  100   0.934   3.471  13.720  0.1225  0.4941 -0.5024
    7TCq1    O2  101   0.930   3.578  13.781 -0.3903  0.1084  0.0592
    7TCq1    C2  102   0.972   3.461  13.583  0.1119 -0.7477  0.1712
    7TCq1    C3  103   1.036   3.570  13.522  0.1018 -0.4881 -0.1028
    7TCq1    C4  104   1.063   3.560  13.389 -0.5162 -0.7225 -0.1017
    7TCq1    C5  105   1.039   3.439  13.322 -0.0591  0.1621  0.6514
    7TCq1    C6  106   0.997   3.334  13.390 -0.0379 -0.0754 -0.2289
    7TCq1    C7  107   0.951   3.343  13.521 -0.7035 -0.0895 -0.7646
    7TCq1    C8  108   0.989   3.204  13.319  0.3393  0.3283  0.2230
    7TCq1    O4  109   0.893   3.134  13.341  0.0849  0.3172 -0.4179
    7TCq1    C9  110   1.100   3.674  13.320 -0.2570 -0.1069 -0.0107
    7TCq1    O5  111   1.137   3.663  13.201 -0.3611 -0.3259  0.1332
    7TCq1    O6  112   1.126   3.768  13.396 -0.2080  0.2557  0.2293
    7TCq1    H1  113   0.994   3.284  13.704 -0.1757  2.5065 -1.1893
    7TCq1    H2  114   1.035   3.662  13.580  0.4230 -0.7424  0.3118
    7TCq1    H3  115   1.054   3.435  13.215  2.5458 -0.7212  1.0419
    7TCq1    H4  116   0.896   3.264  13.571 -0.9323  0.4142 -0.2227
    8MPD2     C  117   1.041   3.013  12.846 -0.3108 -0.0817  0.5378
    8MPD2    C1  118   0.949   2.991  12.945  0.0811 -0.1149  0.2186
    8MPD2    C2  119   0.964   3.049  13.064  0.0472 -0.2940 -0.2611
    8MPD2    C3  120   1.063   3.140  13.088 -0.0901 -0.4222  0.4229
    8MPD2    C4  121   1.157   3.171  12.988 -0.4610 -0.0656  0.1582
    8MPD2    C5  122   1.147   3.099  12.879  0.0870 -0.7204 -0.2473
    8MPD2     H  123   0.896   3.016  13.142 -0.8293 -0.3000 -1.0231
    8MPD2    H1  124   1.244   3.236  12.998  0.3893 -0.8220 -2.2668
    8MPD2    H2  125   1.039   2.968  12.748 -0.3427 -1.4542  1.1649
    8MPD2    H3  126   1.231   3.110  12.811  0.4776  0.4806  0.4443
    8MPD2     N  127   1.079   3.205  13.208 -0.1370 -0.0219 -0.1261
    8MPD2    H5  128   1.155   3.272  13.202 -3.0626  3.2659 -0.2246
    8MPD2    N1  129   0.842   2.897  12.929  0.2639 -0.1267 -0.2229
    8MPD2    H7  130   0.789   2.876  13.013  0.0658  1.9668  0.1886
    9TMC1    C1  131   3.610   2.391  11.143 -0.1549  0.1096  0.3915
    9TMC1    C2  132   3.544   2.308  11.058 -0.0159  0.1325 -0.8732
    9TMC1    C3  133   3.582   2.317  10.921 -0.3385  0.5864 -0.4157
    9TMC1    C4  134   3.709   2.472  11.100  0.7623  0.7283 -0.0875
    9TMC1    C5  135   3.745   2.471  10.973 -0.3274  0.5232 -0.1819
    9TMC1    C6  136   3.686   2.399  10.872  0.5846  0.1956 -0.1639
    9TMC1     C  137   3.539   2.437  11.258 -0.2938  0.4855 -0.2183
    9TMC1     O  138   3.567   2.540  11.318  0.0883  0.0704 -0.6799
    9TMC1     H  139   3.449   2.261  11.077 -0.1290  0.9604  0.6535
    9TMC1    H1  140   3.773   2.524  11.170 -1.4697 -0.1944  2.6510
    9TMC1    H2  141   3.721   2.400  10.769 -1.2428 -0.4301 -0.7825
    9TMC1    C7  142   3.849   2.565  10.940  0.3531 -0.7916 -0.1329
    9TMC1    C8  143   3.467   2.283  10.832  0.0732  0.4650  0.0928
    9TMC1    O1  144   3.921   2.559  10.841  0.1126  0.3724  0.4299
    9TMC1    O2  145   3.351   2.262  10.864  0.4411 -0.7657  0.1111
    9TMC1    O3  146   3.862   2.668  11.029  0.3437  0.3432  0.1426
    9TMC1    H3  147   3.789   2.682  11.092  0.0249 -1.0438  0.0705
    9TMC1    O5  148   3.508   2.281  10.702 -0.1870  0.5616 -0.1800
    9TMC1    H5  149   3.603   2.254  10.704 -0.3574 -0.0424 -0.3053
   10MPD2     C  150   3.305   2.507  11.456 -0.6234  0.9499 -0.1856
   10MPD2    C1  151   3.323   2.388  11.388 -0.3427  0.3196 -0.1479
   10MPD2    C2  152   3.230   2.292  11.405 -0.0235 -0.0403  0.3421
   10MPD2    C3  153   3.114   2.306  11.484 -0.3158  0.5788 -0.5051
   10MPD2    C4  154   3.102   2.423  11.556 -0.5360 -0.1148  0.1997
   10MPD2    C5  155   3.198   2.527  11.538  0.5135  0.3078  0.7839
   10MPD2     H  156   3.252   2.198  11.355 -0.2572 -0.6786  1.4125
   10MPD2    H1  157   3.015   2.444  11.617 -0.5121  2.0671 -0.4975
   10MPD2    H2  158   3.374   2.590  11.445  2.4062 -1.6983 -1.0373
   10MPD2    H3  159   3.193   2.615  11.601 -0.8072  0.8243 -0.0292
   10MPD2     N  160   3.014   2.211  11.503  0.4675  0.5478 -0.0872
   10MPD2    H5  161   2.946   2.230  11.576 -0.1723 -0.4551 -0.4115
   10MPD2    N1  162   3.432   2.353  11.292 -0.3813 -0.2506 -0.5147
   10MPD2    H7  163   3.423   2.262  11.248 -0.7681 -0.5455  0.1626
   11TCq1    O1  164   4.244   0.986  14.485 -0.5610  0.3181  0.5875
   11TCq1    C1  165   4.179   0.957  14.373 -0.4930  0.2712  0.0636
   11TCq1    O2  166   4.130   0.847  14.346 -0.5265  0.7320 -0.7072
   11TCq1    C2  167   4.135   1.066  14.301  0.5470  0.0938 -1.1009
   11TCq1    C3  168   4.209   1.181  14.299 -0.2163 -0.1825 -0.5602
   11TCq1    C4  169   4.142   1.296  14.283  0.2852 -0.9533 -0.2671
   11TCq1    C5  170   4.005   1.296  14.254  0.4102  0.7061  0.1894
   11TCq1    C6  171   3.933   1.181  14.256 -0.1260 -0.0383 -0.9074
   11TCq1    C7  172   4.002   1.057  14.281  0.0339 -0.0861  0.0505
   11TCq1    C8  173   3.799   1.183  14.197 -0.1567  0.5225 -0.0498
   11TCq1    O4  174   3.759   1.291  14.153 -0.4706 -0.4341  0.1821
   11TCq1    C9  175   4.211   1.419  14.304 -0.1765  0.2589  0.1858
   11TCq1    O5  176   4.322   1.406  14.360 -0.2303  0.5141  0.4981
   11TCq1    O6  177   4.152   1.529  14.290  0.6563 -0.4965  0.3190
   11TCq1    H1  178   4.278   1.078  14.488 -0.7512  0.3759  1.0031
   11TCq1    H2  179   4.313   1.173  14.330  0.0267 -0.1972 -1.3862
   11TCq1    H3  180   3.957   1.392  14.240 -2.7821 -0.5647  2.3705
   11TCq1    H4  181   3.957   0.958  14.276  0.6113 -0.3660  0.4552
   12MPD2     C  182   3.544   1.115  14.043  0.3461  0.3131  0.1601
   12MPD2    C1  183   3.637   1.022  14.096 -0.1187 -0.5429  0.6200
   12MPD2    C2  184   3.611   0.893  14.076 -0.8559 -0.2498  0.1269
   12MPD2    C3  185   3.509   0.847  13.994  1.1282  0.1102  0.4498
   12MPD2    C4  186   3.410   0.935  13.954  0.0524  0.1673  0.7629
   12MPD2    C5  187   3.425   1.075  13.982  0.5134  0.1679 -0.3955
   12MPD2     H  188   3.684   0.822  14.111 -1.2403 -0.7992 -0.1860
   12MPD2    H1  189   3.327   0.903  13.892  0.8205  0.7802 -0.5801
   12MPD2    H2  190   3.568   1.220  14.051  0.0157  0.4606 -0.8525
   12MPD2    H3  191   3.365   1.144  13.924  2.7690  3.2365  0.8748
   12MPD2     N  192   3.490   0.708  13.957  0.4237 -0.2751  0.9213
   12MPD2    H5  193   3.413   0.686  13.895  1.6621 -0.9025 -0.3822
   12MPD2    N1  194   3.756   1.057  14.165  0.0131  0.0103 -0.0118
   12MPD2    H7  195   3.811   0.976  14.193 -0.4867 -0.3601 -0.1138
   13TCq1    O1  196   4.245   1.633  11.103 -0.4991 -0.2247  0.1003
   13TCq1    C1  197   4.152   1.687  11.013 -0.2332  0.2501 -0.0649
   13TCq1    O2  198   4.118   1.642  10.905  0.1630  0.2950  0.3287
   13TCq1    C2  199   4.064   1.765  11.100  0.2678 -0.6186 -0.2337
   13TCq1    C3  200   4.060   1.758  11.241  0.1987 -0.2490 -0.6651
   13TCq1    C4  201   3.978   1.844  11.312  0.1031 -0.4878  0.6139
   13TCq1    C5  202   3.888   1.923  11.238  0.2075  0.4979 -0.2567
   13TCq1    C6  203   3.881   1.913  11.099 -0.2307  0.1857  0.1428
   13TCq1    C7  204   3.976   1.837  11.027 -0.4581  0.4437  0.6719
   13TCq1    C8  205   3.746   1.946  11.040  0.2205  0.1444 -0.1468
   13TCq1    O4  206   3.669   2.010  11.108  0.0431  0.3872 -0.0627
   13TCq1    C9  207   3.965   1.845  11.454 -0.3654  0.1100 -0.0679
   13TCq1    O5  208   4.042   1.770  11.526 -0.5752 -0.1085 -0.3983
   13TCq1    O6  209   3.894   1.937  11.499 -0.3139  0.3358 -0.1503
   13TCq1    H1  210   4.285   1.701  11.162 -0.8380 -0.3672  0.4917
   13TCq1    H2  211   4.126   1.686  11.288  0.1783  0.1586 -0.0101
   13TCq1    H3  212   3.819   1.995  11.280  0.5609  0.7504 -0.1085
   13TCq1    H4  213   3.980   1.833  10.919  1.3995 -2.8202  0.8797
   14MPD2     C  214   3.600   1.821  10.718  0.3828 -0.7377  0.3010
   14MPD2    C1  215   3.601   1.889  10.840  0.8239 -0.0046  0.1263
   14MPD2    C2  216   3.477   1.941  10.878 -0.4209 -0.0611 -0.8325
   14MPD2    C3  217   3.353   1.922  10.813 -0.1264 -0.9521 -0.8611
   14MPD2    C4  218   3.358   1.857  10.692  0.0628  0.6595  0.0026
   14MPD2    C5  219   3.480   1.803  10.647  0.1630  0.4689 -0.5702
   14MPD2     H  220   3.481   2.005  10.966 -0.0708  1.2103 -1.7684
   14MPD2    H1  221   3.267   1.848  10.634 -0.0010 -0.9766  0.3853
   14MPD2    H2  222   3.690   1.777  10.676 -0.2260 -0.1784 -1.6151
   14MPD2    H3  223   3.482   1.753  10.550  1.9773  0.2997 -0.4502
   14MPD2     N  224   3.232   1.963  10.877  0.1312  0.0516  0.3673
   14MPD2    H5  225   3.240   2.033  10.950 -0.2867  0.2302  0.2367
   14MPD2    N1  226   3.722   1.892  10.914  0.2754  0.1478  0.2231
   14MPD2    H7  227   3.796   1.836  10.874 -1.0098  0.1345 -2.1317
   15TCq1    O1  228   0.119   1.504   1.674 -0.2438  0.0346 -0.5727
   15TCq1    C1  229   0.120   1.530   1.543 -0.5385  0.2019  0.3200
   15TCq1    O2  230   0.029   1.581   1.476 -0.0297  0.8351 -0.0028
   15TCq1    C2  231   0.246   1.485   1.498  0.4155  0.1908 -0.3139
   15TCq1    C3  232   0.352   1.508   1.576  0.4474 -0.2963  0.3926
   15TCq1    C4  233   0.468   1.448   1.541 -0.4809 -0.4930 -0.5118
   15TCq1    C5  234   0.475   1.369   1.429 -0.1153 -0.0059  0.0481
   15TCq1    C6  235   0.367   1.346   1.353  0.7207 -0.2265  0.3078
   15TCq1    C7  236   0.241   1.401   1.387 -0.2826  0.4624 -0.4881
   15TCq1    C8  237   0.374   1.237   1.261  0.1856  0.3741  0.6098
   15TCq1    O4  238   0.452   1.147   1.283 -0.4804 -0.4754 -0.0632
   15TCq1    C9  239   0.587   1.485   1.617  0.4117 -0.2266 -0.3511
   15TCq1    O5  240   0.698   1.431   1.587 -0.3667 -0.7112  0.1443
   15TCq1    O6  241   0.583   1.593   1.689 -0.3772 -0.6252  0.0710
   15TCq1    H1  242   0.178   1.430   1.700 -0.3888  0.3932  0.7920
   15TCq1    H2  243   0.350   1.569   1.665  3.0127 -2.1454  1.7277
   15TCq1    H3  244   0.571   1.328   1.397  0.3183 -0.0004  1.3319
   15TCq1    H4  245   0.143   1.374   1.348  0.1016  0.7942 -1.6959
   16MPD2     C  246   0.150   1.181   0.976  0.1246  0.7184  0.1569
   16MPD2    C1  247   0.232   1.146   1.078  0.6534  0.4320  0.2592
   16MPD2    C2  248   0.281   1.018   1.084 -0.3143 -0.1031  0.5631
   16MPD2    C3  249   0.247   0.914   0.997 -0.0568  0.2991 -0.3629
   16MPD2    C4  250   0.156   0.946   0.893  0.9279  0.0450 -0.2123
   16MPD2    C5  251   0.119   1.079   0.885  0.0805  0.5595  0.8725
   16MPD2     H  252   0.351   0.992   1.162 -0.4434  1.6115  1.2411
   16MPD2    H1  253   0.126   0.871   0.821  2.0535 -0.2170 -0.4068
   16MPD2    H2  254   0.101   1.277   0.959 -1.1038 -0.2653 -1.8200
   16MPD2    H3  255   0.054   1.107   0.803 -0.2233  0.6828  1.1546
   16MPD2     N  256   0.306   0.789   1.013 -0.0551  0.0666 -0.0374
   16MPD2    H5  257   0.385   0.785   1.077  1.5193 -0.2886 -1.9860
   16MPD2    N1  258   0.269   1.249   1.168 -0.2768 -0.4765  0.1814
   16MPD2    H7  259   0.230   1.341   1.149 -0.5568 -0.3352  1.4442
   17TMC1    C1  260   3.057   1.073  10.867 -0.2036 -0.0164  0.2375
   17TMC1    C2  261   2.991   1.001  10.967  0.3689 -0.0418  0.4698
   17TMC1    C3  262   2.884   0.925  10.930  0.3233 -0.3683  0.1919
   17TMC1    C4  263   2.996   1.085  10.746 -0.2299 -0.0557 -0.3709
   17TMC1    C5  264   2.880   1.017  10.724  0.1062  0.1683  0.9403
   17TMC1    C6  265   2.822   0.930  10.814  0.1483 -0.0612  0.3772
   17TMC1     C  266   3.135   1.186  10.914  0.4527 -0.7334  0.8416
   17TMC1     O  267   3.142   1.200  11.034 -0.1772 -0.5959 -0.1649
   17TMC1     H  268   3.043   0.990  11.061 -0.7540  1.9492  1.3228
   17TMC1    H1  269   3.024   1.164  10.677 -1.5215  1.9071  1.3665
   17TMC1    H2  270   2.736   0.868  10.796  1.0046 -1.6386  1.6839
   17TMC1    C7  271   2.822   1.028  10.595  0.0700  0.0796  0.3103
   17TMC1    C8  272   2.831   0.836  11.036 -0.3206 -0.2791  0.6060
   17TMC1    O1  273   2.757   1.127  10.560 -0.2842 -0.5437 -0.3509
   17TMC1    O2  274   2.765   0.736  11.004 -0.0897 -0.8945  0.3683
   17TMC1    O3  275   2.793   0.899  10.562  0.7866 -0.3266  0.4267
   17TMC1    H3  276   2.871   0.846  10.587  0.0262 -0.6812  2.0019
   17TMC1    O5  277   2.840   0.894  11.161  0.3320  0.1449  0.2813
   17TMC1    H5  278   2.879   0.984  11.158  2.1849 -0.6810  0.1040
   18MPD2     C  279   3.289   1.425  10.940  0.2608 -0.8163 -0.3611
   18MPD2    C1  280   3.313   1.335  10.842 -0.1253  1.0122  0.1715
   18MPD2    C2  281   3.424   1.350  10.757  0.0107  0.7417 -0.2562
   18MPD2    C3  282   3.520   1.447  10.779  0.0949  0.1453  0.2613
   18MPD2    C4  283   3.490   1.541  10.878 -0.0412 -0.3910  0.9632
   18MPD2    C5  284   3.376   1.530  10.956 -0.0230  0.5826  0.6424
   18MPD2     H  285   3.432   1.264  10.691  0.0422  1.5222 -1.2712
   18MPD2    H1  286   3.563   1.619  10.899  0.1282  0.0145 -1.1849
   18MPD2    H2  287   3.198   1.419  10.997  0.0475 -2.4848 -0.8587
   18MPD2    H3  288   3.355   1.599  11.038  0.0543  0.0781  1.0858
   18MPD2     N  289   3.642   1.442  10.715 -0.2966  0.0627  0.2457
   18MPD2    H5  290   3.716   1.509  10.734 -0.3372 -0.1753  1.2354
   18MPD2    N1  291   3.222   1.231  10.816  0.3132 -0.3339  0.0158
   18MPD2    H7  292   3.229   1.184  10.726 -0.3271  0.5683 -0.5093
   19TMC2    C1  293   4.415   1.483  13.995 -0.8225 -0.6420  0.2680
   19TMC2    C2  294   4.321   1.565  13.949  0.5832  0.0625 -0.5957
   19TMC2    C3  295   4.203   1.502  13.904 -0.1891  0.1433 -0.4925
   19TMC2    C4  296   4.402   1.343  13.996  0.2139  0.5528 -0.1554
   19TMC2    C5  297   4.291   1.285  13.947 -0.0931 -0.2540 -0.3450
   19TMC2    C6  298   4.193   1.367  13.892  0.5800  0.3482  0.2797
   19TMC2     C  299   4.551   1.532  13.958  0.2549 -0.3563 -0.4746
   19TMC2     O  300   4.560   1.627  13.885 -0.4454  0.1987 -0.2689
   19TMC2     H  301   4.337   1.672  13.941 -0.9562  0.2883 -0.5130
   19TMC2    H1  302   4.490   1.292  14.033  1.6819  1.9929 -1.6114
   19TMC2    H2  303   4.106   1.323  13.845  0.4076  1.6964 -0.6858
   19TMC2    C7  304   4.290   1.140  13.939  0.8904  0.3614  1.0841
   19TMC2    C8  305   4.101   1.587  13.829 -0.1511 -0.8525  0.1708
   19TMC2    O1  306   4.399   1.082  13.958 -0.2818  0.5443  0.1934
   19TMC2    O2  307   4.029   1.529  13.744  0.0749 -0.3091  0.1325
   19TMC2    O5  308   4.106   1.720  13.840 -0.0278 -0.2273 -0.2905
   19TMC2    H5  309   4.161   1.749  13.916  1.7375 -0.6364 -1.3955
   20MPD2     C  310   0.100   1.534  13.861  0.3265 -0.5986 -0.6696
   20MPD2    C1  311   0.050   1.459  13.964  0.8597  0.6348 -0.2704
   20MPD2    C2  312   0.141   1.382  14.034  0.2646  0.3625 -0.6754
   20MPD2    C3  313   0.271   1.365  13.993 -0.4255  0.2508  0.0217
   20MPD2    C4  314   0.312   1.435  13.881 -0.1014 -0.4382  0.5611
   20MPD2    C5  315   0.231   1.531  13.825  0.3249 -0.4083  0.5497
   20MPD2     H  316   0.110   1.320  14.117 -0.5228  0.6394 -0.7617
   20MPD2    H1  317   0.415   1.427  13.851 -0.5862 -0.0139 -1.2074
   20MPD2    H2  318   0.034   1.612  13.826 -0.5757 -2.2947 -2.8145
   20MPD2    H3  319   0.275   1.596  13.750  2.5207 -1.6727  0.7597
   20MPD2     N  320   0.360   1.270  14.046  0.4566 -0.6499 -0.4591
   20MPD2    H5  321   0.448   1.249  14.001  1.4152 -0.3088  1.2783
   20MPD2    N1  322   4.653   1.460  14.009  0.1316 -0.3440  0.1541
   20MPD2    H7  323   4.634   1.411  14.096  2.7635 -0.6026  0.6069
   21TMC2    C1  324   1.937   1.484  14.442 -0.0808  0.0191  0.6618
   21TMC2    C2  325   2.017   1.373  14.467  0.0579  0.5414  0.1757
   21TMC2    C3  326   2.057   1.361  14.598  0.2516  0.5163  0.5985
   21TMC2    C4  327   1.915   1.580  14.537 -0.1952 -0.8871  0.4041
   21TMC2    C5  328   1.979   1.567  14.656 -0.1172 -0.3701  0.3662
   21TMC2    C6  329   2.046   1.457  14.692 -0.2371  0.1476 -0.0740
   21TMC2     C  330   1.989   1.553  14.324 -0.0020 -0.5492  0.2267
   21TMC2     O  331   2.054   1.490  14.244  0.3581 -0.5895  0.0545
   21TMC2     H  332   2.049   1.304  14.390  1.7754  0.7842  0.6752
   21TMC2    H1  333   1.825   1.639  14.532 -0.8794 -1.7621  2.7237
   21TMC2    H2  334   2.100   1.460  14.786 -0.2960 -0.9547 -0.0093
   21TMC2    C7  335   1.984   1.685  14.745 -0.4584  0.0868  0.4488
   21TMC2    C8  336   2.158   1.258  14.628  0.7244 -0.1206  0.5676
   21TMC2    O1  337   2.018   1.659  14.860 -0.3929  0.2763  0.4142
   21TMC2    O2  338   2.245   1.265  14.716 -0.3887  0.4155 -0.0673
   21TMC2    O5  339   2.119   1.143  14.567  1.0209  0.6132 -0.1820
   21TMC2    H5  340   2.039   1.151  14.511  0.6555  0.0815  0.2696
   22MPD2     C  341   2.128   2.041  14.345  0.1703  0.4423  0.0447
   22MPD2    C1  342   2.193   1.921  14.339 -0.1582 -0.2372  0.6531
   22MPD2    C2  343   2.122   1.802  14.321 -0.4912  0.0427  0.5413
   22MPD2    C3  344   1.989   1.795  14.305  0.6297  0.5075  0.6366
   22MPD2    C4  345   1.924   1.915  14.292  0.0061  0.2793  0.0200
   22MPD2    C5  346   1.995   2.035  14.310 -0.5874  0.1931  0.1362
   22MPD2     H  347   2.176   1.713  14.352 -1.5737 -0.7098  0.2652
   22MPD2    H1  348   1.816   1.919  14.283  0.0248 -0.1871 -0.3787
   22MPD2    H2  349   2.178   2.132  14.377 -1.7103  2.7972 -3.6467
   22MPD2    H3  350   1.939   2.125  14.291  2.1150  1.7829 -0.3857
   22MPD2     N  351   1.922   1.670  14.312 -0.4916 -0.4598  0.6814
   22MPD2    H5  352   1.821   1.658  14.315 -0.7125  1.7501  2.0796
   22MPD2    N1  353   2.334   1.911  14.348  0.2789  0.0212  0.2876
   22MPD2    H7  354   2.376   1.818  14.346 -0.2627 -0.1867 -1.3926
   23TMC2    C1  355   3.401   2.906  14.525 -0.1022 -0.0613  0.0461
   23TMC2    C2  356   3.455   3.010  14.455  0.0927 -0.8580  0.0996
   23TMC2    C3  357   3.389   3.055  14.349 -0.5425 -0.4405  0.4277
   23TMC2    C4  358   3.279   2.847  14.488  0.3784  0.5088  0.2604
   23TMC2    C5  359   3.222   2.892  14.366 -0.3980 -0.6208  0.3033
   23TMC2    C6  360   3.278   2.998  14.293  0.1416  0.4842  0.4317
   23TMC2     C  361   3.458   2.866  14.653 -0.1648  0.5960 -0.5714
   23TMC2     O  362   3.570   2.818  14.645  0.0513  0.6120  1.0398
   23TMC2     H  363   3.551   3.053  14.480  0.0413 -0.2705 -0.7425
   23TMC2    H1  364   3.246   2.754  14.532 -0.4722  1.6463  2.0619
   23TMC2    H2  365   3.248   3.034  14.196 -0.2112 -0.2235  0.2754
   23TMC2    C7  366   3.092   2.842  14.332 -0.2102  0.2771 -0.0750
   23TMC2    C8  367   3.450   3.161  14.274 -0.6352 -0.3766  0.6131
   23TMC2    O1  368   3.060   2.747  14.401 -0.1006  0.8692  0.1955
   23TMC2    O2  369   3.568   3.194  14.272  0.2493  0.0893 -0.0907
   23TMC2    O5  370   3.346   3.243  14.278 -0.0648  0.8734 -0.1852
   23TMC2    H5  371   3.263   3.197  14.301  0.4472  0.6905  1.3595
   24MPD2     C  372   3.374   2.709  15.130 -0.0369  0.4350  0.3970
   24MPD2    C1  373   3.483   2.692  15.052 -0.4397 -0.4872  0.6227
   24MPD2    C2  374   3.475   2.736  14.922 -0.2890 -0.5455 -0.8683
   24MPD2    C3  375   3.364   2.794  14.872 -0.5807  0.0094  0.1294
   24MPD2    C4  376   3.250   2.804  14.949 -0.1203  0.4349 -0.0765
   24MPD2    C5  377   3.262   2.769  15.077  0.3107 -0.0826 -0.1802
   24MPD2     H  378   3.558   2.727  14.852  1.6632  0.7556  1.2975
   24MPD2    H1  379   3.159   2.850  14.910 -0.8299  0.4836  1.6240
   24MPD2    H2  380   3.367   2.675  15.233 -0.7519 -1.8566 -0.3894
   24MPD2    H3  381   3.173   2.777  15.138 -0.5658  0.9181 -1.6020
   24MPD2     N  382   3.355   2.854  14.743 -0.5584 -0.3490  0.1842
   24MPD2    H5  383   3.274   2.911  14.721  0.6608  1.8468  1.4500
   24MPD2    N1  384   3.601   2.625  15.092 -0.6816 -0.6253  0.0831
   24MPD2    H7  385   3.660   2.607  15.012 -1.5787  1.2130 -0.9788
   25TMC2    C1  386   2.654   0.062  11.593  0.0417  0.1546 -0.5412
   25TMC2    C2  387   2.778   0.054  11.639 -0.3920  0.1634  0.7028
   25TMC2    C3  388   2.805   0.120  11.751 -0.2675 -0.4738 -0.3143
   25TMC2    C4  389   2.563   0.144  11.653 -0.0849 -0.2745  0.2992
   25TMC2    C5  390   2.598   0.202  11.769 -0.0184  0.1947  0.2461
   25TMC2    C6  391   2.720   0.192  11.823 -0.5075 -0.1473 -0.1849
   25TMC2     C  392   2.625   4.717  11.472 -0.2068  0.1466  0.1264
   25TMC2     O  393   2.689   4.616  11.469 -1.6025  0.0308  0.4416
   25TMC2     H  394   2.848   4.727  11.587  0.1432  0.2243  1.3406
   25TMC2    H1  395   2.464   0.137  11.608 -0.7213  1.2720  1.4474
   25TMC2    H2  396   2.753   0.265  11.896 -1.4749 -0.0402  0.1473
   25TMC2    C7  397   2.503   0.281  11.838  0.0012  0.5255 -0.1176
   25TMC2    C8  398   2.945   0.157  11.773 -0.4038 -0.2886  0.2771
   25TMC2    O1  399   2.522   0.319  11.954 -0.1629 -0.3914 -0.0068
   25TMC2    O2  400   3.019   0.200  11.689  0.0706 -0.0720 -0.1710
   25TMC2    O5  401   2.977   0.088  11.881 -0.2992 -0.0487  0.5940
   25TMC2    H5  402   2.906   0.049  11.936  0.5822 -0.0127  1.7401
   26MPD2     C  403   2.415   4.593  11.020 -0.4843 -0.4321 -0.3667
   26MPD2    C1  404   2.356   4.708  11.065 -0.1527  0.1671 -0.0294
   26MPD2    C2  405   2.388   0.023  11.193 -0.2906 -0.3679 -0.2864
   26MPD2    C3  406   2.475   4.694  11.276 -0.0290  0.0244 -0.7845
   26MPD2    C4  407   2.522   4.577  11.233  0.5130 -0.5386 -0.7564
   26MPD2    C5  408   2.493   4.535  11.107 -0.5700  0.4950 -0.4399
   26MPD2     H  409   2.356   0.122  11.226 -0.0814 -0.3334 -0.1892
   26MPD2    H1  410   2.593   4.515  11.287 -0.0875 -1.5537 -1.1458
   26MPD2    H2  411   2.393   4.557  10.920  0.0942  0.0642 -0.6695
   26MPD2    H3  412   2.531   4.440  11.070  0.2034  0.9818 -0.8992
   26MPD2     N  413   2.518   0.026  11.389  0.2431 -0.3526  0.7349
   26MPD2    H5  414   2.484   0.122  11.389  0.8818 -0.1266  0.0331
   26MPD2    N1  415   2.271   0.033  10.970 -0.4925  0.2503 -0.5230
   26MPD2    H7  416   2.255   4.731  10.878  0.2119 -0.6352 -0.2829
   27TMC2    C1  417   1.860   2.630  12.139  0.8627 -0.4299 -0.1500
   27TMC2    C2  418   1.988   2.676  12.120 -0.9234  0.0635 -0.6348
   27TMC2    C3  419   2.075   2.658  12.223 -0.6341  0.1345  0.0300
   27TMC2    C4  420   1.821   2.572  12.255 -1.0560 -0.0628 -0.0390
   27TMC2    C5  421   1.909   2.579  12.364 -0.5841  0.2452 -0.8738
   27TMC2    C6  422   2.027   2.636  12.347 -0.1619 -0.3712  0.0021
   27TMC2     C  423   1.768   2.627  12.023 -0.0019 -0.5988 -0.0304
   27TMC2     O  424   1.813   2.581  11.921  0.0746 -0.1515  0.4243
   27TMC2     H  425   2.016   2.712  12.022 -2.7115  0.2731 -1.0754
   27TMC2    H1  426   1.719   2.537  12.268 -1.1348  0.1587 -0.0643
   27TMC2    H2  427   2.097   2.629  12.430  0.7286 -0.3715 -0.7606
   27TMC2    C7  428   1.882   2.486  12.467 -0.7038  0.0624 -0.5599
   27TMC2    C8  429   2.204   2.718  12.210 -0.5566  0.6417  0.2860
   27TMC2    O1  430   1.833   2.378  12.436 -0.1878  0.5604  0.4023
   27TMC2    O2  431   2.222   2.814  12.138 -0.6600 -0.2239 -0.3449
   27TMC2    O5  432   2.294   2.619  12.239  0.1434 -0.2231 -0.2577
   27TMC2    H5  433   2.251   2.540  12.279  2.7605 -0.4767  2.0223
   28MPD2     C  434   1.352   2.821  11.786  0.3344  0.4566 -1.2204
   28MPD2    C1  435   1.336   2.826  11.922 -1.0254 -0.1522  0.4435
   28MPD2    C2  436   1.431   2.782  12.009  0.3291  0.1960 -0.9234
   28MPD2    C3  437   1.550   2.725  11.955  0.1291  0.0218 -0.0034
   28MPD2    C4  438   1.574   2.729  11.821 -0.1168  0.3360 -0.0376
   28MPD2    C5  439   1.469   2.766  11.736  0.4510 -0.3703  0.0359
   28MPD2     H  440   1.411   2.776  12.115  0.6337  1.0494 -0.8140
   28MPD2    H1  441   1.668   2.701  11.775 -1.1610 -2.9697 -0.2029
   28MPD2    H2  442   1.276   2.865  11.722 -1.4637  0.1925  0.7443
   28MPD2    H3  443   1.490   2.767  11.630  0.1374  1.4165  0.0011
   28MPD2     N  444   1.652   2.693  12.045  0.1403  0.4150 -0.3768
   28MPD2    H5  445   1.640   2.731  12.138  0.4455 -0.1044 -0.1292
   28MPD2    N1  446   1.210   2.879  11.962  0.1189 -0.3679  0.6289
   28MPD2    H7  447   1.147   2.913  11.890  2.0840 -1.2870 -1.5218
   29TMC2    C1  448   0.576   0.306  14.544 -0.1252  0.1745  0.6565
   29TMC2    C2  449   0.567   0.316  14.679 -0.3587  0.8164  0.6260
   29TMC2    C3  450   0.607   0.436  14.736 -0.0820  0.3836 -0.1918
   29TMC2    C4  451   0.613   0.414  14.465 -0.2888 -0.1400  0.4786
   29TMC2    C5  452   0.643   0.534  14.530 -0.1422 -1.0258  0.2275
   29TMC2    C6  453   0.647   0.544  14.667  0.2767 -0.4063  0.4090
   29TMC2     C  454   0.565   0.177  14.478  0.4822 -0.2294  0.5680
   29TMC2     O  455   0.610   0.077  14.539 -0.4754 -0.0018 -0.2150
   29TMC2     H  456   0.522   0.229  14.725 -0.8703  1.4197  1.2776
   29TMC2    H1  457   0.635   0.409  14.359  0.9503  3.3518  0.5668
   29TMC2    H2  458   0.683   0.634  14.717 -2.2488  0.0693  1.4129
   29TMC2    C7  459   0.715   0.629  14.442  0.2114  0.3339  0.0422
   29TMC2    C8  460   0.626   0.436  14.879  0.4084 -0.0861 -0.0915
   29TMC2    O1  461   0.667   0.642  14.329 -0.3130 -0.3323 -0.3826
   29TMC2    O2  462   0.701   0.508  14.942 -0.1407  0.4723  0.0101
   29TMC2    O5  463   0.527   0.361  14.937 -0.5414  0.2205 -0.2498
   29TMC2    H5  464   0.473   0.314  14.870 -1.8942 -0.6230  1.4517
   30MPD2     C  465   0.425   4.595  14.103  0.6890 -0.0666 -0.0648
   30MPD2    C1  466   0.505   4.569  14.215 -0.3072 -0.4565  0.5375
   30MPD2    C2  467   0.536   4.681  14.289 -0.2775 -0.1604 -0.5656
   30MPD2    C3  468   0.489   0.071  14.265 -0.1864 -0.1598 -0.2468
   30MPD2    C4  469   0.414   0.094  14.153  0.5097  0.6273 -0.2294
   30MPD2    C5  470   0.401   4.722  14.071  0.5629 -0.0542 -0.0283
   30MPD2     H  471   0.606   4.669  14.372  0.7025 -0.6181 -1.4522
   30MPD2    H1  472   0.372   0.187  14.118  0.8133 -1.1161 -5.2072
   30MPD2    H2  473   0.400   4.515  14.035 -0.2879 -0.3687  0.6571
   30MPD2    H3  474   0.343   4.736  13.980 -0.1400 -1.8498  0.1452
   30MPD2     N  475   0.516   0.181  14.350  0.5038  0.2855  0.6534
   30MPD2    H5  476   0.484   0.273  14.322 -3.0732 -0.8760  0.8287
   30MPD2    N1  477   0.551   4.435  14.262 -0.1789  0.2751 -0.0474
   30MPD2    H7  478   0.604   4.436  14.348  0.9325 -2.2092 -0.7031
   31TMC2    C1  479   3.240   3.082  15.333  0.2801 -0.0877  0.6486
   31TMC2    C2  480   3.122   3.017  15.310  0.0803  0.3401 -0.1478
   31TMC2    C3  481   3.087   2.916  15.392 -0.7300 -0.4117 -0.4219
   31TMC2    C4  482   3.321   3.035  15.431 -0.0196 -0.7072  0.3385
   31TMC2    C5  483   3.283   2.937  15.513  0.5968 -0.1475  0.2076
   31TMC2    C6  484   3.167   2.885  15.502 -0.1551 -0.4057 -0.1036
   31TMC2     C  485   3.302   3.144  15.220  0.2254  0.3781  0.8480
   31TMC2     O  486   3.237   3.227  15.160  0.4990  0.2429  0.7416
   31TMC2     H  487   3.059   3.053  15.230  0.0586  2.4821  0.8327
   31TMC2    H1  488   3.408   3.097  15.451 -0.3749 -0.0276 -0.1917
   31TMC2    H2  489   3.139   2.802  15.567  0.2477 -1.1718 -0.8998
   31TMC2    C7  490   3.359   2.921  15.638  0.4216 -0.7698  0.1984
   31TMC2    C8  491   2.950   2.868  15.388 -0.2331 -0.1370 -0.2790
   31TMC2    O1  492   3.359   2.805  15.680  0.3411  0.0424  0.2415
   31TMC2    O2  493   2.881   2.872  15.289  0.9372 -0.1149 -0.6540
   31TMC2    O5  494   2.902   2.881  15.515 -0.3924 -0.3905  0.2022
   31TMC2    H5  495   2.974   2.898  15.580 -1.2007  0.3098  0.9249
   32MPD2     C  496   3.635   3.093  14.830 -0.0887 -0.3019 -0.1760
   32MPD2    C1  497   3.511   3.154  14.843  0.0740  0.0382 -0.9173
   32MPD2    C2  498   3.439   3.157  14.958 -0.8106 -0.0783  0.6043
   32MPD2    C3  499   3.490   3.086  15.062  0.6550  0.2143  0.4470
   32MPD2    C4  500   3.608   3.023  15.052 -0.0754  0.2680 -0.1660
   32MPD2    C5  501   3.682   3.025  14.939  0.0799 -0.2630  0.2032
   32MPD2     H  502   3.346   3.213  14.962 -0.5211  0.4091  0.3936
   32MPD2    H1  503   3.650   2.979  15.142  0.2017  0.2738 -0.2922
   32MPD2    H2  504   3.683   3.104  14.734 -0.8550 -0.7553 -0.6024
   32MPD2    H3  505   3.779   2.978  14.944  1.1085  1.6315 -1.9051
   32MPD2     N  506   3.422   3.081  15.188  0.6926 -0.4863  0.2137
   32MPD2    H5  507   3.469   3.027  15.260 -1.9693  0.6058  2.7744
   32MPD2    N1  508   3.480   3.242  14.735  0.2628  0.1546  0.0174
   32MPD2    H7  509   3.549   3.240  14.660  0.3917  1.5619  0.1069
   33TMC2    C1  510   3.719   2.132   9.862  0.3991 -0.6674  0.1816
   33TMC2    C2  511   3.589   2.151   9.882 -0.3095  0.2520 -0.0231
   33TMC2    C3  512   3.527   2.252   9.810  0.2976 -0.6213  0.0930
   33TMC2    C4  513   3.785   2.209   9.774 -0.6923  0.1621  0.1359
   33TMC2    C5  514   3.726   2.306   9.712  0.5620  0.5666 -0.8306
   33TMC2    C6  515   3.593   2.337   9.734  0.2116  0.3531  0.3261
   33TMC2     C  516   3.776   2.040   9.957  0.2805 -0.2715 -0.0868
   33TMC2     O  517   3.707   1.965  10.016  0.4734 -0.1717  0.1817
   33TMC2     H  518   3.535   2.096   9.958  1.1557  0.0099  0.8338
   33TMC2    H1  519   3.888   2.188   9.749 -1.3078 -1.2648 -1.2218
   33TMC2    H2  520   3.557   2.427   9.686  0.0085 -0.6318 -1.3426
   33TMC2    C7  521   3.817   2.401   9.646  0.6231  0.1573 -0.5353
   33TMC2    C8  522   3.395   2.282   9.854 -0.7348 -0.6167 -0.0925
   33TMC2    O1  523   3.910   2.359   9.588 -0.1475 -0.2623  0.0773
   33TMC2    O2  524   3.315   2.190   9.882  0.6029  0.7317 -0.3648
   33TMC2    O5  525   3.399   2.404   9.916  0.4600 -0.5239 -0.0839
   33TMC2    H5  526   3.475   2.461   9.893  0.8023 -1.0756 -0.3221
   34MPD2     C  527   4.174   1.911  10.270  0.1046 -0.2060 -0.2906
   34MPD2    C1  528   4.044   1.853  10.258  0.2473 -0.1286  0.3978
   34MPD2    C2  529   3.954   1.905  10.163 -0.4138  0.9449  0.2486
   34MPD2    C3  530   3.986   2.017  10.087  0.5394 -0.0687  0.7450
   34MPD2    C4  531   4.113   2.070  10.102  0.1715  0.7816 -0.1272
   34MPD2    C5  532   4.200   2.024  10.195 -0.6104 -0.0899 -0.0387
   34MPD2     H  533   3.861   1.855  10.139  0.1713  0.1451 -0.3121
   34MPD2    H1  534   4.156   2.150  10.042 -3.6148  1.9918 -1.2423
   34MPD2    H2  535   4.256   1.870  10.328  0.2829 -1.2639 -1.2856
   34MPD2    H3  536   4.297   2.070  10.209 -0.0749 -0.7100 -1.6311
   34MPD2     N  537   3.909   2.071   9.983  1.0705 -0.4314  0.2687
   34MPD2    H5  538   3.957   2.149   9.940 -0.1472  0.3323  0.2783
   34MPD2    N1  539   4.018   1.738  10.338  0.4247 -0.0015 -0.3208
   34MPD2    H7  540   4.099   1.703  10.388  0.2882  0.1133 -0.0202
   35TMC2    C1  541   0.075   2.986  11.072 -0.1772 -0.3620  0.0781
   35TMC2    C2  542   0.016   3.110  11.078 -0.5068 -0.1992  0.7584
   35TMC2    C3  543   4.659   3.131  11.175  0.6008 -0.2823  1.3211
   35TMC2    C4  544   0.052   2.886  11.167 -0.3145  0.5221 -0.2225
   35TMC2    C5  545   4.704   2.916  11.266  0.0631  0.8048  0.2655
   35TMC2    C6  546   4.634   3.034  11.265  0.2859 -0.5487 -0.0913
   35TMC2     C  547   0.199   2.985  11.005 -0.0750  0.3323  0.4831
   35TMC2     O  548   0.227   3.090  10.943 -0.3765  0.1176 -0.2181
   35TMC2     H  549   0.021   3.181  10.996 -2.7841 -0.2558  0.5744
   35TMC2    H1  550   0.100   2.790  11.150 -0.2195  0.8003 -1.4882
   35TMC2    H2  551   4.557   3.049  11.340 -0.3388 -2.2941 -0.3764
   35TMC2    C7  552   4.646   2.807  11.350 -0.7111  0.7220  0.6095
   35TMC2    C8  553   4.574   3.244  11.174 -0.0311 -0.1658  0.1469
   35TMC2    O1  554   4.681   2.697  11.310 -0.5321 -0.1765 -0.0283
   35TMC2    O2  555   4.452   3.229  11.160 -0.1981 -0.0736  0.2252
   35TMC2    O5  556   4.631   3.324  11.269  0.2334 -0.7877 -0.4641
   35TMC2    H5  557   4.719   3.282  11.285  0.2925 -0.6977 -0.5497
   36MPD2     C  558   0.702   2.891  11.049 -0.0533  0.2380 -0.0548
   36MPD2    C1  559   0.639   2.814  11.144 -0.5228  0.1224 -0.3147
   36MPD2    C2  560   0.494   2.815  11.137  0.1697 -0.1174  0.0298
   36MPD2    C3  561   0.427   2.888  11.049 -0.0743  0.1933  1.0282
   36MPD2    C4  562   0.494   2.976  10.966 -0.3329  0.4045 -0.2763
   36MPD2    C5  563   0.629   2.973  10.969 -0.4571 -0.7381  0.0302
   36MPD2     H  564   0.447   2.748  11.209  1.8162  0.3940  1.5886
   36MPD2    H1  565   0.446   3.037  10.890 -1.4455 -0.7487 -0.4883
   36MPD2    H2  566   0.809   2.903  11.061 -0.2025 -0.6967  2.2774
   36MPD2    H3  567   0.692   3.033  10.905  0.3616 -0.8530  0.7359
   36MPD2     N  568   0.287   2.897  11.060  0.2444  0.2951 -0.1996
   36MPD2    H5  569   0.243   2.836  11.127  0.3182  0.7632  0.2765
   36MPD2    N1  570   0.714   2.757  11.252  0.0280 -0.0712 -0.0304
   36MPD2    H7  571   0.814   2.774  11.261  0.2435 -0.9469 -0.6928
   37TMC2    C1  572   2.524   3.254  12.007  0.6715  0.2840 -0.4122
   37TMC2    C2  573   2.454   3.274  11.889  0.0003 -0.7240  0.7039
   37TMC2    C3  574   2.500   3.370  11.800  0.1269  0.3915 -0.8948
   37TMC2    C4  575   2.632   3.334  12.046 -0.1140 -0.4121 -0.1990
   37TMC2    C5  576   2.662   3.430  11.956 -0.1376 -0.7443  0.8253
   37TMC2    C6  577   2.603   3.455  11.836 -0.1502 -0.6040  0.2998
   37TMC2     C  578   2.475   3.152  12.099  0.3689 -0.4282  0.2912
   37TMC2     O  579   2.367   3.092  12.085  0.4417 -0.6081 -0.0927
   37TMC2     H  580   2.356   3.229  11.872 -1.3415  1.5931  2.2032
   37TMC2    H1  581   2.684   3.324  12.140  0.6088  1.2940 -0.4150
   37TMC2    H2  582   2.643   3.535  11.774 -1.5021 -1.3936 -1.5913
   37TMC2    C7  583   2.806   3.466  11.964  0.2485 -0.6943  0.6605
   37TMC2    C8  584   2.414   3.421  11.691 -0.2046  0.2340 -0.0873
   37TMC2    O1  585   2.858   3.498  12.069  0.4614  0.0532 -0.1139
   37TMC2    O2  586   2.410   3.536  11.652 -0.5586  0.2216 -0.5738
   37TMC2    O5  587   2.371   3.313  11.623 -0.0062  0.0924 -0.6896
   37TMC2    H5  588   2.411   3.226  11.648 -2.2775 -0.5872  0.6211
   38MPD2     C  589   2.514   2.900  12.549  0.4310  0.3134  0.0706
   38MPD2    C1  590   2.639   2.940  12.505 -0.8086 -0.4782  0.8446
   38MPD2    C2  591   2.663   3.014  12.386 -0.2742 -0.4341 -0.2618
   38MPD2    C3  592   2.547   3.041  12.309  0.6657  0.7523  0.5881
   38MPD2    C4  593   2.422   3.002  12.356  0.6459 -0.3890  0.3347
   38MPD2    C5  594   2.407   2.931  12.471 -0.2993 -0.8667 -0.1791
   38MPD2     H  595   2.761   3.037  12.346  0.1073 -0.9900  0.3624
   38MPD2    H1  596   2.330   3.002  12.299 -0.6693 -0.5896  2.4554
   38MPD2    H2  597   2.494   2.847  12.642 -0.0682  2.6585  1.2985
   38MPD2    H3  598   2.309   2.908  12.511 -0.2473  0.4651  0.6901
   38MPD2     N  599   2.572   3.117  12.191  0.1281 -0.8084 -0.3064
   38MPD2    H5  600   2.666   3.154  12.175 -0.4144  0.3009 -0.9406
   38MPD2    N1  601   2.757   2.915  12.580 -0.5128 -0.1723 -0.4017
   38MPD2    H7  602   2.849   2.941  12.546 -0.5215  1.0560  0.5282
   39TMC2    C1  603   1.385   0.076   1.429  0.3677 -0.3763 -0.3867
   39TMC2    C2  604   1.393   0.078   1.568  0.9854  0.5587  0.3882
   39TMC2    C3  605   1.513   0.122   1.619  0.2583 -0.7686 -0.1089
   39TMC2    C4  606   1.481   0.128   1.352 -0.3609 -0.0575  0.0091
   39TMC2    C5  607   1.600   0.160   1.404 -1.3134  0.0227 -0.0106
   39TMC2    C6  608   1.615   0.161   1.538  0.1960 -0.4081 -0.2826
   39TMC2     C  609   1.259   0.057   1.374 -0.7361 -0.0086  0.3402
   39TMC2     O  610   1.160   0.091   1.439  0.0600 -0.1703 -0.1277
   39TMC2     H  611   1.306   0.051   1.627  0.6391 -1.5806 -1.0813
   39TMC2    H1  612   1.470   0.133   1.245 -0.6471  1.0513  0.0909
   39TMC2    H2  613   1.713   0.192   1.573 -0.1662  2.4118 -1.8221
   39TMC2    C7  614   1.658   0.278   1.336  1.1795  0.1801 -0.5753
   39TMC2    C8  615   1.526   0.110   1.758 -0.6143  0.0027  0.3869
   39TMC2    O1  616   1.781   0.290   1.331 -0.3361 -0.4863  0.1586
   39TMC2    O2  617   1.444   0.050   1.828 -0.0308 -0.8579  0.3892
   39TMC2    O5  618   1.601   0.208   1.801 -0.0333  0.0024  0.4018
   39TMC2    H5  619   1.633   0.268   1.730  3.1548  0.4883  2.2340
   40MPD2     C  620   1.200   4.643   1.042 -0.3167 -0.5827  0.0778
   40MPD2    C1  621   1.169   4.713   1.153 -0.1511 -0.6047  0.1425
   40MPD2    C2  622   1.041   0.025   1.164  0.4341 -0.0181 -1.1286
   40MPD2    C3  623   0.945   4.730   1.067  0.0713  0.5709  0.0969
   40MPD2    C4  624   0.979   4.655   0.962 -0.4504  0.3079  0.6568
   40MPD2    C5  625   1.112   4.613   0.943 -0.2970  0.4078  0.0550
   40MPD2     H  626   1.015   0.095   1.243  1.1972 -0.0029 -0.8859
   40MPD2    H1  627   0.897   4.612   0.905 -0.3372  1.6784 -0.5401
   40MPD2    H2  628   1.299   4.600   1.036 -0.1822 -0.1056 -1.2113
   40MPD2    H3  629   1.142   4.554   0.857 -4.7230 -1.5772 -0.1392
   40MPD2     N  630   0.801   0.018   1.082  0.5985 -0.4877 -0.8892
   40MPD2    H5  631   0.747   4.724   1.001 -1.0213  2.5062 -0.9363
   40MPD2    N1  632   1.268   0.006   1.244 -0.0642  0.2742  0.1253
   40MPD2    H7  633   1.359   4.721   1.205 -0.5020 -0.3227 -0.5785
   41TMC2    C1  634   0.217   3.213  12.772 -0.4366  0.3068 -0.6020
   41TMC2    C2  635   0.250   3.332  12.838 -0.7081  0.5066  0.2409
   41TMC2    C3  636   0.337   3.412  12.764 -0.2669 -0.0255  0.3845
   41TMC2    C4  637   0.268   3.169  12.653 -0.4589  0.0966  0.5350
   41TMC2    C5  638   0.360   3.256  12.591 -0.2940 -0.2218 -1.0947
   41TMC2    C6  639   0.394   3.375  12.644 -0.3056 -0.0732 -0.6908
   41TMC2     C  640   0.158   3.100  12.847 -0.5328 -0.1623  0.8136
   41TMC2     O  641   0.141   2.991  12.793  0.1120 -0.0581 -0.3156
   41TMC2     H  642   0.230   3.359  12.941 -0.3396 -1.9457  0.9475
   41TMC2    H1  643   0.257   3.068  12.614 -2.9167  0.4583  0.2814
   41TMC2    H2  644   0.465   3.437  12.590  1.4982  0.0883  1.8563
   41TMC2    C7  645   0.417   3.238  12.455 -0.0989  0.1168  0.2728
   41TMC2    C8  646   0.406   3.525  12.836 -0.2658  0.4527  0.0467
   41TMC2    O1  647   0.503   3.310  12.420  0.1080  0.2955  0.4308
   41TMC2    O2  648   0.509   3.569  12.800  0.4825 -0.1583  0.9549
   41TMC2    O5  649   0.314   3.597  12.906  0.4749 -0.3600 -0.3640
   41TMC2    H5  650   0.225   3.556  12.907  0.5010 -0.3981  0.5768
   42MPD2     C  651   0.105   2.907  13.076  0.2951  0.6427  0.1679
   42MPD2    C1  652   0.088   3.040  13.082 -0.1266 -0.6913  0.4471
   42MPD2    C2  653   0.051   3.088  13.203 -0.3027  0.1631  0.3709
   42MPD2    C3  654   0.024   2.999  13.311 -0.1193  0.2058  0.5347
   42MPD2    C4  655   0.035   2.861  13.297 -0.1406 -0.2882 -0.4248
   42MPD2    C5  656   0.067   2.821  13.169  0.0741  0.1592  0.2882
   42MPD2     H  657   0.038   3.195  13.210 -1.5138  0.2081 -2.5325
   42MPD2    H1  658   0.014   2.792  13.378 -1.8862  0.5983 -0.1278
   42MPD2    H2  659   0.134   2.851  12.987 -2.0720 -1.0689  0.4647
   42MPD2    H3  660   0.069   2.715  13.145 -0.7936  0.7451 -2.2671
   42MPD2     N  661   4.733   3.046  13.440 -0.3054  0.4190 -0.4082
   42MPD2    H5  662   4.709   2.971  13.504 -1.7783  0.6296 -0.6985
   42MPD2    N1  663   0.123   3.131  12.975  0.1979  0.3386  0.7945
   42MPD2    H7  664   0.150   3.224  13.003  0.3314  0.3611  0.5919
   43TMC2    C1  665   0.876   1.745   0.890 -0.3519 -0.2764  0.2977
   43TMC2    C2  666   0.744   1.773   0.919  0.3892 -0.1363  0.4535
   43TMC2    C3  667   0.719   1.883   1.000 -0.2497 -0.6784 -0.2287
   43TMC2    C4  668   0.977   1.829   0.927 -0.6394 -0.4035 -0.9042
   43TMC2    C5  669   0.944   1.936   1.013  0.0658 -0.6619 -0.6988
   43TMC2    C6  670   0.812   1.968   1.040 -0.2655 -0.5470 -0.2147
   43TMC2     C  671   0.908   1.644   0.790  0.1023 -0.4202 -0.5448
   43TMC2     O  672   1.028   1.635   0.768 -0.3260  0.0661  0.2470
   43TMC2     H  673   0.669   1.700   0.889  1.1047 -0.2658 -1.0528
   43TMC2    H1  674   1.081   1.804   0.912  0.4579  2.3125  1.8899
   43TMC2    H2  675   0.788   2.041   1.115  0.8358  0.4412 -0.8247
   43TMC2    C7  676   1.047   1.993   1.101 -0.0306  0.2730 -0.1230
   43TMC2    C8  677   0.587   1.916   1.046 -0.9351  0.8766 -0.1291
   43TMC2    O1  678   1.158   2.009   1.058 -0.5369  0.6156 -0.6655
   43TMC2    O2  679   0.573   1.940   1.165  0.2161  0.4862 -0.8064
   43TMC2    O5  680   0.499   1.871   0.957  0.2159 -0.6766 -0.0070
   43TMC2    H5  681   0.522   1.898   0.865  3.3544 -0.4641  0.8352
   44MPD2     C  682   0.766   1.231   0.506 -0.3739  0.1666  0.4429
   44MPD2    C1  683   0.890   1.293   0.517 -0.2092  0.7590 -0.4647
   44MPD2    C2  684   0.897   1.406   0.608 -0.0446  0.3756  0.0547
   44MPD2    C3  685   0.789   1.448   0.679 -0.0494 -0.1451  0.5946
   44MPD2    C4  686   0.669   1.375   0.655 -0.4663 -0.0648 -0.1212
   44MPD2    C5  687   0.659   1.274   0.577  0.2553 -0.6773 -0.5376
   44MPD2     H  688   0.996   1.443   0.636 -1.0523  0.0930  4.0107
   44MPD2    H1  689   0.579   1.399   0.710 -0.1593  0.4027  0.1708
   44MPD2    H2  690   0.757   1.149   0.435 -0.2581 -0.9026  1.6605
   44MPD2    H3  691   0.562   1.229   0.559 -0.7106  0.6671  1.3023
   44MPD2     N  692   0.803   1.556   0.766  0.2376  0.1780  0.5613
   44MPD2    H5  693   0.716   1.573   0.815  1.0202 -0.3083  2.1372
   44MPD2    N1  694   1.001   1.252   0.439  0.3367 -0.3079 -0.1838
   44MPD2    H7  695   1.084   1.307   0.457 -0.9317  1.3152  0.6648
   45TMC2    C1  696   2.284   3.119   9.906 -0.5281 -0.2869  0.0822
   45TMC2    C2  697   2.323   3.060  10.020 -0.6580 -0.9477  0.0983
   45TMC2    C3  698   2.447   3.093  10.073  0.3580  0.6357 -0.6072
   45TMC2    C4  699   2.342   3.236   9.863 -0.3348 -0.5006  0.2917
   45TMC2    C5  700   2.453   3.277   9.934  0.1503  0.2933 -0.3991
   45TMC2    C6  701   2.505   3.208  10.041  0.5657 -0.3876 -0.2021
   45TMC2     C  702   2.178   3.050   9.829  0.5688 -0.4462 -0.1899
   45TMC2     O  703   2.142   2.945   9.876 -0.0737  0.2370 -0.4368
   45TMC2     H  704   2.289   2.962  10.050 -1.2390 -0.6594  0.3765
   45TMC2    H1  705   2.316   3.289   9.772  1.3443 -0.4562 -0.1768
   45TMC2    H2  706   2.597   3.239  10.089 -0.3146  0.3605  0.9905
   45TMC2    C7  707   2.489   3.420   9.943  0.0615 -0.3758 -0.2770
   45TMC2    C8  708   2.494   3.041  10.194  1.1008  0.3608 -0.2095
   45TMC2    O1  709   2.548   3.464  10.044  0.3637  0.0557  0.2374
   45TMC2    O2  710   2.614   3.040  10.222 -0.0295 -0.5748 -0.4254
   45TMC2    O5  711   2.391   3.065  10.281  0.1994  0.1021 -0.7413
   45TMC2    H5  712   2.304   3.033  10.248  0.6382 -2.4887  0.6459
   46MPD2     C  713   1.991   2.941   9.628  0.3684  0.2364  0.1329
   46MPD2    C1  714   2.026   3.072   9.632  0.3893  0.2893 -0.2650
   46MPD2    C2  715   1.958   3.168   9.563 -0.1250 -0.4996  0.1382
   46MPD2    C3  716   1.860   3.129   9.473  0.4220  0.0990 -0.2928
   46MPD2    C4  717   1.820   2.994   9.478  0.0037  0.9270 -0.1416
   46MPD2    C5  718   1.883   2.900   9.550 -0.1370 -0.1209  0.2887
   46MPD2     H  719   1.992   3.270   9.574 -0.6678 -0.4462  1.3521
   46MPD2    H1  720   1.737   2.961   9.417  0.2458 -1.9049  1.0846
   46MPD2    H2  721   2.032   2.860   9.687  1.5014  0.0592 -0.9037
   46MPD2    H3  722   1.837   2.803   9.534 -0.1278 -0.0318 -0.2699
   46MPD2     N  723   1.787   3.231   9.414  0.2978  0.6554 -0.1146
   46MPD2    H5  724   1.835   3.320   9.404  0.1070  0.5409 -2.0891
   46MPD2    N1  725   2.126   3.121   9.724  0.4814 -0.3603 -0.1410
   46MPD2    H7  726   2.173   3.207   9.696  0.3217 -1.1779 -2.8763
   47TMC2    C1  727   0.489   4.428   9.164 -0.2619  0.1498 -0.8534
   47TMC2    C2  728   0.604   4.417   9.082  0.1825  1.0285  0.1497
   47TMC2    C3  729   0.576   4.411   8.945  0.0422  0.5212 -0.4349
   47TMC2    C4  730   0.359   4.445   9.123  0.4412 -0.0011 -0.1014
   47TMC2    C5  731   0.350   4.458   8.985  0.2735  1.0481 -0.5410
   47TMC2    C6  732   0.454   4.438   8.896 -1.1454  0.5494 -0.7016
   47TMC2     C  733   0.494   4.397   9.305 -0.3486  0.0210  0.4848
   47TMC2     O  734   0.412   4.454   9.375 -0.7572 -0.3002 -0.8733
   47TMC2     H  735   0.698   4.396   9.131  0.7712  2.4079 -0.4190
   47TMC2    H1  736   0.284   4.448   9.201  1.0870 -0.4997  0.5292
   47TMC2    H2  737   0.431   4.446   8.790  0.1166 -0.4645 -1.0562
   47TMC2    C7  738   0.218   4.477   8.935 -0.2867 -0.1441 -0.0513
   47TMC2    C8  739   0.688   4.422   8.849 -0.1611  0.4188  0.3324
   47TMC2    O1  740   0.208   4.508   8.817  0.6197  0.1072 -0.0894
   47TMC2    O2  741   0.664   4.505   8.764  0.3346 -0.2500 -0.6497
   47TMC2    O5  742   0.805   4.380   8.899  0.0010 -0.2467 -0.2531
   47TMC2    H5  743   0.801   4.308   8.965  0.7443  1.5528  1.7564
   48MPD2     C  744   0.576   4.283   9.560  0.1131  0.2867  0.0035
   48MPD2    C1  745   0.588   4.217   9.446  0.6480 -0.7200  0.8583
   48MPD2    C2  746   0.623   4.086   9.455  1.0786 -0.0127 -0.2277
   48MPD2    C3  747   0.645   4.019   9.572  0.6025  0.3223 -0.4759
   48MPD2    C4  748   0.625   4.089   9.688  0.2810 -0.8060  0.5070
   48MPD2    C5  749   0.602   4.221   9.680 -0.5316 -0.4939  0.3568
   48MPD2     H  750   0.612   4.023   9.368  1.1110  1.2697 -1.1530
   48MPD2    H1  751   0.642   4.047   9.786  0.0936 -1.0159  0.4489
   48MPD2    H2  752   0.546   4.388   9.564  2.3015  1.0534 -4.2263
   48MPD2    H3  753   0.606   4.280   9.771  3.7301  0.0267 -0.2069
   48MPD2     N  754   0.670   3.873   9.565  0.4477  0.6482 -0.0788
   48MPD2    H5  755   0.671   3.834   9.471  0.9982 -1.2276  0.6919
   48MPD2    N1  756   0.571   4.284   9.325 -0.1256 -0.2302 -0.2397
   48MPD2    H7  757   0.605   4.232   9.245  1.4940  0.6642 -0.1200
   49TMC2    C1  758   2.872   2.083   9.733 -0.3181 -0.4249 -0.2823
   49TMC2    C2  759   2.886   2.078   9.873  0.0717  0.0168  0.2940
   49TMC2    C3  760   2.979   2.167   9.923  0.0637  0.4645  0.3563
   49TMC2    C4  761   2.932   2.182   9.658 -0.4841 -0.1643  0.1654
   49TMC2    C5  762   3.000   2.288   9.715 -0.0616  0.3923 -0.3387
   49TMC2    C6  763   3.024   2.278   9.856  0.5330  0.4236 -0.1257
   49TMC2     C  764   2.799   1.979   9.659 -0.3469  0.7773  0.1434
   49TMC2     O  765   2.791   1.987   9.536  0.6088 -0.2807  0.3635
   49TMC2     H  766   2.859   1.988   9.928 -0.8136 -0.8632 -1.5647
   49TMC2    H1  767   2.903   2.182   9.554  0.0830  1.5645  0.0020
   49TMC2    H2  768   3.084   2.349   9.911 -2.8989  2.7326  0.6555
   49TMC2    C7  769   3.087   2.368   9.628  0.1922  0.0913 -0.3849
   49TMC2    C8  770   3.001   2.163  10.071 -0.4259  0.0408  0.4067
   49TMC2    O1  771   3.098   2.339   9.506 -0.1709 -0.3415 -0.2628
   49TMC2    O2  772   2.923   2.118  10.150  0.0901 -0.2753  0.2247
   49TMC2    O5  773   3.132   2.182  10.093 -0.2398 -0.6013 -0.1505
   49TMC2    H5  774   3.186   2.182  10.011 -1.7927 -1.0010 -1.1796
   50MPD2     C  775   2.668   1.725   9.579  0.2200  0.0389  0.1161
   50MPD2    C1  776   2.672   1.773   9.709 -0.1975  0.5168  0.2708
   50MPD2    C2  777   2.605   1.699   9.805  0.8297 -0.1110 -0.2059
   50MPD2    C3  778   2.565   1.570   9.789 -0.0380  0.4647 -0.1433
   50MPD2    C4  779   2.563   1.524   9.660 -0.4236 -0.0366 -0.5471
   50MPD2    C5  780   2.613   1.604   9.557 -0.1117 -0.0986 -0.0694
   50MPD2     H  781   2.598   1.747   9.902  1.6203  0.4664 -0.4388
   50MPD2    H1  782   2.517   1.427   9.646 -3.2247  0.8896  2.2461
   50MPD2    H2  783   2.719   1.774   9.497  1.7276 -0.9473  0.4752
   50MPD2    H3  784   2.621   1.570   9.455 -0.2240  1.2807 -0.5459
   50MPD2     N  785   2.498   1.493   9.888 -0.8108  0.1316  0.5846
   50MPD2    H5  786   2.478   1.396   9.865  0.3656  0.0186  0.0428
   50MPD2    N1  787   2.736   1.889   9.748  0.0426 -0.0367 -0.0408
   50MPD2    H7  788   2.742   1.904   9.848 -0.4398  1.4506 -0.2383
   51TMC2    C1  789   3.991   3.919   1.893  0.0689 -0.2224 -0.1559
   51TMC2    C2  790   3.962   3.855   2.015  0.7056  0.5651  0.1110
   51TMC2    C3  791   3.934   3.935   2.124  0.1740  0.8666 -0.3579
   51TMC2    C4  792   3.976   4.057   1.884 -0.2353  0.0063 -0.3383
   51TMC2    C5  793   3.970   4.132   1.997  0.0301 -0.5761  0.4859
   51TMC2    C6  794   3.947   4.074   2.121  0.7657 -0.1593 -0.0045
   51TMC2     C  795   4.000   3.835   1.778  0.3912  0.1792 -0.2375
   51TMC2     O  796   3.944   3.881   1.676  0.3958  0.9559  0.9214
   51TMC2     H  797   3.940   3.749   2.014 -0.5679  0.8419 -0.8388
   51TMC2    H1  798   3.993   4.108   1.790 -1.2611  0.6412 -0.1926
   51TMC2    H2  799   3.927   4.132   2.210 -1.2799 -0.6643 -0.1214
   51TMC2    C7  800   4.004   4.275   2.002 -0.7473 -0.6439 -0.7879
   51TMC2    C8  801   3.862   3.877   2.235  1.0041 -0.2131 -0.6447
   51TMC2    O1  802   4.093   4.308   1.926  0.0178  0.1898 -0.0853
   51TMC2    O2  803   3.856   3.757   2.261 -0.1632  0.0334 -0.1308
   51TMC2    O5  804   3.769   3.969   2.281 -0.2287  0.7307 -0.3003
   51TMC2    H5  805   3.767   4.052   2.230 -0.7799  1.0659  0.2666
   52MPD2     C  806   4.282   3.510   1.504 -0.1150  0.3987  1.3205
   52MPD2    C1  807   4.165   3.575   1.471  0.3403 -0.7836 -0.0994
   52MPD2    C2  808   4.103   3.651   1.573 -0.5662  0.1981  0.8361
   52MPD2    C3  809   4.156   3.663   1.699  0.5273 -0.7370 -0.0648
   52MPD2    C4  810   4.273   3.600   1.725 -0.5530 -0.5179  0.5561
   52MPD2    C5  811   4.329   3.524   1.627 -0.0461 -0.1398 -0.0042
   52MPD2     H  812   4.009   3.699   1.547 -1.3772 -1.7331  0.1700
   52MPD2    H1  813   4.323   3.607   1.821 -1.6524  0.2312  1.0738
   52MPD2    H2  814   4.344   3.456   1.433  0.3438 -0.6045  2.4878
   52MPD2    H3  815   4.431   3.489   1.637  0.6440  2.1252  0.9131
   52MPD2     N  816   4.107   3.750   1.799 -0.5044  0.5020  0.2518
   52MPD2    H5  817   4.163   3.764   1.882 -2.0731 -4.7432  2.1936
   52MPD2    N1  818   4.125   3.574   1.338  0.3284  0.1354  0.0315
   52MPD2    H7  819   4.183   3.522   1.272 -0.4280 -3.0479  1.8634
   53TMC2    C1  820   3.494   3.262  12.177 -0.1770  0.3584 -0.5758
   53TMC2    C2  821   3.626   3.288  12.214  0.0114  0.1422 -0.5052
   53TMC2    C3  822   3.654   3.283  12.352 -0.8758  0.1008  0.6999
   53TMC2    C4  823   3.404   3.232  12.270 -0.1873 -0.3737  0.3328
   53TMC2    C5  824   3.437   3.230  12.404 -0.0476 -0.3162 -0.5167
   53TMC2    C6  825   3.566   3.248  12.452 -0.9244 -0.5671  0.8161
   53TMC2     C  826   3.452   3.309  12.046 -0.4353  0.3778 -0.2937
   53TMC2     O  827   3.536   3.313  11.955 -0.1889 -0.3227  0.1092
   53TMC2     H  828   3.694   3.308  12.132  1.3836 -0.1280  0.5736
   53TMC2    H1  829   3.300   3.205  12.257  0.0527 -0.1826 -1.9870
   53TMC2    H2  830   3.578   3.275  12.556 -1.2370 -1.6663  1.1335
   53TMC2    C7  831   3.322   3.214  12.497  0.2996 -0.2956 -0.1661
   53TMC2    C8  832   3.786   3.325  12.378 -0.2215 -0.3274 -0.4570
   53TMC2    O1  833   3.211   3.249  12.460  0.2961 -0.2263 -0.2959
   53TMC2    O2  834   3.851   3.383  12.294 -0.2439  0.6601 -0.1953
   53TMC2    O5  835   3.811   3.317  12.506 -0.8153 -0.1896  0.2407
   53TMC2    H5  836   3.751   3.262  12.561  0.2889 -1.8556 -0.2351
   54MPD2     C  837   3.281   3.324  11.795 -0.8023 -0.5271  0.1786
   54MPD2    C1  838   3.233   3.345  11.927 -0.1263 -0.1088  0.0223
   54MPD2    C2  839   3.096   3.376  11.951 -0.0276  0.1728  0.0796
   54MPD2    C3  840   3.006   3.397  11.841 -0.1996 -0.9686  0.1167
   54MPD2    C4  841   3.055   3.372  11.716 -0.1500  0.2826 -0.3814
   54MPD2    C5  842   3.188   3.339  11.698  0.0843  0.3757 -0.2167
   54MPD2     H  843   3.062   3.402  12.051  0.8382 -1.0830  0.6918
   54MPD2    H1  844   2.997   3.403  11.630  1.5727  1.4102 -1.1330
   54MPD2    H2  845   3.383   3.294  11.773 -1.1888 -0.7388 -1.2916
   54MPD2    H3  846   3.220   3.313  11.597 -0.3578 -0.8107 -0.0471
   54MPD2     N  847   2.874   3.432  11.850 -0.4677  0.0123  0.4366
   54MPD2    H5  848   2.826   3.425  11.761 -3.0170  1.0744  1.7269
   54MPD2    N1  849   3.320   3.339  12.040 -0.1587  0.1596  0.4888
   54MPD2    H7  850   3.279   3.348  12.132 -0.6033 -0.2095  0.3271
   55TMC2    C1  851   3.815   1.154   0.214  0.1628  0.1983  0.0407
   55TMC2    C2  852   3.908   1.144   0.108 -0.0104 -0.6401 -0.3857
   55TMC2    C3  853   4.014   1.073   0.134 -0.1825  0.1469  0.0747
   55TMC2    C4  854   3.828   1.090   0.334  0.3722  0.0610 -1.1406
   55TMC2    C5  855   3.944   1.018   0.355  0.3003 -0.5691 -0.3912
   55TMC2    C6  856   4.029   1.003   0.253 -1.1757  0.8077 -0.7586
   55TMC2     C  857   3.695   1.247   0.197  0.8482 -0.3623 -0.2490
   55TMC2     O  858   3.621   1.251   0.296  0.3828  0.4507  0.8987
   55TMC2     H  859   3.896   1.206   0.020 -3.5621 -2.2654 -1.0565
   55TMC2    H1  860   3.748   1.085   0.406 -0.2232  0.8774 -1.7559
   55TMC2    H2  861   4.121   0.949   0.272 -1.2619  1.9139  2.6819
   55TMC2    C7  862   3.974   0.936   0.465 -0.5671 -0.6054 -0.5281
   55TMC2    C8  863   4.136   1.076   0.058 -0.4374 -0.3114 -0.2250
   55TMC2    O1  864   4.068   0.852   0.463  0.0769  0.6698  0.5176
   55TMC2    O2  865   4.240   1.035   0.106  0.4427  0.5239  0.3245
   55TMC2    O5  866   4.127   1.182  17.712 -0.6552 -0.0294 -0.1898
   55TMC2    H5  867   4.040   1.181  17.666 -0.7930  2.2689  0.0228
   56MPD2     C  868   3.628   1.494  17.675  0.1083 -0.2561 -0.0942
   56MPD2    C1  869   3.607   1.423   0.048 -0.2745  0.3373  0.3024
   56MPD2    C2  870   3.511   1.473   0.136  0.1905  0.2882  0.1788
   56MPD2    C3  871   3.433   1.580   0.096  0.3168 -0.2966 -0.4067
   56MPD2    C4  872   3.457   1.647  17.722 -0.2303 -0.4673  0.1008
   56MPD2    C5  873   3.554   1.599  17.641  0.0431 -0.2215  0.1011
   56MPD2     H  874   3.498   1.430   0.235 -0.1259 -0.4829 -0.2090
   56MPD2    H1  875   3.409   1.740  17.692 -1.6093 -1.4590 -0.7820
   56MPD2    H2  876   3.698   1.460  17.599 -1.3400 -3.2805 -0.0981
   56MPD2    H3  877   3.573   1.662  17.555  1.2310  1.5358  1.6368
   56MPD2     N  878   3.323   1.608   0.181  0.4130 -0.4748  0.0847
   56MPD2    H5  879   3.303   1.543   0.256 -0.7973 -1.7542 -1.3506
   56MPD2    N1  880   3.687   1.311   0.078  0.3376 -0.3025  0.1777
   56MPD2    H7  881   3.761   1.299   0.009  0.5873  0.4982  0.3022
   57TMC2    C1  882   3.139   1.549  13.652  0.1223  0.2358  0.4062
   57TMC2    C2  883   3.160   1.411  13.671  0.9412 -0.0588 -0.2982
   57TMC2    C3  884   3.291   1.363  13.675  0.0594 -0.5948  0.8940
   57TMC2    C4  885   3.249   1.625  13.641  0.6017 -0.5116 -0.0175
   57TMC2    C5  886   3.382   1.578  13.636 -0.2485  0.0394  0.4075
   57TMC2    C6  887   3.396   1.446  13.663  0.0295 -0.4512  0.4493
   57TMC2     C  888   3.013   1.615  13.666 -0.9680  0.6872 -0.6518
   57TMC2     O  889   3.007   1.737  13.686 -0.6230  0.2708 -0.1952
   57TMC2     H  890   3.079   1.340  13.676  1.3322 -0.5762 -1.1318
   57TMC2    H1  891   3.236   1.730  13.617 -0.6321 -0.7219 -0.2851
   57TMC2    H2  892   3.494   1.404  13.684 -0.0393  0.1912  2.0561
   57TMC2    C7  893   3.471   1.648  13.547 -0.0664  1.1621  0.3575
   57TMC2    C8  894   3.310   1.219  13.691 -0.6659  0.4472 -0.8958
   57TMC2    O1  895   3.444   1.766  13.530  0.0993  0.0583  0.7490
   57TMC2    O2  896   3.423   1.166  13.668  0.1697 -0.3234 -0.1625
   57TMC2    O5  897   3.209   1.161  13.755 -0.1784  0.5623  0.1387
   57TMC2    H5  898   3.123   1.205  13.773 -1.0342 -0.4950 -1.3595
   58MPD2     C  899   2.517   1.541  13.797 -0.0303  0.3002  0.0871
   58MPD2    C1  900   2.601   1.643  13.819  0.5692  0.5602  0.8242
   58MPD2    C2  901   2.735   1.643  13.780 -0.0138  0.3562  0.5175
   58MPD2    C3  902   2.782   1.532  13.707 -0.8367 -0.3852 -0.3043
   58MPD2    C4  903   2.693   1.430  13.681 -0.1693 -0.1485 -0.9491
   58MPD2    C5  904   2.563   1.444  13.720 -0.9112 -0.1436 -0.4788
   58MPD2     H  905   2.806   1.724  13.796 -0.5429  0.3159  3.0628
   58MPD2    H1  906   2.739   1.349  13.625 -4.0119 -2.8358 -0.1864
   58MPD2    H2  907   2.415   1.534  13.833  0.2593  1.6568  1.1587
   58MPD2    H3  908   2.511   1.352  13.700 -0.2381 -0.5419 -0.4154
   58MPD2     N  909   2.914   1.518  13.663 -0.6305 -0.4681 -0.2629
   58MPD2    H5  910   2.933   1.435  13.608  0.2145  0.5367 -1.4913
   58MPD2    N1  911   2.560   1.751  13.895  0.4934 -0.4001 -0.3725
   58MPD2    H7  912   2.630   1.806  13.943 -1.5092  1.1815  0.7634
   59TMC2    C1  913   0.832   2.156  12.570  0.2111 -0.1669  0.7537
   59TMC2    C2  914   0.849   2.028  12.628  0.1153 -0.8091  0.0927
   59TMC2    C3  915   0.808   1.922  12.556 -0.9682 -0.0691  0.6647
   59TMC2    C4  916   0.799   2.167  12.433  0.2457  0.5563 -0.4495
   59TMC2    C5  917   0.763   2.048  12.366 -0.2305 -0.0493  0.1281
   59TMC2    C6  918   0.768   1.925  12.426  0.4106  0.4376  0.8223
   59TMC2     C  919   0.884   2.278  12.634 -0.1092 -0.6308 -0.2178
   59TMC2     O  920   0.908   2.375  12.564 -0.6972  0.4471 -0.0675
   59TMC2     H  921   0.873   2.016  12.733 -1.4757  0.7205  0.6346
   59TMC2    H1  922   0.767   2.264  12.397  2.6052  1.9136  1.1136
   59TMC2    H2  923   0.723   1.835  12.384 -2.1434  2.8371 -1.6028
   59TMC2    C7  924   0.682   2.053  12.247 -0.1295 -0.3536 -0.6172
   59TMC2    C8  925   0.804   1.787  12.616  0.7795  0.1555  0.4149
   59TMC2    O1  926   0.598   1.967  12.240  0.1353 -0.2378  0.1881
   59TMC2    O2  927   0.711   1.707  12.623  0.2236  0.2928  0.4483
   59TMC2    O5  928   0.928   1.766  12.658  0.0703 -0.0524  0.1926
   59TMC2    H5  929   1.006   1.823  12.641 -0.3012  0.8080  1.3748
   60MPD2     C  930   0.995   2.473  12.833 -1.1264  0.5477 -0.2583
   60MPD2    C1  931   0.969   2.344  12.861  0.3173  0.4180 -0.3693
   60MPD2    C2  932   0.999   2.301  12.990  0.2696 -0.7920  0.0354
   60MPD2    C3  933   1.053   2.379  13.090  0.5498 -0.8492  0.0099
   60MPD2    C4  934   1.075   2.509  13.058  0.3277  0.2667  0.2626
   60MPD2    C5  935   1.047   2.556  12.934  0.4173 -0.3894 -0.0943
   60MPD2     H  936   0.994   2.194  13.007 -2.8845 -0.1001  3.4426
   60MPD2    H1  937   1.126   2.573  13.129  1.8632 -0.0368 -0.5622
   60MPD2    H2  938   0.969   2.517  12.738  1.4524 -1.8114 -2.0596
   60MPD2    H3  939   1.069   2.660  12.911  0.6597  0.1731  2.6109
   60MPD2     N  940   1.102   2.329  13.208  0.2221  0.2780  0.2665
   60MPD2    H5  941   1.160   2.388  13.266  1.5587 -1.0929  0.3117
   60MPD2    N1  942   0.913   2.255  12.769 -0.2719 -0.7126 -0.1954
   60MPD2    H7  943   0.893   2.158  12.793  1.6456 -0.8235  0.9660
   61TMC2    C1  944   3.877   3.444  15.513 -0.2093  0.0431 -0.2933
   61TMC2    C2  945   3.897   3.348  15.609 -0.1119  0.2406 -0.7431
   61TMC2    C3  946   3.973   3.380  15.722  0.2766  0.3512 -0.6279
   61TMC2    C4  947   3.912   3.575  15.541 -0.2839 -0.4809  0.7455
   61TMC2    C5  948   3.976   3.606  15.656  0.6650 -0.0631 -0.6603
   61TMC2    C6  949   4.017   3.509  15.742  1.3453 -0.1548 -0.3514
   61TMC2     C  950   3.840   3.402  15.380 -0.0904  0.2964 -0.0854
   61TMC2     O  951   3.770   3.302  15.362 -0.4507 -0.7182  0.1992
   61TMC2     H  952   3.881   3.246  15.574 -1.1444  0.3024 -0.4581
   61TMC2    H1  953   3.895   3.650  15.464 -0.1855  1.1194  2.2836
   61TMC2    H2  954   4.098   3.535  15.809  1.7180 -0.1984 -0.7851
   61TMC2    C7  955   4.050   3.733  15.647  0.3069 -0.7157 -0.8104
   61TMC2    C8  956   4.055   3.276  15.785 -0.4779 -0.4738  0.0714
   61TMC2    O1  957   4.027   3.800  15.549 -0.2706  0.1123 -0.2075
   61TMC2    O2  958   4.159   3.291  15.839  0.0431 -0.2494  0.2496
   61TMC2    O5  959   3.991   3.158  15.781 -0.3766  0.2113  0.1834
   61TMC2    H5  960   3.897   3.157  15.752 -0.3504  0.2456  0.0957
   62MPD2     C  961   3.771   3.410  15.099 -0.7288  0.1408  0.1163
   62MPD2    C1  962   3.888   3.466  15.142 -0.3887  0.1888  0.3811
   62MPD2    C2  963   3.974   3.534  15.061  0.0334  0.4600  0.0498
   62MPD2    C3  964   3.941   3.537  14.926  0.1648 -0.9695 -0.0605
   62MPD2    C4  965   3.832   3.479  14.877  0.4439  0.4105  0.0009
   62MPD2    C5  966   3.748   3.410  14.964 -0.7862 -0.1016 -0.5592
   62MPD2     H  967   4.062   3.583  15.101 -1.0038  1.3291  1.2709
   62MPD2    H1  968   3.806   3.478  14.771 -0.7760  0.7633  0.2888
   62MPD2    H2  969   3.692   3.356  15.150 -0.5801 -1.0453 -0.8777
   62MPD2    H3  970   3.652   3.372  14.930 -0.3289 -2.3581  0.6321
   62MPD2     N  971   4.030   3.592  14.829  0.0218 -0.0264 -0.1160
   62MPD2    H5  972   3.991   3.593  14.735 -0.0007 -2.0235 -0.1347
   62MPD2    N1  973   3.907   3.471  15.282 -0.2384 -0.3469  0.1306
   62MPD2    H7  974   3.979   3.535  15.310 -1.0804  0.8347 -0.4006
   63TMC2    C1  975   0.605   3.858  10.697  0.0611 -0.1644 -0.0812
   63TMC2    C2  976   0.736   3.901  10.715 -0.2672 -0.0523  0.1003
   63TMC2    C3  977   0.791   3.986  10.624  0.2223 -0.0139  0.0370
   63TMC2    C4  978   0.531   3.905  10.596 -0.1168  0.1868  1.0952
   63TMC2    C5  979   0.583   3.990  10.507  0.0228  0.6109 -0.0164
   63TMC2    C6  980   0.714   4.027  10.524 -0.2702  0.4760 -0.3067
   63TMC2     C  981   0.550   3.768  10.793 -0.5980  0.6759  0.0943
   63TMC2     O  982   0.604   3.763  10.903 -0.0609 -0.2284  0.3662
   63TMC2     H  983   0.788   3.858  10.800  1.4004  1.3515 -0.2048
   63TMC2    H1  984   0.424   3.890  10.594  0.0932 -1.4150  1.9349
   63TMC2    H2  985   0.761   4.086  10.445 -1.0428  2.8313  1.0082
   63TMC2    C7  986   0.498   4.037  10.403  0.0564 -0.5447  0.1352
   63TMC2    C8  987   0.928   4.035  10.627  0.5568  0.6325  0.0231
   63TMC2    O1  988   0.399   3.973  10.378  0.5305  0.7116  0.0532
   63TMC2    O2  989   0.990   4.075  10.532 -0.9393 -0.5944 -0.2068
   63TMC2    O5  990   0.974   3.994  10.748  1.2940  0.1221 -0.6508
   63TMC2    H5  991   0.905   3.999  10.817  2.1249 -1.1269  0.2811
   64MPD2     C  992   0.132   3.510  10.929  0.7965  0.0827 -0.4454
   64MPD2    C1  993   0.161   3.488  10.797  0.5999 -0.1317 -0.5801
   64MPD2    C2  994   0.267   3.554  10.742  0.6259 -0.4721 -0.5547
   64MPD2    C3  995   0.349   3.637  10.811  0.3107  0.0708 -0.6544
   64MPD2    C4  996   0.325   3.650  10.945  0.4175 -0.3693  1.0044
   64MPD2    C5  997   0.223   3.583  11.002 -0.0735  0.0145  0.5865
   64MPD2     H  998   0.288   3.541  10.636 -1.7807 -1.0061 -0.9741
   64MPD2    H1  999   0.386   3.709  11.013 -0.1841  0.7806  0.5519
   64MPD2    H2 1000   0.050   3.462  10.981  1.5168  2.0684  2.5355
   64MPD2    H3 1001   0.205   3.600  11.107 -2.2189 -0.5681  0.3104
   64MPD2     N 1002   0.451   3.695  10.736  0.1134  0.2366  0.3472
   64MPD2    H5 1003   0.439   3.693  10.635  3.6353  1.9756 -0.1115
   64MPD2    N1 1004   0.093   3.394  10.718 -0.5785 -0.0964 -0.4125
   64MPD2    H7 1005   0.136   3.376  10.627  1.6469  2.3725  0.1393
   65TMC2    C1 1006   1.229   2.995  15.953  0.0201 -0.4103 -0.4426
   65TMC2    C2 1007   1.354   3.006  15.902 -0.1003 -0.2542 -0.5086
   65TMC2    C3 1008   1.356   3.062  15.773 -0.0254  0.1352  0.0734
   65TMC2    C4 1009   1.117   3.055  15.895  0.9428  0.2717  0.2707
   65TMC2    C5 1010   1.127   3.129  15.778  0.1561 -0.1647 -0.5137
   65TMC2    C6 1011   1.246   3.119  15.707 -0.2311  0.6537 -1.2688
   65TMC2     C 1012   1.198   2.871  16.026 -0.6482 -0.6931 -0.6077
   65TMC2     O 1013   1.280   2.829  16.108 -0.8322 -0.2482 -0.2986
   65TMC2     H 1014   1.442   2.959  15.944  1.0286  3.4063  1.2347
   65TMC2    H1 1015   1.022   3.040  15.943  1.4295  1.8040  1.7125
   65TMC2    H2 1016   1.262   3.184  15.621 -1.4238  1.2409 -1.0494
   65TMC2    C7 1017   1.016   3.209  15.726  0.4010  0.3010  0.1022
   65TMC2    C8 1018   1.484   3.081  15.720 -0.4503 -0.0724 -0.0262
   65TMC2    O1 1019   1.038   3.265  15.616 -0.3155  0.0337 -0.0792
   65TMC2    O2 1020   1.494   3.158  15.624  0.1794  0.3170 -0.4495
   65TMC2    O5 1021   1.536   2.956  15.730 -0.4097  0.1350  0.0262
   65TMC2    H5 1022   1.484   2.878  15.758  1.0574 -0.9347 -0.2124
   66MPD2     C 1023   1.095   2.591  16.095 -0.6577 -0.0055 -0.5340
   66MPD2    C1 1024   1.046   2.671  15.987 -0.6458 -0.2475  0.6898
   66MPD2    C2 1025   0.947   2.625  15.905 -0.0284  0.5410  0.3259
   66MPD2    C3 1026   0.907   2.493  15.910  0.5925  0.1377 -0.0614
   66MPD2    C4 1027   0.957   2.414  16.015 -0.1588 -0.5554 -0.3449
   66MPD2    C5 1028   1.055   2.459  16.095  0.3259 -0.4527 -0.6485
   66MPD2     H 1029   0.900   2.690  15.833  0.7316 -0.9117 -1.4927
   66MPD2    H1 1030   0.930   2.310  16.023 -1.2561 -0.0107  2.7828
   66MPD2    H2 1031   1.176   2.634  16.153 -0.3623 -2.0919  0.5970
   66MPD2    H3 1032   1.102   2.386  16.160  1.1874 -0.0725 -0.8399
   66MPD2     N 1033   0.818   2.437  15.811  0.3575  1.0719 -0.7441
   66MPD2    H5 1034   0.774   2.349  15.838 -1.5933  2.3328  0.1941
   66MPD2    N1 1035   1.091   2.803  15.963 -0.1385 -0.3376 -0.5977
   66MPD2    H7 1036   1.058   2.837  15.874  3.1258 -0.5689 -1.8906
   67TMC2    C1 1037   0.916   2.400  14.124  1.2397 -0.4065  0.3143
   67TMC2    C2 1038   0.907   2.532  14.141 -0.0510 -0.4356  0.2306
   67TMC2    C3 1039   0.964   2.590  14.250  0.0080  0.6317  0.0162
   67TMC2    C4 1040   0.976   2.318  14.211 -0.6929 -0.1086 -0.5673
   67TMC2    C5 1041   1.026   2.371  14.326  0.1918  0.8061  0.1138
   67TMC2    C6 1042   1.021   2.506  14.347  0.0169  0.3436  0.4553
   67TMC2     C 1043   0.858   2.337  13.999  0.0565 -0.0474 -0.6105
   67TMC2     O 1044   0.761   2.393  13.949 -0.3501  0.1491  0.0032
   67TMC2     H 1045   0.841   2.580  14.070  0.3515  1.0699  0.8625
   67TMC2    H1 1046   0.964   2.211  14.216  0.2966 -0.2536 -1.2820
   67TMC2    H2 1047   1.081   2.540  14.431  0.4889  0.1864  0.1791
   67TMC2    C7 1048   1.113   2.282  14.404  0.2696  0.0125 -0.4979
   67TMC2    C8 1049   0.962   2.732  14.265 -0.8464 -0.5528  0.0206
   67TMC2    O1 1050   1.180   2.197  14.351  0.0373 -0.2978 -0.0301
   67TMC2    O2 1051   0.933   2.806  14.169 -0.6235  0.3454 -0.1680
   67TMC2    O5 1052   1.025   2.758  14.378 -0.0292  0.3666 -0.3990
   67TMC2    H5 1053   1.006   2.694  14.450  3.4614  1.4075  1.4982
   68MPD2     C 1054   1.020   2.088  13.794  0.7530 -0.3710 -0.6407
   68MPD2    C1 1055   0.917   2.165  13.841 -0.4425 -0.7978 -0.2576
   68MPD2    C2 1056   0.789   2.143  13.793  0.1614  0.5060  0.1403
   68MPD2    C3 1057   0.758   2.049  13.693 -0.5400  0.7237 -0.0008
   68MPD2    C4 1058   0.865   1.972  13.655  0.4438 -0.1445  0.1854
   68MPD2    C5 1059   0.993   1.991  13.701 -0.1340 -0.1917 -0.1179
   68MPD2     H 1060   0.706   2.206  13.826 -0.6559 -0.5449  0.0826
   68MPD2    H1 1061   0.854   1.892  13.583  0.3716  1.9444 -2.1436
   68MPD2    H2 1062   1.123   2.100  13.826  0.1367 -0.5629  1.4097
   68MPD2    H3 1063   1.074   1.954  13.641  1.4757  1.4679  1.0126
   68MPD2     N 1064   0.633   2.022  13.636  0.5697  0.4655  0.3077
   68MPD2    H5 1065   0.624   1.960  13.557  0.4657  0.5620  0.2434
   68MPD2    N1 1066   0.952   2.247  13.953  0.0350  0.4898  0.2921
   68MPD2    H7 1067   1.039   2.233  14.003 -0.9709 -1.0781  1.6002
   69TMC2    C1 1068   3.143   3.451  13.017 -0.9411  0.2174 -0.6277
   69TMC2    C2 1069   3.015   3.505  13.007 -0.0983 -0.1621 -0.0494
   69TMC2    C3 1070   2.986   3.579  12.898  0.6442  0.0175 -0.4108
   69TMC2    C4 1071   3.236   3.467  12.915  0.3615  0.2675 -0.5058
   69TMC2    C5 1072   3.194   3.524  12.795 -0.5695  0.4150  0.4054
   69TMC2    C6 1073   3.071   3.584  12.787 -0.0088  0.1109  0.1071
   69TMC2     C 1074   3.157   3.340  13.107  0.3495  0.2114 -0.1008
   69TMC2     O 1075   3.057   3.277  13.125  0.8398 -0.2518 -0.0039
   69TMC2     H 1076   2.941   3.480  13.082  0.9817 -0.5007  0.8976
   69TMC2    H1 1077   3.324   3.403  12.916 -0.5530 -0.9991 -0.2057
   69TMC2    H2 1078   3.051   3.639  12.696  0.4015 -0.8199 -0.5527
   69TMC2    C7 1079   3.298   3.549  12.699 -0.4340 -0.1497  0.1056
   69TMC2    C8 1080   2.855   3.632  12.878 -0.6610  0.6726  0.9067
   69TMC2    O1 1081   3.408   3.561  12.753  0.2717  0.0154 -0.1230
   69TMC2    O2 1082   2.756   3.553  12.892 -0.0981 -0.4371 -0.6705
   69TMC2    O5 1083   2.862   3.753  12.814  0.1952 -0.3062 -0.1304
   69TMC2    H5 1084   2.949   3.795  12.799 -0.4121  1.1089  0.2417
   70MPD2     C 1085   3.463   3.186  13.243  0.0675 -0.3855  0.4483
   70MPD2    C1 1086   3.328   3.200  13.222 -0.4132 -0.4859 -0.1616
   70MPD2    C2 1087   3.244   3.102  13.268  0.7833  0.4760  0.1210
   70MPD2    C3 1088   3.288   2.992  13.337  0.5308  0.3536  0.7899
   70MPD2    C4 1089   3.424   2.985  13.356  0.8518  0.2201 -0.4834
   70MPD2    C5 1090   3.515   3.072  13.303 -0.1535 -0.3828  0.7141
   70MPD2     H 1091   3.138   3.115  13.250  1.1803  0.6270 -2.0825
   70MPD2    H1 1092   3.471   2.900  13.405  1.2152  0.8512  0.2519
   70MPD2    H2 1093   3.534   3.266  13.222 -0.6801  0.1913  0.1468
   70MPD2    H3 1094   3.620   3.045  13.303 -0.0816 -0.1219 -0.7563
   70MPD2     N 1095   3.208   2.901  13.396  0.1857  0.0934  0.2023
   70MPD2    H5 1096   3.256   2.836  13.458 -2.4505 -0.6026  1.5471
   70MPD2    N1 1097   3.283   3.313  13.148 -0.2853  0.1087  0.1652
   70MPD2    H7 1098   3.363   3.371  13.126  0.0343 -1.4075 -2.6038
   71TMC2    C1 1099   0.442   4.652   1.493 -0.5080  0.1558 -0.2610
   71TMC2    C2 1100   0.535   0.011   1.527  1.0560 -0.0067  0.1723
   71TMC2    C3 1101   0.490   0.107   1.612 -0.0617  0.2898 -0.2649
   71TMC2    C4 1102   0.319   4.638   1.555  0.4075 -0.1248 -0.2226
   71TMC2    C5 1103   0.287   0.005   1.640 -0.4297  0.0581 -0.4283
   71TMC2    C6 1104   0.369   0.105   1.672  0.4734 -0.3973  1.0376
   71TMC2     C 1105   0.489   4.538   1.417  0.0818  0.1278 -0.0151
   71TMC2     O 1106   0.400   4.462   1.372 -0.2629  0.1502 -0.2397
   71TMC2     H 1107   0.621   0.030   1.464 -0.2813 -0.6423 -1.8462
   71TMC2    H1 1108   0.254   4.562   1.513  1.9609 -2.8891  2.3450
   71TMC2    H2 1109   0.332   0.183   1.738 -1.6309 -0.1471 -0.4656
   71TMC2    C7 1110   0.146   0.035   1.660 -0.1882 -1.1375  0.8202
   71TMC2    C8 1111   0.577   0.221   1.614 -0.6106 -0.2775 -0.6329
   71TMC2    O1 1112   0.110   0.149   1.678 -0.3679 -0.2898  0.3461
   71TMC2    O2 1113   0.596   0.281   1.509 -0.0345 -0.1594 -0.0346
   71TMC2    O5 1114   0.546   0.275   1.732  0.1368 -0.2249 -0.4243
   71TMC2    H5 1115   0.524   0.207   1.799 -1.0410 -0.1678 -0.7652
   72MPD2     C 1116   0.852   4.261   1.198  0.5740 -0.5849 -0.3314
   72MPD2    C1 1117   0.727   4.298   1.155 -0.0234  0.5809 -0.8077
   72MPD2    C2 1118   0.644   4.375   1.240  0.6057  0.5352 -1.3176
   72MPD2    C3 1119   0.693   4.421   1.361  0.2450  0.2473  0.0546
   72MPD2    C4 1120   0.828   4.393   1.393 -0.1456  0.3347 -0.2221
   72MPD2    C5 1121   0.900   4.304   1.318  0.1028  0.3703  0.3266
   72MPD2     H 1122   0.554   4.414   1.194  0.1409  1.4053  0.3604
   72MPD2    H1 1123   0.867   4.429   1.488 -0.8987 -0.0111  0.2207
   72MPD2    H2 1124   0.915   4.201   1.134  0.8665 -0.1791 -0.4233
   72MPD2    H3 1125   1.000   4.273   1.346  0.4918  2.4996  1.2733
   72MPD2     N 1126   0.623   4.516   1.434  0.7206  0.3632 -0.0575
   72MPD2    H5 1127   0.675   4.573   1.500  0.6037  0.5912 -0.1626
   72MPD2    N1 1128   0.679   4.279   1.025  0.3420  0.1480  0.3173
   72MPD2    H7 1129   0.589   4.322   1.006  0.8370  2.4875  3.4522
   73TMC2    C1 1130   4.716   0.905  13.962  0.7107 -0.4222  0.0892
   73TMC2    C2 1131   4.661   0.959  14.074 -0.1208  0.2756  0.3623
   73TMC2    C3 1132   4.700   0.905  14.193  0.8404 -0.5797  0.3103
   73TMC2    C4 1133   0.049   0.791  13.975 -0.4537  0.0311  0.8693
   73TMC2    C5 1134   0.091   0.740  14.095  0.0735 -0.0090 -0.1626
   73TMC2    C6 1135   0.052   0.801  14.211 -0.6132  0.0439 -0.5146
   73TMC2     C 1136   0.006   0.982  13.847  0.2723 -0.6997  0.3604
   73TMC2     O 1137   0.106   0.943  13.784 -0.0026  0.3990  0.3630
   73TMC2     H 1138   4.605   1.052  14.078 -0.1822  0.1940  1.2741
   73TMC2    H1 1139   0.074   0.737  13.884 -0.4967  0.0952  0.8188
   73TMC2    H2 1140   0.088   0.771  14.309  0.5424 -1.6365 -1.4543
   73TMC2    C7 1141   0.234   0.719  14.090  0.7035  0.3657 -0.0429
   73TMC2    C8 1142   4.605   0.928  14.301 -0.3432  0.6069  0.3864
   73TMC2    O1 1143   0.288   0.692  14.197  0.2429 -0.0515  0.2604
   73TMC2    O2 1144   4.634   0.894  14.418  0.4401  0.6471 -0.3825
   73TMC2    O5 1145   4.491   0.885  14.242  0.1567 -0.6823  0.0560
   73TMC2    H5 1146   4.495   0.895  14.145  0.0282  0.0878  0.1347
   74MPD2     C 1147   0.007   1.395  13.556  0.8641  0.0508  0.2335
   74MPD2    C1 1148   0.105   1.303  13.588 -0.2535  0.2756  0.6707
   74MPD2    C2 1149   0.076   1.207  13.684 -0.3337  0.7037  1.2041
   74MPD2    C3 1150   4.693   1.200  13.746 -0.1799  0.4386  0.0940
   74MPD2    C4 1151   4.602   1.295  13.714  0.1118 -0.3847  0.1654
   74MPD2    C5 1152   4.628   1.398  13.626 -0.2834 -0.0912 -0.6388
   74MPD2     H 1153   0.156   1.150  13.729 -0.5212  0.0199  0.6734
   74MPD2    H1 1154   4.504   1.279  13.757  0.6696 -1.7194  0.9271
   74MPD2    H2 1155   0.010   1.470  13.478 -3.2448 -1.6155 -1.5199
   74MPD2    H3 1156   4.548   1.465  13.599 -0.9426 -0.1270  1.2139
   74MPD2     N 1157   4.661   1.092  13.834  0.2385  0.0813  0.0876
   74MPD2    H5 1158   4.574   1.091  13.886  0.1911 -1.5325 -0.0303
   74MPD2    N1 1159   0.237   1.332  13.535 -0.1856  0.0534 -0.1880
   74MPD2    H7 1160   0.248   1.418  13.483  1.7118  0.7781  1.4345
   75TMC2    C1 1161   0.406   2.012  13.636  0.0900 -0.0141 -0.0974
   75TMC2    C2 1162   0.289   1.988  13.705  0.2651  0.4737  0.4751
   75TMC2    C3 1163   0.169   2.000  13.647  0.3928 -0.3213 -0.1727
   75TMC2    C4 1164   0.398   2.041  13.502  0.5212  0.5746  0.5358
   75TMC2    C5 1165   0.274   2.050  13.449  0.0164 -0.1897 -0.1821
   75TMC2    C6 1166   0.156   2.024  13.512  0.0257  0.3912 -0.2622
   75TMC2     C 1167   0.524   2.063  13.697  0.7541 -0.2208 -0.2378
   75TMC2     O 1168   0.507   2.115  13.807 -0.3895 -0.7210 -1.0522
   75TMC2     H 1169   0.294   1.959  13.810  0.7173  2.0621  0.9024
   75TMC2    H1 1170   0.481   2.076  13.442 -0.4497 -0.2194 -1.2945
   75TMC2    H2 1171   0.066   2.011  13.454  2.5239 -1.0972 -3.8412
   75TMC2    C7 1172   0.251   2.116  13.323  0.4614 -0.7455  0.0593
   75TMC2    C8 1173   0.050   1.956  13.714 -0.2069  0.1283 -0.4253
   75TMC2    O1 1174   0.168   2.065  13.250 -0.3056 -0.5834 -0.4787
   75TMC2    O2 1175   0.046   1.904  13.824  0.3241  0.6362  0.1471
   75TMC2    O5 1176   4.688   2.039  13.683  0.2524  0.4919 -0.0051
   75TMC2    H5 1177   4.696   2.103  13.608 -3.3719 -0.5003 -1.2642
   76TMC2    C1 1178   3.890   2.774  12.480  0.2840 -0.5086  0.8907
   76TMC2    C2 1179   3.806   2.752  12.581  0.0845 -0.2080  0.7833
   76TMC2    C3 1180   3.732   2.633  12.579  0.9272 -0.3046  0.1817
   76TMC2    C4 1181   3.906   2.686  12.371  0.4310  0.0847 -0.0080
   76TMC2    C5 1182   3.819   2.585  12.372  0.0021  0.8427  0.6267
   76TMC2    C6 1183   3.731   2.555  12.469 -0.2936  0.5508  0.4314
   76TMC2     C 1184   3.945   2.907  12.464 -0.3291 -0.1463  0.1328
   76TMC2     O 1185   3.895   3.003  12.519 -0.5624 -0.8215  0.8519
   76TMC2     H 1186   3.792   2.823  12.662 -1.4998 -1.3586  1.5143
   76TMC2    H1 1187   3.960   2.718  12.282 -2.4263  0.4460 -1.6263
   76TMC2    H2 1188   3.665   2.469  12.476  3.5603 -2.5150 -1.6174
   76TMC2    C7 1189   3.842   2.484  12.263  0.3206  0.6767 -0.0471
   76TMC2    C8 1190   3.606   2.628  12.661  0.3165 -0.6339 -0.9247
   76TMC2    O1 1191   3.765   2.385  12.267  0.4302 -0.3330 -0.2268
   76TMC2    O2 1192   3.552   2.734  12.692 -0.4863  0.2709 -0.6755
   76TMC2    O5 1193   3.612   2.518  12.737 -0.3793  0.0620 -0.1533
   76TMC2    H5 1194   3.688   2.461  12.713  0.3475  0.3842  1.3545
   77MPD2     C 1195   4.280   3.215  12.227  0.5653  0.0043  0.4982
   77MPD2    C1 1196   4.183   3.240  12.319 -0.1808  0.2429  0.4186
   77MPD2    C2 1197   4.115   3.138  12.378  0.1154 -0.0199  0.1405
   77MPD2    C3 1198   4.133   3.004  12.343 -0.1755 -0.7102 -0.2333
   77MPD2    C4 1199   4.237   2.980  12.246  0.0231 -0.2073 -0.4036
   77MPD2    C5 1200   4.309   3.081  12.192 -0.0607 -0.1392 -0.5061
   77MPD2     H 1201   4.045   3.160  12.458  1.6883 -0.2033  1.5754
   77MPD2    H1 1202   4.262   2.880  12.213 -1.2388 -1.1685  1.5378
   77MPD2    H2 1203   4.343   3.291  12.181 -0.5345 -0.1160 -1.2199
   77MPD2    H3 1204   4.385   3.060  12.117  1.3821  1.7136  0.4321
   77MPD2     N 1205   4.061   2.897  12.392  0.9451  0.8644 -0.1510
   77MPD2    H5 1206   4.098   2.803  12.382 -0.7857  0.1914 -0.4001
   77MPD2    N1 1207   4.142   3.372  12.340  0.8254  0.4009  0.2896
   77MPD2    H7 1208   4.056   3.378  12.394  0.6394 -1.0675  0.1589
   78TMC2    C1 1209   0.287   2.500   0.907  0.2359  0.0725 -0.0905
   78TMC2    C2 1210   0.160   2.516   0.955 -0.0116  0.1627 -0.0517
   78TMC2    C3 1211   0.149   2.535   1.093 -0.5493 -0.2106 -0.4639
   78TMC2    C4 1212   0.401   2.534   0.979 -0.3440  0.7248 -0.3266
   78TMC2    C5 1213   0.391   2.571   1.110 -0.5911  0.6068  0.0153
   78TMC2    C6 1214   0.269   2.563   1.169  0.8177  0.9412  0.1422
   78TMC2     C 1215   0.309   2.419   0.786 -0.3655  0.2219 -0.0048
   78TMC2     O 1216   0.425   2.422   0.742 -0.1613  0.0104  0.4324
   78TMC2     H 1217   0.065   2.496   0.905 -0.9429  1.6662  1.1149
   78TMC2    H1 1218   0.498   2.517   0.934 -1.0668 -0.1483 -1.5308
   78TMC2    H2 1219   0.251   2.604   1.268 -0.1858  0.3539  0.2110
   78TMC2    C7 1220   0.505   2.639   1.165 -0.4217 -0.2110 -0.3054
   78TMC2    C8 1221   0.024   2.595   1.142  0.2899  0.3180 -0.1143
   78TMC2    O1 1222   0.602   2.642   1.092 -0.1218  0.2062 -0.1734
   78TMC2    O2 1223   4.691   2.517   1.207 -0.1472  0.1960 -0.2109
   78TMC2    O5 1224   4.732   2.675   1.041  0.7003  0.2376 -0.1364
   78TMC2    H5 1225   0.069   2.736   1.018  1.1879 -0.6302 -0.8878
   79MPD1     C 1226   0.175   2.143   0.381  0.3266  1.1100 -0.1862
   79MPD1    C1 1227   0.294   2.196   0.417 -0.5216  0.3786  0.2797
   79MPD1    C2 1228   0.295   2.280   0.529  0.8688  1.0015 -0.2284
   79MPD1    C3 1229   0.187   2.280   0.616 -0.2576 -0.4694 -0.5009
   79MPD1    C4 1230   0.071   2.212   0.581  0.6077  0.4300  0.0529
   79MPD1    C5 1231   0.069   2.148   0.461  0.3202  0.0161  0.7375
   79MPD1     H 1232   0.385   2.337   0.545  1.7488 -0.2604 -0.7332
   79MPD1    H1 1233   4.721   2.218   0.646 -0.5028  0.4832 -1.4082
   79MPD1    H2 1234   0.155   2.094   0.286 -0.3698 -2.2218  1.6655
   79MPD1    H3 1235   4.712   2.108   0.422  1.3567 -2.3918  0.7627
   79MPD1     N 1236   0.193   2.356   0.740  0.3628  0.6046 -0.0807
   79MPD1    H5 1237   0.108   2.361   0.796  0.3397 -0.5610 -0.0228
   79MPD1    N1 1238   0.409   2.190   0.339  1.0184 -0.0085  0.0558
   79MPD1    H6 1239   0.415   2.101   0.289  0.8591 -1.0295  1.8496
   79MPD1    H7 1240   0.490   2.179   0.399  1.3214  0.9755 -0.1786
   80TMC2    C1 1241   2.993   2.065  12.341 -0.8024 -0.2374  0.8268
   80TMC2    C2 1242   2.943   2.095  12.213  0.4014  0.0822  0.4198
   80TMC2    C3 1243   2.819   2.042  12.186  0.0404  0.6543  0.4683
   80TMC2    C4 1244   2.921   1.989  12.430 -0.2374 -0.0499 -0.0856
   80TMC2    C5 1245   2.802   1.931  12.388  0.5471 -0.1836  0.1915
   80TMC2    C6 1246   2.744   1.965  12.269  0.3568 -0.3344 -0.3263
   80TMC2     C 1247   3.073   2.164  12.404  0.3687  0.3517 -0.1772
   80TMC2     O 1248   3.028   2.202  12.510  0.4159  0.1172 -0.0116
   80TMC2     H 1249   3.001   2.153  12.143  0.1817 -1.5075 -1.0850
   80TMC2    H1 1250   2.959   1.972  12.530  0.6031 -1.6050 -0.6765
   80TMC2    H2 1251   2.645   1.933  12.237 -0.2966 -0.0155  1.3476
   80TMC2    C7 1252   2.713   1.862  12.482 -0.2039  0.8613  0.4622
   80TMC2    C8 1253   2.756   2.074  12.061 -0.5382 -0.7773 -0.7935
   80TMC2    O1 1254   2.602   1.836  12.435 -0.1756  0.0675 -0.1006
   80TMC2    O2 1255   2.676   2.000  12.008 -0.3325  0.3573  0.5981
   80TMC2    O5 1256   2.755   2.209  12.060 -0.2011  0.2855  0.3169
   80TMC2    H5 1257   2.817   2.250  12.125 -0.3525  0.5249  0.3102
   81MPD2     C 1258   3.350   2.377  12.283 -0.7022  0.6487  0.1632
   81MPD2    C1 1259   3.247   2.339  12.362  0.1511 -1.0389  0.9173
   81MPD2    C2 1260   3.223   2.408  12.473 -0.1929  0.8462  0.2392
   81MPD2    C3 1261   3.274   2.538  12.492 -0.6856  0.2204 -0.0952
   81MPD2    C4 1262   3.374   2.577  12.403 -0.0164 -0.1142  0.9096
   81MPD2    C5 1263   3.421   2.490  12.309  0.5022  0.8915  0.0301
   81MPD2     H 1264   3.152   2.377  12.549  1.0536 -1.0538  0.6051
   81MPD2    H1 1265   3.414   2.678  12.400 -1.3905  0.4894  2.7402
   81MPD2    H2 1266   3.365   2.325  12.189 -0.2097  2.6776 -0.8852
   81MPD2    H3 1267   3.505   2.510  12.244  0.2459  2.4372  0.1806
   81MPD2     N 1268   3.206   2.616  12.585 -0.1187 -0.2136 -0.1322
   81MPD2    H5 1269   3.149   2.563  12.650 -0.2617  1.5232  1.1784
   81MPD2    N1 1270   3.177   2.220  12.326  0.1909  0.1949 -0.5908
   81MPD2    H7 1271   3.198   2.168  12.241 -0.5143  0.5372 -0.9746
   82TMC2    C1 1272   1.257   2.396  10.745 -0.1190 -0.1968  0.0318
   82TMC2    C2 1273   1.294   2.476  10.848 -0.2371  0.1365  0.1932
   82TMC2    C3 1274   1.262   2.457  10.980  0.0906 -0.6554 -0.6372
   82TMC2    C4 1275   1.176   2.290  10.779  0.0861 -0.1294  0.2722
   82TMC2    C5 1276   1.128   2.278  10.909  0.3936  0.3566  0.0455
   82TMC2    C6 1277   1.179   2.356  11.015 -0.0642  0.5884 -0.6338
   82TMC2     C 1278   1.214   2.473  10.629 -0.0281  0.0914  1.2781
   82TMC2     O 1279   1.099   2.454  10.602  0.2213 -0.0899 -0.1404
   82TMC2     H 1280   1.378   2.545  10.840  0.4846 -0.7789 -0.0326
   82TMC2    H1 1281   1.147   2.220  10.702  0.3970  1.6490 -1.4510
   82TMC2    H2 1282   1.156   2.338  11.120  0.5762  1.3799 -0.3582
   82TMC2    C7 1283   1.053   2.159  10.952 -0.4313 -0.4060  0.4187
   82TMC2    C8 1284   1.337   2.529  11.080  0.2406  0.0205  0.3310
   82TMC2    O1 1285   1.017   2.152  11.072  0.2791 -0.1951  0.6855
   82TMC2    O2 1286   1.376   2.645  11.077 -0.4602 -1.1272  0.4634
   82TMC2    O5 1287   1.395   2.440  11.154  0.0064  0.2247 -0.1020
   82TMC2    H5 1288   1.357   2.351  11.138 -0.3716  0.3441  0.1259
   83MPD2     C 1289   1.264   2.917  10.360  0.1410  0.4959 -0.1463
   83MPD2    C1 1290   1.157   2.837  10.374 -0.3806  0.0722  0.2726
   83MPD2    C2 1291   1.169   2.718  10.447  0.1877  0.3027  0.1185
   83MPD2    C3 1292   1.288   2.691  10.514 -0.0373  0.6535 -0.3628
   83MPD2    C4 1293   1.396   2.781  10.506  0.0120  0.4109  0.5081
   83MPD2    C5 1294   1.384   2.889  10.423 -0.4969  0.0082 -0.2616
   83MPD2     H 1295   1.084   2.651  10.454  0.7590 -0.1859  2.5066
   83MPD2    H1 1296   1.481   2.773  10.573 -0.6025  0.8172  1.3389
   83MPD2    H2 1297   1.256   3.001  10.291  3.0931  1.4115  0.6403
   83MPD2    H3 1298   1.465   2.961  10.424  1.5297 -2.2726 -0.8020
   83MPD2     N 1299   1.308   2.570  10.590  0.0054  0.3188 -0.1961
   83MPD2    H5 1300   1.396   2.562  10.641 -0.3123  1.3160  0.5009
   83MPD2    N1 1301   1.038   2.876  10.303  0.5360  0.4776  0.7805
   83MPD2    H7 1302   1.027   2.975  10.285 -0.1645  0.4044  0.8189
   84TMC2    C1 1303   2.283   1.377  10.284  0.0994 -0.1625 -0.4373
   84TMC2    C2 1304   2.234   1.261  10.228 -0.7935  0.4695 -0.0728
   84TMC2    C3 1305   2.267   1.240  10.094 -0.5137  0.1682 -0.8847
   84TMC2    C4 1306   2.348   1.466  10.216 -0.1589 -0.0604  0.0542
   84TMC2    C5 1307   2.381   1.435  10.085  0.3646 -0.7447 -0.8363
   84TMC2    C6 1308   2.340   1.324  10.021  0.2228  0.2946  0.6017
   84TMC2     C 1309   2.259   1.416  10.426 -0.0264 -0.3732 -0.3236
   84TMC2     O 1310   2.265   1.539  10.449  0.2771  0.5789 -0.0638
   84TMC2     H 1311   2.179   1.183  10.278 -2.2912  0.4370 -1.7649
   84TMC2    H1 1312   2.382   1.553  10.272 -3.3709  0.0912  1.7801
   84TMC2    H2 1313   2.351   1.305   9.915  0.0334  1.7692  0.3218
   84TMC2    C7 1314   2.451   1.533  10.012 -0.5690 -0.1084 -0.3148
   84TMC2    C8 1315   2.234   1.110  10.032 -0.0330 -0.0922  0.1915
   84TMC2    O1 1316   2.482   1.638  10.067  0.3107 -0.1292 -0.0175
   84TMC2    O2 1317   2.135   1.043  10.045  0.0495  0.6284 -0.5949
   84TMC2    O5 1318   2.351   1.072   9.974 -0.4466 -0.9461 -0.6396
   84TMC2    H5 1319   2.412   1.149   9.974 -2.6543  0.8192 -0.9584
   85TMC2    C1 1320   2.747   4.062  15.989 -0.2866  0.5759  0.2049
   85TMC2    C2 1321   2.813   4.183  16.002 -0.3165 -0.4516 -0.4599
   85TMC2    C3 1322   2.900   4.224  15.906 -0.1112  0.3752  0.0140
   85TMC2    C4 1323   2.800   3.975  15.903  0.3017 -0.1384 -0.0035
   85TMC2    C5 1324   2.903   4.009  15.824  0.1262 -0.1151 -0.4047
   85TMC2    C6 1325   2.951   4.135  15.817 -0.3933 -0.2217 -0.8804
   85TMC2     C 1326   2.627   4.029  16.072  0.1218  0.1800  0.0684
   85TMC2     O 1327   2.607   4.106  16.169 -0.0478 -0.3019 -0.0914
   85TMC2     H 1328   2.768   4.258  16.067  0.8992  0.0369 -0.1907
   85TMC2    H1 1329   2.763   3.873  15.902  1.2111 -0.4706 -0.0297
   85TMC2    H2 1330   3.026   4.167  15.745  2.2585  0.5407  2.2180
   85TMC2    C7 1331   2.947   3.911  15.723  0.8367 -0.1519  0.6082
   85TMC2    C8 1332   2.890   4.362  15.870  0.4375 -0.0238 -0.4075
   85TMC2    O1 1333   2.923   3.794  15.752  0.2494 -1.1630 -0.4068
   85TMC2    O2 1334   2.915   4.386  15.751  0.0277  0.6050 -0.4554
   85TMC2    O5 1335   2.933   4.447  15.968  0.6950  0.7755  0.3032
   85TMC2    H5 1336   2.949   4.406  16.056 -1.3199  1.2211  0.8822
   86MPD2     C 1337   2.225   3.751  16.210  0.3780  0.1489  0.1714
   86MPD2    C1 1338   2.325   3.664  16.164 -0.4837 -0.0379 -0.2226
   86MPD2    C2 1339   2.437   3.716  16.116 -0.0431  0.0771  1.0796
   86MPD2    C3 1340   2.467   3.856  16.118 -0.3006 -0.1756  1.0253
   86MPD2    C4 1341   2.362   3.936  16.171 -0.3050  1.0466 -0.1874
   86MPD2    C5 1342   2.241   3.887  16.212 -0.6983  0.3130  0.7587
   86MPD2     H 1343   2.520   3.650  16.094 -1.7055 -1.1669 -1.4651
   86MPD2    H1 1344   2.373   4.043  16.185  1.1690  0.7611  0.9096
   86MPD2    H2 1345   2.132   3.709  16.245 -0.1681  0.5506 -0.7988
   86MPD2    H3 1346   2.159   3.953  16.237 -0.9417  0.4445 -0.3778
   86MPD2     N 1347   2.582   3.902  16.060 -0.9990 -0.3217 -0.5073
   86MPD2    H5 1348   2.630   3.833  16.002 -0.1442 -2.5678  2.8777
   86MPD2    N1 1349   2.310   3.519  16.165 -0.1747  0.0392 -0.2125
   86MPD2    H7 1350   2.392   3.473  16.128  0.1346  1.6400 -1.5488
   87TMC2    C1 1351   4.550   2.413   0.368 -0.0769  0.6782  0.2777
   87TMC2    C2 1352   4.446   2.360   0.444 -0.6719 -0.6859  0.0937
   87TMC2    C3 1353   4.436   2.392   0.577 -0.2650 -0.1880 -0.5025
   87TMC2    C4 1354   4.610   2.524   0.415  0.1552  0.2266 -0.4275
   87TMC2    C5 1355   4.596   2.556   0.551  0.0669  0.1738 -0.4509
   87TMC2    C6 1356   4.513   2.490   0.630  1.0004  0.6244  0.0515
   87TMC2     C 1357   4.625   2.344   0.270 -0.1274  0.1554 -1.2153
   87TMC2     O 1358   0.003   2.379   0.233  0.2091 -1.1011 -0.4567
   87TMC2     H 1359   4.387   2.274   0.414 -0.1100 -0.8465 -0.5453
   87TMC2    H1 1360   4.682   2.578   0.354  1.0938 -1.1726 -0.5612
   87TMC2    H2 1361   4.532   2.508   0.736 -0.2322 -0.7008  0.5036
   87TMC2    C7 1362   4.706   2.617   0.618 -0.0204  0.5304 -0.7535
   87TMC2    C8 1363   4.435   2.275   0.656 -0.0159 -0.2940 -0.0096
   87TMC2    O1 1364   4.693   2.661   0.733 -0.2890 -0.2535  0.3232
   87TMC2    O2 1365   4.447   2.169   0.599 -0.6240 -0.3903  0.2342
   87TMC2    O5 1366   4.356   2.299   0.763 -0.2698  0.0595 -0.4658
   87TMC2    H5 1367   4.355   2.390   0.799 -0.7190 -0.5826  1.1485
   88MPD2     C 1368   0.313   2.671   0.503 -0.3267  0.0208 -0.1309
   88MPD2    C1 1369   0.211   2.679   0.592 -0.4031 -0.1846  0.6085
   88MPD2    C2 1370   0.225   2.757   0.704 -0.2084  0.3370  0.8754
   88MPD2    C3 1371   0.350   2.825   0.729  0.0487 -0.3320  1.2793
   88MPD2    C4 1372   0.454   2.823   0.632 -0.3814  0.4599 -0.0717
   88MPD2    C5 1373   0.427   2.750   0.515 -0.6726 -0.0687 -0.5630
   88MPD2     H 1374   0.145   2.769   0.777 -0.4837 -1.8414  0.9122
   88MPD2    H1 1375   0.549   2.872   0.645  0.9259 -0.9317 -4.3919
   88MPD2    H2 1376   0.293   2.622   0.408 -0.5152 -1.1947  0.5404
   88MPD2    H3 1377   0.501   2.758   0.436 -0.3282  1.5722 -0.0682
   88MPD2     N 1378   0.374   2.894   0.849 -0.5903 -0.4180  0.0737
   88MPD2    H5 1379   0.462   2.939   0.869 -0.0048 -0.4689 -2.3060
   88MPD2    N1 1380   0.083   2.625   0.545 -0.7319  0.5484 -0.1440
   88MPD2    H7 1381   0.081   2.576   0.456  0.8027  0.3430 -0.0627
   89TMC2    C1 1382   1.273   0.988   1.125 -0.1782  0.1379  0.6649
   89TMC2    C2 1383   1.165   0.907   1.123 -0.1467 -0.0077 -0.0209
   89TMC2    C3 1384   1.051   0.962   1.171  0.1660 -0.0501 -0.1791
   89TMC2    C4 1385   1.269   1.122   1.166  0.1269 -0.4768 -0.2423
   89TMC2    C5 1386   1.145   1.176   1.197  0.3683 -0.5261  0.0259
   89TMC2    C6 1387   1.035   1.094   1.207  0.0974 -0.6279  0.1100
   89TMC2     C 1388   1.401   0.926   1.110  0.3044  0.0919  0.1540
   89TMC2     O 1389   1.479   0.983   1.033  0.0235  0.3272  0.0507
   89TMC2     H 1390   1.163   0.811   1.071 -0.1295 -0.4970  0.8863
   89TMC2    H1 1391   1.361   1.178   1.160  0.0754 -0.3289  0.3536
   89TMC2    H2 1392   0.938   1.139   1.223  0.2253 -0.8898  1.6543
   89TMC2    C7 1393   1.137   1.311   1.236 -0.0070  0.5870 -0.2407
   89TMC2    C8 1394   0.943   0.880   1.199  0.4233  0.5987 -0.6108
   89TMC2    O1 1395   1.046   1.350   1.313  0.4015  0.0492 -0.3076
   89TMC2    O2 1396   0.826   0.906   1.170  0.0625  0.9124 -0.3306
   89TMC2    O5 1397   0.982   0.764   1.249 -0.4760 -0.0822 -0.0228
   89TMC2    H5 1398   1.077   0.759   1.272 -1.2993 -1.0698  3.1506
   90MPD2     C 1399   1.701   0.512   1.150  0.3903  0.0586 -0.5639
   90MPD2    C1 1400   1.585   0.487   1.225  0.5243 -0.2007 -0.0271
   90MPD2    C2 1401   1.491   0.586   1.209 -0.2931 -0.2859  0.5981
   90MPD2    C3 1402   1.506   0.707   1.141  0.0153  0.1298  0.1461
   90MPD2    C4 1403   1.625   0.728   1.081 -0.4306  1.0548 -0.3102
   90MPD2    C5 1404   1.720   0.634   1.092  0.0421 -0.6912  1.3286
   90MPD2     H 1405   1.397   0.578   1.263 -0.2760 -0.3079  0.6245
   90MPD2    H1 1406   1.645   0.811   1.014 -0.3110  2.6197  1.6540
   90MPD2    H2 1407   1.779   0.437   1.152  0.4073  0.0304 -2.2536
   90MPD2    H3 1408   1.813   0.645   1.038 -1.5448 -0.4643 -1.3707
   90MPD2     N 1409   1.404   0.798   1.149  0.0858 -0.2347  0.1052
   90MPD2    H5 1410   1.324   0.764   1.202 -1.5969  0.4689 -1.9453
   90MPD2    N1 1411   1.565   0.374   1.315 -0.1457 -0.2071  0.1705
   90MPD2    H7 1412   1.472   0.365   1.356 -0.5726  2.0886 -0.2674
   91TMC2    C1 1413   2.452   0.082  16.013 -0.4777 -1.2671 -0.3979
   91TMC2    C2 1414   2.555   0.142  15.940  0.4696 -0.1485 -0.0516
   91TMC2    C3 1415   2.526   0.156  15.807 -0.6141 -0.2526  0.0039
   91TMC2    C4 1416   2.337   0.031  15.950  0.3158 -0.0241  0.1087
   91TMC2    C5 1417   2.324   0.043  15.815  0.1816 -0.6379  0.4074
   91TMC2    C6 1418   2.413   0.119  15.740  0.3661 -0.1537 -0.4916
   91TMC2     C 1419   2.481   0.026  16.146  0.3800  0.7758  0.0120
   91TMC2     O 1420   2.389   4.710  16.212  0.0625  0.5490  0.1173
   91TMC2     H 1421   2.643   0.182  15.989 -1.0261 -0.8577  3.1707
   91TMC2    H1 1422   2.264   4.718  16.013 -0.8078  0.8320 -0.5208
   91TMC2    H2 1423   2.426   0.104  15.633 -0.7674 -0.5427 -0.5785
   91TMC2    C7 1424   2.188   0.013  15.761  0.0920  0.1062  0.1575
   91TMC2    C8 1425   2.645   0.187  15.733  0.0878 -0.0724 -0.0243
   91TMC2    O1 1426   2.101   4.725  15.839 -0.1958 -0.0593  0.1918
   91TMC2    O2 1427   2.631   0.229  15.618 -0.6528 -0.3185  0.0865
   91TMC2    O5 1428   2.742   0.102  15.771 -0.1808  0.0060  0.0199
   91TMC2    H5 1429   2.731   0.056  15.857 -1.3558  0.3686  0.0619
   92MPD2     C 1430   2.600   4.698  16.411 -0.2549 -0.7422 -0.7936
   92MPD2    C1 1431   2.675   4.721  16.292 -0.7086  0.0379  0.0872
   92MPD2    C2 1432   2.812   4.687  16.292  0.0418  0.2620 -0.3565
   92MPD2    C3 1433   2.868   4.638  16.407 -1.1154  0.4304  0.1201
   92MPD2    C4 1434   2.796   4.620  16.524  0.2479  0.2307 -0.5242
   92MPD2    C5 1435   2.665   4.658  16.518  0.6667 -0.2889 -0.0962
   92MPD2     H 1436   2.870   4.698  16.201 -1.3573 -0.7116 -1.3593
   92MPD2    H1 1437   2.831   4.581  16.619  0.8754  0.5759 -0.6209
   92MPD2    H2 1438   2.498   4.730  16.426  0.3268  1.1749 -0.8627
   92MPD2    H3 1439   2.605   4.661  16.608 -0.0441  1.5659 -0.6318
   92MPD2     N 1440   3.010   4.614  16.406 -0.4159 -0.5753  0.2600
   92MPD2    H5 1441   3.063   4.651  16.327  1.9419 -2.3805  0.9878
   92MPD2    N1 1442   2.613   0.021  16.173  0.0256 -0.1813 -0.1063
   92MPD2    H7 1443   2.678   0.028  16.094  0.7623 -0.6802  0.4504
   93TMC2    C1 1444   0.243   0.518  13.654 -0.1753  0.9701  0.4154
   93TMC2    C2 1445   0.245   0.399  13.711 -0.4286  0.3121  0.4839
   93TMC2    C3 1446   0.362   0.333  13.703 -0.7780 -0.5200  0.3622
   93TMC2    C4 1447   0.360   0.592  13.625  0.6111 -0.9831 -0.0442
   93TMC2    C5 1448   0.475   0.516  13.621 -0.0473  0.1881 -0.3712
   93TMC2    C6 1449   0.480   0.384  13.658  0.2734  0.0830 -0.4173
   93TMC2     C 1450   0.116   0.589  13.640  0.1818 -0.0387  0.1892
   93TMC2     O 1451   0.128   0.711  13.635 -0.0446 -0.0129  0.0768
   93TMC2     H 1452   0.156   0.343  13.739  0.3534 -0.6912  0.9421
   93TMC2    H1 1453   0.348   0.697  13.604  0.9288 -0.9051  0.1676
   93TMC2    H2 1454   0.567   0.322  13.643  1.3727  1.4629  0.3302
   93TMC2    C7 1455   0.605   0.567  13.573 -0.2888 -0.2957  0.4528
   93TMC2    C8 1456   0.363   0.198  13.752  0.0043  0.2230 -0.4170
   93TMC2    O1 1457   0.704   0.502  13.611 -0.5894 -0.5228 -0.3784
   93TMC2    O2 1458   0.267   0.120  13.763 -0.3884 -0.4598 -0.1204
   93TMC2    O5 1459   0.478   0.181  13.818 -0.0212  0.0411 -0.1687
   93TMC2    H5 1460   0.530   0.264  13.827  1.1476 -0.8037  0.9098
   94MPD2     C 1461   4.582   0.687  13.693 -0.1176  0.2132 -0.3143
   94MPD2    C1 1462   4.610   0.556  13.654  0.2165 -0.2666 -0.3911
   94MPD2    C2 1463   4.506   0.465  13.642 -0.6862 -0.2770  0.4006
   94MPD2    C3 1464   4.372   0.513  13.652  0.1264  0.2860 -0.4797
   94MPD2    C4 1465   4.347   0.649  13.681  0.5502 -0.2491 -0.4860
   94MPD2    C5 1466   4.455   0.730  13.706 -0.3228  0.6247 -0.0855
   94MPD2     H 1467   4.527   0.361  13.620 -0.5986 -0.1948  0.0925
   94MPD2    H1 1468   4.250   0.696  13.694  1.0157  0.5425  0.0960
   94MPD2    H2 1469   4.659   0.763  13.699 -0.2276  0.2384  0.6653
   94MPD2    H3 1470   4.438   0.835  13.729  1.8619  0.7593  1.0091
   94MPD2     N 1471   4.267   0.428  13.632  0.6549  0.1082  0.4187
   94MPD2    H5 1472   4.174   0.466  13.619  1.5452  0.8661 -3.7157
   94MPD2    N1 1473   0.006   0.505  13.650  0.7358 -0.2397 -0.2232
   94MPD2    H7 1474   0.023   0.405  13.640  2.1795 -0.0160 -0.1222
   95TMC2    C1 1475   0.105   1.897  16.234  0.0830  0.2020 -0.3344
   95TMC2    C2 1476   0.056   1.769  16.249 -0.1412  0.1331 -0.5030
   95TMC2    C3 1477   4.686   1.740  16.325  0.0689  0.2404  0.2412
   95TMC2    C4 1478   0.067   1.988  16.325 -0.1234  0.1050  0.2582
   95TMC2    C5 1479   4.701   1.963  16.413  0.1959  0.7148  0.3487
   95TMC2    C6 1480   4.636   1.840  16.402 -0.9762  0.1335  0.1077
   95TMC2     C 1481   0.220   1.922  16.141  0.4716  0.0859 -0.0160
   95TMC2     O 1482   0.271   2.032  16.146  0.3693  1.4073  0.3870
   95TMC2     H 1483   0.100   1.679  16.208 -0.8349 -0.8638  0.9545
   95TMC2    H1 1484   0.106   2.088  16.312 -1.8237  0.8190  0.6721
   95TMC2    H2 1485   4.566   1.812  16.480  2.0263 -2.3525  1.8756
   95TMC2    C7 1486   4.656   2.073  16.499 -0.8821  0.0091  0.1469
   95TMC2    C8 1487   4.641   1.602  16.336  0.2338  0.1983 -0.4730
   95TMC2    O1 1488   4.705   2.182  16.483 -0.9200 -0.2842 -0.6452
   95TMC2    O2 1489   4.716   1.514  16.295 -0.8794  0.3132 -0.0276
   95TMC2    O5 1490   4.506   1.621  16.315 -0.1844  0.1936 -0.5932
   95TMC2    H5 1491   4.470   1.698  16.364  0.4408  0.6851 -0.8844
   96MPD2     C 1492   0.451   1.760  15.709  0.8506  0.0739 -0.0576
   96MPD2    C1 1493   0.435   1.891  15.761 -0.4026 -0.2209  0.1863
   96MPD2    C2 1494   0.357   1.911  15.874 -0.3158 -0.4048 -0.5149
   96MPD2    C3 1495   0.291   1.807  15.930 -0.3154  0.2639 -0.2557
   96MPD2    C4 1496   0.308   1.682  15.876 -0.1533 -0.4669  0.3886
   96MPD2    C5 1497   0.378   1.660  15.760  0.3069  0.3539 -0.1065
   96MPD2     H 1498   0.350   2.013  15.909 -0.2636 -0.8703  0.8225
   96MPD2    H1 1499   0.255   1.600  15.922  2.1882 -2.0131  0.3137
   96MPD2    H2 1500   0.521   1.740  15.629  3.3706  1.1561  1.8700
   96MPD2    H3 1501   0.375   1.564  15.710  0.1827 -0.1668  0.9017
   96MPD2     N 1502   0.217   1.818  16.047  0.2165 -0.1267 -0.4997
   96MPD2    H5 1503   0.163   1.735  16.069 -1.3050  0.6485 -1.2932
   96MPD2    N1 1504   0.502   1.991  15.694 -0.2340  0.4787  0.5580
   96MPD2    H7 1505   0.571   1.956  15.627 -0.2699 -0.9397  1.2550
   97TMC2    C1 1506   2.083   4.689  17.206  0.4183 -0.4869 -0.0731
   97TMC2    C2 1507   2.071   0.005  17.080  0.0061 -0.5507 -0.4003
   97TMC2    C3 1508   2.087   0.142  17.078 -0.3090 -0.7482  0.3287
   97TMC2    C4 1509   2.120   0.021  17.321 -0.5851  0.8858  0.0831
   97TMC2    C5 1510   2.146   0.155  17.304 -0.3237  0.3324 -0.4140
   97TMC2    C6 1511   2.136   0.224  17.185 -0.8658  0.4135  0.2086
   97TMC2     C 1512   2.061   4.549  17.207  0.1791  0.1809 -0.2164
   97TMC2     O 1513   2.037   4.487  17.106  0.0802 -0.0307  0.0439
   97TMC2     H 1514   2.033   4.684  16.997  2.3808 -2.0123 -0.4786
   97TMC2    H1 1515   2.122   4.715  17.421 -3.2396  0.5735  0.0046
   97TMC2    H2 1516   2.152   0.331  17.177 -0.4867  0.5156  2.2581
   97TMC2    C7 1517   2.230   0.202  17.408  0.2212 -0.5616 -0.0813
   97TMC2    C8 1518   2.080   0.196  16.941 -0.5448 -0.4334 -0.3410
   97TMC2    O1 1519   2.198   0.317  17.444 -0.0720 -0.3142  0.5494
   97TMC2    O2 1520   2.128   0.136  16.846  0.0450 -0.2761 -0.5532
   97TMC2    O5 1521   2.027   0.318  16.942  0.3649 -0.1354  0.1922
   97TMC2    H5 1522   1.971   0.327  17.021 -0.6221  0.9403 -0.6341
   98MPD2     C 1523   2.005   4.090  17.442 -0.3136  0.1388  0.2958
   98MPD2    C1 1524   2.044   4.192  17.537 -0.2923 -0.5542 -0.2845
   98MPD2    C2 1525   2.071   4.321  17.493 -0.4940  1.1526 -0.4161
   98MPD2    C3 1526   2.054   4.357  17.362 -0.4087  0.4079 -0.6082
   98MPD2    C4 1527   1.999   4.258  17.274  0.2379 -0.2978 -0.8286
   98MPD2    C5 1528   1.975   4.127  17.312  0.6805  0.3747 -0.1540
   98MPD2     H 1529   2.098   4.403  17.558 -0.1083 -0.5829  1.6120
   98MPD2    H1 1530   1.980   4.279  17.169  1.2310 -1.8077 -1.3150
   98MPD2    H2 1531   1.965   3.995  17.475  1.8780 -0.4818  1.1909
   98MPD2    H3 1532   1.926   4.064  17.238  0.1980  0.5890 -0.0167
   98MPD2     N 1533   2.085   4.490  17.331 -0.5427 -0.6033  0.3708
   98MPD2    H5 1534   2.139   4.540  17.402  1.3271 -0.8328 -0.8752
   98MPD2    N1 1535   2.028   4.169  17.676 -0.2795 -0.1817  0.5620
   98MPD2    H7 1536   1.976   4.087  17.704  0.0216  0.2287  2.3549
   99TMC2    C1 1537   0.905   2.263   1.893 -0.0131 -0.5041  0.4288
   99TMC2    C2 1538   0.957   2.256   2.022  0.1029 -1.1554  0.0539
   99TMC2    C3 1539   0.869   2.250   2.124 -0.9557 -0.0418 -0.4088
   99TMC2    C4 1540   0.769   2.266   1.867 -0.1288 -0.1956  0.1430
   99TMC2    C5 1541   0.685   2.254   1.974  0.2520 -0.2815  0.1422
   99TMC2    C6 1542   0.732   2.250   2.106  0.7841 -0.0678  0.0893
   99TMC2     C 1543   1.002   2.258   1.790 -0.3100 -0.0886 -0.8829
   99TMC2     O 1544   1.113   2.294   1.826  0.1733 -0.1686 -0.5434
   99TMC2     H 1545   1.063   2.257   2.043  0.3769  0.0758 -1.3474
   99TMC2    H1 1546   0.722   2.290   1.772 -0.5215  1.3496  0.7368
   99TMC2    H2 1547   0.666   2.256   2.193 -0.1852 -2.9549 -0.4315
   99TMC2    C7 1548   0.542   2.235   1.960  0.0163  0.1774  0.0262
   99TMC2    C8 1549   0.919   2.254   2.259 -0.2479 -0.4423  0.2187
   99TMC2    O1 1550   0.469   2.248   2.060  0.0646  0.0271  0.1911
   99TMC2    O2 1551   1.020   2.190   2.277  0.4022  0.4108  0.0948
   99TMC2    O5 1552   0.877   2.374   2.317  0.1408 -0.0802 -0.1944
   99TMC2    H5 1553   0.820   2.411   2.246  0.8317  1.7320  0.2056
  100MPD2     C 1554   1.176   2.230   1.535  0.0118 -0.9534  0.2892
  100MPD2    C1 1555   1.050   2.174   1.556  0.8924  0.3734 -0.2706
  100MPD2    C2 1556   0.997   2.110   1.447  0.0997  0.1988 -0.2632
  100MPD2    C3 1557   1.066   2.079   1.327  0.0518  0.1947  0.2380
  100MPD2    C4 1558   1.196   2.124   1.317 -0.2070 -0.3379 -0.0693
  100MPD2    C5 1559   1.250   2.203   1.417  0.2138 -0.5942 -0.1624
  100MPD2     H 1560   0.892   2.083   1.450  0.4470 -0.9742  1.8628
  100MPD2    H1 1561   1.258   2.096   1.233  1.2227 -0.9601  1.2027
  100MPD2    H2 1562   1.227   2.287   1.611 -0.3013 -0.5792  0.2184
  100MPD2    H3 1563   1.353   2.232   1.432  0.3070 -0.5081 -0.9902
  100MPD2     N 1564   0.999   2.013   1.226 -0.0787  0.1655  0.1086
  100MPD2    H5 1565   0.908   1.975   1.252 -0.3953  0.4297 -0.6028
  100MPD2    N1 1566   0.965   2.189   1.674 -0.6351  0.2330  0.2369
  100MPD2    H7 1567   0.876   2.140   1.675  0.8799 -2.5445  1.3919
  101TMC2    C1 1568   2.112   2.187  13.124  0.3140 -0.8004  0.0279
  101TMC2    C2 1569   2.117   2.120  13.006 -0.4303 -0.0666  1.0170
  101TMC2    C3 1570   2.160   2.194  12.903  1.3525  0.2937  0.7114
  101TMC2    C4 1571   2.132   2.328  13.141  0.3379  0.1665  0.3729
  101TMC2    C5 1572   2.160   2.393  13.027  0.4355  0.2115 -0.1642
  101TMC2    C6 1573   2.176   2.332  12.909 -0.5921  0.3943  0.1356
  101TMC2     C 1574   2.006   2.143  13.213 -0.1550  0.9539 -0.3528
  101TMC2     O 1575   1.930   2.230  13.249  0.2404 -0.0224  0.1843
  101TMC2     H 1576   2.083   2.018  12.994 -1.1516 -0.0321  2.7594
  101TMC2    H1 1577   2.113   2.376  13.236 -2.1694  0.9903 -0.5402
  101TMC2    H2 1578   2.199   2.390  12.821  0.0979  0.3723  0.3009
  101TMC2    C7 1579   2.250   2.513  13.044 -0.2183  0.1354  0.1491
  101TMC2    C8 1580   2.164   2.130  12.769 -0.0341 -0.1037  0.2338
  101TMC2    O1 1581   2.303   2.561  12.946  0.3451 -0.2475  0.6034
  101TMC2    O2 1582   2.075   2.056  12.732 -0.1891 -0.1219 -0.3579
  101TMC2    O5 1583   2.242   2.211  12.695  0.1085 -0.7298  0.5230
  101TMC2    H5 1584   2.317   2.256  12.740  0.7632 -0.9477 -0.3433
  102MPD2     C 1585   1.913   1.786  13.272  0.2138 -0.8959  0.5379
  102MPD2    C1 1586   1.902   1.924  13.265 -0.4055 -0.7164  0.6569
  102MPD2    C2 1587   1.792   1.984  13.315  0.1212  0.1959 -0.2227
  102MPD2    C3 1588   1.686   1.902  13.361 -0.6249  0.1119  0.1703
  102MPD2    C4 1589   1.694   1.768  13.363 -0.2473 -0.1929  0.8122
  102MPD2    C5 1590   1.810   1.710  13.321 -0.1690 -0.1923  0.5990
  102MPD2     H 1591   1.783   2.092  13.322  0.8042  0.0491  2.9576
  102MPD2    H1 1592   1.610   1.710  13.398 -0.4849  0.5390  1.4540
  102MPD2    H2 1593   2.002   1.732  13.241 -0.6078 -1.8730 -0.1193
  102MPD2    H3 1594   1.823   1.602  13.318 -0.7741 -0.3034  2.1164
  102MPD2     N 1595   1.568   1.977  13.392 -0.1263 -0.0262  0.4100
  102MPD2    H5 1596   1.564   2.078  13.382  0.2687 -0.1178 -0.6110
  102MPD2    N1 1597   2.012   2.005  13.222  0.6610  0.2965  0.0460
  102MPD2    H7 1598   2.095   1.962  13.184 -0.8556 -2.1914 -0.4772
  103TMC2    C1 1599   4.549   2.608  11.965  0.2993  0.2016  0.1217
  103TMC2    C2 1600   4.590   2.571  11.840 -0.5997 -0.1118  0.1692
  103TMC2    C3 1601   4.712   2.614  11.799 -0.0360  0.1143  0.1877
  103TMC2    C4 1602   4.626   2.693  12.038  0.4927  0.1574 -0.1879
  103TMC2    C5 1603   0.009   2.737  11.994 -0.5252 -0.8524 -0.0308
  103TMC2    C6 1604   0.057   2.692  11.873 -0.3175 -0.2162  0.7612
  103TMC2     C 1605   4.419   2.566  12.022  0.7403 -0.3275  0.4733
  103TMC2     O 1606   4.396   2.624  12.126  0.2794  0.1563  0.0059
  103TMC2     H 1607   4.536   2.503  11.775 -0.8028  3.1134 -3.0184
  103TMC2    H1 1608   4.592   2.733  12.132  1.5759 -0.5940  0.5202
  103TMC2    H2 1609   0.150   2.728  11.831  0.0928 -2.1259  0.0329
  103TMC2    C7 1610   0.072   2.843  12.063  0.0727  0.9416 -0.1594
  103TMC2    C8 1611   0.036   2.554  11.684  1.2281  0.0897 -0.2053
  103TMC2    O1 1612   0.016   2.875  12.168  0.6275  0.4680 -0.7511
  103TMC2    O2 1613   0.120   2.620  11.625 -0.0891  0.4957 -0.0289
  103TMC2    O5 1614   0.023   2.421  11.709 -0.3301 -0.4195  0.2547
  103TMC2    H5 1615   4.698   2.404  11.783  0.0038  0.4161  0.7250
  104MPD2     C 1616   4.206   2.266  11.981 -0.4601  0.3964  0.6684
  104MPD2    C1 1617   4.247   2.394  12.020 -0.1890  0.5481  0.4179
  104MPD2    C2 1618   4.157   2.469  12.090 -0.5951 -0.3422  0.3397
  104MPD2    C3 1619   4.034   2.420  12.131  0.0575 -0.5183  0.6583
  104MPD2    C4 1620   3.993   2.297  12.081  0.6104 -0.2122 -0.3153
  104MPD2    C5 1621   4.079   2.219  12.016  0.5190 -0.7766  1.5555
  104MPD2     H 1622   4.177   2.571  12.122 -0.9662 -0.4394  0.8889
  104MPD2    H1 1623   3.894   2.262  12.110 -0.3285  1.5922 -1.3498
  104MPD2    H2 1624   4.267   2.202  11.919 -1.6657 -0.3811  0.2678
  104MPD2    H3 1625   4.049   2.116  11.996  2.3545 -1.1862  0.9751
  104MPD2     N 1626   3.964   2.503  12.209 -0.1168  0.2544  0.0676
  104MPD2    H5 1627   4.023   2.582  12.231  1.5612 -1.2991  1.1220
  104MPD2    N1 1628   4.378   2.444  11.984 -0.3273  1.0995  0.8645
  104MPD2    H7 1629   4.431   2.392  11.915 -1.5262 -0.1566  0.8799
  105TMC2    C1 1630   0.598   1.913  17.600  0.3616 -0.9482 -0.1083
  105TMC2    C2 1631   0.637   2.044  17.611 -0.4478 -0.8991 -0.1129
  105TMC2    C3 1632   0.545   2.140  17.606  1.4383 -0.4140  0.4209
  105TMC2    C4 1633   0.465   1.880  17.603 -0.7095  0.0678 -0.6210
  105TMC2    C5 1634   0.375   1.980  17.610  0.4155 -0.5071  0.4081
  105TMC2    C6 1635   0.413   2.108  17.605  0.0087  0.1973  0.3352
  105TMC2     C 1636   0.687   1.817  17.542 -0.0595 -0.1226  0.5769
  105TMC2     O 1637   0.654   1.701  17.537  0.2612  0.1532  0.0713
  105TMC2     H 1638   0.737   2.077  17.634 -1.1822  1.1608  0.0652
  105TMC2    H1 1639   0.426   1.779  17.613 -0.6493  0.2962  1.9398
  105TMC2    H2 1640   0.337   2.184  17.591 -1.9524 -1.5001  1.7457
  105TMC2    C7 1641   0.235   1.950  17.627 -0.1204 -0.1989  0.1417
  105TMC2    C8 1642   0.593   2.275  17.609  0.7475  0.1479  0.1306
  105TMC2    O1 1643   0.203   1.836  17.610  0.8156  0.2844 -0.2864
  105TMC2    O2 1644   0.706   2.310  17.574 -0.3199  0.1852 -0.3162
  105TMC2    O5 1645   0.520   2.355  17.688  0.0918  0.2661 -0.2404
  105TMC2    H5 1646   0.442   2.313  17.731  0.7856 -1.1960 -0.4121
  106MPD2     C 1647   1.135   1.735  17.294 -0.4382 -0.3949 -0.7756
  106MPD2    C1 1648   1.112   1.872  17.317  0.8147 -0.4423  1.2505
  106MPD2    C2 1649   1.015   1.912  17.401 -0.0193 -0.1202  0.8130
  106MPD2    C3 1650   0.920   1.818  17.446 -0.1511 -1.4558  0.8800
  106MPD2    C4 1651   0.936   1.679  17.425  0.0927 -0.0755  0.4620
  106MPD2    C5 1652   1.052   1.640  17.362  0.4824  0.3334 -0.3931
  106MPD2     H 1653   0.998   2.019  17.404 -1.5210 -0.3467  0.5458
  106MPD2    H1 1654   0.863   1.610  17.467 -0.4017  0.3399  0.2839
  106MPD2    H2 1655   1.229   1.700  17.254  0.9087  3.0401 -0.6156
  106MPD2    H3 1656   1.057   1.538  17.324 -0.7237 -0.9573  2.9397
  106MPD2     N 1657   0.803   1.878  17.504  0.0981  0.3098 -0.1396
  106MPD2    H5 1658   0.798   1.979  17.498 -0.6589  0.3723  1.6150
  106MPD2    N1 1659   1.191   1.979  17.264  0.0733 -0.0728  0.0052
  106MPD2    H7 1660   1.165   2.071  17.296  0.7489 -0.5002  1.8148
  107TMC2    C1 1661   2.108   1.881  11.241 -0.2806 -0.0125  0.0721
  107TMC2    C2 1662   2.199   1.962  11.177 -0.0145  0.2172 -0.2717
  107TMC2    C3 1663   2.266   1.918  11.068  0.5724  1.1330 -0.0223
  107TMC2    C4 1664   2.080   1.758  11.193  0.0864 -0.6681 -0.4690
  107TMC2    C5 1665   2.151   1.722  11.078 -0.1271 -0.0471 -0.4532
  107TMC2    C6 1666   2.240   1.799  11.012  0.8244  0.0286 -0.1522
  107TMC2     C 1667   2.049   1.938  11.365 -0.5504  0.0059 -0.1431
  107TMC2     O 1668   1.987   1.863  11.438 -0.1745 -0.3924 -0.5013
  107TMC2     H 1669   2.233   2.060  11.211  0.4034 -0.1967  0.5141
  107TMC2    H1 1670   2.006   1.693  11.239 -0.9431 -0.6986 -2.1860
  107TMC2    H2 1671   2.310   1.757  10.940 -0.0107 -2.8803  0.7260
  107TMC2    C7 1672   2.136   1.586  11.035 -0.2734  0.1184  0.0273
  107TMC2    C8 1673   2.362   2.009  11.008 -0.1741  1.4369 -0.1490
  107TMC2    O1 1674   2.092   1.506  11.116  0.2150 -0.3867  0.4942
  107TMC2    O2 1675   2.420   2.094  11.078 -0.0566  0.0603  0.0597
  107TMC2    O5 1676   2.343   2.006  10.881  0.1903 -0.1816 -0.4828
  107TMC2    H5 1677   2.281   1.940  10.844  1.4535 -1.5501 -0.1505
  108MPD2     C 1678   1.952   2.284  11.389 -0.2637 -0.1996 -0.3594
  108MPD2    C1 1679   1.962   2.154  11.433 -0.6754  0.3922 -0.1860
  108MPD2    C2 1680   1.894   2.108  11.543 -0.1703  0.0121  0.3039
  108MPD2    C3 1681   1.827   2.196  11.625  0.1152  1.4267  0.2486
  108MPD2    C4 1682   1.818   2.328  11.583  0.0451 -0.6701 -0.1602
  108MPD2    C5 1683   1.881   2.374  11.470 -0.4040  0.3641 -0.2478
  108MPD2     H 1684   1.914   2.010  11.584 -0.7676 -0.6867 -1.0887
  108MPD2    H1 1685   1.771   2.403  11.645  1.3910 -1.0534  1.3316
  108MPD2    H2 1686   1.995   2.325  11.298 -1.7643  1.4755 -0.3152
  108MPD2    H3 1687   1.868   2.479  11.449 -0.3870  0.6144  1.0051
  108MPD2     N 1688   1.762   2.162  11.743  0.8605 -0.6154 -0.7149
  108MPD2    H5 1689   1.714   2.244  11.779 -1.0289 -1.4364 -1.4107
  108MPD2    N1 1690   2.052   2.074  11.361  0.3956  1.0915  0.5635
  108MPD2    H7 1691   2.104   2.115  11.284 -2.1065  0.3494 -1.5459
  109TMC2    C1 1692   1.167   3.445   0.099 -0.1086 -0.1576 -0.5558
  109TMC2    C2 1693   1.206   3.431  17.713  1.6290  0.0717 -0.1560
  109TMC2    C3 1694   1.283   3.526  17.665 -0.8550  0.3862 -0.8111
  109TMC2    C4 1695   1.196   3.545   0.183 -0.3433 -0.3561  0.0812
  109TMC2    C5 1696   1.276   3.643   0.131 -0.4331  0.3048 -0.3307
  109TMC2    C6 1697   1.313   3.632   0.000  0.4047  0.1551  0.0556
  109TMC2     C 1698   1.083   3.336   0.140 -0.8267  0.2301 -0.4207
  109TMC2     O 1699   1.035   3.267   0.051  0.3901 -0.0607 -0.1503
  109TMC2     H 1700   1.189   3.339  17.660 -2.8818  0.5039  0.5961
  109TMC2    H1 1701   1.152   3.562   0.281 -0.3795 -1.0985  0.1947
  109TMC2    H2 1702   1.387   3.700  17.702  1.2496 -2.3331 -2.4373
  109TMC2    C7 1703   1.353   3.736   0.214  0.6630  0.8969 -0.2825
  109TMC2    C8 1704   1.375   3.510  17.549  0.0705  0.4834 -0.0918
  109TMC2    O1 1705   1.424   3.811   0.153 -0.0205 -0.3050 -0.9252
  109TMC2    O2 1706   1.462   3.588  17.522 -0.7462  0.4393 -0.1069
  109TMC2    O5 1707   1.334   3.415  17.467  0.3585  0.5100  0.3034
  109TMC2    H5 1708   1.244   3.381  17.488  1.1943 -0.9837  1.4256
  110MPD2     C 1709   0.925   3.009   0.514  0.7834  0.3867  1.1079
  110MPD2    C1 1710   0.991   3.118   0.571  0.1426 -0.6879  0.0985
  110MPD2    C2 1711   1.049   3.210   0.487 -0.0057  0.0152  0.1397
  110MPD2    C3 1712   1.027   3.217   0.350  0.1638  0.3336 -0.1383
  110MPD2    C4 1713   0.960   3.106   0.299 -0.3834 -0.6430  0.2194
  110MPD2    C5 1714   0.918   3.002   0.382 -0.4658 -0.6939  0.1378
  110MPD2     H 1715   1.103   3.295   0.527  0.4603  0.4088 -1.3286
  110MPD2    H1 1716   0.969   3.089   0.193 -0.6351 -1.3923  0.3185
  110MPD2    H2 1717   0.889   2.936   0.586  1.0193 -1.6733 -0.8403
  110MPD2    H3 1718   0.868   2.919   0.333  0.3314 -1.0569 -0.0477
  110MPD2     N 1719   1.095   3.319   0.275  0.0924 -1.1725  0.2234
  110MPD2    H5 1720   1.155   3.384   0.325 -0.9284 -0.7903  0.9307
  110MPD2    N1 1721   1.006   3.127   0.713 -0.1177 -0.8476 -0.2733
  110MPD2    H7 1722   0.965   3.052   0.767 -0.3466 -0.6314 -0.1471
  111TMC2    C1 1723   2.057   3.325  11.769 -0.4360 -0.3304 -0.3689
  111TMC2    C2 1724   2.091   3.199  11.738 -0.2391 -0.1067  0.5305
  111TMC2    C3 1725   2.108   3.102  11.839  0.1911  0.1170 -0.4494
  111TMC2    C4 1726   2.055   3.364  11.901 -0.8557  0.1241 -0.0250
  111TMC2    C5 1727   2.076   3.269  11.996 -0.2081 -0.0520 -0.0586
  111TMC2    C6 1728   2.091   3.134  11.968  0.1186 -0.6266 -0.0582
  111TMC2     C 1729   2.006   3.401  11.656 -0.2360 -0.1168 -0.3075
  111TMC2     O 1730   2.028   3.377  11.543  0.4625  0.0707  0.5392
  111TMC2     H 1731   2.121   3.173  11.637  1.0167  0.9667  0.6300
  111TMC2    H1 1732   2.041   3.468  11.931 -0.6938 -0.4619  2.1306
  111TMC2    H2 1733   2.124   3.061  12.041 -0.1335 -1.4695 -0.7913
  111TMC2    C7 1734   2.148   3.308  12.109 -0.3048  0.1597 -0.0502
  111TMC2    C8 1735   2.155   2.970  11.806  0.7078 -0.0495 -0.0342
  111TMC2    O1 1736   2.153   3.231  12.204  0.0259 -0.5057 -0.5043
  111TMC2    O2 1737   2.132   2.920  11.699  0.1343 -0.0523  0.3977
  111TMC2    O5 1738   2.268   2.949  11.872  0.5332  0.1873 -0.4419
  111TMC2    H5 1739   2.290   2.994  11.956  0.7951  0.5301 -0.6946
  112MPD2     C 1740   1.738   3.828  11.499  0.3017 -0.1041  0.4547
  112MPD2    C1 1741   1.803   3.725  11.424 -0.4978 -0.1532 -0.8787
  112MPD2    C2 1742   1.867   3.625  11.488  0.1503  0.6170 -0.6797
  112MPD2    C3 1743   1.875   3.612  11.630  0.1829 -0.0879  0.1863
  112MPD2    C4 1744   1.816   3.715  11.702 -0.0370  0.1103 -0.1429
  112MPD2    C5 1745   1.750   3.821  11.638  0.3338  0.3370  0.4548
  112MPD2     H 1746   1.912   3.549  11.425  1.8559  0.6467  0.4839
  112MPD2    H1 1747   1.826   3.728  11.809  3.1230 -0.9618 -0.2977
  112MPD2    H2 1748   1.688   3.913  11.452 -0.1544 -0.1249  0.8992
  112MPD2    H3 1749   1.694   3.885  11.705  1.3800  1.1345  0.5707
  112MPD2     N 1750   1.939   3.510  11.708  0.0477  0.4148  0.3795
  112MPD2    H5 1751   1.912   3.516  11.805 -3.2617  2.2744 -0.6470
  112MPD2    N1 1752   1.818   3.738  11.285  0.0396 -0.4017 -0.5718
  112MPD2    H7 1753   1.876   3.667  11.241  0.5289 -0.5454  0.2981
  113TMC2    C1 1754   4.365   1.973   0.847 -0.1620 -0.3043  0.1143
  113TMC2    C2 1755   4.249   2.043   0.874  1.1532  0.5533  0.3145
  113TMC2    C3 1756   4.128   1.986   0.854  0.6990 -0.4630 -0.0726
  113TMC2    C4 1757   4.357   1.843   0.810  0.7931 -0.0632  0.6340
  113TMC2    C5 1758   4.239   1.796   0.767  0.1856 -0.3727 -0.3972
  113TMC2    C6 1759   4.120   1.863   0.800 -0.2395 -0.7631 -0.0923
  113TMC2     C 1760   4.482   2.019   0.906  0.1616 -0.8084  0.8585
  113TMC2     O 1761   4.471   2.109   0.990 -0.1422 -0.0449  0.4992
  113TMC2     H 1762   4.253   2.138   0.926  0.4209 -0.6148  2.5018
  113TMC2    H1 1763   4.443   1.779   0.793 -0.2159 -0.6482 -2.1151
  113TMC2    H2 1764   4.025   1.832   0.758 -0.4050 -0.3433 -0.0354
  113TMC2    C7 1765   4.212   1.660   0.723  0.5073  0.3608 -0.2388
  113TMC2    C8 1766   4.007   2.051   0.898 -0.4984  0.0208 -0.2844
  113TMC2    O1 1767   4.115   1.657   0.652  0.4911  0.6968  0.3517
  113TMC2    O2 1768   3.978   2.168   0.897  1.0159 -0.0168 -0.0031
  113TMC2    O5 1769   3.928   1.956   0.940 -0.1229 -0.6068 -0.1412
  113TMC2    H5 1770   3.966   1.866   0.947 -0.9656 -1.1417 -2.4111
  114MPD2     C 1771   0.230   2.083   0.988  0.4876  0.6474 -1.0805
  114MPD2    C1 1772   0.123   2.109   1.072 -0.0597  0.2656 -0.4181
  114MPD2    C2 1773   0.005   2.055   1.032 -0.0850  0.3243  0.8475
  114MPD2    C3 1774   4.723   1.993   0.907  0.6096  0.2227  0.2609
  114MPD2    C4 1775   0.092   1.983   0.822 -0.1520 -0.5577  0.2512
  114MPD2    C5 1776   0.213   2.031   0.867  0.2263 -0.0419  0.4601
  114MPD2     H 1777   4.661   2.059   1.104  0.8001 -2.5196  1.9759
  114MPD2    H1 1778   0.084   1.949   0.720  0.3070  4.1464 -1.3648
  114MPD2    H2 1779   0.332   2.097   1.022 -0.1887  0.5913  0.9742
  114MPD2    H3 1780   0.303   2.016   0.810 -0.1020 -2.1316  0.4989
  114MPD2     N 1781   4.596   1.960   0.862  0.0317 -0.2715 -0.2699
  114MPD2    H5 1782   4.592   1.904   0.777 -0.7676 -0.8144  0.1321
  114MPD2    N1 1783   0.135   2.168   1.197  0.9858 -0.0300 -0.1746
  114MPD2    H7 1784   0.050   2.177   1.252  0.5181  1.2659 -1.1304
  115TMC2    C1 1785   0.889   3.964  17.589 -0.3079  0.6006  0.1023
  115TMC2    C2 1786   1.024   3.937  17.610 -0.3056  0.5177  0.7003
  115TMC2    C3 1787   1.109   4.038  17.622  0.0465 -0.1245 -0.0473
  115TMC2    C4 1788   0.838   4.092  17.590  0.1793  0.1970 -0.1373
  115TMC2    C5 1789   0.928   4.187  17.630  0.0677 -0.2961  0.4654
  115TMC2    C6 1790   1.059   4.160  17.655 -0.1270 -0.1012 -0.0659
  115TMC2     C 1791   0.811   3.842  17.590 -0.7308 -0.6282 -0.0787
  115TMC2     O 1792   0.859   3.745  17.536 -0.1019 -0.1802  0.5617
  115TMC2     H 1793   1.065   3.837  17.613 -0.1109  0.5631 -0.3748
  115TMC2    H1 1794   0.735   4.115  17.564  1.3349  3.6322 -1.6487
  115TMC2    H2 1795   1.126   4.241  17.683 -0.5962  0.3340 -0.2115
  115TMC2    C7 1796   0.880   4.318  17.659 -0.3967 -1.1071 -0.0599
  115TMC2    C8 1797   1.242   4.002  17.672  0.9476  0.4384  0.5684
  115TMC2    O1 1798   0.767   4.311  17.701 -0.3298  0.2326  0.1953
  115TMC2    O2 1799   1.308   3.904  17.636  0.0562 -0.3133  0.0241
  115TMC2    O5 1800   1.275   4.073   0.038  0.4250  0.8180 -0.1586
  115TMC2    H5 1801   1.193   4.121   0.065  0.4158  1.4847 -1.3466
  116MPD2     C 1802   0.359   3.621  17.629 -0.4398  0.0718 -0.7622
  116MPD2    C1 1803   0.470   3.572  17.565  0.7366  0.0099  0.7593
  116MPD2    C2 1804   0.583   3.652  17.567  0.3245  0.9272 -0.1016
  116MPD2    C3 1805   0.581   3.777  17.625 -0.1818  0.4100  0.6218
  116MPD2    C4 1806   0.466   3.823  17.688 -0.2312  0.3358 -0.1633
  116MPD2    C5 1807   0.362   3.741  17.692  0.4934 -0.2623 -0.6014
  116MPD2     H 1808   0.668   3.620  17.507  1.2832  1.9833  0.7091
  116MPD2    H1 1809   0.459   3.919  17.738 -1.2618  0.4893 -0.5996
  116MPD2    H2 1810   0.261   3.574  17.623 -0.3900  0.1789 -2.3342
  116MPD2    H3 1811   0.269   3.768  17.741  0.4052 -0.7617 -0.4919
  116MPD2     N 1812   0.686   3.871  17.628 -0.2739 -0.1739  0.1247
  116MPD2    H5 1813   0.665   3.966  17.658  0.7222  0.2124 -0.4110
  116MPD2    N1 1814   0.468   3.453  17.485 -0.5047  0.7769 -0.3277
  116MPD2    H7 1815   0.376   3.420  17.455 -0.9379 -0.3888  2.2682
  117TMC2    C1 1816   4.462   0.245  14.009  0.4228 -0.0075 -0.1544
  117TMC2    C2 1817   4.593   0.237  14.053  0.5280  0.3301  0.2798
  117TMC2    C3 1818   4.657   0.357  14.084  0.1348 -0.4354  0.0878
  117TMC2    C4 1819   4.395   0.370  13.991 -0.0816 -0.1906 -0.7154
  117TMC2    C5 1820   4.467   0.483  14.021  0.0723 -0.1552 -0.0499
  117TMC2    C6 1821   4.596   0.478  14.072  0.1090  0.3939 -0.2095
  117TMC2     C 1822   4.393   0.120  14.002 -0.5601  0.0413 -0.4738
  117TMC2     O 1823   4.452   0.012  13.996 -0.2764  0.0518  0.0920
  117TMC2     H 1824   4.638   0.141  14.074  1.1910  0.7972  0.9957
  117TMC2    H1 1825   4.305   0.385  13.932 -0.8768 -0.4249  0.4382
  117TMC2    H2 1826   4.659   0.561  14.101  2.4937 -0.8483 -1.8027
  117TMC2    C7 1827   4.401   0.610  14.022  0.4246 -0.0006  0.4196
  117TMC2    C8 1828   0.069   0.353  14.102  0.4636  0.1980 -0.5796
  117TMC2    O1 1829   4.481   0.702  14.023 -0.3812  0.0646  0.0063
  117TMC2    O2 1830   0.123   0.435  14.180  0.2549 -0.1648 -0.1608
  117TMC2    O5 1831   0.129   0.252  14.037  0.0732  0.0075 -0.4950
  117TMC2    H5 1832   0.068   0.206  13.976 -2.5816  1.3778  1.1039
  118MPD2     C 1833   4.049   0.702  14.017  0.3142 -0.0195 -0.4873
  118MPD2    C1 1834   4.183   0.725  14.010 -0.0668  0.5769 -0.4049
  118MPD2    C2 1835   4.226   0.854  13.973  0.1434  0.1053  0.7415
  118MPD2    C3 1836   4.136   0.956  13.947 -0.1449 -0.0253 -0.7692
  118MPD2    C4 1837   4.004   0.926  13.952 -0.2887  0.0750 -0.4563
  118MPD2    C5 1838   3.959   0.800  13.981 -0.5405  0.2249 -0.0422
  118MPD2     H 1839   4.331   0.871  13.955  0.1100 -1.5441 -1.0498
  118MPD2    H1 1840   3.929   1.001  13.929 -0.2610 -0.3348 -1.8863
  118MPD2    H2 1841   4.014   0.601  14.035 -0.1596  0.2901  0.3339
  118MPD2    H3 1842   3.859   0.759  13.974 -0.4556 -0.0022  0.0667
  118MPD2     N 1843   4.160   1.088  13.924  0.1743 -0.4411  0.2668
  118MPD2    H5 1844   4.079   1.148  13.913 -0.6731 -1.1365  2.5436
  118MPD2    N1 1845   4.264   0.608  14.026  0.0644 -0.0006 -0.1948
  118MPD2    H7 1846   4.204   0.531  14.055 -1.8828  1.6572  0.2320
  119TMC2    C1 1847   2.282   1.811  13.541 -0.7585 -0.4614 -0.0937
  119TMC2    C2 1848   2.322   1.750  13.423 -0.4646  0.3600  0.3427
  119TMC2    C3 1849   2.250   1.647  13.386  0.5289  0.7874  0.5027
  119TMC2    C4 1850   2.170   1.781  13.610 -0.7888  0.2712 -0.0522
  119TMC2    C5 1851   2.096   1.675  13.569  0.5057  0.4382  0.4225
  119TMC2    C6 1852   2.134   1.612  13.451  0.1420  0.3696  0.2444
  119TMC2     C 1853   2.373   1.912  13.598  0.0048  0.1203 -0.4254
  119TMC2     O 1854   2.321   1.998  13.669  0.0174 -0.1493 -0.3657
  119TMC2     H 1855   2.403   1.784  13.359 -0.2507 -1.9969 -0.6369
  119TMC2    H1 1856   2.154   1.838  13.701  0.3526 -1.1775  1.0691
  119TMC2    H2 1857   2.082   1.522  13.418  0.6474  0.8080 -1.7725
  119TMC2    C7 1858   1.989   1.619  13.643  0.0513  0.3272 -0.2087
  119TMC2    C8 1859   2.323   1.534  13.328  0.8724  0.8683  0.6946
  119TMC2    O1 1860   1.953   1.505  13.626  0.1655 -0.3307 -0.2345
  119TMC2    O2 1861   2.404   1.552  13.237 -0.5046  0.1773  0.1327
  119TMC2    O5 1862   2.353   1.473  13.444 -0.0711  0.1343  0.0129
  119TMC2    H5 1863   2.283   1.455  13.511 -0.8402 -0.1801 -0.8707
  120MPD2     C 1864   2.840   2.078  13.742 -0.3623 -0.6811 -0.2774
  120MPD2    C1 1865   2.716   2.107  13.798 -0.5838  0.1267 -0.0740
  120MPD2    C2 1866   2.598   2.056  13.729 -0.4150  0.1183 -1.3138
  120MPD2    C3 1867   2.615   1.968  13.620  0.5361  0.5199  0.2658
  120MPD2    C4 1868   2.741   1.937  13.581 -0.1285  0.9227 -0.0795
  120MPD2    C5 1869   2.852   1.994  13.636  0.5761 -0.2634  0.6052
  120MPD2     H 1870   2.499   2.075  13.769  0.5468  1.5182  0.4234
  120MPD2    H1 1871   2.754   1.865  13.501 -0.1503 -0.5831  1.2676
  120MPD2    H2 1872   2.928   2.124  13.788 -0.9142 -0.4635  0.5561
  120MPD2    H3 1873   2.954   1.971  13.610 -0.4807 -2.6705 -1.4062
  120MPD2     N 1874   2.504   1.897  13.560 -0.8948 -0.4808 -0.2200
  120MPD2    H5 1875   2.526   1.819  13.499 -0.7094 -0.5211 -0.1016
  120MPD2    N1 1876   2.723   2.187  13.912  0.1700  0.0154 -0.2493
  120MPD2    H7 1877   2.809   2.238  13.925 -0.4581  1.5678 -2.1098
  121TMC2    C1 1878   3.719   3.694  13.710 -0.5193 -0.3232 -0.3297
  121TMC2    C2 1879   3.725   3.586  13.624  0.2532 -0.0971 -0.2600
  121TMC2    C3 1880   3.602   3.532  13.599  0.9897 -0.1502 -0.2363
  121TMC2    C4 1881   3.602   3.737  13.764 -0.6352  0.3939  0.0766
  121TMC2    C5 1882   3.482   3.673  13.737  0.4466  0.0200  0.7346
  121TMC2    C6 1883   3.475   3.572  13.647  0.0619  0.0719 -0.2378
  121TMC2     C 1884   3.832   3.783  13.716  0.4565 -0.4664  0.2954
  121TMC2     O 1885   3.843   3.848  13.818  0.1437  0.5782 -0.1065
  121TMC2     H 1886   3.814   3.536  13.587 -1.2454 -2.4411 -0.7201
  121TMC2    H1 1887   3.596   3.824  13.829  1.6780 -0.6113  1.6438
  121TMC2    H2 1888   3.387   3.514  13.624 -0.4626  0.9713 -0.4896
  121TMC2    C7 1889   3.371   3.767  13.730  0.1445  0.2863  0.3353
  121TMC2    C8 1890   3.597   3.412  13.518 -0.0365  0.4847  0.4661
  121TMC2    O1 1891   3.402   3.882  13.743 -0.1249  0.1662 -0.3533
  121TMC2    O2 1892   3.510   3.331  13.541 -0.2401  0.1287  0.1747
  121TMC2    O5 1893   3.645   3.441  13.390  0.2167 -0.0532 -0.3542
  121TMC2    H5 1894   3.708   3.516  13.388 -0.6107  0.5228 -4.6761
  122MPD2     C 1895   4.097   3.920  13.691 -0.5684  0.0404  0.7766
  122MPD2    C1 1896   4.022   3.878  13.580 -0.7333  0.6113 -0.4203
  122MPD2    C2 1897   4.071   3.904  13.456 -0.1417 -0.8074 -0.7799
  122MPD2    C3 1898   4.178   3.983  13.435  0.2769  0.4874  0.0495
  122MPD2    C4 1899   4.257   4.020  13.542  0.1917 -0.0854 -0.3343
  122MPD2    C5 1900   4.215   3.983  13.663 -0.3556 -0.4808 -0.1850
  122MPD2     H 1901   4.021   3.869  13.366 -2.2537  1.8458 -0.6407
  122MPD2    H1 1902   4.340   4.089  13.538  0.5616 -0.4988  0.1806
  122MPD2    H2 1903   4.077   3.887  13.793 -0.0295 -1.7225  0.3007
  122MPD2    H3 1904   4.284   4.003  13.744 -0.7187 -0.4354  0.1141
  122MPD2     N 1905   4.223   4.022  13.306 -0.2345 -0.1783 -0.5795
  122MPD2    H5 1906   4.295   4.093  13.306  1.6819 -2.1105  0.3480
  122MPD2    N1 1907   3.904   3.802  13.595 -0.8848  0.2514 -0.3211
  122MPD2    H7 1908   3.863   3.765  13.510  1.8275  0.5016 -1.7409
  123TMC2    C1 1909   2.903   2.943  10.532  0.0339 -0.0695  0.5828
  123TMC2    C2 1910   3.016   2.927  10.601  0.1129 -0.2850 -0.1973
  123TMC2    C3 1911   3.120   3.005  10.561 -0.2442  0.0335  0.5734
  123TMC2    C4 1912   2.903   3.010  10.418  0.2684  0.7519 -0.0777
  123TMC2    C5 1913   3.011   3.081  10.373 -0.0503  0.7514  0.1837
  123TMC2    C6 1914   3.120   3.090  10.458 -0.1375  0.0168  0.0349
  123TMC2     C 1915   2.789   2.851  10.563 -0.3580  0.5850 -0.1748
  123TMC2     O 1916   2.780   2.824  10.679  0.0007  0.6313 -0.1333
  123TMC2     H 1917   3.018   2.866  10.690 -1.2713  0.1648  0.1502
  123TMC2    H1 1918   2.809   3.020  10.365 -1.1335 -2.7619  1.7580
  123TMC2    H2 1919   3.207   3.149  10.433  0.1077 -1.2023 -2.0297
  123TMC2    C7 1920   3.038   3.051  10.233  0.1281  0.6222 -0.2669
  123TMC2    C8 1921   3.239   2.989  10.638  0.3974 -0.7163 -0.6514
  123TMC2    O1 1922   2.987   2.951  10.185  0.0611 -0.3944 -0.3727
  123TMC2    O2 1923   3.307   3.081  10.675 -0.8225 -0.6542 -0.1695
  123TMC2    O5 1924   3.253   2.858  10.667 -0.2779  0.3971  0.7307
  123TMC2    H5 1925   3.225   2.810  10.586  0.8906 -0.8125  1.0346
  124MPD2     C 1926   2.446   2.496  10.397 -0.8018 -0.4512  0.7670
  124MPD2    C1 1927   2.469   2.588  10.301 -0.3325 -0.8179 -0.5600
  124MPD2    C2 1928   2.564   2.690  10.322  0.3001  0.4671  0.0534
  124MPD2    C3 1929   2.622   2.713  10.440 -0.1666  0.0363 -0.1789
  124MPD2    C4 1930   2.592   2.620  10.544 -0.7245  0.7121  0.0748
  124MPD2    C5 1931   2.506   2.519  10.516  0.0103 -0.5712  0.4534
  124MPD2     H 1932   2.598   2.756  10.244 -0.4726  2.7940  1.6882
  124MPD2    H1 1933   2.629   2.615  10.645  1.7919  2.0799 -0.7812
  124MPD2    H2 1934   2.383   2.409  10.381 -2.2070  0.7830 -0.4637
  124MPD2    H3 1935   2.483   2.450  10.595  0.7729 -0.2917  0.9197
  124MPD2     N 1936   2.719   2.815  10.450  0.1443 -0.2241 -0.3784
  124MPD2    H5 1937   2.728   2.875  10.368 -1.5534  0.8056  0.2068
  124MPD2    N1 1938   2.396   2.568  10.181  0.1243  0.1681 -0.1596
  124MPD2    H7 1939   2.325   2.496  10.178  1.2860 -0.9628 -0.5715
  125TMC2    C1 1940   4.196   0.046   8.530  0.9536 -1.1713  0.4334
  125TMC2    C2 1941   4.232   0.070   8.401  0.6504 -0.4849 -0.0782
  125TMC2    C3 1942   4.359   0.026   8.363  0.2568 -0.3484  0.1407
  125TMC2    C4 1943   4.284   4.724   8.624 -0.6170 -0.2190  0.1054
  125TMC2    C5 1944   4.399   4.675   8.575  0.3203  0.1282 -0.1107
  125TMC2    C6 1945   4.444   4.703   8.447 -0.2765  0.0208  0.7439
  125TMC2     C 1946   4.078   0.111   8.575  0.2068 -0.2222 -0.5830
  125TMC2     O 1947   3.989   0.126   8.489  0.0746 -0.1147  0.0941
  125TMC2     H 1948   4.172   0.135   8.337  0.6643 -1.0671 -0.6837
  125TMC2    H1 1949   4.245   4.690   8.719  0.4559  1.6174  1.1847
  125TMC2    H2 1950   4.548   4.685   8.422  0.3636  1.7764  2.2022
  125TMC2    C7 1951   4.504   4.624   8.663  0.0545 -0.1755 -0.0792
  125TMC2    C8 1952   4.412   0.055   8.231 -0.1094 -0.4415  0.5052
  125TMC2    O1 1953   4.622   4.635   8.625  0.0048  0.4366  0.0562
  125TMC2    O2 1954   4.518   0.110   8.218 -0.0747 -0.5144  0.3432
  125TMC2    O5 1955   4.309   0.067   8.148 -0.4597 -0.0873 -0.4408
  125TMC2    H5 1956   4.238   0.003   8.167  0.8567 -1.0006  1.5220
  126MPD1     C 1957   3.904   0.504   8.849 -1.0699 -0.1058 -0.1191
  126MPD1    C1 1958   4.018   0.454   8.913  0.0788 -0.1043 -0.0527
  126MPD1    C2 1959   4.075   0.344   8.858 -0.2749  0.1390 -0.0786
  126MPD1    C3 1960   4.029   0.285   8.740 -0.2746  0.0303  0.0807
  126MPD1    C4 1961   3.915   0.334   8.675  0.5450 -0.8163  0.0965
  126MPD1    C5 1962   3.848   0.436   8.736 -0.4367  0.7800  0.3626
  126MPD1     H 1963   4.171   0.310   8.896 -1.4989 -0.3755  2.5620
  126MPD1    H1 1964   3.874   0.284   8.588 -2.1934  0.6261  0.5511
  126MPD1    H2 1965   3.845   0.587   8.888 -0.3724 -1.2994  3.4462
  126MPD1    H3 1966   3.752   0.463   8.694 -1.1563 -0.3772  1.2639
  126MPD1     N 1967   4.105   0.167   8.698 -0.1789 -0.7543 -0.5062
  126MPD1    H5 1968   4.188   0.153   8.755  0.2346  0.5066 -0.7928
  126MPD1    N1 1969   4.079   0.523   9.017  0.1998 -0.1210  0.9958
  126MPD1    H6 1970   4.140   0.466   9.075  0.9775 -1.2972 -0.9740
  126MPD1    H7 1971   4.016   0.566   9.084 -1.7507 -1.9287  0.3351
  127TMC2    C1 1972   4.663   2.857   9.520 -0.8533 -0.5736 -0.0302
  127TMC2    C2 1973   4.701   2.746   9.592  0.0372 -0.3888 -0.3360
  127TMC2    C3 1974   4.603   2.656   9.611  0.0435  0.1903  1.1744
  127TMC2    C4 1975   4.533   2.874   9.482  0.2898  0.3061 -0.2853
  127TMC2    C5 1976   4.439   2.783   9.507 -0.8460 -0.7458 -0.1082
  127TMC2    C6 1977   4.472   2.664   9.565 -0.6493 -0.6003 -0.1149
  127TMC2     C 1978   0.015   2.970   9.505  0.5692  0.1639  0.9480
  127TMC2     O 1979   0.118   2.969   9.575 -0.1034  0.4196 -0.3399
  127TMC2     H 1980   0.066   2.734   9.628 -0.1768  0.8795  0.6913
  127TMC2    H1 1981   4.516   2.971   9.436 -1.1535 -1.1067 -2.7182
  127TMC2    H2 1982   4.394   2.590   9.576 -1.1845 -0.2193 -1.3509
  127TMC2    C7 1983   4.299   2.833   9.519 -0.3236  0.3112  0.2295
  127TMC2    C8 1984   4.624   2.544   9.689 -0.4842  0.3580 -0.1772
  127TMC2    O1 1985   4.290   2.951   9.539  0.3813  0.0950  0.1035
  127TMC2    O2 1986   4.556   2.443   9.668  0.1538 -0.2044  0.3099
  127TMC2    O5 1987   4.719   2.563   9.781  0.2060 -0.4196 -0.5490
  127TMC2    H5 1988   4.727   2.654   9.815 -0.0641 -0.4175 -0.4952
  128MPD2     C 1989   0.060   3.202   9.228  0.5446  0.1540 -0.3050
  128MPD2    C1 1990   0.081   3.149   9.351  0.0200  0.7946 -0.2508
  128MPD2    C2 1991   0.177   3.200   9.430 -0.2640  0.0591  0.1650
  128MPD2    C3 1992   0.258   3.298   9.380  0.7224 -0.4623  0.0672
  128MPD2    C4 1993   0.242   3.343   9.255 -0.5635  0.5113 -1.0280
  128MPD2    C5 1994   0.147   3.292   9.179 -0.5626  0.2011  0.0829
  128MPD2     H 1995   0.196   3.184   9.536 -0.0153  1.3214  0.3143
  128MPD2    H1 1996   0.309   3.415   9.211 -1.2632  0.5315 -2.0548
  128MPD2    H2 1997   4.713   3.167   9.168 -0.3575  0.0401  0.9996
  128MPD2    H3 1998   0.149   3.316   9.073 -3.7266 -1.8123 -0.4262
  128MPD2     N 1999   0.348   3.363   9.471 -0.0782  0.2213  0.0448
  128MPD2    H5 2000   0.341   3.339   9.569  1.0327 -2.3474 -0.5044
  128MPD2    N1 2001   4.735   3.037   9.391  0.0965  0.0969  0.5206
  128MPD2    H7 2002   4.667   3.003   9.323  0.5466 -0.7165  0.4765
  129TMC2    C1 2003   3.284   2.933   1.267 -0.2827  0.6257 -0.2119
  129TMC2    C2 2004   3.341   2.939   1.394  0.4255  0.7060 -0.4209
  129TMC2    C3 2005   3.275   2.875   1.491  0.3435 -0.3995  0.3606
  129TMC2    C4 2006   3.162   2.876   1.243 -0.1330  0.3270  0.1896
  129TMC2    C5 2007   3.102   2.811   1.349  0.4020 -0.5431 -0.5802
  129TMC2    C6 2008   3.153   2.815   1.474  0.2435  0.0471  0.3051
  129TMC2     C 2009   3.358   2.965   1.140 -0.8397  0.4635 -0.7973
  129TMC2     O 2010   3.307   2.948   1.031  0.1376 -0.7093  0.2811
  129TMC2     H 2011   3.447   2.961   1.404  0.7899 -0.2661 -2.1050
  129TMC2    H1 2012   3.126   2.866   1.141  2.0390  0.9792 -0.6562
  129TMC2    H2 2013   3.092   2.769   1.551 -2.4814 -0.1466 -1.9776
  129TMC2    C7 2014   2.989   2.729   1.321  0.5100  0.0371 -0.7003
  129TMC2    C8 2015   3.339   2.847   1.617  0.4600  0.7126 -0.6204
  129TMC2    O1 2016   2.909   2.777   1.244 -0.1324  0.4607  0.5466
  129TMC2    O2 2017   3.456   2.808   1.619  0.0595 -0.6430  0.3885
  129TMC2    O5 2018   3.285   2.950   1.684 -0.0073  0.1563  0.1510
  129TMC2    H5 2019   3.199   2.976   1.646 -0.4868 -2.7412 -0.7050
  130MPD2     C 2020   3.563   2.984   0.929  0.7661 -0.3838 -0.0317
  130MPD2    C1 2021   3.572   3.048   1.049  0.1403 -0.1455 -0.2833
  130MPD2    C2 2022   3.656   3.156   1.069 -0.1441  0.2561  0.5686
  130MPD2    C3 2023   3.728   3.212   0.971 -0.2409  0.5085  0.4558
  130MPD2    C4 2024   3.719   3.150   0.846  0.5815  0.0035  0.4475
  130MPD2    C5 2025   3.640   3.032   0.834  0.0024 -1.2775  0.3732
  130MPD2     H 2026   3.647   3.205   1.166  0.4556 -1.9851  1.7595
  130MPD2    H1 2027   3.781   3.174   0.760  1.0950  1.7402  1.3154
  130MPD2    H2 2028   3.505   2.893   0.921 -0.7724  0.6851 -0.9177
  130MPD2    H3 2029   3.640   2.984   0.737  1.4364 -0.1280 -0.1983
  130MPD2     N 2030   3.818   3.319   1.001  0.7627 -0.0406 -0.4812
  130MPD2    H5 2031   3.813   3.355   1.096  1.6758  0.2817 -0.5570
  130MPD2    N1 2032   3.484   3.022   1.155 -0.3114  0.3742 -0.0376
  130MPD2    H7 2033   3.504   3.062   1.246  1.3102 -1.1217  0.2635
  131TMC2    C1 2034   2.838   3.253   9.855 -0.3821  0.4090 -0.3173
  131TMC2    C2 2035   2.873   3.253   9.986 -0.2742  0.0096 -0.0701
  131TMC2    C3 2036   2.901   3.372  10.043 -0.1435  0.5367  0.3544
  131TMC2    C4 2037   2.838   3.364   9.775 -0.5850  0.5109 -0.7587
  131TMC2    C5 2038   2.856   3.481   9.838 -0.0005 -0.0374  0.3165
  131TMC2    C6 2039   2.892   3.484   9.969 -0.3503 -0.2337  0.5912
  131TMC2     C 2040   2.801   3.122   9.803 -0.1791 -0.0523 -0.0510
  131TMC2     O 2041   2.786   3.039   9.891 -0.5215 -0.2538  0.4245
  131TMC2     H 2042   2.862   3.170  10.055 -0.5159 -0.4469 -0.6587
  131TMC2    H1 2043   2.828   3.369   9.667  0.5710  0.2839 -0.8748
  131TMC2    H2 2044   2.918   3.581  10.009 -2.2517  1.1866 -1.6413
  131TMC2    C7 2045   2.850   3.603   9.762 -0.8067 -0.5117  0.1290
  131TMC2    C8 2046   2.914   3.384  10.186  0.1330 -0.4870 -0.2034
  131TMC2    O1 2047   2.848   3.591   9.642  0.6366  0.2444  0.0549
  131TMC2    O2 2048   2.843   3.344  10.276  0.3449 -0.2670  0.4858
  131TMC2    O5 2049   3.023   3.454  10.205  0.4917  0.8785 -0.2812
  131TMC2    H5 2050   3.074   3.474  10.123  0.5076 -3.9530 -1.4319
  132MPD2     C 2051   2.742   2.995   9.449  0.5226 -0.2316 -0.3091
  132MPD2    C1 2052   2.723   3.009   9.586  0.4912 -0.1393  0.3911
  132MPD2    C2 2053   2.625   2.935   9.647 -1.0359 -0.0999  0.2134
  132MPD2    C3 2054   2.547   2.844   9.585  0.1033  0.1938  0.3099
  132MPD2    C4 2055   2.575   2.819   9.458  1.0990 -0.2742 -0.6360
  132MPD2    C5 2056   2.659   2.901   9.384  0.7138 -0.2740  0.6119
  132MPD2     H 2057   2.612   2.951   9.753 -0.5513  1.5565  0.0230
  132MPD2    H1 2058   2.506   2.759   9.399 -0.2521  0.9009 -0.2351
  132MPD2    H2 2059   2.816   3.054   9.396  1.6645 -0.9149  0.5124
  132MPD2    H3 2060   2.659   2.900   9.275  2.0745  0.9677  0.6129
  132MPD2     N 2061   2.459   2.775   9.668  0.0963  0.2829  0.2268
  132MPD2    H5 2062   2.466   2.789   9.768  1.1130 -0.2576  0.2301
  132MPD2    N1 2063   2.790   3.111   9.665 -0.1047 -0.4770  0.6648
  132MPD2    H7 2064   2.855   3.175   9.622 -0.2839  0.1721  1.3574
  133TMC2    C1 2065   2.213   4.098   9.507 -0.4673 -0.6206 -0.4134
  133TMC2    C2 2066   2.185   4.160   9.624 -0.1454  0.0617 -0.0371
  133TMC2    C3 2067   2.293   4.233   9.676  0.2168  0.2413  0.0485
  133TMC2    C4 2068   2.336   4.102   9.446  0.4532 -0.0009 -0.3041
  133TMC2    C5 2069   2.439   4.171   9.506  0.0510  0.3000  0.5804
  133TMC2    C6 2070   2.420   4.228   9.631  0.7473 -0.5824  0.2237
  133TMC2     C 2071   2.099   4.040   9.447  0.3879  0.2147 -0.0557
  133TMC2     O 2072   2.109   3.926   9.399  0.3530 -0.0164  0.3524
  133TMC2     H 2073   2.095   4.163   9.685 -0.9377 -1.7043 -1.1258
  133TMC2    H1 2074   2.349   4.049   9.352 -1.0991 -0.3433 -0.3345
  133TMC2    H2 2075   2.489   4.293   9.686  0.0998  0.1880  0.1239
  133TMC2    C7 2076   2.560   4.175   9.437 -0.0351 -0.3763  0.0797
  133TMC2    C8 2077   2.257   4.334   9.782  0.0593 -0.2607  0.7590
  133TMC2    O1 2078   2.593   4.082   9.359  0.1423 -0.4234 -0.5640
  133TMC2    O2 2079   2.140   4.370   9.801  0.3822  1.1085 -0.6450
  133TMC2    O5 2080   2.337   4.299   9.886 -0.0282  0.1276 -0.1704
  133TMC2    H5 2081   2.408   4.237   9.857 -0.2764  1.0173 -2.6964
  134MPD2     C 2082   1.776   4.192   9.413 -0.0007  0.1880 -0.2442
  134MPD2    C1 2083   1.865   4.084   9.425  0.4312 -0.2665  0.1296
  134MPD2    C2 2084   1.826   3.953   9.393  0.8564  0.6197 -0.4433
  134MPD2    C3 2085   1.695   3.937   9.336 -0.5326  0.3544  0.2059
  134MPD2    C4 2086   1.610   4.053   9.305 -0.3534 -0.7699  0.1216
  134MPD2    C5 2087   1.656   4.174   9.348  0.0046  0.3278 -0.0980
  134MPD2     H 2088   1.894   3.872   9.417  0.3907  0.5734  0.7041
  134MPD2    H1 2089   1.512   4.041   9.261 -0.1458  0.8758 -0.7767
  134MPD2    H2 2090   1.798   4.295   9.439  1.2527 -0.0483 -0.3532
  134MPD2    H3 2091   1.600   4.261   9.315 -0.0935  0.1479 -0.4125
  134MPD2     N 2092   1.652   3.812   9.290 -0.1309  0.5058  0.2380
  134MPD2    H5 2093   1.569   3.816   9.231 -0.0990 -0.7829  0.1112
  134MPD2    N1 2094   1.990   4.116   9.483  0.2830 -0.0826 -0.6134
  134MPD2    H7 2095   1.993   4.201   9.538  0.2706  0.1483 -0.9712
  135TMC2    C1 2096   3.997   4.568   9.907 -0.7916  0.5800 -0.6833
  135TMC2    C2 2097   4.068   4.453   9.866  0.2182 -1.2653  0.3972
  135TMC2    C3 2098   4.046   4.337   9.942 -0.0364 -0.7486  0.5685
  135TMC2    C4 2099   3.895   4.558   9.996 -0.2767 -0.6635 -0.6877
  135TMC2    C5 2100   3.886   4.439  10.065 -0.1946 -0.3296  0.9171
  135TMC2    C6 2101   3.957   4.327  10.040 -0.1848 -0.2094 -0.5386
  135TMC2     C 2102   3.995   4.683   9.815  0.1677 -0.1017  0.4005
  135TMC2     O 2103   3.908   0.029   9.846 -0.6940  0.2657  0.0015
  135TMC2     H 2104   4.144   4.449   9.788  0.9218  1.0220  0.9685
  135TMC2    H1 2105   3.835   4.643  10.026  1.4484  0.3948 -0.1754
  135TMC2    H2 2106   3.917   4.232  10.075 -2.3119  0.9609  0.1661
  135TMC2    C7 2107   3.784   4.431  10.166 -0.0805  0.1245 -0.0139
  135TMC2    C8 2108   4.113   4.214   9.887 -0.4266 -0.0256  0.1447
  135TMC2    O1 2109   3.712   4.532  10.179  0.4831  0.9161 -0.1115
  135TMC2    O2 2110   4.189   4.227   9.791  0.0336 -0.1988  0.8717
  135TMC2    O5 2111   4.148   4.141   9.995 -0.2349 -0.4985 -0.5715
  135TMC2    H5 2112   4.110   4.159  10.083 -1.3483 -0.6683 -1.0164
  136MPD2     C 2113   3.988   0.131   9.580  0.2859  0.3960  0.2859
  136MPD2    C1 2114   4.084   0.033   9.593  0.3795  0.4332  0.2527
  136MPD2    C2 2115   4.190   0.023   9.499  0.4242 -0.2373 -0.7022
  136MPD2    C3 2116   4.192   0.115   9.398  0.1150  0.1705  0.3159
  136MPD2    C4 2117   4.099   0.213   9.394  0.2316  0.8641  0.6830
  136MPD2    C5 2118   3.999   0.224   9.481  0.4051 -0.0484 -0.3763
  136MPD2     H 2119   4.261   4.678   9.508  0.6265  0.0399  0.1345
  136MPD2    H1 2120   4.105   0.292   9.319 -0.9449 -0.2415 -0.5835
  136MPD2    H2 2121   3.907   0.135   9.652 -0.9139  2.3039 -1.1585
  136MPD2    H3 2122   3.925   0.300   9.460 -1.0162 -1.4844 -0.6004
  136MPD2     N 2123   4.294   0.123   9.301  0.8607 -0.5984  0.2482
  136MPD2    H5 2124   4.283   0.193   9.229 -2.7360 -1.5343 -0.1319
  136MPD2    N1 2125   4.075   4.675   9.695 -0.3535  0.8200  0.8867
  136MPD2    H7 2126   4.142   4.599   9.699 -0.7541  0.5706  2.5763
  137TMC2    C1 2127   4.154   3.919   9.526 -0.4138 -0.7799  0.0914
  137TMC2    C2 2128   4.237   3.929   9.415 -0.6390  0.3640  0.8228
  137TMC2    C3 2129   4.218   4.037   9.340 -0.2326 -0.9145  0.0440
  137TMC2    C4 2130   4.080   4.023   9.573  0.8538 -0.5566  0.2040
  137TMC2    C5 2131   4.060   4.128   9.490 -0.1993  0.5667 -0.3690
  137TMC2    C6 2132   4.128   4.140   9.374  0.5148  0.0304  0.1842
  137TMC2     C 2133   4.134   3.786   9.588 -0.2453  0.5421 -0.5903
  137TMC2     O 2134   4.102   3.773   9.706  0.0256  0.4177  0.0217
  137TMC2     H 2135   4.310   3.858   9.378  0.0703  1.6735 -0.2877
  137TMC2    H1 2136   4.027   4.006   9.666  1.3044  0.2494  0.6049
  137TMC2    H2 2137   4.089   4.218   9.310 -0.2718  1.8116  2.8461
  137TMC2    C7 2138   3.973   4.241   9.523  0.1102  0.1018 -0.7315
  137TMC2    C8 2139   4.294   4.041   9.220 -0.2678 -0.3035  0.0501
  137TMC2    O1 2140   3.999   4.346   9.465  0.0822 -0.4229 -0.2385
  137TMC2    O2 2141   4.410   3.994   9.219 -0.5702  0.3472 -0.1437
  137TMC2    O5 2142   4.233   4.104   9.118  0.3714 -0.0508 -0.0808
  137TMC2    H5 2143   4.140   4.136   9.124 -0.7989 -3.5612  0.4609
  138MPD2     C 2144   4.067   3.470   9.422 -0.1176 -0.6767 -0.8782
  138MPD2    C1 2145   4.119   3.547   9.523  0.0866 -0.3341  0.1467
  138MPD2    C2 2146   4.137   3.491   9.648 -0.1373  0.3058  0.8100
  138MPD2    C3 2147   4.087   3.367   9.676 -0.5848  0.3796  0.2138
  138MPD2    C4 2148   4.018   3.295   9.584 -0.8291  0.2879  0.3269
  138MPD2    C5 2149   4.017   3.348   9.456  0.2508  0.2651 -0.3079
  138MPD2     H 2150   4.190   3.539   9.729  0.4301 -1.1503  1.2858
  138MPD2    H1 2151   3.964   3.203   9.599 -1.7115  0.7051 -0.3085
  138MPD2    H2 2152   4.057   3.506   9.320 -2.7340 -0.6899 -0.6198
  138MPD2    H3 2153   3.974   3.297   9.370 -0.7995  0.5968  0.0233
  138MPD2     N 2154   4.116   3.317   9.810 -0.2276 -0.6210 -0.1493
  138MPD2    H5 2155   4.158   3.376   9.881  0.3821 -2.5832  1.1228
  138MPD2    N1 2156   4.150   3.688   9.495 -0.8944 -0.6449  0.5287
  138MPD2    H7 2157   4.157   3.716   9.398  0.3445  0.3887  0.9223
  139TMC2    C1 2158   4.138   1.722  13.496 -0.4477 -0.2237 -0.3493
  139TMC2    C2 2159   4.220   1.827  13.501  0.4324  0.1452  0.4647
  139TMC2    C3 2160   4.175   1.947  13.550  0.3727 -0.0902 -0.3164
  139TMC2    C4 2161   4.007   1.730  13.544 -0.4912  0.2765  0.5200
  139TMC2    C5 2162   3.969   1.856  13.580  0.6034  0.0581  0.1394
  139TMC2    C6 2163   4.046   1.967  13.576 -0.2241 -0.0269  0.3139
  139TMC2     C 2164   4.178   1.599  13.437 -1.3062  0.1432  0.1054
  139TMC2     O 2165   4.249   1.607  13.338  0.1091 -0.1141  0.0750
  139TMC2     H 2166   4.315   1.818  13.451  0.9823  1.3555  1.3040
  139TMC2    H1 2167   3.929   1.657  13.524 -0.0591  0.1997 -0.8891
  139TMC2    H2 2168   4.010   2.057  13.622 -1.7639  0.1434 -1.2385
  139TMC2    C7 2169   3.846   1.864  13.656  0.2536 -0.1748 -0.0578
  139TMC2    C8 2170   4.256   2.066  13.525  0.4292  0.3397 -0.5830
  139TMC2    O1 2171   3.783   1.972  13.657 -0.3826 -0.1386 -0.5162
  139TMC2    O2 2172   4.220   2.182  13.513 -0.0560  0.3953 -0.8409
  139TMC2    O5 2173   4.377   2.034  13.561  0.3034  0.3591 -0.0097
  139TMC2    H5 2174   4.390   1.942  13.591 -1.3483  0.4175  0.8746
  140MPD2     C 2175   4.106   1.281  13.576 -0.0010  0.1793 -0.1993
  140MPD2    C1 2176   4.186   1.360  13.499  0.5255  1.0897  0.0561
  140MPD2    C2 2177   4.311   1.321  13.453 -0.0464  0.0302  0.1950
  140MPD2    C3 2178   4.342   1.186  13.466  0.2972  0.1415  0.1005
  140MPD2    C4 2179   4.257   1.104  13.541 -0.2840  0.2092 -0.2804
  140MPD2    C5 2180   4.146   1.152  13.602 -0.1384  0.2730 -0.2560
  140MPD2     H 2181   4.370   1.399  13.406  1.4898 -1.8516 -1.0149
  140MPD2    H1 2182   4.281   0.999  13.556  2.3826  0.9104  0.3370
  140MPD2    H2 2183   4.012   1.317  13.617 -0.7408  0.2946 -1.9675
  140MPD2    H3 2184   4.081   1.087  13.659  1.0564  0.8299  1.7247
  140MPD2     N 2185   4.468   1.147  13.424  0.2150  0.1970 -0.3435
  140MPD2    H5 2186   4.528   1.224  13.397 -0.4942  0.8136 -0.1753
  140MPD2    N1 2187   4.138   1.492  13.510 -0.4433 -0.2130  0.3149
  140MPD2    H7 2188   4.081   1.514  13.590 -0.1744 -0.7497  0.6539
  141TMC2    C1 2189   4.670   3.179  13.623  0.1255 -0.4537 -0.0021
  141TMC2    C2 2190   4.718   3.096  13.722  0.8297  0.7947 -0.1549
  141TMC2    C3 2191   4.658   3.107  13.849 -0.3999 -0.1053  0.7365
  141TMC2    C4 2192   4.567   3.266  13.649  0.2336  0.5329  0.4235
  141TMC2    C5 2193   4.510   3.263  13.772  0.1019  0.1207  0.6725
  141TMC2    C6 2194   4.556   3.186  13.871  0.2170  0.1824  0.0256
  141TMC2     C 2195   4.726   3.177  13.487  0.0536 -0.0705  0.1072
  141TMC2     O 2196   0.018   3.277  13.423  0.0768 -0.6881 -0.6647
  141TMC2     H 2197   0.052   3.015  13.711  1.4574  1.2529  0.5198
  141TMC2    H1 2198   4.536   3.338  13.574  0.5646 -0.7676 -0.9690
  141TMC2    H2 2199   4.501   3.179  13.964  3.0452 -1.2993  1.6093
  141TMC2    C7 2200   4.386   3.332  13.792 -0.2380  0.5191  0.3134
  141TMC2    C8 2201   4.684   2.994  13.936 -0.5301  0.6194  0.9741
  141TMC2    O1 2202   4.291   3.308  13.717 -0.2738 -0.0292  0.0373
  141TMC2    O2 2203   4.734   2.889  13.908  0.0116  0.5555  0.1081
  141TMC2    O5 2204   4.695   3.038  14.067 -0.1999  0.1032  0.3063
  141TMC2    H5 2205   4.662   3.129  14.081  1.3288  1.2395 -3.3626
  142TMC2    C1 2206   2.833   2.631   9.582 -0.2057 -0.0326  0.5406
  142TMC2    C2 2207   2.885   2.610   9.456  0.9701  0.9261 -0.0061
  142TMC2    C3 2208   2.996   2.684   9.431  0.4080  0.2205 -0.3006
  142TMC2    C4 2209   2.877   2.721   9.674  0.0460  0.7058 -0.6075
  142TMC2    C5 2210   2.986   2.790   9.631  0.5164 -0.1549  0.1396
  142TMC2    C6 2211   3.048   2.778   9.504  0.4962 -0.3156  0.0255
  142TMC2     C 2212   2.736   2.521   9.610  0.0775 -0.5903 -0.1958
  142TMC2     O 2213   2.685   2.460   9.516 -0.1197 -0.0606 -0.2992
  142TMC2     H 2214   2.843   2.543   9.381  1.4094  0.0129  0.5578
  142TMC2    H1 2215   2.829   2.733   9.770 -1.0414  0.1763 -1.0981
  142TMC2    H2 2216   3.132   2.842   9.476  1.7577 -1.2340  1.7183
  142TMC2    C7 2217   3.049   2.860   9.741  0.6835  0.2725  0.2191
  142TMC2    C8 2218   3.070   2.655   9.313  0.1151  0.3176  0.4724
  142TMC2    O1 2219   3.029   2.807   9.852  0.4556  0.6802 -0.4494
  142TMC2    O2 2220   3.106   2.751   9.248  0.0238 -0.1171  0.0917
  142TMC2    O5 2221   3.088   2.528   9.296  0.2418  0.1472  0.2681
  142TMC2    H5 2222   3.055   2.472   9.369 -1.5590  0.1230 -0.5502
  143MPD2     C 2223   2.541   2.222   9.971  0.6603  0.1310  0.4237
  143MPD2    C1 2224   2.534   2.208   9.836  0.1852 -0.0998 -0.1982
  143MPD2    C2 2225   2.581   2.313   9.759 -0.2950  0.3531 -0.4536
  143MPD2    C3 2226   2.653   2.409   9.819 -0.2193  0.3888 -0.7742
  143MPD2    C4 2227   2.663   2.414   9.953 -0.1542 -0.5381  0.4822
  143MPD2    C5 2228   2.596   2.329  10.030  0.0098 -0.2250 -0.0191
  143MPD2     H 2229   2.565   2.309   9.652  0.4371  1.4267 -0.6050
  143MPD2    H1 2230   2.726   2.488  10.001  0.0973  0.3237 -1.2039
  143MPD2    H2 2231   2.503   2.146  10.038  0.2625 -0.0554 -0.0168
  143MPD2    H3 2232   2.592   2.345  10.137  1.4947  0.2486 -0.0299
  143MPD2     N 2233   2.723   2.504   9.748  0.7002 -0.6682  0.0944
  143MPD2    H5 2234   2.784   2.560   9.806 -1.2362  1.1837  0.3572
  143MPD2    N1 2235   2.476   2.085   9.790 -0.1670 -0.5443  0.4124
  143MPD2    H7 2236   2.450   2.018   9.861  0.9804  0.6595  1.9766
  144TMC2    C1 2237   0.527   0.863   0.724  0.1697 -0.0625 -0.4086
  144TMC2    C2 2238   0.617   0.761   0.702 -0.1310 -0.1210  0.0158
  144TMC2    C3 2239   0.738   0.782   0.758  0.5143 -0.5220 -0.3599
  144TMC2    C4 2240   0.551   0.966   0.809 -0.0263 -0.3042 -0.6347
  144TMC2    C5 2241   0.675   0.979   0.855  0.1474 -0.0327 -0.1491
  144TMC2    C6 2242   0.765   0.886   0.840 -0.8567 -0.3032 -0.0196
  144TMC2     C 2243   0.415   0.853   0.637 -0.5880 -0.1410 -0.3181
  144TMC2     O 2244   0.395   0.750   0.575 -0.2766 -0.2060  0.0311
  144TMC2     H 2245   0.589   0.674   0.643 -1.9297 -1.3350  2.6586
  144TMC2    H1 2246   0.479   1.047   0.811 -1.7794 -1.9488  2.6212
  144TMC2    H2 2247   0.867   0.902   0.872 -0.4146 -2.0958 -0.5286
  144TMC2    C7 2248   0.726   1.112   0.899 -0.2564 -0.1133  0.8395
  144TMC2    C8 2249   0.830   0.676   0.730  0.0568  0.4502 -0.2469
  144TMC2    O1 2250   0.846   1.130   0.879  0.1822  0.0427  0.2837
  144TMC2    O2 2251   0.789   0.561   0.728 -0.1974 -0.0887 -0.0171
  144TMC2    O5 2252   0.948   0.720   0.769  0.1409 -0.2937 -0.4309
  144TMC2    H5 2253   0.952   0.813   0.738 -0.7667  0.0633  0.5139
  145MPD2     C 2254   0.023   1.040   0.381 -0.2995  0.5554 -0.4704
  145MPD2    C1 2255   0.047   0.910   0.414  0.2420 -0.0533  0.3776
  145MPD2    C2 2256   0.148   0.886   0.504 -0.1273  0.3739  0.9109
  145MPD2    C3 2257   0.224   0.989   0.558  0.8399 -0.3597  0.3424
  145MPD2    C4 2258   0.192   1.117   0.524  0.5930 -0.2911 -0.5507
  145MPD2    C5 2259   0.097   1.140   0.434  1.0798 -0.7738  0.0199
  145MPD2     H 2260   0.160   0.784   0.541 -0.2400  0.4326  1.1088
  145MPD2    H1 2261   0.249   1.201   0.563 -1.2878  0.2034  1.0721
  145MPD2    H2 2262   4.673   1.069   0.321  0.7472  0.9469 -1.8026
  145MPD2    H3 2263   0.074   1.241   0.401  2.8497  0.4140  2.5001
  145MPD2     N 2264   0.344   0.968   0.628 -0.5898  0.1794  0.0680
  145MPD2    H5 2265   0.381   1.052   0.672  1.1147 -0.4202 -0.2236
  145MPD2    N1 2266   4.695   0.801   0.383  0.6156 -0.0610 -0.4457
  145MPD2    H7 2267   4.727   0.716   0.428 -1.1902  0.5000  1.8734
  146TMC2    C1 2268   1.621   4.328  12.018  0.8075  0.6778  0.1899
  146TMC2    C2 2269   1.561   4.371  11.908  0.2016 -0.5529 -0.0450
  146TMC2    C3 2270   1.589   4.307  11.788 -0.5598 -0.5348  0.8734
  146TMC2    C4 2271   1.710   4.226  12.011  0.8444  0.2962 -0.0828
  146TMC2    C5 2272   1.743   4.178  11.888 -0.3757 -0.1931 -0.2064
  146TMC2    C6 2273   1.688   4.224  11.769  0.7131  0.2494 -0.1444
  146TMC2     C 2274   1.640   4.422  12.127  0.1696  0.6678 -0.0273
  146TMC2     O 2275   1.634   4.543  12.096 -0.4341 -0.2338 -0.0373
  146TMC2     H 2276   1.488   4.450  11.915  2.1649  1.2725 -0.3966
  146TMC2    H1 2277   1.777   4.210  12.095 -0.4481 -3.3671  0.2318
  146TMC2    H2 2278   1.729   4.177  11.680 -1.0966  0.3935 -1.0689
  146TMC2    C7 2279   1.875   4.117  11.875  0.5436 -0.7390 -0.0252
  146TMC2    C8 2280   1.526   4.347  11.663 -0.4524  0.4045 -0.0061
  146TMC2    O1 2281   1.944   4.162  11.780  0.3541  0.1752  0.6896
  146TMC2    O2 2282   1.577   4.336  11.554 -0.0820 -0.1336 -0.1259
  146TMC2    O5 2283   1.400   4.392  11.692 -0.3611 -0.3261 -0.0183
  146TMC2    H5 2284   1.372   4.380  11.786  0.3974  1.8961  0.5037
  147MPD2     C 2285   2.282   3.883  12.077 -0.2769 -0.2114 -0.1572
  147MPD2    C1 2286   2.167   3.868  12.156  0.3124 -0.0008  0.3206
  147MPD2    C2 2287   2.041   3.918  12.126  0.1783 -0.3907 -0.7213
  147MPD2    C3 2288   2.036   3.987  12.011 -0.4467  0.2879  0.3509
  147MPD2    C4 2289   2.146   3.996  11.930 -0.1024 -0.5240  0.3822
  147MPD2    C5 2290   2.270   3.962  11.967 -0.2712 -0.0228  0.1800
  147MPD2     H 2291   1.960   3.899  12.196  1.0304  0.4440  0.4941
  147MPD2    H1 2292   2.140   4.051  11.837  0.9129  1.7789  1.6731
  147MPD2    H2 2293   2.381   3.848  12.105 -1.4168 -2.7224  0.7752
  147MPD2    H3 2294   2.358   3.982  11.907 -0.0711 -0.7720  0.2172
  147MPD2     N 2295   1.904   4.042  11.986 -0.2740  0.3313 -0.5264
  147MPD2    H5 2296   1.832   4.024  12.055  0.1931  1.6910  0.3203
  147MPD2    N1 2297   2.191   3.791  12.273 -0.5097 -0.1436 -0.2627
  147MPD2    H7 2298   2.287   3.786  12.306 -0.7363 -0.3184  0.3704
  148TMC2    C1 2299   2.130   3.110  10.601 -0.4800 -0.5268  0.1579
  148TMC2    C2 2300   2.234   3.146  10.685  0.2964 -0.4569 -0.0065
  148TMC2    C3 2301   2.322   3.057  10.736  0.7719 -0.0691 -0.2710
  148TMC2    C4 2302   2.118   2.978  10.560 -0.2735 -0.0170 -0.6520
  148TMC2    C5 2303   2.220   2.894  10.605 -0.2355  0.2335 -0.4233
  148TMC2    C6 2304   2.313   2.926  10.704 -0.1413  0.6310  0.3860
  148TMC2     C 2305   2.038   3.210  10.536  0.3077  0.1719 -0.1562
  148TMC2     O 2306   2.050   3.327  10.570  0.1142  0.3425 -0.1441
  148TMC2     H 2307   2.238   3.247  10.726  3.7636 -0.0040 -1.4904
  148TMC2    H1 2308   2.040   2.937  10.498 -1.9869  1.7996  0.3134
  148TMC2    H2 2309   2.385   2.855  10.743  1.1130  0.8462 -1.5336
  148TMC2    C7 2310   2.188   2.757  10.577  0.1802  0.3570 -0.2250
  148TMC2    C8 2311   2.417   3.089  10.838  0.1315 -0.0915 -0.4113
  148TMC2    O1 2312   2.131   2.743  10.471 -0.0519 -0.5997 -0.4448
  148TMC2    O2 2313   2.529   3.036  10.836  0.4363  0.1589  0.1397
  148TMC2    O5 2314   2.361   3.141  10.945  0.7467  0.4673 -0.0423
  148TMC2    H5 2315   2.266   3.161  10.931  1.2010  0.6861 -2.8166
  149MPD2     C 2316   1.817   3.343  10.360 -0.6754 -0.2080  0.1496
  149MPD2    C1 2317   1.841   3.209  10.380 -0.8095 -0.1705  0.1366
  149MPD2    C2 2318   1.767   3.119  10.303  0.0808 -0.2486 -0.0218
  149MPD2    C3 2319   1.667   3.156  10.213  0.1047 -0.0475 -0.1248
  149MPD2    C4 2320   1.654   3.291  10.191  0.2464 -0.3333 -0.5038
  149MPD2    C5 2321   1.727   3.382  10.265 -0.7066 -0.0683  0.9559
  149MPD2     H 2322   1.801   3.017  10.312  1.0546  0.2496  2.0484
  149MPD2    H1 2323   1.583   3.329  10.119 -0.7971 -0.0944  0.6328
  149MPD2    H2 2324   1.877   3.424  10.399 -1.2080  0.4317 -0.3654
  149MPD2    H3 2325   1.727   3.488  10.245 -1.0842 -0.5970 -1.8137
  149MPD2     N 2326   1.585   3.064  10.137  0.2388  0.1071 -0.9441
  149MPD2    H5 2327   1.508   3.097  10.080  0.8290  1.5781 -0.8972
  149MPD2    N1 2328   1.946   3.149  10.453 -0.6526 -0.1398  0.0174
  149MPD2    H7 2329   1.957   3.049  10.444 -1.2043 -0.1254 -0.8812
  150TMC2    C1 2330   3.406   1.853  12.465  0.6266  0.2023  0.6835
  150TMC2    C2 2331   3.414   1.933  12.571  0.3072 -0.8397 -0.0268
  150TMC2    C3 2332   3.533   2.005  12.582 -0.1040  0.2081 -0.0244
  150TMC2    C4 2333   3.497   1.857  12.367  0.0511  0.3805 -0.0328
  150TMC2    C5 2334   3.613   1.930  12.375 -1.0450  0.7625 -0.5781
  150TMC2    C6 2335   3.631   2.011  12.478  0.6363  0.6837  0.8164
  150TMC2     C 2336   3.291   1.772  12.449 -0.5428  0.0216  0.4839
  150TMC2     O 2337   3.232   1.734  12.550 -0.3882 -0.7416 -0.6623
  150TMC2     H 2338   3.333   1.924  12.642  0.4256 -2.9089 -0.1648
  150TMC2    H1 2339   3.495   1.778  12.292 -1.3006  0.4264 -0.0615
  150TMC2    H2 2340   3.717   2.076  12.492  0.4193  1.6393 -2.2654
  150TMC2    C7 2341   3.714   1.901  12.280 -0.4276 -0.6833 -0.4484
  150TMC2    C8 2342   3.541   2.108  12.689  0.7937  0.9788  0.5949
  150TMC2    O1 2343   3.674   1.875  12.170  0.4434  0.1093  0.0160
  150TMC2    O2 2344   3.597   2.217  12.688 -0.1152  0.4613  0.2729
  150TMC2    O5 2345   3.481   2.042  12.789  0.2277  0.2550  0.2051
  150TMC2    H5 2346   3.458   1.947  12.778 -0.7101  0.4837  0.1540
  151MPD2     C 2347   2.906   1.646  12.134  0.2054  0.4893 -0.0372
  151MPD2    C1 2348   3.002   1.715  12.066 -0.6513  0.0509  0.5396
  151MPD2    C2 2349   3.120   1.758  12.124 -0.4020 -0.3769 -0.1322
  151MPD2    C3 2350   3.137   1.726  12.256  0.3988  0.2222  1.0041
  151MPD2    C4 2351   3.051   1.648  12.327  0.4645  1.2988 -0.0474
  151MPD2    C5 2352   2.934   1.611  12.261 -0.5828  0.1121  0.1516
  151MPD2     H 2353   3.199   1.809  12.069 -1.0072 -0.9779 -1.5699
  151MPD2    H1 2354   3.063   1.627  12.433  0.8096  0.0229 -0.3390
  151MPD2    H2 2355   2.818   1.600  12.091  0.8864 -1.4184  0.5569
  151MPD2    H3 2356   2.863   1.551  12.318 -2.0884  1.8874  0.1545
  151MPD2     N 2357   3.258   1.779  12.312  0.5663  0.2500 -0.6990
  151MPD2    H5 2358   3.320   1.825  12.246  3.1099 -0.5601  1.1060
  151MPD2    N1 2359   2.978   1.740  11.933  0.8607 -0.3142 -0.5058
  151MPD2    H7 2360   2.900   1.689  11.892  1.7516 -0.2350 -2.3062
  152TMC2    C1 2361   3.806   1.675  12.890  0.1985  0.6550 -0.8766
  152TMC2    C2 2362   3.914   1.592  12.917  0.7821  0.2610 -0.9108
  152TMC2    C3 2363   4.035   1.622  12.866 -0.2084 -0.3025  0.1625
  152TMC2    C4 2364   3.828   1.795  12.829 -0.4800 -0.0177 -0.4877
  152TMC2    C5 2365   3.950   1.821  12.787 -0.0217 -0.0148  0.5941
  152TMC2    C6 2366   4.054   1.742  12.799  0.8589  0.3254 -0.5257
  152TMC2     C 2367   3.690   1.665  12.982 -0.0419  0.2275 -0.4109
  152TMC2     O 2368   3.628   1.770  13.000 -0.0261 -0.5081  0.0314
  152TMC2     H 2369   3.899   1.505  12.980  1.8111 -0.0153 -1.0484
  152TMC2    H1 2370   3.747   1.867  12.822 -0.6001 -0.0066  1.1498
  152TMC2    H2 2371   4.148   1.754  12.747  1.1038  1.1014  0.0865
  152TMC2    C7 2372   3.960   1.932  12.695  0.3341 -0.4017  0.1330
  152TMC2    C8 2373   4.143   1.537  12.910  0.2019  0.8950  0.1147
  152TMC2    O1 2374   3.854   1.977  12.656 -0.3595  0.3343 -0.1454
  152TMC2    O2 2375   4.154   1.479  13.016  0.3578 -0.0124 -0.7832
  152TMC2    O5 2376   4.216   1.500  12.801 -0.6511  0.5379  0.0790
  152TMC2    H5 2377   4.166   1.526  12.721  1.8476  0.4523 -1.4993
  153MPD2     C 2378   3.510   1.375  13.127 -0.5104 -0.9369 -0.1255
  153MPD2    C1 2379   3.536   1.511  13.104  0.3013  0.3245  0.1704
  153MPD2    C2 2380   3.455   1.610  13.167 -0.3388  0.2391 -0.4429
  153MPD2    C3 2381   3.344   1.568  13.240  0.3711 -0.0288 -0.3520
  153MPD2    C4 2382   3.311   1.434  13.250  0.2431  0.6053 -0.7162
  153MPD2    C5 2383   3.393   1.347  13.187 -0.5944  0.3046  0.4775
  153MPD2     H 2384   3.470   1.716  13.148 -0.6041  0.5101  0.9137
  153MPD2    H1 2385   3.238   1.396  13.320  1.1853  2.4001  1.2499
  153MPD2    H2 2386   3.578   1.299  13.091  0.4129  0.0919 -0.5736
  153MPD2    H3 2387   3.367   1.242  13.196  1.0534 -0.1560 -0.1259
  153MPD2     N 2388   3.254   1.668  13.284 -0.0092  0.0296 -0.2052
  153MPD2    H5 2389   3.288   1.763  13.276 -1.8265  0.6488 -0.5525
  153MPD2    N1 2390   3.649   1.540  13.022 -0.1531 -0.4770  0.2894
  153MPD2    H7 2391   3.704   1.467  12.978  0.0671  0.9542 -1.7852
  154TMC2    C1 2392   3.984   2.194   0.553 -0.1310  0.4193  1.0072
  154TMC2    C2 2393   3.866   2.133   0.593 -0.5654 -0.8197 -0.0123
  154TMC2    C3 2394   3.835   2.002   0.554  0.4076 -0.0324 -0.3192
  154TMC2    C4 2395   4.080   2.126   0.483 -0.9828  0.3854 -0.6769
  154TMC2    C5 2396   4.050   1.993   0.464 -0.2257 -0.3500 -0.7057
  154TMC2    C6 2397   3.932   1.930   0.496 -0.6508 -0.4307  0.1349
  154TMC2     C 2398   4.000   2.329   0.600  0.4812  0.0074  0.5898
  154TMC2     O 2399   3.933   2.370   0.692 -0.1523  0.0897 -0.6633
  154TMC2     H 2400   3.800   2.189   0.658 -0.7138 -1.3502  0.2991
  154TMC2    H1 2401   4.174   2.169   0.451 -0.6989  0.6298  0.5038
  154TMC2    H2 2402   3.913   1.830   0.459 -1.5562  0.0195 -0.6079
  154TMC2    C7 2403   4.138   1.928   0.371 -0.0206  0.0278 -0.1923
  154TMC2    C8 2404   3.750   1.924   0.643  0.6416 -0.2208 -0.4406
  154TMC2    O1 2405   4.197   2.003   0.294  0.2714  0.1323 -0.4694
  154TMC2    O2 2406   3.776   1.810   0.678 -0.2863 -0.2897  0.8843
  154TMC2    O5 2407   3.631   1.980   0.631  0.0717 -0.8328  0.2013
  154TMC2    H5 2408   3.624   2.063   0.579  3.2705 -2.0125 -2.1453
  155MPD2     C 2409   4.185   2.615   0.463  0.7496 -0.5417 -0.0772
  155MPD2    C1 2410   4.117   2.545   0.557 -0.3239  0.2668 -0.3127
  155MPD2    C2 2411   4.071   2.622   0.665 -0.1887 -0.4253  0.8186
  155MPD2    C3 2412   4.116   2.748   0.688 -0.6370  0.2406  0.1147
  155MPD2    C4 2413   4.201   2.808   0.601  0.7028  0.0563 -0.6397
  155MPD2    C5 2414   4.221   2.745   0.480 -0.6609  0.2227 -0.6832
  155MPD2     H 2415   4.008   2.580   0.743 -1.7600  0.9261  0.2524
  155MPD2    H1 2416   4.232   2.911   0.610  1.7457 -0.3176  0.1016
  155MPD2    H2 2417   4.226   2.567   0.375 -2.0438 -1.0618 -1.0725
  155MPD2    H3 2418   4.279   2.799   0.406 -0.2419  2.9847  1.6997
  155MPD2     N 2419   4.092   2.809   0.811 -0.7903  0.4359 -0.8143
  155MPD2    H5 2420   4.042   2.762   0.886  0.7235 -0.2780 -0.2483
  155MPD2    N1 2421   4.087   2.405   0.526  0.1188 -0.0615 -0.4173
  155MPD2    H7 2422   4.122   2.371   0.436 -0.1091  1.1852 -0.9681
  156TMC2    C1 2423   3.435   4.310  11.356 -0.3302  0.4224  0.3984
  156TMC2    C2 2424   3.491   4.218  11.279 -0.1812 -0.6109 -0.0632
  156TMC2    C3 2425   3.495   4.247  11.152  0.4691 -0.0557  0.0299
  156TMC2    C4 2426   3.395   4.431  11.318 -0.4014  0.3517  0.2766
  156TMC2    C5 2427   3.397   4.455  11.186  0.1294  0.5651 -0.0280
  156TMC2    C6 2428   3.442   4.359  11.096 -0.3716  0.2724 -0.1104
  156TMC2     C 2429   3.443   4.302  11.496 -0.5851 -0.3529  0.1585
  156TMC2     O 2430   3.352   4.350  11.555 -0.5164  0.2414  0.3058
  156TMC2     H 2431   3.520   4.123  11.322 -1.2998 -0.1265  1.7670
  156TMC2    H1 2432   3.395   4.502  11.400 -0.7460  0.6111  0.0511
  156TMC2    H2 2433   3.422   4.380  10.992  1.0632 -2.6723 -1.0130
  156TMC2    C7 2434   3.387   4.592  11.143  0.3807  0.4975  0.1875
  156TMC2    C8 2435   3.539   4.132  11.068 -0.9613  0.2240 -0.1264
  156TMC2    O1 2436   3.459   4.638  11.056  0.0964  0.5767  0.4455
  156TMC2    O2 2437   3.531   4.015  11.111  0.2545 -0.6179  0.4362
  156TMC2    O5 2438   3.526   4.169  10.937  0.5589  0.2709  0.4354
  156TMC2    H5 2439   3.556   4.262  10.931 -1.3323  0.9080  0.8184
  157MPD2     C 2440   3.744   4.177  11.677 -0.1597 -0.4691 -0.2161
  157MPD2    C1 2441   3.615   4.228  11.657  0.1446  0.2679  0.4448
  157MPD2    C2 2442   3.545   4.268  11.767 -0.1214  0.6523  0.1778
  157MPD2    C3 2443   3.601   4.257  11.889  0.3111  0.9799 -0.5465
  157MPD2    C4 2444   3.730   4.216  11.905  0.3935 -0.6432 -0.1836
  157MPD2    C5 2445   3.801   4.176  11.797  0.2081  0.6386 -0.1330
  157MPD2     H 2446   3.440   4.292  11.756 -0.3240 -0.9420 -1.4683
  157MPD2    H1 2447   3.774   4.199  12.003 -0.9483  0.9470  0.6939
  157MPD2    H2 2448   3.800   4.145  11.590 -0.3879 -0.3350 -0.4141
  157MPD2    H3 2449   3.903   4.140  11.811 -0.0687  0.2407  0.8756
  157MPD2     N 2450   3.523   4.294  12.000 -0.0505 -0.0587  0.1272
  157MPD2    H5 2451   3.434   4.338  11.979  1.2973  2.0551 -1.0874
  157MPD2    N1 2452   3.562   4.242  11.528 -0.1014 -0.6320 -0.1332
  157MPD2    H7 2453   3.627   4.217  11.455  0.0238  2.4740 -1.0875
  158TMC2    C1 2454   3.825   2.807  14.070 -0.0641  0.3605 -0.7972
  158TMC2    C2 2455   3.871   2.932  14.037  0.3804 -0.1699  0.5644
  158TMC2    C3 2456   3.781   3.036  14.002 -0.5016 -0.0347  0.7760
  158TMC2    C4 2457   3.692   2.771  14.061 -1.1494 -0.2529  0.3830
  158TMC2    C5 2458   3.608   2.879  14.041 -0.2049  0.5456 -0.2490
  158TMC2    C6 2459   3.649   3.011  14.023 -0.0539  0.2553 -0.1968
  158TMC2     C 2460   3.921   2.712  14.117  0.0948  0.0002 -0.3978
  158TMC2     O 2461   4.043   2.733  14.102  0.0435  0.6438 -0.3841
  158TMC2     H 2462   3.973   2.958  14.061 -0.9322  2.3580  3.4407
  158TMC2    H1 2463   3.661   2.667  14.069 -2.5157  0.3267  2.4762
  158TMC2    H2 2464   3.577   3.090  14.040 -0.1119  0.1574  0.0117
  158TMC2    C7 2465   3.467   2.856  14.030 -0.3193 -0.2832 -0.2569
  158TMC2    C8 2466   3.836   3.170  14.030 -0.3205  0.5494 -0.7052
  158TMC2    O1 2467   3.404   2.954  13.998  0.8524  0.0629  0.1192
  158TMC2    O2 2468   3.916   3.188  14.121  0.5119 -0.3713  0.2272
  158TMC2    O5 2469   3.732   3.255  14.012  0.5353  0.2304 -0.0513
  158TMC2    H5 2470   3.666   3.218  13.949  1.0536  0.8105 -0.9347
  159MPD2     C 2471   4.045   2.245  14.282  0.0312  0.4867  0.4254
  159MPD2    C1 2472   3.914   2.263  14.309 -0.0350  0.8374 -0.4871
  159MPD2    C2 2473   3.849   2.380  14.264 -0.0957 -0.0340  0.3024
  159MPD2    C3 2474   3.921   2.483  14.200  0.5691 -0.0232  0.6231
  159MPD2    C4 2475   4.062   2.453  14.170  0.5225  0.1828  1.0795
  159MPD2    C5 2476   4.118   2.336  14.220 -0.0201 -0.2000 -0.2070
  159MPD2     H 2477   3.744   2.398  14.287  0.4399  1.2611  1.6934
  159MPD2    H1 2478   4.128   2.515  14.111  1.4899 -1.1660  0.7405
  159MPD2    H2 2479   4.103   2.160  14.315 -3.3767 -2.8365 -2.0267
  159MPD2    H3 2480   4.224   2.313  14.213 -0.6440 -2.7879 -1.2602
  159MPD2     N 2481   3.862   2.600  14.161 -0.7241 -0.3886 -0.3975
  159MPD2    H5 2482   3.762   2.594  14.177 -0.7022 -0.4078 -0.2698
  159MPD2    N1 2483   3.842   2.160  14.368 -0.0462 -0.3585 -0.1264
  159MPD2    H7 2484   3.895   2.077  14.393  1.5355  0.6734 -0.0818
  160TMC2    C1 2485   3.237   0.956   1.548  0.1746 -0.4610  0.8607
  160TMC2    C2 2486   3.182   0.875   1.645 -0.5810 -0.6021  0.1004
  160TMC2    C3 2487   3.275   0.804   1.719 -0.4349 -0.2653  0.6647
  160TMC2    C4 2488   3.367   0.980   1.541  0.1513 -0.2868 -0.5248
  160TMC2    C5 2489   3.448   0.914   1.628 -0.1607  0.4725  0.0715
  160TMC2    C6 2490   3.403   0.821   1.725 -0.0295  0.0947  0.6489
  160TMC2     C 2491   3.145   1.038   1.466 -0.1917  0.3463  0.4021
  160TMC2     O 2492   3.199   1.136   1.419  0.3944 -0.0341 -0.4970
  160TMC2     H 2493   3.076   0.868   1.668 -0.9702  1.7434 -0.9593
  160TMC2    H1 2494   3.409   1.049   1.468 -0.3777 -0.6776 -1.1920
  160TMC2    H2 2495   3.469   0.756   1.781  1.1593  2.7477  2.3567
  160TMC2    C7 2496   3.577   0.875   1.562 -0.1949  0.0782 -0.7211
  160TMC2    C8 2497   3.230   0.697   1.806 -0.4087 -0.4511  0.5505
  160TMC2    O1 2498   3.606   0.760   1.582 -0.2712 -0.0439 -0.3143
  160TMC2    O2 2499   3.298   0.634   1.886  0.2974  0.3438 -0.0463
  160TMC2    O5 2500   3.117   0.640   1.754 -0.0616  0.3841 -0.4473
  160TMC2    H5 2501   3.092   0.670   1.664  2.1192  1.2372 -0.7651
  161MPD2     C 2502   2.829   0.915   1.352 -0.5920  0.0234 -0.1116
  161MPD2    C1 2503   2.932   1.000   1.349 -0.0448 -0.1530  1.1130
  161MPD2    C2 2504   2.930   1.108   1.264  0.1804 -0.4385 -0.1913
  161MPD2    C3 2505   2.827   1.133   1.181 -0.1465 -1.1334 -0.4832
  161MPD2    C4 2506   2.715   1.051   1.193  0.2105 -0.1818  0.5895
  161MPD2    C5 2507   2.718   0.941   1.275 -0.6482  0.2248 -0.2849
  161MPD2     H 2508   3.020   1.169   1.269 -0.3036  0.3785 -1.6100
  161MPD2    H1 2509   2.624   1.074   1.139 -1.4801 -1.9274  2.6970
  161MPD2    H2 2510   2.820   0.818   1.400  0.6989  0.6411  1.3769
  161MPD2    H3 2511   2.632   0.874   1.278 -0.9056  0.6221  0.9914
  161MPD2     N 2512   2.821   1.250   1.104 -0.4182  0.1011  0.7863
  161MPD2    H5 2513   2.740   1.258   1.043 -0.5294  1.0192  1.0436
  161MPD2    N1 2514   3.031   0.973   1.439 -0.0309  0.0107 -0.0425
  161MPD2    H7 2515   3.003   0.888   1.487  0.1125 -0.1896 -0.3144
  162TMC2    C1 2516   1.518   3.052   1.373 -0.1240 -0.4740  0.5871
  162TMC2    C2 2517   1.436   3.109   1.469  0.3695  0.1549  0.5069
  162TMC2    C3 2518   1.498   3.174   1.566 -0.6590  0.2034  0.6057
  162TMC2    C4 2519   1.652   3.071   1.370  0.3956  0.6256 -0.5483
  162TMC2    C5 2520   1.705   3.138   1.473 -1.0521 -0.6047  0.0519
  162TMC2    C6 2521   1.632   3.192   1.577  0.0858  0.5773 -0.3781
  162TMC2     C 2522   1.463   2.980   1.257 -0.1651  0.7192  0.1111
  162TMC2     O 2523   1.530   2.986   1.157  0.1557 -0.0038  0.0446
  162TMC2     H 2524   1.329   3.094   1.461  0.0678  1.6218  1.8173
  162TMC2    H1 2525   1.714   3.042   1.286 -0.0220 -2.1247  0.0747
  162TMC2    H2 2526   1.687   3.240   1.658  1.4471  0.0067 -0.9604
  162TMC2    C7 2527   1.846   3.151   1.491 -0.2321 -0.2042  0.0477
  162TMC2    C8 2528   1.420   3.253   1.652  0.1040 -0.0981 -0.3540
  162TMC2    O1 2529   1.899   3.246   1.545  0.0350  0.0594 -0.3981
  162TMC2    O2 2530   1.470   3.328   1.734  0.0360 -0.2744 -0.4082
  162TMC2    O5 2531   1.295   3.274   1.602 -0.2520  0.4011 -0.2952
  162TMC2    H5 2532   1.296   3.243   1.510 -0.5584  1.1902 -0.5692
  163MPD2     C 2533   1.081   2.741   1.022  0.5297  0.4104  0.1088
  163MPD2    C1 2534   1.191   2.804   0.968 -0.5012  0.8182 -0.1831
  163MPD2    C2 2535   1.274   2.867   1.053 -0.2131  0.3620 -0.0221
  163MPD2    C3 2536   1.251   2.868   1.190  0.0649 -0.1997 -0.1920
  163MPD2    C4 2537   1.144   2.805   1.245  0.3919 -0.5732 -0.6524
  163MPD2    C5 2538   1.069   2.733   1.157  0.6908  0.0318  0.0754
  163MPD2     H 2539   1.365   2.908   1.011  0.0593 -0.8620 -0.6364
  163MPD2    H1 2540   1.126   2.789   1.351 -0.6423  1.2931 -0.5567
  163MPD2    H2 2541   1.008   2.694   0.958 -0.3078  1.3927  0.3351
  163MPD2    H3 2542   0.980   2.694   1.204  0.6406  1.5583  1.2390
  163MPD2     N 2543   1.343   2.924   1.279  0.7390 -0.0008  0.2270
  163MPD2    H5 2544   1.321   2.913   1.378  0.1474 -0.8012  0.0061
  163MPD2    N1 2545   1.211   2.813   0.824 -0.0124 -0.6671 -0.2010
  163MPD2    H7 2546   1.138   2.766   0.772 -0.3023 -0.9192  0.4425
  164TMC2    C1 2547   2.635   2.532  10.907 -0.1802  0.2984 -0.6480
  164TMC2    C2 2548   2.761   2.583  10.946  0.3273 -0.2787 -0.1904
  164TMC2    C3 2549   2.762   2.705  11.019  0.3447 -0.7757 -0.9954
  164TMC2    C4 2550   2.517   2.599  10.931  0.5227  0.2621  0.1814
  164TMC2    C5 2551   2.528   2.706  11.012 -0.2872  0.1604  0.0271
  164TMC2    C6 2552   2.643   2.766  11.050 -0.4361 -0.3669  0.8428
  164TMC2     C 2553   2.623   2.389  10.872 -0.4036  0.2670 -0.4120
  164TMC2     O 2554   2.517   2.332  10.897 -0.4300  0.0865  0.0410
  164TMC2     H 2555   2.851   2.525  10.936  0.5633  0.1994 -0.8645
  164TMC2    H1 2556   2.423   2.549  10.912  0.3891  0.8469 -0.7172
  164TMC2    H2 2557   2.632   2.847  11.122 -0.0091  0.1175  0.3719
  164TMC2    C7 2558   2.397   2.766  11.046 -0.5487  0.3175 -0.4067
  164TMC2    C8 2559   2.884   2.764  11.046 -0.1790 -0.2794  0.4843
  164TMC2    O1 2560   2.310   2.756  10.955  0.2423  0.1183 -0.3717
  164TMC2    O2 2561   2.881   2.867  11.111 -0.1614 -0.1629 -0.8000
  164TMC2    O5 2562   2.960   2.736  10.940 -0.6712  0.6888  0.2412
  164TMC2    H5 2563   2.917   2.666  10.885 -0.2440 -0.7118  1.6980
  165TMC2    C1 2564   4.342   0.136   2.019 -0.6732  0.4360  0.6496
  165TMC2    C2 2565   4.475   0.138   2.067 -0.0114  0.3967  0.0692
  165TMC2    C3 2566   4.554   0.242   2.030  0.3821  0.5653 -0.0920
  165TMC2    C4 2567   4.294   0.224   1.935  0.5521  0.1846  0.2299
  165TMC2    C5 2568   4.378   0.331   1.902 -0.5597 -0.6017  0.6806
  165TMC2    C6 2569   4.510   0.346   1.944 -0.1418 -0.0175 -0.1712
  165TMC2     C 2570   4.263   0.015   2.048 -0.4143  0.4719  0.3133
  165TMC2     O 2571   4.326   4.646   2.059 -0.1306  0.1119 -0.4529
  165TMC2     H 2572   4.503   0.066   2.143  4.1945  0.1914 -1.6420
  165TMC2    H1 2573   4.188   0.226   1.909  0.3769 -2.7902  0.6885
  165TMC2    H2 2574   4.569   0.431   1.910 -2.4943  1.9021  0.4876
  165TMC2    C7 2575   4.366   0.410   1.775 -0.2259 -0.4778  0.4262
  165TMC2    C8 2576   4.693   0.247   2.060  0.2393 -0.4948  0.4189
  165TMC2    O1 2577   4.442   0.501   1.741 -0.0686  0.0160 -0.4474
  165TMC2    O2 2578   0.021   0.150   2.094  0.1326 -0.4407  0.0259
  165TMC2    O5 2579   4.704   0.367   2.119  0.1423  0.0858 -0.2807
  165TMC2    H5 2580   4.620   0.418   2.110 -0.1903 -0.2660  0.7466
  166MPD2     C 2581   3.805   4.543   2.160  0.0910 -0.6703  0.7011
  166MPD2    C1 2582   3.921   4.485   2.106 -0.2333  0.1196 -0.1007
  166MPD2    C2 2583   4.037   4.559   2.082 -0.1652 -0.1163 -0.2004
  166MPD2    C3 2584   4.032   4.696   2.118 -0.0231  0.2393  0.1092
  166MPD2    C4 2585   3.919   0.009   2.174 -0.1327  0.3647  0.4672
  166MPD2    C5 2586   3.804   4.672   2.197  0.4670  0.4513 -0.8093
  166MPD2     H 2587   4.127   4.511   2.045 -0.2324  0.9178 -1.6942
  166MPD2    H1 2588   3.906   0.111   2.209 -2.6526  0.2017 -0.0119
  166MPD2    H2 2589   3.714   4.487   2.179 -0.7699  0.3212 -0.5023
  166MPD2    H3 2590   3.719   4.722   2.243  0.1339 -2.3275  1.5631
  166MPD2     N 2591   4.138   0.045   2.091 -0.1152 -0.2281  0.0473
  166MPD2    H5 2592   4.112   0.143   2.100  2.0188  0.1934  1.6234
  166MPD2    N1 2593   3.916   4.346   2.075  0.3035  0.3269  0.0277
  166MPD2    H7 2594   3.831   4.293   2.095  0.2422  1.0843  1.7823
  167TMC2    C1 2595   1.694   1.955  12.944 -0.0721  0.1787 -0.0531
  167TMC2    C2 2596   1.585   1.895  13.005  0.4610  0.0519  0.0751
  167TMC2    C3 2597   1.583   1.757  13.002 -0.2402  0.1238 -0.5524
  167TMC2    C4 2598   1.798   1.897  12.883  0.5911 -0.2805 -0.5734
  167TMC2    C5 2599   1.790   1.758  12.882 -0.7034 -0.2150  0.0968
  167TMC2    C6 2600   1.680   1.691  12.929  0.2673 -0.7567 -0.3353
  167TMC2     C 2601   1.692   2.098  12.954  0.8895 -0.1904  0.4937
  167TMC2     O 2602   1.642   2.142  13.059 -0.4217  0.9766 -0.7620
  167TMC2     H 2603   1.504   1.946  13.054 -1.2345  0.0057 -2.6554
  167TMC2    H1 2604   1.886   1.955  12.860  0.0725 -0.0053 -1.8977
  167TMC2    H2 2605   1.670   1.585  12.908  0.5086 -0.6249 -1.0921
  167TMC2    C7 2606   1.879   1.680  12.792 -0.5927 -0.3418 -0.3680
  167TMC2    C8 2607   1.449   1.706  13.016 -0.1145 -0.5462  0.0902
  167TMC2    O1 2608   1.879   1.559  12.803  0.8114 -0.7341  0.0821
  167TMC2    O2 2609   1.348   1.767  12.977  0.2009 -0.0477 -0.1703
  167TMC2    O5 2610   1.469   1.578  13.009 -0.5877  0.2288  0.2175
  167TMC2    H5 2611   1.551   1.542  13.050 -0.8926 -0.5531  0.1471
  168MPD2     C 2612   1.777   2.381  12.952  0.1776  0.3591 -0.4022
  168MPD2    C1 2613   1.779   2.298  12.843 -0.5366 -0.2046 -0.0219
  168MPD2    C2 2614   1.816   2.344  12.717 -0.4906  0.4584 -0.1279
  168MPD2    C3 2615   1.852   2.481  12.709  0.5294 -1.3970  0.1368
  168MPD2    C4 2616   1.842   2.562  12.821 -0.6121 -0.7809 -0.4536
  168MPD2    C5 2617   1.817   2.508  12.940  1.0900 -0.0733 -0.7703
  168MPD2     H 2618   1.817   2.276  12.633 -1.3299 -0.5534  0.6899
  168MPD2    H1 2619   1.862   2.669  12.821 -0.5246 -0.7966  0.8480
  168MPD2    H2 2620   1.761   2.344  13.052  1.1565  0.6651 -0.1332
  168MPD2    H3 2621   1.811   2.571  13.029  0.6723  0.3640 -1.1076
  168MPD2     N 2622   1.894   2.547  12.591  0.2807 -0.1360 -0.1271
  168MPD2    H5 2623   1.930   2.642  12.587 -0.7130  0.2571  0.3331
  168MPD2    N1 2624   1.762   2.162  12.851  0.1465  0.1621  0.1447
  168MPD2    H7 2625   1.798   2.111  12.772 -3.3851 -0.3196 -1.1533
  169MPD1     C 2626   4.137   3.073   8.656  0.5844  0.3461  0.3338
  169MPD1    C1 2627   4.229   3.052   8.752  0.2597 -0.7015 -0.5443
  169MPD1    C2 2628   4.204   2.944   8.836 -0.7502 -0.3311  0.4941
  169MPD1    C3 2629   4.098   2.852   8.812  0.0817  0.4147 -0.0737
  169MPD1    C4 2630   4.001   2.876   8.715  0.6640 -0.3364  0.4098
  169MPD1    C5 2631   4.028   2.987   8.634  1.0464  0.2763  0.3881
  169MPD1     H 2632   4.278   2.919   8.912  1.7188  0.5463 -1.6021
  169MPD1    H1 2633   3.930   2.802   8.681  0.4493  0.4744 -0.9361
  169MPD1    H2 2634   4.141   3.163   8.597  1.2437  0.2156  0.1811
  169MPD1    H3 2635   3.962   3.013   8.552  1.1215 -1.2900 -0.1656
  169MPD1     N 2636   4.082   2.740   8.907  0.1602  0.2528  0.0607
  169MPD1    H5 2637   4.148   2.750   8.983  1.0271 -1.3051 -0.4872
  169MPD1    N1 2638   4.324   3.150   8.773 -0.1098  0.3091 -0.2141
  169MPD1    H6 2639   4.397   3.122   8.838  0.7559  1.8983 -0.4997
  169MPD1    H7 2640   4.366   3.189   8.689  1.2115 -2.0699 -0.6611
  170MPD1     C 2641   2.872   0.000  12.786 -0.2094 -0.2510  1.5352
  170MPD1    C1 2642   2.747   4.709  12.832 -0.0993  0.1497  0.1605
  170MPD1    C2 2643   2.697   0.056  12.931  0.3032 -0.0543  0.4968
  170MPD1    C3 2644   2.782   0.144  13.001  0.2265  0.1128 -0.3906
  170MPD1    C4 2645   2.912   0.166  12.954  0.2129 -0.4252  0.2946
  170MPD1    C5 2646   2.954   0.089  12.849  0.4058  0.2933  0.3365
  170MPD1     H 2647   2.599   0.049  12.976  0.5169  0.2432  1.0157
  170MPD1    H1 2648   2.978   0.236  13.004 -0.5483 -0.8965  1.9409
  170MPD1    H2 2649   2.923   4.677  12.711  0.4945 -0.1083  1.9025
  170MPD1    H3 2650   3.055   0.091  12.812  0.6537 -0.9234  0.9562
  170MPD1     N 2651   2.729   0.205  13.121 -0.0318 -0.3443 -0.0013
  170MPD1    H5 2652   2.628   0.196  13.134 -0.1835  1.4536  0.1485
  170MPD1    N1 2653   2.668   4.606  12.768 -0.6082  0.3848 -0.3702
  170MPD1    H6 2654   2.611   4.563  12.841  0.9463 -0.5173  0.3127
  170MPD1    H7 2655   2.729   4.531  12.734 -1.4506  0.1768 -1.4292
  171MPD1     C 2656   0.483   1.221  15.301  0.7136  0.1139  0.1545
  171MPD1    C1 2657   0.613   1.237  15.346  0.1955  0.2865  0.2113
  171MPD1    C2 2658   0.646   1.170  15.459  0.0119 -0.5063 -0.2314
  171MPD1    C3 2659   0.578   1.063  15.510  0.0363 -0.2014 -0.7018
  171MPD1    C4 2660   0.448   1.044  15.456  0.7499 -0.2845  0.7623
  171MPD1    C5 2661   0.400   1.131  15.366 -0.6669  0.2854 -0.2458
  171MPD1     H 2662   0.746   1.179  15.501 -0.4857  0.2473  0.7542
  171MPD1    H1 2663   0.388   0.966  15.502 -2.3970  0.8193 -1.4466
  171MPD1    H2 2664   0.440   1.273  15.216  1.0855  0.4964  0.1990
  171MPD1    H3 2665   0.293   1.134  15.351 -1.1717  0.0385  3.4072
  171MPD1     N 2666   0.613   0.978  15.620  0.7627  0.5590 -0.1977
  171MPD1    H5 2667   0.549   0.902  15.639 -0.0225  1.3697  0.4517
  171MPD1    N1 2668   0.686   1.345  15.292  0.1648 -0.5423  0.7315
  171MPD1    H6 2669   0.683   1.370  15.194  0.4688 -0.2673  0.7935
  171MPD1    H7 2670   0.785   1.339  15.314  0.4763  0.9907 -0.2525
  172MPD1     C 2671   0.129   0.243   0.000 -0.6693  0.2346 -0.0523
  172MPD1    C1 2672   0.125   0.367  17.682 -0.0114 -0.4430  0.0451
  172MPD1    C2 2673   0.159   0.482   0.008  0.5947  0.2876  0.4354
  172MPD1    C3 2674   0.197   0.474   0.140  0.1274 -0.1307  0.3042
  172MPD1    C4 2675   0.211   0.349   0.204  0.8148  0.0944  0.7667
  172MPD1    C5 2676   0.178   0.237   0.128 -0.3631 -0.3211  0.0692
  172MPD1     H 2677   0.158   0.571  17.689  0.6950  0.3590  0.5331
  172MPD1    H1 2678   0.259   0.337   0.301 -1.5094  1.6335  2.0894
  172MPD1    H2 2679   0.123   0.145  17.698 -1.0262 -0.3229  1.1738
  172MPD1    H3 2680   0.204   0.143   0.176  2.7233  0.6564  0.3272
  172MPD1     N 2681   0.242   0.586   0.217 -0.0927 -0.2317  0.1532
  172MPD1    H5 2682   0.300   0.573   0.300 -1.5464  3.4826  1.7498
  172MPD1    N1 2683   0.096   0.378  17.548 -0.2794 -0.2278 -0.3800
  172MPD1    H6 2684   0.014   0.438  17.558  0.6673  0.9536  0.3522
  172MPD1    H7 2685   0.063   0.288  17.514  0.8066 -0.5348 -0.6282
  173MPD1     C 2686   1.247   0.633  13.884  0.7076 -0.1850  0.6369
  173MPD1    C1 2687   1.248   0.498  13.863 -0.2816 -0.4232  0.1443
  173MPD1    C2 2688   1.183   0.414  13.952  0.1766 -0.3144  0.0012
  173MPD1    C3 2689   1.138   0.461  14.071 -0.3142  0.4443  0.0583
  173MPD1    C4 2690   1.150   0.594  14.097 -0.6013  0.4302 -0.5167
  173MPD1    C5 2691   1.206   0.681  14.008  0.2079  0.2285 -0.8673
  173MPD1     H 2692   1.174   0.307  13.940  0.1347 -0.4719  1.3462
  173MPD1    H1 2693   1.112   0.647  14.183  0.8506 -0.2931  0.5675
  173MPD1    H2 2694   1.280   0.710  13.816 -0.4481  0.2402  0.5630
  173MPD1    H3 2695   1.188   0.787  14.022 -0.5731 -0.0559  0.2575
  173MPD1     N 2696   1.086   0.374  14.166  0.2877  0.0725 -0.4077
  173MPD1    H5 2697   1.077   0.276  14.140 -1.1833  0.6028 -1.9043
  173MPD1    N1 2698   1.281   0.448  13.741  0.1132  0.0007  0.4071
  173MPD1    H6 2699   1.365   0.498  13.711 -2.5320  3.7086 -0.8893
  173MPD1    H7 2700   1.313   0.352  13.749 -4.2794 -1.4563  0.9086
  174MPD1     C 2701   0.753   4.451  13.831  0.1981 -0.0572  0.0051
  174MPD1    C1 2702   0.797   4.387  13.946 -0.6916 -0.4664  0.7735
  174MPD1    C2 2703   0.828   4.474  14.050  0.2768  0.0002  0.4913
  174MPD1    C3 2704   0.807   4.610  14.047  0.1837 -0.4917 -0.2706
  174MPD1    C4 2705   0.757   4.666  13.926 -0.7508  0.2664 -0.1423
  174MPD1    C5 2706   0.728   4.587  13.818  0.0898  0.4401  0.4948
  174MPD1     H 2707   0.889   4.441  14.133  2.0317  2.1912  0.0469
  174MPD1    H1 2708   0.742   0.035  13.905 -0.7770  0.7026  2.0114
  174MPD1    H2 2709   0.738   4.403  13.735  0.4027  2.2197 -1.1604
  174MPD1    H3 2710   0.696   4.631  13.724 -0.4055  0.7937  0.8310
  174MPD1     N 2711   0.840   4.709  14.139  0.2479 -0.4387 -0.3808
  174MPD1    H5 2712   0.804   0.065  14.119 -0.8447 -0.7840  0.0071
  174MPD1    N1 2713   0.847   4.257  13.944  0.0149  1.0205  0.2078
  174MPD1    H6 2714   0.792   4.205  13.876  0.4400 -2.3742  2.4754
  174MPD1    H7 2715   0.843   4.214  14.036  0.1355  2.4008  0.8598
  175MPD1     C 2716   0.219   0.941  15.796 -0.1225 -0.6172  0.4018
  175MPD1    C1 2717   0.116   1.019  15.759 -1.1100  0.1348  0.3414
  175MPD1    C2 2718   0.033   1.070  15.854 -0.5433 -0.3896 -0.8916
  175MPD1    C3 2719   0.042   1.035  15.991 -0.2454 -0.2890  0.5380
  175MPD1    C4 2720   0.154   0.963  16.030 -0.2513  0.9493  0.8470
  175MPD1    C5 2721   0.237   0.913  15.930  0.3006  0.1986 -0.4083
  175MPD1     H 2722   4.689   1.131  15.817 -2.5684 -1.2786  2.0164
  175MPD1    H1 2723   0.177   0.944  16.134  1.7824 -1.1834 -0.0168
  175MPD1    H2 2724   0.298   0.910  15.727  1.7020  1.4374  1.5777
  175MPD1    H3 2725   0.320   0.851  15.961  0.3909  0.9818  0.9310
  175MPD1     N 2726   4.691   1.074  16.098 -0.3641  0.0209  0.0769
  175MPD1    H5 2727   4.693   1.023  16.185 -0.9981 -0.9989 -0.5075
  175MPD1    N1 2728   0.097   1.069  15.629  0.4151  0.5492  0.7216
  175MPD1    H6 2729   0.133   1.004  15.559 -0.2324  0.9723 -0.0001
  175MPD1    H7 2730   0.001   1.088  15.603  0.3383 -1.0809 -0.1848
  176MPD1     C 2731   1.129   3.363  16.527 -0.9609  0.6723 -0.2498
  176MPD1    C1 2732   1.257   3.416  16.519 -0.3403  0.1133  0.0231
  176MPD1    C2 2733   1.318   3.457  16.635  1.0184 -0.5019 -0.2357
  176MPD1    C3 2734   1.251   3.440  16.758  0.5825  0.2475 -0.9701
  176MPD1    C4 2735   1.123   3.385  16.755 -0.1617  0.3672 -0.4553
  176MPD1    C5 2736   1.070   3.335  16.639  0.1361 -0.0892  0.2217
  176MPD1     H 2737   1.415   3.506  16.637 -0.6677  2.6990  1.8681
  176MPD1    H1 2738   1.071   3.364  16.848 -0.8543  0.8989 -0.7287
  176MPD1    H2 2739   1.070   3.325  16.444  0.6186 -0.9735 -0.6410
  176MPD1    H3 2740   0.972   3.289  16.629  1.6491 -3.3833  0.6869
  176MPD1     N 2741   1.307   3.489  16.880  0.5025 -0.3857  0.6096
  176MPD1    H5 2742   1.407   3.503  16.891  0.5044  1.0671 -1.1891
  176MPD1    N1 2743   1.311   3.445  16.391 -0.6367  0.2708  0.2414
  176MPD1    H6 2744   1.268   3.383  16.323  1.1292  0.9216 -1.4878
  176MPD1    H7 2745   1.413   3.442  16.386 -0.4798  1.9440  2.5302
  177MPD1     C 2746   0.376   3.038  10.163 -0.6712 -0.1645 -0.1428
  177MPD1    C1 2747   0.382   2.980  10.034  0.0848 -0.3845  0.2368
  177MPD1    C2 2748   0.428   3.059   9.933 -0.4915  0.2783  0.1829
  177MPD1    C3 2749   0.502   3.179   9.955  0.0592  0.1576  0.1844
  177MPD1    C4 2750   0.510   3.223  10.085 -0.4784 -0.2131  0.1174
  177MPD1    C5 2751   0.437   3.158  10.179 -0.1844  0.1315  0.4591
  177MPD1     H 2752   0.422   3.031   9.828  0.8397 -0.7983  0.3960
  177MPD1    H1 2753   0.569   3.308  10.117  0.5248 -1.1343  0.7213
  177MPD1    H2 2754   0.337   2.982  10.247 -0.1240 -1.6832 -0.9171
  177MPD1    H3 2755   0.446   3.201  10.278  0.1466  1.7265 -0.2629
  177MPD1     N 2756   0.562   3.259   9.855  0.2250 -0.4089  0.9307
  177MPD1    H5 2757   0.549   3.222   9.762 -0.3631 -0.7243  1.1378
  177MPD1    N1 2758   0.312   2.868  10.001  0.3203  1.1772 -0.0913
  177MPD1    H6 2759   0.304   2.804  10.080 -1.1479  0.1582 -1.0839
  177MPD1    H7 2760   0.353   2.811   9.928  0.1551 -0.5934  1.2101
  178MPD1     C 2761   2.285   3.984   0.418 -0.4334  1.0442 -0.2523
  178MPD1    C1 2762   2.332   4.094   0.351 -0.2323 -0.5711  0.4216
  178MPD1    C2 2763   2.340   4.090   0.214  0.4144  0.5185 -0.5899
  178MPD1    C3 2764   2.291   3.985   0.137 -0.1972  0.0087  0.3643
  178MPD1    C4 2765   2.237   3.876   0.206  0.0756 -0.3098 -0.4528
  178MPD1    C5 2766   2.239   3.879   0.342  0.0680 -0.2531  0.2331
  178MPD1     H 2767   2.402   4.162   0.161  0.3901 -0.6722 -2.2506
  178MPD1    H1 2768   2.204   3.785   0.156  0.8928 -1.0949  0.4348
  178MPD1    H2 2769   2.291   3.986   0.526  0.2645 -0.5382 -0.2547
  178MPD1    H3 2770   2.226   3.785   0.395 -0.5866 -0.2091  0.1459
  178MPD1     N 2771   2.303   3.984  17.743 -0.3947  0.1326 -0.1639
  178MPD1    H5 2772   2.357   4.059  17.703 -1.2345  1.8118  1.8246
  178MPD1    N1 2773   2.397   4.184   0.426 -0.5406 -0.7767 -0.4625
  178MPD1    H6 2774   2.350   4.199   0.515 -0.3967  0.6350 -0.6222
  178MPD1    H7 2775   2.411   4.274   0.381  0.9397  0.2514  2.0627
  179MPD1     C 2776   2.138   2.272  15.514  0.3641 -0.6080 -0.0428
  179MPD1    C1 2777   2.082   2.160  15.459  0.0377  0.3433 -0.9784
  179MPD1    C2 2778   1.998   2.082  15.535  0.5304  0.2493  0.8428
  179MPD1    C3 2779   1.968   2.110  15.669  0.4763  0.1746  0.4360
  179MPD1    C4 2780   2.020   2.225  15.719  0.4580  0.1114 -0.0920
  179MPD1    C5 2781   2.109   2.303  15.645 -0.1043  0.2207 -0.1642
  179MPD1     H 2782   1.974   1.992  15.478 -1.0896  0.3330  1.4093
  179MPD1    H1 2783   1.999   2.255  15.821  3.8193  0.2827  0.5829
  179MPD1    H2 2784   2.197   2.344  15.458 -0.5607 -0.9902 -1.4993
  179MPD1    H3 2785   2.146   2.394  15.690  1.3289 -0.5864  0.2834
  179MPD1     N 2786   1.860   2.046  15.740  0.5978 -0.0743  0.1575
  179MPD1    H5 2787   1.828   2.083  15.829 -0.3769 -0.7309  0.0832
  179MPD1    N1 2788   2.087   2.143  15.315 -0.2834  0.1094  0.1166
  179MPD1    H6 2789   2.161   2.197  15.271 -0.4811  0.8991  0.7611
  179MPD1    H7 2790   2.091   2.044  15.291  0.4221  0.2163 -0.1888
  180MPD1     C 2791   1.820   3.643  15.219  0.2854 -0.4091 -0.5712
  180MPD1    C1 2792   1.920   3.673  15.131 -0.7013 -0.1874  0.2456
  180MPD1    C2 2793   1.890   3.671  14.997 -0.4575  0.0303  0.1083
  180MPD1    C3 2794   1.762   3.680  14.947 -0.2024 -0.2137  0.3282
  180MPD1    C4 2795   1.660   3.668  15.047  0.6325  0.2828 -0.3498
  180MPD1    C5 2796   1.696   3.643  15.175 -0.3661 -0.1200 -0.5313
  180MPD1     H 2797   1.978   3.681  14.934 -0.3647  0.5955  0.3225
  180MPD1    H1 2798   1.554   3.656  15.025  0.6375  0.3188 -0.3946
  180MPD1    H2 2799   1.845   3.626  15.322  0.1666 -0.5484 -0.5653
  180MPD1    H3 2800   1.619   3.622  15.249 -1.2838 -0.9016 -1.7144
  180MPD1     N 2801   1.740   3.690  14.804 -0.2815 -0.3245  0.1032
  180MPD1    H5 2802   1.825   3.686  14.750  1.3644 -0.3611  2.6932
  180MPD1    N1 2803   2.052   3.685  15.176  0.0797 -0.2007  0.2566
  180MPD1    H6 2804   2.062   3.723  15.270  1.7495 -0.1692  0.0720
  180MPD1    H7 2805   2.111   3.733  15.108 -1.0936 -2.2539 -2.2118
  181MPD1     C 2806   3.355   1.227   9.810 -0.0849  0.2391  0.4788
  181MPD1    C1 2807   3.365   1.156   9.930 -0.4520  0.2690  0.7750
  181MPD1    C2 2808   3.491   1.144   9.998  0.2102 -0.2972 -0.1783
  181MPD1    C3 2809   3.608   1.190   9.933 -0.4024  0.4900 -0.3400
  181MPD1    C4 2810   3.594   1.257   9.815  0.0414  0.2152  0.4418
  181MPD1    C5 2811   3.474   1.266   9.750  0.0517  0.6216  0.4445
  181MPD1     H 2812   3.494   1.100  10.097  0.8108  0.8823  0.3378
  181MPD1    H1 2813   3.681   1.296   9.764  0.1045  0.6816  0.9196
  181MPD1    H2 2814   3.267   1.238   9.748  0.4287 -1.1612 -0.4936
  181MPD1    H3 2815   3.473   1.318   9.655  0.8549 -0.5854 -0.2243
  181MPD1     N 2816   3.736   1.180   9.988 -0.4858 -0.4339 -0.2643
  181MPD1    H5 2817   3.819   1.211   9.938 -0.0871 -1.2432 -0.0911
  181MPD1    N1 2818   3.244   1.117   9.997 -0.1273 -0.1826 -0.4432
  181MPD1    H6 2819   3.263   1.041  10.062  0.3693  0.6066  0.3359
  181MPD1    H7 2820   3.168   1.103   9.930  0.0092  1.0786 -0.8688
  182MPD1     C 2821   0.095   0.672   1.868 -0.0965 -0.0843 -0.3142
  182MPD1    C1 2822   0.085   0.717   1.736  0.2043  0.6958 -0.4009
  182MPD1    C2 2823   0.069   0.625   1.641 -0.4977  0.1802 -0.7494
  182MPD1    C3 2824   0.076   0.490   1.655 -0.9071 -0.5620 -0.1733
  182MPD1    C4 2825   0.111   0.451   1.787  0.1756  0.2621  0.5476
  182MPD1    C5 2826   0.117   0.541   1.890 -0.5837  0.0043  0.4631
  182MPD1     H 2827   0.031   0.664   1.547 -1.7933 -1.8794 -1.0979
  182MPD1    H1 2828   0.128   0.347   1.812  0.5147  0.0635 -0.4875
  182MPD1    H2 2829   0.086   0.737   1.954 -1.4568  0.9000 -1.2094
  182MPD1    H3 2830   0.145   0.498   1.986 -1.1373 -0.2439  0.5147
  182MPD1     N 2831   0.043   0.390   1.567  0.6641  0.3196  0.3869
  182MPD1    H5 2832   0.062   0.297   1.602 -0.5027 -0.2920 -0.6118
  182MPD1    N1 2833   0.053   0.850   1.710  0.3354  0.0095  0.1924
  182MPD1    H6 2834   0.114   0.912   1.763 -0.6866  0.4198  0.8906
  182MPD1    H7 2835   0.066   0.877   1.613  0.7219  3.5744  1.2468
  183MPD1     C 2836   0.424   0.719   8.565  0.1912 -0.8868 -0.6538
  183MPD1    C1 2837   0.311   0.781   8.602  0.6619  0.3424  0.4283
  183MPD1    C2 2838   0.265   0.762   8.729  0.1496  0.3486 -0.1743
  183MPD1    C3 2839   0.358   0.718   8.832  0.7060  0.0966 -0.2270
  183MPD1    C4 2840   0.485   0.680   8.786  0.9392 -0.1031  0.4151
  183MPD1    C5 2841   0.513   0.672   8.656  0.4840 -0.2308 -1.3859
  183MPD1     H 2842   0.163   0.787   8.755  0.4157  1.7706 -0.4450
  183MPD1    H1 2843   0.558   0.634   8.852  1.3080  0.3241  0.3085
  183MPD1    H2 2844   0.455   0.724   8.461  0.3163 -1.5735 -0.6469
  183MPD1    H3 2845   0.607   0.625   8.631  1.2135  0.3487  0.2613
  183MPD1     N 2846   0.312   0.708   8.962  0.0916  0.2526  0.0238
  183MPD1    H5 2847   0.220   0.740   8.990 -0.9518 -1.3088 -1.6645
  183MPD1    N1 2848   0.227   0.825   8.496  0.6441  0.2841  0.4584
  183MPD1    H6 2849   0.277   0.870   8.419 -0.6082 -1.0197 -1.1332
  183MPD1    H7 2850   0.163   0.897   8.529 -1.0409 -0.2840 -1.4948
  184MPD1     C 2851   4.385   2.773  10.059 -0.3844  0.1425 -0.2825
  184MPD1    C1 2852   4.467   2.886  10.091  0.4316  0.3488  0.0076
  184MPD1    C2 2853   4.484   2.978   9.990  1.0980  0.0373 -0.2419
  184MPD1    C3 2854   4.403   2.976   9.872 -0.8900  0.1086 -0.1646
  184MPD1    C4 2855   4.313   2.874   9.853  0.3592 -0.8007  0.8816
  184MPD1    C5 2856   4.300   2.773   9.949  0.1106 -0.4672  0.6349
  184MPD1     H 2857   4.551   3.060  10.009 -1.6361  2.2644 -0.1602
  184MPD1    H1 2858   4.240   2.862   9.774  2.6025 -0.2570 -1.2388
  184MPD1    H2 2859   4.366   2.694  10.132 -0.3650  1.0844  0.7411
  184MPD1    H3 2860   4.247   2.681   9.928  0.0798 -0.0034 -1.3648
  184MPD1     N 2861   4.420   3.070   9.766  0.7288 -0.6353 -0.5136
  184MPD1    H5 2862   4.361   3.050   9.686  1.4501 -1.2497 -0.8831
  184MPD1    N1 2863   4.565   2.869  10.190  0.1437  0.0460 -0.1642
  184MPD1    H6 2864   4.541   2.822  10.277  3.1899 -1.0721  0.0760
  184MPD1    H7 2865   4.602   2.958  10.224  0.1239  0.0982 -0.2776
  185MPD1     C 2866   3.925   3.051   9.081 -0.6784  0.8138  0.2285
  185MPD1    C1 2867   3.995   3.174   9.062 -0.2711 -0.3656  0.3904
  185MPD1    C2 2868   4.100   3.202   9.148 -0.2901 -0.3154 -0.7057
  185MPD1    C3 2869   4.151   3.117   9.245 -0.3273  0.0061  0.2330
  185MPD1    C4 2870   4.086   2.995   9.251 -0.8366  0.7315  0.0224
  185MPD1    C5 2871   3.978   2.971   9.178  0.6496 -0.2074  0.0680
  185MPD1     H 2872   4.145   3.296   9.120 -0.6483 -0.0987 -0.5457
  185MPD1    H1 2873   4.127   2.924   9.322 -1.5397 -1.5017 -1.8181
  185MPD1    H2 2874   3.834   3.026   9.030 -1.0218 -0.8281  1.6612
  185MPD1    H3 2875   3.937   2.874   9.203  0.9898 -0.9093 -2.0680
  185MPD1     N 2876   4.251   3.155   9.330 -0.5044  0.2550 -0.2308
  185MPD1    H5 2877   4.268   3.091   9.408 -0.8480 -1.1421 -1.3035
  185MPD1    N1 2878   3.943   3.274   8.980 -0.0335 -0.3028 -0.3635
  185MPD1    H6 2879   3.925   3.237   8.887 -3.6580  0.9849 -0.1861
  185MPD1    H7 2880   4.002   3.356   8.975 -0.2061 -0.2589 -1.5008
  186MPD1     C 2881   2.335   1.846  15.967 -0.3922  0.3092  0.2642
  186MPD1    C1 2882   2.277   1.849  16.093  0.3717  0.3902 -0.5404
  186MPD1    C2 2883   2.274   1.969  16.166 -0.1042 -0.8168 -0.8334
  186MPD1    C3 2884   2.315   2.086  16.107  0.2552 -0.3893 -0.0458
  186MPD1    C4 2885   2.375   2.081  15.984  0.5779 -0.7360  0.0490
  186MPD1    C5 2886   2.385   1.959  15.914  0.2872 -0.5229  0.3206
  186MPD1     H 2887   2.236   1.960  16.267 -0.2639  4.7883 -0.4058
  186MPD1    H1 2888   2.412   2.171  15.936  1.0773 -0.2279  1.4068
  186MPD1    H2 2889   2.351   1.755  15.910  0.6324 -0.2313  1.3913
  186MPD1    H3 2890   2.432   1.953  15.816  0.2436  0.8197  0.2069
  186MPD1     N 2891   2.310   2.209  16.181  0.1900 -0.2562 -0.5320
  186MPD1    H5 2892   2.340   2.296  16.138  1.0096 -0.1671  0.2199
  186MPD1    N1 2893   2.243   1.725  16.144  0.0992 -0.0732  0.7579
  186MPD1    H6 2894   2.243   1.644  16.082  0.3320  0.5838 -0.0997
  186MPD1    H7 2895   2.159   1.736  16.200 -0.2472 -0.8944  0.3884
  187MPD1     C 2896   1.947   0.080  17.712 -0.0199  0.6171  0.6328
  187MPD1    C1 2897   1.939   4.682  17.682 -0.2453  0.2121 -0.5219
  187MPD1    C2 2898   1.839   4.643  17.591  0.1906 -0.2984 -0.0666
  187MPD1    C3 2899   1.765   0.001  17.527 -0.5008 -0.2222  0.2570
  187MPD1    C4 2900   1.768   0.132  17.564  0.6692 -0.0789  0.4426
  187MPD1    C5 2901   1.863   0.166  17.656 -0.5204 -0.1938  0.4952
  187MPD1     H 2902   1.835   4.536  17.575 -0.9384 -0.1884 -0.5533
  187MPD1    H1 2903   1.713   0.205  17.506  0.1920 -2.4124 -2.0679
  187MPD1    H2 2904   2.027   0.116   0.031  0.0104  1.7179 -0.0209
  187MPD1    H3 2905   1.871   0.272  17.676 -1.2992 -0.0393 -0.0106
  187MPD1     N 2906   1.681   4.702  17.420 -0.4117  0.0121 -0.2385
  187MPD1    H5 2907   1.641   0.037  17.360 -1.7940 -1.3395 -0.9153
  187MPD1    N1 2908   2.008   4.593   0.022  0.0281 -0.0504 -0.5348
  187MPD1    H6 2909   2.085   4.627   0.080  0.1760  1.1608 -1.4479
  187MPD1    H7 2910   2.035   4.508  17.717 -2.7887 -1.9205  1.1228
  188MPD1     C 2911   1.903   4.684  10.550 -0.5646 -0.0390 -0.5486
  188MPD1    C1 2912   1.970   4.579  10.609 -0.2041 -0.3055 -0.0151
  188MPD1    C2 2913   2.039   4.498  10.526  0.6033  0.2475 -0.0730
  188MPD1    C3 2914   2.042   4.513  10.390  0.2506  0.7480  0.3760
  188MPD1    C4 2915   1.970   4.618  10.332  0.2979 -0.3585 -0.4277
  188MPD1    C5 2916   1.905   4.704  10.413  0.2994 -0.1756 -0.1711
  188MPD1     H 2917   2.101   4.423  10.575  0.8162  0.3318 -0.2114
  188MPD1    H1 2918   1.961   4.638  10.226 -0.0611 -1.3914 -0.5912
  188MPD1    H2 2919   1.863   0.032  10.605 -0.1206  0.7932 -1.4986
  188MPD1    H3 2920   1.856   0.054  10.370 -0.1924 -0.0031  0.7493
  188MPD1     N 2921   2.097   4.414  10.301  0.1022  0.2989 -0.3827
  188MPD1    H5 2922   2.104   4.446  10.204  1.0185  0.1182 -0.3738
  188MPD1    N1 2923   2.004   4.576  10.746 -0.4057  0.3613  0.1706
  188MPD1    H6 2924   2.023   4.485  10.786  0.6421  1.1979  1.5675
  188MPD1    H7 2925   1.944   4.628  10.810  0.2275  1.3049  0.0070
  189MPD1     C 2926   3.146   0.556   0.587 -0.6955  0.3367 -0.1559
  189MPD1    C1 2927   3.124   0.506   0.460 -0.2724 -0.2123  0.3012
  189MPD1    C2 2928   3.013   0.543   0.389 -0.9230 -0.0238  0.7891
  189MPD1    C3 2929   2.909   0.613   0.441  0.2170  0.5979  0.0603
  189MPD1    C4 2930   2.926   0.658   0.567  0.0158  0.2620  0.0826
  189MPD1    C5 2931   3.043   0.632   0.632 -0.0821  0.0840  0.5153
  189MPD1     H 2932   3.003   0.495   0.292  1.4145 -0.4873  0.7799
  189MPD1    H1 2933   2.844   0.701   0.622 -0.1003  0.4026 -0.1967
  189MPD1    H2 2934   3.240   0.544   0.640 -0.8206 -2.5584 -0.5919
  189MPD1    H3 2935   3.063   0.687   0.724 -0.0496  0.2686  0.3967
  189MPD1     N 2936   2.784   0.626   0.367  0.0403  0.0202 -0.1737
  189MPD1    H5 2937   2.785   0.585   0.274 -1.0852 -0.1627 -0.0990
  189MPD1    N1 2938   3.209   0.416   0.401  0.1630 -0.6091 -0.6181
  189MPD1    H6 2939   3.242   0.437   0.307 -1.1854 -0.5308 -1.0778
  189MPD1    H7 2940   3.294   0.398   0.453 -0.0855  1.8307  0.6557
  190MPD1     C 2941   1.903   2.827  14.927  0.1533  0.7833 -0.4580
  190MPD1    C1 2942   2.024   2.779  14.969  1.2032  0.6768  0.5091
  190MPD1    C2 2943   2.069   2.805  15.093 -0.1202 -0.5073  0.5092
  190MPD1    C3 2944   1.975   2.859  15.181 -0.6525 -0.7830 -0.0503
  190MPD1    C4 2945   1.840   2.875  15.152  0.1829  0.2234  0.2031
  190MPD1    C5 2946   1.809   2.865  15.019  0.0166 -0.1015 -0.3171
  190MPD1     H 2947   2.170   2.789  15.128  1.6824  0.8353 -4.1716
  190MPD1    H1 2948   1.758   2.904  15.217  0.5504  3.8723 -0.9749
  190MPD1    H2 2949   1.868   2.822  14.824  0.7579  2.9837 -0.7635
  190MPD1    H3 2950   1.710   2.895  14.986 -0.5970 -1.9510 -0.1865
  190MPD1     N 2951   2.031   2.902  15.306 -0.1115  0.9400 -0.5692
  190MPD1    H5 2952   2.132   2.899  15.321  0.0918  0.4369 -2.0290
  190MPD1    N1 2953   2.121   2.742  14.870 -0.5927 -0.0065 -0.0578
  190MPD1    H6 2954   2.197   2.683  14.903 -0.4568  1.4632  2.2892
  190MPD1    H7 2955   2.076   2.692  14.794  1.2970  1.1016 -1.9028
  191MPD1     C 2956   1.093   1.080  12.634  0.1085  0.5230  0.1173
  191MPD1    C1 2957   1.221   1.035  12.609 -0.1375  0.3687  0.1144
  191MPD1    C2 2958   1.306   1.111  12.533  0.8387 -0.5299  0.7748
  191MPD1    C3 2959   1.260   1.233  12.486  0.6809 -0.1475  0.4345
  191MPD1    C4 2960   1.133   1.275  12.510  0.3527  0.2734 -0.2334
  191MPD1    C5 2961   1.048   1.200  12.587  0.0527  0.0079  0.3652
  191MPD1     H 2962   1.409   1.077  12.522 -0.1111 -2.6675 -1.6130
  191MPD1    H1 2963   1.088   1.363  12.465  2.0591  2.5091  2.4440
  191MPD1    H2 2964   1.021   1.025  12.693  0.3992 -1.4466 -1.3769
  191MPD1    H3 2965   0.953   1.241  12.617  0.5103  1.0600  0.4155
  191MPD1     N 2966   1.347   1.300  12.393  0.8541  0.4266  0.3806
  191MPD1    H5 2967   1.434   1.250  12.374 -0.0569 -1.3208  0.8189
  191MPD1    N1 2968   1.263   0.913  12.665 -0.2172 -0.2414  0.0579
  191MPD1    H6 2969   1.357   0.929  12.702 -0.2623 -1.6689  0.7667
  191MPD1    H7 2970   1.214   0.883  12.749 -0.9364  2.6132  0.6452
  192MPD1     C 2971   1.512   1.878  11.479  0.1017 -0.1773 -1.1433
  192MPD1    C1 2972   1.399   1.834  11.542  0.5332  0.3562 -0.4973
  192MPD1    C2 2973   1.418   1.783  11.667  0.1693 -0.4787 -0.4959
  192MPD1    C3 2974   1.544   1.743  11.711  0.1739 -0.6142 -0.7915
  192MPD1    C4 2975   1.654   1.757  11.628 -0.3474 -0.1890  0.4797
  192MPD1    C5 2976   1.638   1.830  11.513  0.1974 -0.1639 -0.0738
  192MPD1     H 2977   1.330   1.757  11.725  0.0753 -1.3175 -1.0091
  192MPD1    H1 2978   1.749   1.716  11.658  1.0219  1.9094 -1.0156
  192MPD1    H2 2979   1.502   1.932  11.386 -1.4539  2.0518  0.3210
  192MPD1    H3 2980   1.725   1.853  11.452  0.3284 -0.4997 -0.0137
  192MPD1     N 2981   1.558   1.673  11.829  0.1464  0.1332 -0.1112
  192MPD1    H5 2982   1.649   1.634  11.848 -0.5281 -1.2977  0.1387
  192MPD1    N1 2983   1.276   1.890  11.504 -0.3408 -0.8099  0.1831
  192MPD1    H6 2984   1.192   1.853  11.549 -0.3119 -1.2406 -0.1196
  192MPD1    H7 2985   1.272   1.897  11.402 -0.2247 -0.9987  0.1644
  193MPD1     C 2986   0.353   0.970  16.498  0.2092 -0.3129  0.3104
  193MPD1    C1 2987   0.443   0.910  16.420  0.7277 -0.0727  0.3028
  193MPD1    C2 2988   0.576   0.954  16.444 -0.7367 -0.3027  0.1961
  193MPD1    C3 2989   0.607   1.040  16.550 -0.2979  0.5028  0.0563
  193MPD1    C4 2990   0.505   1.093  16.622  0.7141  0.3308 -0.0123
  193MPD1    C5 2991   0.379   1.050  16.603  0.4475 -0.2524 -0.1274
  193MPD1     H 2992   0.653   0.921  16.375  0.9465  0.5972  1.6663
  193MPD1    H1 2993   0.510   1.172  16.696  0.0836  1.6875 -1.4342
  193MPD1    H2 2994   0.248   0.951  16.479 -0.0309  0.0130  1.2898
  193MPD1    H3 2995   0.290   1.085  16.655  0.8777 -0.5695  0.8372
  193MPD1     N 2996   0.738   1.079  16.584 -0.6631 -0.0534  0.5082
  193MPD1    H5 2997   0.753   1.155  16.650 -0.0383  0.3413 -0.0852
  193MPD1    N1 2998   0.403   0.827  16.314  0.1273 -0.7309  0.2031
  193MPD1    H6 2999   0.311   0.785  16.323 -0.1705  0.1910  1.4236
  193MPD1    H7 3000   0.473   0.763  16.276 -0.1647  1.3997 -3.9258
  194MPD1     C 3001   3.651   3.347  16.519  0.6770 -0.2690 -0.2368
  194MPD1    C1 3002   3.616   3.362  16.653  0.8331 -0.3339  0.4918
  194MPD1    C2 3003   3.635   3.246  16.733  0.2575 -0.2926  0.7227
  194MPD1    C3 3004   3.681   3.121  16.689  0.7604  0.3268  0.2746
  194MPD1    C4 3005   3.713   3.117  16.555 -0.0709 -0.7462 -0.6490
  194MPD1    C5 3006   3.696   3.227  16.471 -0.1239 -0.2417 -0.0653
  194MPD1     H 3007   3.600   3.252  16.836 -2.6986  0.8859 -0.3566
  194MPD1    H1 3008   3.761   3.029  16.516  1.8309  0.1650 -0.3655
  194MPD1    H2 3009   3.633   3.434  16.456  0.8584 -1.6846 -2.2499
  194MPD1    H3 3010   3.734   3.231  16.369  0.8027 -2.0572  0.2250
  194MPD1     N 3011   3.718   3.010  16.771  0.0651  0.0248 -0.4271
  194MPD1    H5 3012   3.759   2.928  16.728 -0.2133  0.6050 -1.8160
  194MPD1    N1 3013   3.561   3.483  16.706 -0.1441  0.4343  0.0055
  194MPD1    H6 3014   3.585   3.558  16.641  0.2967  1.2303  1.0845
  194MPD1    H7 3015   3.617   3.508  16.787  1.4844 -1.2994 -0.5678
  195MPD1     C 3016   1.108   0.475  17.583  0.2648 -0.2046  0.2306
  195MPD1    C1 3017   1.225   0.407  17.553 -0.1639 -0.0182 -0.3559
  195MPD1    C2 3018   1.250   0.286  17.615 -0.4320  0.6553  0.4612
  195MPD1    C3 3019   1.172   0.242  17.724 -0.1380 -0.2453 -0.0916
  195MPD1    C4 3020   1.061   0.314   0.019  0.5567 -0.2394 -0.9459
  195MPD1    C5 3021   1.029   0.427  17.684  0.2881 -0.7202 -1.0698
  195MPD1     H 3022   1.335   0.228  17.582  0.2743  2.2867 -0.6087
  195MPD1    H1 3023   1.008   0.283   0.109  0.6033 -0.5791 -1.0336
  195MPD1    H2 3024   1.086   0.571  17.539  2.5678  1.3849  2.5031
  195MPD1    H3 3025   0.950   0.487  17.728  2.6777 -0.2599  2.5914
  195MPD1     N 3026   1.213   0.122   0.039  0.4459 -0.3040 -0.1427
  195MPD1    H5 3027   1.283   0.074  17.729 -1.7306 -3.4577 -0.1411
  195MPD1    N1 3028   1.321   0.476  17.477  0.1161 -0.7545 -1.0221
  195MPD1    H6 3029   1.361   0.410  17.410  1.2438 -0.3975 -0.7056
  195MPD1    H7 3030   1.275   0.550  17.426 -0.5974 -2.0561 -2.2473
  196MPD1     C 3031   0.346   3.522   0.516 -0.1747 -0.0069 -0.5353
  196MPD1    C1 3032   0.321   3.630   0.440 -0.8287 -0.2538  0.3241
  196MPD1    C2 3033   0.377   3.749   0.474 -0.0567  0.3183  0.2241
  196MPD1    C3 3034   0.452   3.760   0.592 -0.1438  0.8639 -0.0720
  196MPD1    C4 3035   0.487   3.642   0.665 -0.1926 -0.4608  0.7764
  196MPD1    C5 3036   0.431   3.524   0.622 -0.0989  0.1045  0.1690
  196MPD1     H 3037   0.350   3.831   0.409  0.4160  0.1884 -0.1436
  196MPD1    H1 3038   0.544   3.629   0.756  3.6838 -0.6006 -1.6929
  196MPD1    H2 3039   0.308   3.427   0.480 -1.5126 -0.5069  2.1705
  196MPD1    H3 3040   0.452   3.431   0.674 -2.8844 -0.4667  0.2450
  196MPD1     N 3041   0.487   3.888   0.643 -0.2343  0.5707  0.1369
  196MPD1    H5 3042   0.552   3.881   0.721  1.6012  0.6743 -1.3667
  196MPD1    N1 3043   0.245   3.611   0.319  0.4051  0.1760  1.1690
  196MPD1    H6 3044   0.175   3.541   0.341  0.1875  0.0254  0.0084
  196MPD1    H7 3045   0.195   3.697   0.295  3.4037  1.3076 -1.0028
  197MPD1     C 3046   4.052   2.083  17.513  0.2342 -0.2509 -0.1985
  197MPD1    C1 3047   4.052   2.194  17.437 -0.8325  0.1678 -0.1062
  197MPD1    C2 3048   4.160   2.224  17.351  0.8332  0.1717 -0.5540
  197MPD1    C3 3049   4.273   2.138  17.342 -0.4377  0.5891  0.5254
  197MPD1    C4 3050   4.270   2.021  17.418 -0.8987  0.0589 -0.3823
  197MPD1    C5 3051   4.160   2.000  17.499  0.2286  0.5947 -0.0360
  197MPD1     H 3052   4.144   2.299  17.274 -0.6273  1.4707  1.0293
  197MPD1    H1 3053   4.353   1.952  17.413 -0.5910  0.4030 -0.0757
  197MPD1    H2 3054   3.971   2.048  17.576  0.5188  2.6889  1.7961
  197MPD1    H3 3055   4.154   1.913  17.564  0.9230  0.0584 -0.6998
  197MPD1     N 3056   4.390   2.171  17.270  0.9255  0.2097  0.0927
  197MPD1    H5 3057   4.456   2.094  17.268 -0.8287 -1.3110  1.7181
  197MPD1    N1 3058   3.930   2.253  17.420  0.1834  0.3886 -0.0513
  197MPD1    H6 3059   3.941   2.353  17.400  0.9918 -0.2095 -2.5821
  197MPD1    H7 3060   3.873   2.233  17.502  0.7485  2.9004  0.9663
  198MPD1     C 3061   1.380   0.140  14.376  0.0362  0.0374 -0.8316
  198MPD1    C1 3062   1.358   0.067  14.494  0.6462  0.2522  0.3481
  198MPD1    C2 3063   1.465   0.059  14.587 -0.4697 -0.2259 -0.1053
  198MPD1    C3 3064   1.585   0.125  14.569  0.3632 -0.5753 -0.1254
  198MPD1    C4 3065   1.602   0.205  14.457  0.2817 -0.1197 -0.3111
  198MPD1    C5 3066   1.500   0.212  14.366 -0.1087  0.2639 -0.0854
  198MPD1     H 3067   1.448   0.007  14.681 -0.3891 -0.2777 -0.1199
  198MPD1    H1 3068   1.698   0.245  14.426 -0.0620 -1.1702 -2.6623
  198MPD1    H2 3069   1.305   0.165  14.302 -1.3551  0.6877  0.8237
  198MPD1    H3 3070   1.500   0.279  14.282 -0.0783  1.0565  0.5479
  198MPD1     N 3071   1.688   0.107  14.662  0.8810 -0.4016  0.9133
  198MPD1    H5 3072   1.661   0.028  14.720  1.4041 -2.2095 -1.3127
  198MPD1    N1 3073   1.240   4.718  14.505 -0.2663 -0.8262  0.0476
  198MPD1    H6 3074   1.222   4.701  14.604 -0.0882 -3.3720 -0.3725
  198MPD1    H7 3075   1.161   0.021  14.454  1.6751  1.5922 -1.0658
  199MPD1     C 3076   4.416   1.329   9.638  0.3029  0.2264 -0.6703
  199MPD1    C1 3077   4.322   1.245   9.692 -0.1142 -0.2576 -0.0808
  199MPD1    C2 3078   4.201   1.301   9.721 -0.1292  0.7612  0.7517
  199MPD1    C3 3079   4.181   1.438   9.698 -0.3304  0.2513  0.1659
  199MPD1    C4 3080   4.274   1.515   9.627 -0.9306 -0.0665 -0.4674
  199MPD1    C5 3081   4.396   1.459   9.599  0.4734 -1.0982 -0.3931
  199MPD1     H 3082   4.127   1.245   9.778  2.1558 -1.8102  1.1923
  199MPD1    H1 3083   4.257   1.617   9.593  0.9778  0.3800 -0.1008
  199MPD1    H2 3084   4.513   1.287   9.612  0.5877  0.7694 -0.4880
  199MPD1    H3 3085   4.475   1.518   9.554 -1.3570 -0.7936 -3.1592
  199MPD1     N 3086   4.061   1.506   9.730  0.2269  0.2195 -0.5241
  199MPD1    H5 3087   4.061   1.604   9.704  1.5330  0.4180  0.2566
  199MPD1    N1 3088   4.361   1.126   9.745  0.3205  0.1400 -0.3314
  199MPD1    H6 3089   4.285   1.065   9.776 -0.4563  1.1936 -0.1714
  199MPD1    H7 3090   4.419   1.065   9.687 -1.1522  0.7464 -2.4360
  200MPD1     C 3091   3.292   0.827  15.327 -0.2108  0.5259 -0.2325
  200MPD1    C1 3092   3.198   0.845  15.232 -0.0443 -0.6354 -0.5659
  200MPD1    C2 3093   3.211   0.969  15.161 -0.5369  0.0786 -0.5267
  200MPD1    C3 3094   3.295   1.073  15.190  0.2589 -0.6619 -0.2640
  200MPD1    C4 3095   3.377   1.050  15.300  0.1213 -0.3199  0.0530
  200MPD1    C5 3096   3.375   0.933  15.366  0.4953 -0.2701  0.2484
  200MPD1     H 3097   3.145   0.982  15.076 -0.7590  0.7791 -0.2494
  200MPD1    H1 3098   3.454   1.122  15.328 -1.1607  0.6043  1.2235
  200MPD1    H2 3099   3.296   0.749  15.403 -2.6112  0.7686  0.1480
  200MPD1    H3 3100   3.441   0.918  15.451 -1.2772 -0.4400  1.5836
  200MPD1     N 3101   3.294   1.181  15.105  0.2945  0.5760 -0.1276
  200MPD1    H5 3102   3.241   1.185  15.018 -0.5052  1.8808  0.4262
  200MPD1    N1 3103   3.115   0.736  15.185  0.1456  0.5646 -0.1246
  200MPD1    H6 3104   3.032   0.772  15.137 -0.6557 -0.0662  0.7768
  200MPD1    H7 3105   3.090   0.667  15.256  0.7638  1.0943  0.6103
  201MPD1     C 3106   0.125   0.371  13.239 -0.3907  0.7229  0.1915
  201MPD1    C1 3107   0.078   0.244  13.230  0.5305 -0.3102 -0.3738
  201MPD1    C2 3108   0.158   0.142  13.268 -0.7362 -0.5943 -0.3890
  201MPD1    C3 3109   0.278   0.167  13.335  0.1984  0.1049  0.1640
  201MPD1    C4 3110   0.323   0.303  13.345  0.0008 -0.1877  0.3713
  201MPD1    C5 3111   0.248   0.405  13.298  0.4059 -0.2997  0.3071
  201MPD1     H 3112   0.134   0.038  13.249 -1.4003 -0.3244 -1.0152
  201MPD1    H1 3113   0.420   0.326  13.387  0.0816  0.3168 -0.0974
  201MPD1    H2 3114   0.068   0.450  13.190  0.9485  1.5294 -0.0564
  201MPD1    H3 3115   0.285   0.506  13.300 -0.3880  0.0135 -0.9566
  201MPD1     N 3116   0.357   0.060  13.377 -0.1614  0.2406  0.4458
  201MPD1    H5 3117   0.327   4.704  13.345  0.1899  0.9834 -2.0510
  201MPD1    N1 3118   4.707   0.231  13.142 -0.0573 -0.1732  0.2006
  201MPD1    H6 3119   4.648   0.150  13.157  0.7423 -0.8141 -0.0969
  201MPD1    H7 3120   4.654   0.318  13.144 -0.8814 -0.6734 -0.0320
  202MPD1     C 3121   1.286   0.621   9.136  0.1415 -0.1803  0.0906
  202MPD1    C1 3122   1.376   0.516   9.150  0.0423 -0.4827  0.2899
  202MPD1    C2 3123   1.342   0.426   9.252 -0.6768  0.1402  0.5244
  202MPD1    C3 3124   1.221   0.432   9.323 -0.0342  0.7171  0.0436
  202MPD1    C4 3125   1.137   0.540   9.304 -0.0403  0.1808 -0.6369
  202MPD1    C5 3126   1.170   0.637   9.212 -0.1750 -0.5113  0.6548
  202MPD1     H 3127   1.394   0.331   9.250  0.2183  0.6553 -0.2978
  202MPD1    H1 3128   1.042   0.538   9.357 -0.1805  1.9541 -0.8212
  202MPD1    H2 3129   1.294   0.684   9.048  3.3130  0.0349  0.5313
  202MPD1    H3 3130   1.109   0.724   9.195  1.0926 -0.0913 -1.8069
  202MPD1     N 3131   1.194   0.344   9.427 -0.1305 -0.6068 -0.3396
  202MPD1    H5 3132   1.104   0.350   9.473 -0.2759 -1.4722 -0.5079
  202MPD1    N1 3133   1.453   0.467   9.044 -1.3016 -0.1514  0.0476
  202MPD1    H6 3134   1.528   0.413   9.087 -0.2829  0.4081 -1.0452
  202MPD1    H7 3135   1.502   0.544   8.998 -0.0402 -0.9290  0.0924
  203MPD1     C 3136   3.161   0.036  12.301  0.2023  0.1842 -1.0644
  203MPD1    C1 3137   3.254   0.013  12.400  0.5802 -0.4651  0.8192
  203MPD1    C2 3138   3.387   4.733  12.369  0.1534 -0.2627 -0.1339
  203MPD1    C3 3139   3.431   4.730  12.239 -1.3366 -0.1015 -0.3599
  203MPD1    C4 3140   3.334   0.022  12.142  0.2921 -0.5506 -0.1894
  203MPD1    C5 3141   3.209   0.043  12.174 -0.0382 -0.1406  0.4054
  203MPD1     H 3142   3.452   4.732  12.456 -0.4198 -1.4517  0.2798
  203MPD1    H1 3143   3.356   0.013  12.036 -2.3118  0.7266 -0.8646
  203MPD1    H2 3144   3.053   0.033  12.304  0.1500  0.0453 -3.0624
  203MPD1    H3 3145   3.134   0.053  12.096 -2.0282 -1.4365  2.1631
  203MPD1     N 3146   3.567   4.715  12.214 -0.2198 -0.3059  0.4912
  203MPD1    H5 3147   3.623   4.690  12.294  0.1949  0.5965  0.4896
  203MPD1    N1 3148   3.213   0.011  12.534 -0.2855 -0.0210  0.1676
  203MPD1    H6 3149   3.115   4.719  12.543 -0.8444  1.1013 -2.2747
  203MPD1    H7 3150   3.264   4.682  12.593  1.1651  0.3815 -0.6561
  204MPD1     C 3151   2.913   1.713  17.576 -0.5399  0.0784 -0.4828
  204MPD1    C1 3152   3.025   1.760  17.523 -0.2136  0.4115  0.3317
  204MPD1    C2 3153   3.141   1.676  17.529  0.1364  0.3607  0.6241
  204MPD1    C3 3154   3.126   1.552  17.595 -0.4134 -0.0680 -0.3973
  204MPD1    C4 3155   3.004   1.508  17.640  0.4863 -0.2803 -0.4090
  204MPD1    C5 3156   2.895   1.588  17.631 -0.5121  0.0895  0.0979
  204MPD1     H 3157   3.237   1.706  17.487 -0.1231  2.0140  1.2104
  204MPD1    H1 3158   2.983   1.414  17.690 -2.7454 -0.6691 -2.4973
  204MPD1    H2 3159   2.824   1.775  17.572 -0.4997  0.1378 -0.4440
  204MPD1    H3 3160   2.798   1.550  17.660  0.0313 -0.4667  1.2019
  204MPD1     N 3161   3.233   1.464  17.599 -0.1190  0.6130  0.2359
  204MPD1    H5 3162   3.317   1.482  17.545 -0.0258  0.3450  0.2901
  204MPD1    N1 3163   3.031   1.889  17.459  0.0286  0.4850  0.5481
  204MPD1    H6 3164   3.102   1.882  17.387 -0.9880  0.0302 -0.4044
  204MPD1    H7 3165   2.950   1.939  17.423  0.6575  1.2957  0.2456
  205MPD1     C 3166   4.568   0.814   0.717 -0.1719 -0.1386  0.5595
  205MPD1    C1 3167   4.568   0.675   0.719 -0.9733  0.4735  0.2835
  205MPD1    C2 3168   4.463   0.607   0.655  0.1668 -0.9703  0.0048
  205MPD1    C3 3169   4.372   0.672   0.579 -0.0967 -0.2675  0.7303
  205MPD1    C4 3170   4.378   0.811   0.572 -0.9470 -0.1639 -0.1664
  205MPD1    C5 3171   4.469   0.877   0.652 -0.3482 -0.0359 -0.8580
  205MPD1     H 3172   4.466   0.499   0.656 -0.3182 -0.9668  1.2523
  205MPD1    H1 3173   4.319   0.872   0.505  0.1347 -0.6218 -1.5284
  205MPD1    H2 3174   4.640   0.868   0.776 -1.9607 -0.7623  3.3027
  205MPD1    H3 3175   4.477   0.985   0.647  3.6002 -0.2447  0.9254
  205MPD1     N 3176   4.262   0.609   0.518  0.7360 -0.1574 -0.7048
  205MPD1    H5 3177   4.187   0.666   0.480 -0.9614 -0.5739  2.0210
  205MPD1    N1 3178   4.656   0.602   0.798 -0.1753  0.0258 -0.3534
  205MPD1    H6 3179   0.012   0.643   0.814  0.7544 -3.4436  3.3370
  205MPD1    H7 3180   4.676   0.513   0.752  3.0087 -0.2377  1.4930
  206MPD1     C 3181   4.010   2.511  17.043  0.4568 -0.3198  0.0084
  206MPD1    C1 3182   4.016   2.633  16.977 -0.7991  0.3372 -0.8560
  206MPD1    C2 3183   3.978   2.641  16.848 -0.7718  0.1958 -0.2840
  206MPD1    C3 3184   3.921   2.530  16.780 -0.1706  0.2618  0.1181
  206MPD1    C4 3185   3.933   2.407  16.840 -0.0865 -0.0137  0.1468
  206MPD1    C5 3186   3.984   2.400  16.970  0.7859 -0.0203 -0.2242
  206MPD1     H 3187   3.985   2.738  16.799  0.4493  0.6161  0.7093
  206MPD1    H1 3188   3.905   2.314  16.791  1.3454 -0.4990  0.2413
  206MPD1    H2 3189   4.041   2.503  17.147  1.9335 -4.1217 -0.7223
  206MPD1    H3 3190   3.984   2.307  17.027 -0.0674  0.2739  0.2530
  206MPD1     N 3191   3.849   2.540  16.658  0.7961  0.4927  0.5680
  206MPD1    H5 3192   3.830   2.457  16.603 -0.0589 -0.3902  2.1861
  206MPD1    N1 3193   4.090   2.734  17.051  0.0510  0.5863 -0.3834
  206MPD1    H6 3194   4.067   2.825  17.012 -0.2777 -0.2195 -2.0851
  206MPD1    H7 3195   4.080   2.733  17.152  0.0515  0.1102 -0.3863
  207MPD1     C 3196   2.440   1.688   8.844  0.8419 -0.6283  0.7529
  207MPD1    C1 3197   2.341   1.616   8.910 -0.4611 -0.1811 -0.4895
  207MPD1    C2 3198   2.322   1.636   9.051  0.0091 -0.1982 -0.0944
  207MPD1    C3 3199   2.384   1.748   9.111  0.3507  0.3438  0.2441
  207MPD1    C4 3200   2.469   1.824   9.039  0.1461 -0.1685 -0.3386
  207MPD1    C5 3201   2.498   1.797   8.907 -0.0987 -0.5140  0.3147
  207MPD1     H 3202   2.245   1.577   9.100  0.1685  0.2608  0.7062
  207MPD1    H1 3203   2.510   1.908   9.095 -0.0656 -0.1324 -0.2344
  207MPD1    H2 3204   2.477   1.667   8.745  1.1498  1.3417  0.4468
  207MPD1    H3 3205   2.574   1.853   8.854 -0.1136 -0.6698  0.1279
  207MPD1     N 3206   2.363   1.781   9.242  0.4642  0.5183  0.3536
  207MPD1    H5 3207   2.395   1.875   9.263 -1.3358  1.5691 -1.5619
  207MPD1    N1 3208   2.285   1.503   8.856  0.3182 -0.0422 -0.2690
  207MPD1    H6 3209   2.202   1.473   8.907  0.7538 -0.3889  0.2326
  207MPD1    H7 3210   2.272   1.506   8.755  0.5049 -0.5585 -0.3095
  208MPD1     C 3211   4.286   3.445   0.961 -0.1985 -0.4691 -0.4040
  208MPD1    C1 3212   4.330   3.540   1.044 -0.4156  0.9966  0.2361
  208MPD1    C2 3213   4.328   3.673   0.997 -0.0129 -0.3559 -0.0751
  208MPD1    C3 3214   4.293   3.693   0.865  0.2050 -0.2947 -0.1624
  208MPD1    C4 3215   4.278   3.588   0.774  0.4879  0.5382 -0.1216
  208MPD1    C5 3216   4.276   3.461   0.825 -0.2098  0.3282  0.4228
  208MPD1     H 3217   4.370   3.751   1.058 -1.3670  0.7568 -0.5581
  208MPD1    H1 3218   4.249   3.604   0.671 -0.9324  1.2190  0.3830
  208MPD1    H2 3219   4.278   3.346   1.004 -0.6482 -0.0060  0.5810
  208MPD1    H3 3220   4.257   3.379   0.757 -0.6767  0.7005  0.1014
  208MPD1     N 3221   4.278   3.833   0.833 -0.1565 -0.0953 -0.3368
  208MPD1    H5 3222   4.296   3.900   0.907  0.6058  0.3965 -0.9782
  208MPD1    N1 3223   4.370   3.514   1.177  0.4798  0.2536 -0.2438
  208MPD1    H6 3224   4.428   3.585   1.221 -0.4603  1.4484 -0.9548
  208MPD1    H7 3225   4.395   3.418   1.202 -1.5452  0.3664  2.2280
  209MPD1     C 3226   1.742   0.834  10.958 -0.2266 -0.2525  0.3882
  209MPD1    C1 3227   1.729   0.956  11.017  0.5360 -0.3089 -0.4849
  209MPD1    C2 3228   1.738   1.073  10.944  0.6263  0.2307 -0.0098
  209MPD1    C3 3229   1.781   1.071  10.813 -0.7894 -0.3271  0.1717
  209MPD1    C4 3230   1.790   0.945  10.750  0.4647  0.5380  0.1817
  209MPD1    C5 3231   1.770   0.828  10.827  0.4741 -0.0347  0.5084
  209MPD1     H 3232   1.732   1.169  10.994  1.0694  1.5247 -2.4809
  209MPD1    H1 3233   1.831   0.924  10.651  0.9569 -0.5445  0.6127
  209MPD1    H2 3234   1.726   0.737  11.004 -0.7958 -0.1615  0.3911
  209MPD1    H3 3235   1.775   0.732  10.777 -2.9903 -0.1433  0.3842
  209MPD1     N 3236   1.806   1.196  10.747  0.4475 -0.0795  0.7984
  209MPD1    H5 3237   1.795   1.278  10.805 -0.1819 -0.4661  1.2232
  209MPD1    N1 3238   1.686   0.963  11.150  0.1537  0.1479 -0.2870
  209MPD1    H6 3239   1.703   1.047  11.205 -2.4800  0.9140 -0.6350
  209MPD1    H7 3240   1.705   0.881  11.207 -0.6923 -0.9872 -1.6564
  210MPD1     C 3241   1.765   1.926  11.144 -0.7334 -0.3951  0.4685
  210MPD1    C1 3242   1.805   1.972  11.021 -0.8071  0.1367  0.1144
  210MPD1    C2 3243   1.837   1.880  10.923  0.1266  0.4365 -0.2830
  210MPD1    C3 3244   1.829   1.742  10.941 -0.0056 -0.0390  0.5096
  210MPD1    C4 3245   1.779   1.698  11.058  0.0632 -0.4213 -0.7694
  210MPD1    C5 3246   1.747   1.788  11.156  0.1738  0.4212  0.4165
  210MPD1     H 3247   1.878   1.931  10.837 -1.3931 -0.1551 -1.3508
  210MPD1    H1 3248   1.768   1.594  11.086  1.5520 -0.4462 -0.2950
  210MPD1    H2 3249   1.729   1.983  11.229 -0.1745 -2.5123  2.1566
  210MPD1    H3 3250   1.704   1.753  11.249 -0.9363  0.0005 -0.2512
  210MPD1     N 3251   1.854   1.647  10.841  0.9576 -0.1953 -0.0555
  210MPD1    H5 3252   1.839   1.548  10.860 -2.1760  0.0873 -0.9852
  210MPD1    N1 3253   1.829   2.108  11.000 -0.0400  0.3589 -0.2798
  210MPD1    H6 3254   1.783   2.172  11.064 -2.1564 -1.8227  0.3682
  210MPD1    H7 3255   1.846   2.135  10.903  0.6439 -0.9229 -0.5206
  211MPD1     C 3256   3.956   4.184  16.693  0.0745 -0.2267 -0.1770
  211MPD1    C1 3257   3.950   4.316  16.738 -0.1156 -0.0359  0.4638
  211MPD1    C2 3258   3.843   4.389  16.698 -0.6226 -0.0150  0.1536
  211MPD1    C3 3259   3.743   4.325  16.620 -0.8625 -0.1628  0.1759
  211MPD1    C4 3260   3.752   4.198  16.578 -0.1457 -0.0249  0.3514
  211MPD1    C5 3261   3.860   4.127  16.613  0.5487 -0.3062  0.6647
  211MPD1     H 3262   3.833   4.494  16.722  0.4042  0.4307 -1.4156
  211MPD1    H1 3263   3.676   4.153  16.516 -1.3757  1.6554  0.6326
  211MPD1    H2 3264   4.044   4.124  16.713  2.6494  3.3663 -0.6949
  211MPD1    H3 3265   3.862   4.025  16.577 -2.3030  0.0135 -0.4289
  211MPD1     N 3266   3.628   4.406  16.595 -0.2908 -0.0031 -0.2501
  211MPD1    H5 3267   3.634   4.505  16.616 -0.8201 -0.3759  1.6158
  211MPD1    N1 3268   4.056   4.374  16.809  0.1111 -0.3503  0.3734
  211MPD1    H6 3269   4.111   4.309  16.864  0.3485  0.2515  0.8415
  211MPD1    H7 3270   4.016   4.445  16.870  2.5251  1.8490 -0.6007
  212MPD1     C 3271   3.314   3.162  16.463 -0.4569 -0.1249  0.5002
  212MPD1    C1 3272   3.274   3.224  16.581  0.7950  1.0240 -0.4434
  212MPD1    C2 3273   3.184   3.160  16.662 -0.3285 -0.2940 -0.3484
  212MPD1    C3 3274   3.140   3.029  16.645  0.4302  0.7945 -0.5650
  212MPD1    C4 3275   3.178   2.970  16.532  0.5153  0.2430  0.8396
  212MPD1    C5 3276   3.262   3.034  16.442 -0.6058  0.0820 -0.2579
  212MPD1     H 3277   3.152   3.212  16.752  1.2171 -0.6893  0.4307
  212MPD1    H1 3278   3.142   2.872  16.502  1.2012  0.6434 -1.3304
  212MPD1    H2 3279   3.393   3.209  16.405 -2.7023 -0.3487 -2.6667
  212MPD1    H3 3280   3.295   2.991  16.348 -0.1914 -1.5381  0.6303
  212MPD1     N 3281   3.052   2.965  16.737  0.8775 -0.3794 -0.4826
  212MPD1    H5 3282   3.028   2.874  16.701  1.1083 -0.3074 -0.8167
  212MPD1    N1 3283   3.304   3.359  16.599 -0.0407 -0.3650  0.1936
  212MPD1    H6 3284   3.402   3.382  16.586 -0.1023 -0.9547 -1.2641
  212MPD1    H7 3285   3.295   3.396  16.693  1.6939 -0.1118  0.2675
  213MPD1     C 3286   1.507   3.776  15.618 -0.7021 -0.6328  0.6571
  213MPD1    C1 3287   1.480   3.666  15.541  0.4547  0.0410 -0.0690
  213MPD1    C2 3288   1.377   3.685  15.454 -0.1261 -0.3259 -0.1286
  213MPD1    C3 3289   1.283   3.786  15.460  0.5052  0.3163 -0.4963
  213MPD1    C4 3290   1.301   3.878  15.557 -0.3061 -0.3760  0.1720
  213MPD1    C5 3291   1.410   3.878  15.634  0.0879 -0.0342  0.1813
  213MPD1     H 3292   1.369   3.611  15.375  0.8648 -0.0341 -0.4983
  213MPD1    H1 3293   1.239   3.967  15.565  1.2565  0.8643 -1.6024
  213MPD1    H2 3294   1.592   3.781  15.684 -1.0121 -1.1518  1.0931
  213MPD1    H3 3295   1.422   3.955  15.709 -0.0564 -1.8016  2.0469
  213MPD1     N 3296   1.171   3.794  15.372  1.2022  0.6191 -0.6503
  213MPD1    H5 3297   1.158   3.714  15.310 -1.8038 -1.0042  2.0486
  213MPD1    N1 3298   1.585   3.578  15.509 -0.5700 -0.2420  0.5241
  213MPD1    H6 3299   1.642   3.557  15.591  1.7540 -0.4815 -1.1826
  213MPD1    H7 3300   1.538   3.496  15.472 -1.2866 -0.4398  1.8540
  214MPD1     C 3301   0.685   3.105  15.294 -0.0301 -0.2194 -0.3597
  214MPD1    C1 3302   0.578   3.190  15.271  0.3364 -0.4952  0.1906
  214MPD1    C2 3303   0.619   3.321  15.245 -0.5088  0.2828 -0.1186
  214MPD1    C3 3304   0.749   3.368  15.274 -1.1683  0.6958  0.6684
  214MPD1    C4 3305   0.849   3.281  15.315 -0.9627  0.0301  0.3233
  214MPD1    C5 3306   0.816   3.146  15.321 -0.3931  0.0150 -0.8973
  214MPD1     H 3307   0.548   3.396  15.210  0.2110  1.3696  0.7348
  214MPD1    H1 3308   0.944   3.316  15.351  0.1529 -2.2309 -0.3888
  214MPD1    H2 3309   0.675   2.997  15.287 -0.1264 -0.2494  0.1645
  214MPD1    H3 3310   0.893   3.074  15.345 -0.2410 -0.6605 -3.3224
  214MPD1     N 3311   0.793   3.500  15.250 -0.0783 -0.6325 -0.4081
  214MPD1    H5 3312   0.887   3.519  15.284 -1.2725  3.2787  0.6951
  214MPD1    N1 3313   0.443   3.150  15.234 -0.3043 -0.2424  0.2268
  214MPD1    H6 3314   0.411   3.066  15.282 -1.9302  0.5887  0.5898
  214MPD1    H7 3315   0.371   3.222  15.237 -1.8459 -1.7933  0.2882
  215MPD1     C 3316   0.668   0.733  10.957  0.3765 -0.4207  0.2010
  215MPD1    C1 3317   0.703   0.750  11.087  0.8983  0.2925 -0.5162
  215MPD1    C2 3318   0.819   0.816  11.115  0.2089 -0.7429 -0.0657
  215MPD1    C3 3319   0.884   0.885  11.017  0.3398  0.2910 -0.6211
  215MPD1    C4 3320   0.836   0.885  10.887 -0.4700 -0.3684 -0.4568
  215MPD1    C5 3321   0.728   0.809  10.859  0.4604  0.1155 -0.2921
  215MPD1     H 3322   0.861   0.820  11.215 -1.8431  1.8584  0.7253
  215MPD1    H1 3323   0.875   0.942  10.803  2.6517 -1.2093  0.4194
  215MPD1    H2 3324   0.582   0.673  10.932  0.3313 -0.3174  0.1101
  215MPD1    H3 3325   0.699   0.805  10.755  1.2758 -0.8360 -0.4825
  215MPD1     N 3326   1.006   0.948  11.055 -0.0833 -0.1254  0.5362
  215MPD1    H5 3327   1.045   0.933  11.147  0.6287  2.3805  0.6483
  215MPD1    N1 3328   0.626   0.673  11.179  0.8297 -1.1896 -0.0581
  215MPD1    H6 3329   0.633   0.714  11.272 -3.1387  0.2683 -0.3989
  215MPD1    H7 3330   0.529   0.671  11.150  0.4650  2.1665  0.9563
  216MPD1     C 3331   3.379   3.095  17.042 -0.1504 -0.1075 -0.0501
  216MPD1    C1 3332   3.348   3.064  17.172 -0.4992 -0.0249 -0.5890
  216MPD1    C2 3333   3.292   2.941  17.199 -0.4378  0.1620 -0.4023
  216MPD1    C3 3334   3.281   2.846  17.100  0.8899  0.6411  0.1026
  216MPD1    C4 3335   3.308   2.878  16.968 -0.7040 -0.3268 -0.6796
  216MPD1    C5 3336   3.361   3.001  16.948  0.3172  0.2046 -0.3258
  216MPD1     H 3337   3.258   2.917  17.299  0.5561 -0.1317 -0.1290
  216MPD1    H1 3338   3.305   2.801  16.892  0.2217 -0.1073 -0.9412
  216MPD1    H2 3339   3.416   3.192  17.013 -0.9585  0.4348  0.7694
  216MPD1    H3 3340   3.381   3.020  16.843  1.7687  0.7045  0.0583
  216MPD1     N 3341   3.245   2.721  17.145 -0.5279 -0.0935 -0.5477
  216MPD1    H5 3342   3.238   2.705  17.245  1.0093 -2.6863 -0.8656
  216MPD1    N1 3343   3.349   3.167  17.263  0.5358 -0.6022  1.1162
  216MPD1    H6 3344   3.432   3.218  17.233 -0.6646  0.7131  0.0151
  216MPD1    H7 3345   3.356   3.142  17.362  2.5876  0.1311  1.1735
  217MPD1     C 3346   4.422   0.373   8.382  0.6000 -1.2263  0.4244
  217MPD1    C1 3347   4.329   0.375   8.485 -0.2395 -0.7913  0.2581
  217MPD1    C2 3348   4.370   0.323   8.605 -0.5478 -0.1632  0.3989
  217MPD1    C3 3349   4.493   0.268   8.620  0.0144 -0.6759  0.3918
  217MPD1    C4 3350   4.586   0.266   8.518 -0.0356 -0.3549  0.5273
  217MPD1    C5 3351   4.547   0.323   8.400  0.6957 -0.4745  0.0931
  217MPD1     H 3352   4.304   0.338   8.690 -1.3585 -0.3250 -0.2003
  217MPD1    H1 3353   4.683   0.219   8.526  0.4939  1.2055  3.0891
  217MPD1    H2 3354   4.398   0.413   8.285  0.3504  0.4337  1.1689
  217MPD1    H3 3355   4.623   0.321   8.323  0.8085 -0.4503  0.2032
  217MPD1     N 3356   4.540   0.218   8.746 -0.7178  0.5695  0.4538
  217MPD1    H5 3357   4.633   0.179   8.749 -1.1558 -0.2888  3.4892
  217MPD1    N1 3358   4.204   0.439   8.468  0.1735  0.1518  0.5123
  217MPD1    H6 3359   4.130   0.390   8.518 -0.5731  0.7907  0.0263
  217MPD1    H7 3360   4.184   0.461   8.371 -0.1728  0.4477  0.6513
  218MPD1     C 3361   0.650   4.618  12.576 -0.4082 -0.0742 -0.2720
  218MPD1    C1 3362   0.734   4.629  12.681  0.7022  0.1673  0.8268
  218MPD1    C2 3363   0.783   0.019  12.719 -0.3859 -0.0495  0.4388
  218MPD1    C3 3364   0.731   0.133  12.661  0.2399 -0.1958  0.2971
  218MPD1    C4 3365   0.625   0.120  12.572 -0.5150 -0.5775 -0.1373
  218MPD1    C5 3366   0.600   4.734  12.522  0.4966  0.1140  0.7249
  218MPD1     H 3367   0.857   0.042  12.795  1.3734 -2.1002 -0.6523
  218MPD1    H1 3368   0.591   0.212  12.525  1.2924  0.4148  0.5124
  218MPD1    H2 3369   0.616   4.521  12.540  1.6653 -0.2605 -1.7454
  218MPD1    H3 3370   0.518   4.729  12.452  0.0677  3.3641  0.9969
  218MPD1     N 3371   0.785   0.254  12.706 -1.3606 -0.3757  0.1160
  218MPD1    H5 3372   0.854   0.244  12.780 -0.8815  0.8858 -0.1605
  218MPD1    N1 3373   0.817   4.519  12.722 -0.0123  0.4195 -0.0991
  218MPD1    H6 3374   0.763   4.433  12.726  1.0010 -0.1734  0.6085
  218MPD1    H7 3375   0.857   4.543  12.812  0.0701  1.5919 -0.4508
  219MPD1     C 3376   0.494   1.207  12.567  0.3814 -0.1054 -0.5314
  219MPD1    C1 3377   0.559   1.211  12.688 -0.7617  0.6667  0.4792
  219MPD1    C2 3378   0.610   1.090  12.740  0.1683  0.2122  0.1584
  219MPD1    C3 3379   0.598   0.975  12.662  0.3375  0.3421  0.4379
  219MPD1    C4 3380   0.530   0.972  12.547 -0.1766 -0.0689 -0.3942
  219MPD1    C5 3381   0.473   1.089  12.503  0.1783 -1.2664  0.6759
  219MPD1     H 3382   0.671   1.101  12.829  1.4231 -1.0784 -0.5511
  219MPD1    H1 3383   0.519   0.882  12.488 -0.5507 -0.6272  0.5244
  219MPD1    H2 3384   0.459   1.299  12.521 -0.6173  0.1858  0.8142
  219MPD1    H3 3385   0.415   1.092  12.412  1.7983  0.6136 -0.3042
  219MPD1     N 3386   0.667   0.854  12.698  0.1612  0.3115  0.3357
  219MPD1    H5 3387   0.630   0.770  12.653  0.4166  1.0004 -1.1704
  219MPD1    N1 3388   0.587   1.335  12.749  0.5187 -0.1244  0.6848
  219MPD1    H6 3389   0.520   1.409  12.731  0.7738  0.3489  1.6966
  219MPD1    H7 3390   0.619   1.322  12.845 -1.7451  2.5569  1.7820
  220MPD1     C 3391   1.924   1.581   9.398 -0.4413 -0.1798 -0.2462
  220MPD1    C1 3392   1.889   1.692   9.476 -0.3315 -0.4628 -0.0916
  220MPD1    C2 3393   1.814   1.668   9.588 -0.3030 -0.0248  1.1417
  220MPD1    C3 3394   1.759   1.541   9.625  0.2132  0.7955 -0.5810
  220MPD1    C4 3395   1.809   1.436   9.553 -0.0277 -0.0918 -0.0539
  220MPD1    C5 3396   1.890   1.462   9.445 -0.5548 -0.5827 -0.1924
  220MPD1     H 3397   1.793   1.753   9.652  1.2496  2.7551 -2.0775
  220MPD1    H1 3398   1.784   1.334   9.577 -0.0877  0.0367  0.4391
  220MPD1    H2 3399   1.973   1.591   9.302 -3.8981  2.7077 -1.6854
  220MPD1    H3 3400   1.925   1.371   9.398  4.0487  1.4646 -0.6709
  220MPD1     N 3401   1.680   1.520   9.744  0.0459  0.4598  0.9220
  220MPD1    H5 3402   1.664   1.599   9.805  0.7345  1.0735  0.3010
  220MPD1    N1 3403   1.939   1.818   9.442  0.3247 -0.6090  0.5439
  220MPD1    H6 3404   1.975   1.835   9.348 -2.0904  0.2666 -0.2309
  220MPD1    H7 3405   1.897   1.902   9.481  1.5604 -0.2851  1.2023
  221MPD1     C 3406   3.663   4.680  16.108 -0.0465 -0.8102 -0.8922
  221MPD1    C1 3407   3.549   4.605  16.086 -0.0725  0.7262 -0.0958
  221MPD1    C2 3408   3.568   4.465  16.082  0.1242  0.6456  0.3139
  221MPD1    C3 3409   3.684   4.401  16.121  0.3942  0.6959 -0.3364
  221MPD1    C4 3410   3.792   4.474  16.158 -0.3025 -0.6205 -0.6696
  221MPD1    C5 3411   3.780   4.616  16.147  0.1067  0.1677 -0.3207
  221MPD1     H 3412   3.474   4.412  16.070 -0.4105  1.6899 -0.0726
  221MPD1    H1 3413   3.887   4.428  16.185 -0.1581  0.5220  0.7895
  221MPD1    H2 3414   3.656   0.051  16.101  1.2283 -0.6654  0.2526
  221MPD1    H3 3415   3.872   4.670  16.164  0.4121 -0.5633  0.3793
  221MPD1     N 3416   3.697   4.267  16.149 -0.1712  0.0931 -0.5909
  221MPD1    H5 3417   3.774   4.232  16.204 -0.6341  1.4428  0.9144
  221MPD1    N1 3418   3.429   4.667  16.043 -0.0221 -0.2054  0.4729
  221MPD1    H6 3419   3.347   4.618  16.077  0.1234 -0.3021  0.6803
  221MPD1    H7 3420   3.424   0.021  16.089  3.0222  0.1073  0.1672
  222MPD1     C 3421   4.173   3.307  16.831 -0.3289 -0.0506 -0.0811
  222MPD1    C1 3422   4.038   3.303  16.792  0.5818  0.1091 -0.6734
  222MPD1    C2 3423   3.951   3.388  16.858 -0.4786 -0.1701  0.6018
  222MPD1    C3 3424   3.995   3.478  16.952  0.7028  0.0658  0.2822
  222MPD1    C4 3425   4.129   3.490  16.970 -0.7300  0.2370  0.3865
  222MPD1    C5 3426   4.213   3.400  16.918  0.1463  0.6617  0.4221
  222MPD1     H 3427   3.847   3.372  16.832  0.0522 -0.4531 -1.3658
  222MPD1    H1 3428   4.180   3.551  17.043  0.8029 -1.8670  1.0641
  222MPD1    H2 3429   4.243   3.236  16.790 -0.2768  0.4944 -0.9307
  222MPD1    H3 3430   4.313   3.394  16.958  0.0299 -0.1808  0.5803
  222MPD1     N 3431   3.914   3.571  17.029 -0.3877  0.2539  0.1344
  222MPD1    H5 3432   3.959   3.623  17.104 -0.9340  0.1228  0.5496
  222MPD1    N1 3433   3.989   3.197  16.709 -0.5199  0.6099 -0.5385
  222MPD1    H6 3434   4.050   3.146  16.645 -0.0110  1.0927 -0.4381
  222MPD1    H7 3435   3.902   3.217  16.661 -2.3229 -1.6622  1.7828
  223MPD1     C 3436   2.883   3.773  16.979 -0.1825  0.5241  0.1465
  223MPD1    C1 3437   2.973   3.777  16.874  0.0552 -0.3343  0.3239
  223MPD1    C2 3438   3.112   3.771  16.904 -0.1825  0.3689 -0.7125
  223MPD1    C3 3439   3.155   3.791  17.035  0.4533  0.4447 -0.4013
  223MPD1    C4 3440   3.064   3.811  17.130  0.2195  0.7497  0.3394
  223MPD1    C5 3441   2.931   3.802  17.103 -0.6827 -0.0091  0.2141
  223MPD1     H 3442   3.182   3.755  16.823 -0.9272  3.2925 -1.9340
  223MPD1    H1 3443   3.091   3.829  17.234  1.4843  0.6760  0.0172
  223MPD1    H2 3444   2.780   3.750  16.958 -0.6996  2.5192  0.5141
  223MPD1    H3 3445   2.859   3.820  17.182  0.1035  2.3526  0.4054
  223MPD1     N 3446   3.298   3.780  17.054 -0.4347 -0.4148 -0.3158
  223MPD1    H5 3447   3.359   3.758  16.976 -1.2246 -1.8541 -0.5392
  223MPD1    N1 3448   2.924   3.737  16.746 -0.3387  0.3474  0.1590
  223MPD1    H6 3449   2.991   3.769  16.676 -1.9588  0.0708 -1.5272
  223MPD1    H7 3450   2.837   3.779  16.713 -0.1821  0.2550 -0.3774
  224MPD1     C 3451   0.069   0.493   8.832 -0.3543 -0.1388  0.6094
  224MPD1    C1 3452   4.687   0.534   8.883  0.0454  0.6663 -0.1895
  224MPD1    C2 3453   4.665   0.515   9.019 -0.2167 -0.0876 -0.4383
  224MPD1    C3 3454   0.021   0.454   9.098 -0.4134  0.1681 -0.1283
  224MPD1    C4 3455   0.141   0.413   9.045 -0.6982  0.2696  0.3307
  224MPD1    C5 3456   0.159   0.427   8.913  0.1897 -0.1256 -0.4590
  224MPD1     H 3457   4.571   0.543   9.063 -0.0534  0.4579 -0.4411
  224MPD1    H1 3458   0.205   0.348   9.103 -0.2747  0.1148 -0.3131
  224MPD1    H2 3459   0.092   0.514   8.728  1.2473  2.2315  1.4579
  224MPD1    H3 3460   0.259   0.406   8.875 -0.0855 -0.9383 -0.7373
  224MPD1     N 3461   4.732   0.432   9.233  0.4424 -0.2095 -0.1058
  224MPD1    H5 3462   0.074   0.393   9.283  0.5328  1.2485  0.9002
  224MPD1    N1 3463   4.606   0.624   8.809 -0.3658  0.0721  0.2154
  224MPD1    H6 3464   4.506   0.617   8.828 -0.4757 -1.0941 -0.7540
  224MPD1    H7 3465   4.596   0.613   8.708 -3.0829 -1.0951  0.6035
  225MPD1     C 3466   1.168   1.953  12.279  0.1462 -0.3902  0.2068
  225MPD1    C1 3467   1.162   1.820  12.295 -0.4745 -0.0923 -0.8224
  225MPD1    C2 3468   1.051   1.752  12.238 -0.2695  0.3354  0.7998
  225MPD1    C3 3469   0.952   1.808  12.159 -0.1062  0.3891  0.0074
  225MPD1    C4 3470   0.971   1.940  12.134 -0.0824  1.6294 -0.0073
  225MPD1    C5 3471   1.077   2.013  12.195 -0.4680  0.6446 -0.1283
  225MPD1     H 3472   1.037   1.647  12.258  0.6152  0.1754  0.5880
  225MPD1    H1 3473   0.910   1.995  12.063 -0.8796  0.5001 -0.2156
  225MPD1    H2 3474   1.245   2.014  12.324  1.7852 -2.7985  0.6973
  225MPD1    H3 3475   1.094   2.118  12.172  1.0132  0.7288  1.3103
  225MPD1     N 3476   0.836   1.760  12.099 -0.3260  0.6484 -0.0110
  225MPD1    H5 3477   0.789   1.818  12.030 -0.9871  0.4912  0.3137
  225MPD1    N1 3478   1.251   1.751  12.382 -0.6296  0.0837 -0.2756
  225MPD1    H6 3479   1.255   1.653  12.355 -0.9462  0.2992 -1.1148
  225MPD1    H7 3480   1.345   1.790  12.375  0.0258 -1.0108  2.3886
  226MPD1     C 3481   3.767   0.759   9.923 -0.3962 -0.4231 -0.2650
  226MPD1    C1 3482   3.673   0.840   9.863 -0.1435  0.7424 -0.2571
  226MPD1    C2 3483   3.714   0.923   9.757  0.2091 -0.0559 -0.3797
  226MPD1    C3 3484   3.842   0.932   9.723  0.0513  0.2077  0.1639
  226MPD1    C4 3485   3.936   0.846   9.783 -0.3284 -0.0153 -0.2915
  226MPD1    C5 3486   3.892   0.760   9.883 -0.5277 -0.3167 -0.1156
  226MPD1     H 3487   3.643   0.987   9.706 -1.3638  0.6835  2.7349
  226MPD1    H1 3488   4.040   0.837   9.756 -0.6345 -3.6792 -0.2209
  226MPD1    H2 3489   3.742   0.693  10.005 -0.5868 -1.2825 -1.0114
  226MPD1    H3 3490   3.965   0.692   9.924  0.5518  1.1567  0.4026
  226MPD1     N 3491   3.880   1.016   9.617  0.3276  0.1327 -0.2954
  226MPD1    H5 3492   3.807   1.068   9.570  1.1260 -0.5599 -2.3051
  226MPD1    N1 3493   3.539   0.817   9.891  0.3749  0.7872  0.1560
  226MPD1    H6 3494   3.523   0.797   9.990  0.9568  3.0354  0.6962
  226MPD1    H7 3495   3.488   0.904   9.879  0.4391  0.9224  0.8587
  227MPD1     C 3496   3.337   1.578   9.407  0.6347  0.7423  0.0735
  227MPD1    C1 3497   3.344   1.443   9.420 -0.2274  0.3377  0.2995
  227MPD1    C2 3498   3.465   1.378   9.403  0.4559  0.3832  0.0637
  227MPD1    C3 3499   3.587   1.453   9.398  0.7439  0.3563  0.3333
  227MPD1    C4 3500   3.580   1.592   9.402 -0.7009 -0.0925 -0.0487
  227MPD1    C5 3501   3.454   1.651   9.393 -0.2924  0.2043 -0.5335
  227MPD1     H 3502   3.464   1.271   9.387 -2.4437  0.4508 -0.2470
  227MPD1    H1 3503   3.663   1.662   9.400 -1.3272  0.6184 -1.3414
  227MPD1    H2 3504   3.248   1.639   9.394  0.0718  0.3552  2.2274
  227MPD1    H3 3505   3.446   1.759   9.384  3.9861  0.7759  2.5850
  227MPD1     N 3506   3.707   1.381   9.383  0.0181  0.1389  0.2679
  227MPD1    H5 3507   3.694   1.281   9.393  0.4050  0.2238  1.6484
  227MPD1    N1 3508   3.225   1.372   9.422  0.3486  0.1611  0.3652
  227MPD1    H6 3509   3.232   1.291   9.483 -0.3028 -0.3841 -0.2926
  227MPD1    H7 3510   3.148   1.427   9.459  0.4042  0.7972 -0.4680
  228MPD1     C 3511   2.605   4.243  12.798  0.6599  0.4723  0.3924
  228MPD1    C1 3512   2.538   4.239  12.676 -0.0935 -0.0923 -0.1378
  228MPD1    C2 3513   2.484   4.119  12.641 -0.5563 -0.1200  0.0668
  228MPD1    C3 3514   2.471   4.013  12.728 -0.0765 -0.0277 -0.0336
  228MPD1    C4 3515   2.531   4.016  12.849  0.8844  0.1186  0.1963
  228MPD1    C5 3516   2.606   4.125  12.874 -0.2088  0.2826  0.4974
  228MPD1     H 3517   2.437   4.114  12.543  0.2695  0.6984 -0.3690
  228MPD1    H1 3518   2.535   3.926  12.909 -0.9490 -1.2374 -1.7117
  228MPD1    H2 3519   2.648   4.334  12.836 -1.1498  1.7638 -0.6301
  228MPD1    H3 3520   2.655   4.116  12.970  2.4190  0.8610 -0.8127
  228MPD1     N 3521   2.402   3.897  12.673 -0.4001 -0.3160 -0.4991
  228MPD1    H5 3522   2.358   3.919  12.584 -2.0313  1.6874  0.8106
  228MPD1    N1 3523   2.560   4.335  12.572 -0.4875 -0.0209 -0.2589
  228MPD1    H6 3524   2.572   4.433  12.593 -0.4873 -0.4725  1.8365
  228MPD1    H7 3525   2.494   4.330  12.494  0.1892  1.9411 -0.9628
  229MPD1     C 3526   1.793   2.603  14.594 -0.5757  0.1768  0.4604
  229MPD1    C1 3527   1.887   2.541  14.512  0.2884  0.1254  0.9462
  229MPD1    C2 3528   1.983   2.459  14.570  0.1884  0.1390 -0.1027
  229MPD1    C3 3529   1.987   2.439  14.707 -0.1961 -0.1547 -0.6065
  229MPD1    C4 3530   1.892   2.504  14.782  0.4593  0.3698 -0.1716
  229MPD1    C5 3531   1.797   2.585  14.727  0.0264 -0.4367 -0.5171
  229MPD1     H 3532   2.056   2.415  14.503  0.3950  1.2189 -0.5932
  229MPD1    H1 3533   1.883   2.494  14.889 -0.0104  1.4223 -0.1134
  229MPD1    H2 3534   1.718   2.668  14.550 -0.1190  1.0759  1.0093
  229MPD1    H3 3535   1.730   2.631  14.799 -0.4378 -0.2228 -1.0838
  229MPD1     N 3536   2.066   2.344  14.769  0.1537  0.1156 -0.5766
  229MPD1    H5 3537   2.044   2.317  14.865  1.6060 -1.5722 -0.7155
  229MPD1    N1 3538   1.905   2.580  14.378  0.4525  0.1176 -0.0067
  229MPD1    H6 3539   1.942   2.504  14.320 -0.8967 -1.1274  0.7714
  229MPD1    H7 3540   1.826   2.616  14.324 -0.4686 -0.5875  0.8866
  230MPD1     C 3541   2.591   1.993  15.555  0.6618  0.9517  0.6001
  230MPD1    C1 3542   2.624   1.912  15.454 -0.5966  0.0338 -0.6798
  230MPD1    C2 3543   2.553   1.918  15.330  0.1372 -0.0800 -0.7110
  230MPD1    C3 3544   2.484   2.029  15.302  0.7043 -0.8973 -0.2640
  230MPD1    C4 3545   2.459   2.120  15.399 -0.6437  0.1672  0.1684
  230MPD1    C5 3546   2.507   2.097  15.524 -1.1123  0.0155  0.4598
  230MPD1     H 3547   2.594   1.855  15.253  2.1023 -2.2958  2.1492
  230MPD1    H1 3548   2.393   2.207  15.394 -0.6045  0.1888  0.0317
  230MPD1    H2 3549   2.613   1.975  15.660  1.2166  1.3280  0.5518
  230MPD1    H3 3550   2.487   2.161  15.609  2.4692  2.6194 -0.6459
  230MPD1     N 3551   2.430   2.035  15.172  0.2013  0.5021 -0.2229
  230MPD1    H5 3552   2.472   1.963  15.113 -1.8455 -0.0326 -1.0388
  230MPD1    N1 3553   2.698   1.804  15.490  0.0361  0.0403  0.3292
  230MPD1    H6 3554   2.745   1.770  15.407  0.8758  2.0168  0.0057
  230MPD1    H7 3555   2.773   1.828  15.554  0.4971  0.9169 -0.5339
  231MPD1     C 3556   0.309   3.541  15.436 -0.4374 -0.1516 -0.6473
  231MPD1    C1 3557   0.197   3.560  15.360 -0.7461 -0.2127  0.1495
  231MPD1    C2 3558   0.197   3.676  15.289 -0.7281  0.5312  0.2092
  231MPD1    C3 3559   0.297   3.772  15.300  0.4038  0.3595 -0.2060
  231MPD1    C4 3560   0.408   3.747  15.380 -0.0164  0.3519  0.2840
  231MPD1    C5 3561   0.409   3.630  15.445  0.6920  0.2032 -0.2349
  231MPD1     H 3562   0.109   3.695  15.230  0.0855  0.2749 -1.0930
  231MPD1    H1 3563   0.478   3.826  15.405 -1.2361  0.1474  4.3186
  231MPD1    H2 3564   0.340   3.450  15.487  0.4536  0.6149  0.1863
  231MPD1    H3 3565   0.480   3.618  15.526 -0.5156 -2.2824  0.4886
  231MPD1     N 3566   0.288   3.893  15.226  0.4571  0.2575  0.4572
  231MPD1    H5 3567   0.206   3.906  15.167  0.2925 -0.6788  0.4754
  231MPD1    N1 3568   0.117   3.448  15.340 -0.2533  0.3706  0.4656
  231MPD1    H6 3569   0.123   3.397  15.429 -2.7277 -0.0524  0.3896
  231MPD1    H7 3570   0.021   3.469  15.313 -0.6111  0.4213  1.7375
  232MPD1     C 3571   2.322   1.307  17.290  0.1286  0.7894  0.6568
  232MPD1    C1 3572   2.329   1.334  17.422  0.1062 -0.3675 -0.2433
  232MPD1    C2 3573   2.228   1.405  17.485 -0.5276 -0.2207 -0.2084
  232MPD1    C3 3574   2.137   1.477  17.408  0.5815  0.0364  1.2180
  232MPD1    C4 3575   2.149   1.468  17.272  0.8878  0.4199 -0.0778
  232MPD1    C5 3576   2.231   1.373  17.212 -0.0298  1.5623 -0.5211
  232MPD1     H 3577   2.233   1.419  17.593  1.8301  1.2411 -0.4912
  232MPD1    H1 3578   2.086   1.528  17.208  0.6988  0.6746  0.3452
  232MPD1    H2 3579   2.394   1.236  17.250 -2.0890 -1.4049  0.5292
  232MPD1    H3 3580   2.229   1.353  17.105  0.2033  0.4029 -0.3088
  232MPD1     N 3581   2.063   1.584  17.474  0.6215  0.4455 -0.3227
  232MPD1    H5 3582   2.066   1.590  17.576  4.9106  0.4516 -0.4492
  232MPD1    N1 3583   2.432   1.270  17.496  0.0310 -0.0774 -0.3312
  232MPD1    H6 3584   2.468   1.307  17.584 -0.2855  0.2614 -0.3440
  232MPD1    H7 3585   2.513   1.258  17.437  0.5446  0.1563  0.3269
  233MPD1     C 3586   3.225   4.607   0.262  0.0113  0.0030 -0.1721
  233MPD1    C1 3587   3.310   4.715   0.287  0.6720  0.1656  0.6182
  233MPD1    C2 3588   3.397   4.698   0.393 -0.0840  0.1295 -0.2365
  233MPD1    C3 3589   3.420   4.582   0.454 -0.7193 -0.0769  0.2205
  233MPD1    C4 3590   3.343   4.477   0.427  0.4869  0.0647 -0.1564
  233MPD1    C5 3591   3.248   4.490   0.328  0.3916  0.2150 -0.7143
  233MPD1     H 3592   3.455   0.049   0.422  1.7469 -1.3899  0.7120
  233MPD1    H1 3593   3.356   4.381   0.477 -0.2095  0.2132  0.3196
  233MPD1    H2 3594   3.152   4.598   0.182 -0.7821 -2.3457  0.8342
  233MPD1    H3 3595   3.184   4.407   0.301 -1.2704  0.9663  0.8767
  233MPD1     N 3596   3.519   4.558   0.548 -0.1628 -0.2245  0.1739
  233MPD1    H5 3597   3.528   4.465   0.589 -1.0855  0.1531  1.2297
  233MPD1    N1 3598   3.279   0.103   0.224 -0.2400 -0.0787 -0.1867
  233MPD1    H6 3599   3.248   0.094   0.127 -1.4347 -0.6384  0.2479
  233MPD1    H7 3600   3.360   0.164   0.218 -1.4442  1.2749 -2.8151
  234MPD1     C 3601   1.239   4.011   9.508 -0.1089  0.5188 -0.3714
  234MPD1    C1 3602   1.256   4.110   9.605 -0.1265 -0.5170  0.7070
  234MPD1    C2 3603   1.172   4.221   9.592 -0.0442 -0.3879  0.7448
  234MPD1    C3 3604   1.066   4.223   9.501  0.5370  0.1871  0.4443
  234MPD1    C4 3605   1.049   4.113   9.417  0.4852 -0.2482 -0.4770
  234MPD1    C5 3606   1.136   4.010   9.416  0.3121  0.7171  0.0636
  234MPD1     H 3607   1.188   4.307   9.656 -1.2564  0.7570 -0.4909
  234MPD1    H1 3608   0.965   4.112   9.349 -1.4542  1.8935  1.8854
  234MPD1    H2 3609   1.308   3.928   9.507  1.9814  2.1968  1.7191
  234MPD1    H3 3610   1.119   3.924   9.352 -0.9920  0.8458  0.2285
  234MPD1     N 3611   0.984   4.334   9.500 -0.7058  0.0594 -0.6583
  234MPD1    H5 3612   0.999   4.392   9.582 -0.1983 -0.0188 -0.6988
  234MPD1    N1 3613   1.370   4.116   9.680 -0.1044 -0.5543  0.0987
  234MPD1    H6 3614   1.399   4.022   9.706  0.3431 -0.4229  0.0589
  234MPD1    H7 3615   1.355   4.177   9.760 -0.5533 -1.9600  1.0998
  235MPD1     C 3616   1.734   2.080   9.723 -1.0064 -0.7872  0.0016
  235MPD1    C1 3617   1.743   2.203   9.659  0.1900 -0.1631  0.1669
  235MPD1    C2 3618   1.879   2.250   9.655  0.7808 -0.3926  0.5350
  235MPD1    C3 3619   1.982   2.207   9.741 -0.2816 -0.5996 -0.5630
  235MPD1    C4 3620   1.958   2.102   9.825  0.0965 -0.1662  0.6422
  235MPD1    C5 3621   1.836   2.042   9.809  0.9713 -0.9376 -0.0085
  235MPD1     H 3622   1.905   2.333   9.591 -1.4681 -0.4503 -0.4592
  235MPD1    H1 3623   2.032   2.070   9.898 -0.0201  2.4573  1.8931
  235MPD1    H2 3624   1.643   2.021   9.726 -0.6253 -1.4071 -0.6114
  235MPD1    H3 3625   1.821   1.966   9.885 -0.2837 -1.9747 -1.3060
  235MPD1     N 3626   2.104   2.287   9.746 -0.6745 -0.3067 -0.2444
  235MPD1    H5 3627   2.113   2.366   9.683  2.2878  0.8577  1.6717
  235MPD1    N1 3628   1.653   2.241   9.563 -0.3553  0.0241 -0.6738
  235MPD1    H6 3629   1.653   2.343   9.553 -0.7813  0.1319  0.4233
  235MPD1    H7 3630   1.556   2.212   9.577  0.4244 -1.3845  1.8082
  236MPD1     C 3631   1.035   3.279   9.591 -0.6614 -0.4538 -0.7432
  236MPD1    C1 3632   1.032   3.145   9.567  0.5285  0.0417 -0.1266
  236MPD1    C2 3633   1.072   3.060   9.672 -0.2272 -0.2945 -0.5167
  236MPD1    C3 3634   1.111   3.107   9.794 -0.1024 -0.3857  0.2718
  236MPD1    C4 3635   1.101   3.249   9.814 -0.3805  0.0489 -0.1083
  236MPD1    C5 3636   1.064   3.325   9.712  0.0543  0.1628 -0.0382
  236MPD1     H 3637   1.074   2.953   9.654  0.4476 -0.1844 -1.1229
  236MPD1    H1 3638   1.129   3.293   9.908 -1.0700  1.1530 -0.4208
  236MPD1    H2 3639   1.004   3.345   9.511 -1.9230  0.7166  0.7126
  236MPD1    H3 3640   1.059   3.431   9.732  2.0296  0.1329  0.5781
  236MPD1     N 3641   1.166   3.027   9.898  0.2532  0.1559 -0.2839
  236MPD1    H5 3642   1.219   3.085   9.963  1.5210 -1.2152 -0.0884
  236MPD1    N1 3643   0.992   3.096   9.443  0.4576  0.3230  0.4265
  236MPD1    H6 3644   0.924   3.160   9.402 -0.5141 -0.8221  0.2562
  236MPD1    H7 3645   0.941   3.008   9.446 -0.7289  1.0447  1.3631
  237MPD1     C 3646   0.948   1.267  15.035  0.9365 -0.2485  0.2880
  237MPD1    C1 3647   0.952   1.214  15.160  0.9586 -1.1684 -0.6828
  237MPD1    C2 3648   0.879   1.098  15.189 -0.4126  0.0189 -0.0868
  237MPD1    C3 3649   0.789   1.044  15.094  0.0283 -0.4327  0.3843
  237MPD1    C4 3650   0.784   1.107  14.972 -1.1104  0.2215 -0.7378
  237MPD1    C5 3651   0.869   1.210  14.941  0.4543  0.5530 -0.2285
  237MPD1     H 3652   0.883   1.059  15.291  0.0900 -2.0788 -0.8995
  237MPD1    H1 3653   0.714   1.078  14.895 -4.1340 -0.0619  2.1023
  237MPD1    H2 3654   1.018   1.347  15.012  0.1851  0.2932 -0.1198
  237MPD1    H3 3655   0.865   1.243  14.837 -1.7036  1.0917  0.0253
  237MPD1     N 3656   0.694   0.938  15.118  0.3238 -0.5393  0.0816
  237MPD1    H5 3657   0.622   0.922  15.048  0.4382  2.0591 -0.6253
  237MPD1    N1 3658   1.058   1.263  15.249 -0.0319 -0.2909 -0.5637
  237MPD1    H6 3659   1.084   1.361  15.249 -0.3727 -0.2054 -0.2133
  237MPD1    H7 3660   1.046   1.231  15.344 -0.0896  1.4572  0.0082
  238MPD1     C 3661   2.009   3.803  15.622 -0.0367 -0.8279 -0.0238
  238MPD1    C1 3662   2.090   3.882  15.547  0.1013 -0.7216 -0.8552
  238MPD1    C2 3663   2.034   3.952  15.443  0.1470  0.2889  0.1760
  238MPD1    C3 3664   1.907   3.931  15.399  0.9907 -0.3952  0.2095
  238MPD1    C4 3665   1.833   3.842  15.476 -0.5157 -0.5363  0.4292
  238MPD1    C5 3666   1.878   3.788  15.597 -0.1838 -0.2242 -0.5620
  238MPD1     H 3667   2.093   4.020  15.383  4.1301 -3.4641 -0.1407
  238MPD1    H1 3668   1.728   3.825  15.454 -0.1869 -1.1294 -0.6655
  238MPD1    H2 3669   2.047   3.762  15.715 -1.0414 -2.1702 -0.2149
  238MPD1    H3 3670   1.829   3.731  15.674 -0.5109  0.4205 -0.2922
  238MPD1     N 3671   1.842   3.986  15.287 -0.5039  0.2889 -0.2672
  238MPD1    H5 3672   1.751   3.946  15.264 -0.6787  1.0177 -0.8575
  238MPD1    N1 3673   2.214   3.921  15.598  0.3522 -0.0920 -0.6320
  238MPD1    H6 3674   2.272   3.845  15.634  1.8361  1.3114 -0.0323
  238MPD1    H7 3675   2.272   3.963  15.526  0.7333 -2.8084 -1.9071
  239MPD1     C 3676   2.611   0.085  14.430  0.0290 -0.2513 -0.2542
  239MPD1    C1 3677   2.569   0.174  14.525 -0.1230  0.1533  0.6510
  239MPD1    C2 3678   2.457   0.253  14.500  1.0733  0.1345 -0.2684
  239MPD1    C3 3679   2.381   0.241  14.386 -0.7277  0.0736 -0.4242
  239MPD1    C4 3680   2.424   0.151  14.295  0.3584 -0.5385  0.3468
  239MPD1    C5 3681   2.539   0.072  14.316  0.9949 -0.5855 -0.1664
  239MPD1     H 3682   2.433   0.322  14.581  3.9532  1.9922 -0.9739
  239MPD1    H1 3683   2.369   0.143  14.202  4.7305 -0.5867 -2.2030
  239MPD1    H2 3684   2.704   0.032  14.445 -1.4933 -2.2272  2.2232
  239MPD1    H3 3685   2.566   0.005  14.235 -1.4565 -2.5138  0.5721
  239MPD1     N 3686   2.274   0.329  14.363 -0.4479 -0.3447 -1.0514
  239MPD1    H5 3687   2.250   0.327  14.265  1.3339  1.2326 -1.5140
  239MPD1    N1 3688   2.660   0.202  14.631 -0.3582  0.4921  0.2031
  239MPD1    H6 3689   2.686   0.114  14.676 -2.2465 -0.4791 -0.6029
  239MPD1    H7 3690   2.610   0.259  14.698  1.2650 -1.0880  2.7571
  240MPD1     C 3691   1.554   0.131  13.747 -0.1144  0.2223  0.2607
  240MPD1    C1 3692   1.441   0.104  13.814  0.8741 -0.1453  0.3132
  240MPD1    C2 3693   1.443   0.060  13.945  0.2731  0.1699 -0.3321
  240MPD1    C3 3694   1.565   0.037  14.004  0.1928  0.7414  0.5717
  240MPD1    C4 3695   1.680   0.065  13.932  0.0356  0.3607  0.3580
  240MPD1    C5 3696   1.678   0.100  13.803  0.4813  0.3910 -0.2274
  240MPD1     H 3697   1.347   0.029  13.984 -1.1494  0.6927 -3.3773
  240MPD1    H1 3698   1.781   0.057  13.969  0.1816 -1.3914 -0.4067
  240MPD1    H2 3699   1.546   0.191  13.657  1.3505  1.1248  0.7269
  240MPD1    H3 3700   1.765   0.149  13.761  0.3229 -0.2404 -1.2668
  240MPD1     N 3701   1.566   4.706  14.128  0.4475  0.1105 -0.4685
  240MPD1    H5 3702   1.478   4.676  14.170  0.5634 -1.3474 -1.2679
  240MPD1    N1 3703   1.314   0.122  13.764  0.1272  0.3891 -0.2965
  240MPD1    H6 3704   1.309   0.084  13.669  2.2783  0.0719 -0.3006
  240MPD1    H7 3705   1.231   0.090  13.813  0.4185  0.0856  0.0076
  241MPD1     C 3706   2.032   4.429  15.089  1.0313  0.0282 -0.0549
  241MPD1    C1 3707   2.107   4.430  14.969  0.8109 -0.2969 -0.7697
  241MPD1    C2 3708   2.030   4.441  14.852  0.1449  0.0881 -0.5654
  241MPD1    C3 3709   1.892   4.436  14.848 -0.2083  0.7758  0.0399
  241MPD1    C4 3710   1.827   4.434  14.964 -0.2562  0.1836  0.0913
  241MPD1    C5 3711   1.894   4.419  15.089  0.1326 -0.5052 -0.1037
  241MPD1     H 3712   2.079   4.438  14.756 -1.3061 -2.3387 -1.2287
  241MPD1    H1 3713   1.719   4.433  14.973 -0.3370 -0.0968 -0.9689
  241MPD1    H2 3714   2.084   4.412  15.183 -0.9659  0.1286  1.0707
  241MPD1    H3 3715   1.833   4.425  15.178 -0.6450 -1.1434 -0.5851
  241MPD1     N 3716   1.811   4.446  14.729 -0.2577  0.2115 -0.1701
  241MPD1    H5 3717   1.713   4.421  14.729 -0.5049  1.2026 -2.1500
  241MPD1    N1 3718   2.247   4.405  14.958  0.4496 -0.1394  0.2643
  241MPD1    H6 3719   2.299   4.427  15.042 -0.9513  1.1187  0.8051
  241MPD1    H7 3720   2.280   4.458  14.877  0.0417 -0.8910 -0.4039
  242MPD1     C 3721   1.354   1.910  15.786  0.5286 -0.4065  0.2750
  242MPD1    C1 3722   1.409   1.995  15.873 -0.1424 -0.0042  0.7717
  242MPD1    C2 3723   1.453   2.116  15.825  0.1358 -0.4946  0.3248
  242MPD1    C3 3724   1.451   2.139  15.691 -0.2378 -0.4703 -0.2855
  242MPD1    C4 3725   1.400   2.044  15.605  0.0415  0.3082  0.6351
  242MPD1    C5 3726   1.340   1.934  15.651 -0.8395  0.3936  0.1104
  242MPD1     H 3727   1.485   2.197  15.890 -0.1047 -2.0498  2.3654
  242MPD1    H1 3728   1.400   2.052  15.497  1.9343  0.9330  0.6805
  242MPD1    H2 3729   1.312   1.818  15.825  1.0029 -1.3649 -1.4774
  242MPD1    H3 3730   1.304   1.857  15.584  3.6823 -2.0748  0.5440
  242MPD1     N 3731   1.487   2.259  15.630  0.1016 -0.2352  0.3278
  242MPD1    H5 3732   1.483   2.270  15.529  0.6070 -0.4142  0.2894
  242MPD1    N1 3733   1.402   1.977  16.013  0.3341  0.2019  0.4163
  242MPD1    H6 3734   1.478   2.029  16.057  1.3344 -0.9232  0.0201
  242MPD1    H7 3735   1.400   1.879  16.040  1.8153  0.2889  0.8162
  243MPD1     C 3736   2.264   1.169  16.932 -0.2827  0.8795 -0.6687
  243MPD1    C1 3737   2.320   1.250  16.844  0.1052  0.0972 -0.0547
  243MPD1    C2 3738   2.458   1.245  16.831  0.2881 -0.1488 -0.2462
  243MPD1    C3 3739   2.542   1.169  16.918  0.2322  0.4049  0.0546
  243MPD1    C4 3740   2.472   1.083  17.004 -0.1945 -0.0330 -0.1920
  243MPD1    C5 3741   2.341   1.086  17.011 -0.2397 -0.4737  0.5207
  243MPD1     H 3742   2.506   1.302  16.752  1.4177  0.6396  1.0047
  243MPD1    H1 3743   2.519   1.008  17.067  0.4133  0.8139  0.3698
  243MPD1    H2 3744   2.159   1.168  16.960  0.5790  0.6213  2.6258
  243MPD1    H3 3745   2.298   1.026  17.090 -2.1376 -3.1279 -2.5454
  243MPD1     N 3746   2.689   1.173  16.904  0.3177  0.0675 -0.4699
  243MPD1    H5 3747   2.733   1.217  16.824 -0.3470  2.1855  0.3233
  243MPD1    N1 3748   2.240   1.309  16.748 -0.1994 -0.0385  0.4780
  243MPD1    H6 3749   2.290   1.393  16.721  1.3312 -0.5896  1.6027
  243MPD1    H7 3750   2.149   1.331  16.788 -0.2072 -0.1613  0.5282
  244MPD1     C 3751   3.312   0.818  17.629  0.6896  0.0221 -0.4413
  244MPD1    C1 3752   3.209   0.907  17.643 -0.0585 -0.1771  0.8382
  244MPD1    C2 3753   3.168   0.976  17.530  0.2471  0.5274 -0.1358
  244MPD1    C3 3754   3.218   0.944  17.401  0.0798 -0.7299 -0.4260
  244MPD1    C4 3755   3.314   0.843  17.390 -0.1163 -0.3871  0.1619
  244MPD1    C5 3756   3.368   0.789  17.502 -0.4538 -0.0792 -0.3774
  244MPD1     H 3757   3.093   1.054  17.540 -0.2265 -0.0887  1.1580
  244MPD1    H1 3758   3.365   0.814  17.300 -2.2101 -1.7492 -0.5914
  244MPD1    H2 3759   3.363   0.769  17.710  1.4514  0.1339 -0.8547
  244MPD1    H3 3760   3.455   0.724  17.496 -0.5951 -0.3984  1.0341
  244MPD1     N 3761   3.158   1.009  17.286  0.7960  0.0349 -0.2751
  244MPD1    H5 3762   3.099   1.090  17.303 -0.0085 -0.2989 -1.4817
  244MPD1    N1 3763   3.174   0.949   0.026 -0.8947  0.4364  0.3955
  244MPD1    H6 3764   3.188   0.868   0.085  2.3974  0.3463 -0.5362
  244MPD1    H7 3765   3.075   0.972   0.023 -0.8421  0.5654 -0.4572
  245MPD1     C 3766   0.349   2.067  12.407  0.4350  0.0418 -0.3568
  245MPD1    C1 3767   0.386   2.027  12.535 -0.7292 -0.5590 -0.3796
  245MPD1    C2 3768   0.447   2.119  12.618  0.2527  0.3815 -0.9121
  245MPD1    C3 3769   0.482   2.242  12.569 -0.2394 -0.2408 -0.7186
  245MPD1    C4 3770   0.448   2.277  12.442  0.0597 -0.0876 -0.2216
  245MPD1    C5 3771   0.381   2.191  12.363  0.1569  0.3241  0.4106
  245MPD1     H 3772   0.473   2.099  12.721 -1.2364 -1.2361 -0.8577
  245MPD1    H1 3773   0.476   2.371  12.396  0.6912 -0.1693 -0.0098
  245MPD1    H2 3774   0.283   2.009  12.344  2.8642 -1.6006 -1.3613
  245MPD1    H3 3775   0.349   2.226  12.265 -2.0339 -2.2211  0.2181
  245MPD1     N 3776   0.539   2.328  12.664  0.1285  0.9413  0.3694
  245MPD1    H5 3777   0.559   2.295  12.758  1.0499  0.4110 -0.0041
  245MPD1    N1 3778   0.321   1.919  12.592  0.2264  0.2353  0.0760
  245MPD1    H6 3779   0.366   1.881  12.675  0.4302 -1.2891 -0.7330
  245MPD1    H7 3780   0.300   1.847  12.523 -1.9133  1.2108 -0.2794
  246MPD1     C 3781   3.024   4.383   9.363 -0.1517  0.1226  0.0705
  246MPD1    C1 3782   2.943   4.470   9.425 -0.1987 -0.3826  0.4621
  246MPD1    C2 3783   2.818   4.435   9.471  0.0641  0.3458 -0.7880
  246MPD1    C3 3784   2.766   4.311   9.439  0.1683 -0.3041  0.3692
  246MPD1    C4 3785   2.838   4.228   9.358 -0.2291 -1.3008 -0.9527
  246MPD1    C5 3786   2.969   4.258   9.328  0.1165  0.3198  0.1204
  246MPD1     H 3787   2.761   4.501   9.535  1.0074  0.3515  0.0368
  246MPD1    H1 3788   2.810   4.124   9.349 -0.4026 -1.4003  0.8686
  246MPD1    H2 3789   3.131   4.401   9.365 -0.1922  0.3273  0.3745
  246MPD1    H3 3790   3.038   4.184   9.289 -0.6160  0.0440 -0.6779
  246MPD1     N 3791   2.641   4.274   9.482  0.4492 -0.1479  0.2398
  246MPD1    H5 3792   2.593   4.346   9.534 -0.3290 -1.1194  0.8601
  246MPD1    N1 3793   2.990   4.588   9.481  0.0915  0.7996  0.1862
  246MPD1    H6 3794   3.075   4.624   9.438  1.1972 -0.1311  1.5994
  246MPD1    H7 3795   2.921   4.661   9.491 -0.0867  0.6045  0.3814
  247MPD1     C 3796   4.340   2.279  16.849  0.0902 -0.2190 -0.4675
  247MPD1    C1 3797   4.444   2.338  16.777  0.1657 -0.2275  0.2431
  247MPD1    C2 3798   4.508   2.261  16.684 -0.3402  0.2427  0.0236
  247MPD1    C3 3799   4.490   2.123  16.684 -0.7489 -0.1506  0.7218
  247MPD1    C4 3800   4.401   2.061  16.767 -0.3756  0.3575 -0.6470
  247MPD1    C5 3801   4.329   2.142  16.848  0.3884 -0.0178  0.7984
  247MPD1     H 3802   4.580   2.308  16.618  3.6853 -1.5782  3.0965
  247MPD1    H1 3803   4.380   1.956  16.751 -0.7985  0.3334  0.0451
  247MPD1    H2 3804   4.281   2.335  16.921 -0.1704  0.3176 -1.1020
  247MPD1    H3 3805   4.269   2.087  16.919 -1.2231 -1.8999 -2.0370
  247MPD1     N 3806   4.570   2.030  16.600 -0.2021 -0.6508 -0.2965
  247MPD1    H5 3807   4.543   1.932  16.608  0.4841 -0.8237 -0.0630
  247MPD1    N1 3808   4.444   2.480  16.763  0.8608  0.0151 -0.6193
  247MPD1    H6 3809   4.430   2.519  16.856 -0.4584 -1.3694 -0.2417
  247MPD1    H7 3810   4.536   2.510  16.733  0.3515  1.8944 -0.2719
  248MPD1     C 3811   4.338   1.505   0.153 -0.2262 -0.1226 -0.0013
  248MPD1    C1 3812   4.284   1.469   0.275  0.9987  0.2279 -0.3128
  248MPD1    C2 3813   4.215   1.567   0.348 -0.1983 -0.2210 -0.0502
  248MPD1    C3 3814   4.216   1.699   0.302 -0.4316 -0.0558 -0.4669
  248MPD1    C4 3815   4.272   1.733   0.184  0.2713 -0.1423 -0.0871
  248MPD1    C5 3816   4.339   1.640   0.112  0.8617 -0.2244  0.1971
  248MPD1     H 3817   4.162   1.540   0.439  1.3274 -1.2468  0.5232
  248MPD1    H1 3818   4.258   1.831   0.140  2.2801  1.2219  2.2892
  248MPD1    H2 3819   4.366   1.426   0.084 -2.9499 -1.4025  0.3438
  248MPD1    H3 3820   4.391   1.667   0.021 -0.6310 -0.4723 -0.7341
  248MPD1     N 3821   4.145   1.791   0.385  0.0205 -0.1683 -0.1702
  248MPD1    H5 3822   4.099   1.747   0.464  1.4061 -0.4960  0.4611
  248MPD1    N1 3823   4.263   1.334   0.317  0.2524  0.3956 -0.0320
  248MPD1    H6 3824   4.327   1.264   0.280 -0.0544 -1.0224  2.0888
  248MPD1    H7 3825   4.252   1.330   0.418 -0.2337  1.0465 -0.0595
  249MPD1     C 3826   3.466   2.703   9.534 -0.6935  0.6607  0.2446
  249MPD1    C1 3827   3.407   2.736   9.652 -0.1323 -0.2190  0.0541
  249MPD1    C2 3828   3.316   2.651   9.708 -0.2157  0.3723 -0.4594
  249MPD1    C3 3829   3.261   2.538   9.642  0.0035 -0.3349  0.6794
  249MPD1    C4 3830   3.324   2.504   9.522 -0.2366  0.0796 -0.4840
  249MPD1    C5 3831   3.421   2.587   9.468 -0.2770 -0.8317 -0.0534
  249MPD1     H 3832   3.277   2.681   9.805 -1.7810 -0.1635 -0.9240
  249MPD1    H1 3833   3.293   2.421   9.460 -0.0834  0.4220 -1.0195
  249MPD1    H2 3834   3.538   2.769   9.487 -0.7023  0.7277  0.3257
  249MPD1    H3 3835   3.461   2.559   9.371 -0.2090 -0.5236 -0.1149
  249MPD1     N 3836   3.159   2.460   9.700  0.2662 -0.2867  0.4387
  249MPD1    H5 3837   3.136   2.488   9.795 -0.6536 -1.7546  0.6514
  249MPD1    N1 3838   3.459   2.842   9.728 -0.0155  0.1888  0.6831
  249MPD1    H6 3839   3.500   2.919   9.674 -0.5508  0.6909  0.9935
  249MPD1    H7 3840   3.381   2.880   9.781 -1.1783  0.5554 -1.2916
  250MPD2     C 3841   4.120   0.574  12.861  0.2657  0.5202  0.2856
  250MPD2    C1 3842   4.022   0.670  12.881 -0.6159  0.9290  0.8459
  250MPD2    C2 3843   3.888   0.639  12.847 -0.4421  0.6751  0.4676
  250MPD2    C3 3844   3.867   0.520  12.773 -0.5661 -0.5927 -0.3984
  250MPD2    C4 3845   3.968   0.428  12.758  0.3436  0.1011  0.1237
  250MPD2    C5 3846   4.093   0.451  12.805  0.6270  0.2206 -0.6181
  250MPD2     H 3847   3.799   0.694  12.876  0.4006  1.9541  0.6010
  250MPD2    H1 3848   3.940   0.332  12.717 -1.9380  0.4867  0.7606
  250MPD2    H2 3849   4.221   0.604  12.887 -0.2669  2.1613  0.4710
  250MPD2    H3 3850   4.171   0.377  12.790  2.6011  2.1324  0.0373
  250MPD2     N 3851   3.742   0.475  12.739  0.0996  0.4775  0.7619
  250MPD2    H5 3852   3.738   0.378  12.709  0.9052  0.3817  0.9407
  250MPD2    N1 3853   4.049   0.800  12.936 -0.3153  0.8352  0.3549
  250MPD2    H7 3854   4.147   0.826  12.940 -0.4226  1.4313 -0.7654
  251TMC3    C1 3855   4.021   0.996  13.065  0.1278  0.0717  0.9436
  251TMC3    C2 3856   3.945   1.082  13.135  0.0548  0.5097  0.7141
  251TMC3    C3 3857   3.997   1.197  13.181 -0.6755 -0.0047 -0.0190
  251TMC3    C4 3858   4.161   1.013  13.058 -0.3801  0.0289 -0.6993
  251TMC3    C5 3859   4.204   1.137  13.099 -0.0282  0.1906 -0.4573
  251TMC3    C6 3860   4.129   1.226  13.165 -0.7286  0.3261 -0.7743
  251TMC3     C 3861   3.959   0.885  12.994  0.3172  0.9931 -0.3135
  251TMC3     O 3862   3.841   0.872  13.013  0.3060 -0.2580  0.4643
  251TMC3     H 3863   3.838   1.071  13.145  0.3593 -4.2839 -1.4523
  251TMC3    H1 3864   4.225   0.949  12.999  0.9446  0.7036  0.0234
  251TMC3    H2 3865   4.175   1.316  13.205  1.7124 -1.3287  0.1456
  251TMC3    C7 3866   4.343   1.173  13.079  0.2337 -0.0976  0.0839
  251TMC3    C8 3867   3.916   1.287  13.258  0.0925 -0.0242 -0.9968
  251TMC3    O1 3868   4.423   1.082  13.082  0.0580 -0.8936 -0.4808
  251TMC3    O2 3869   3.821   1.230  13.307 -0.1518 -0.2191  0.0358
  252TMC3    C1 3870   3.997   2.561   9.028  0.0694 -0.8447  0.3179
  252TMC3    C2 3871   4.114   2.537   9.098 -0.5249 -0.1789  0.5578
  252TMC3    C3 3872   4.109   2.477   9.218 -0.5877  0.0614  0.1637
  252TMC3    C4 3873   3.879   2.516   9.078 -0.4538  0.1585 -0.3901
  252TMC3    C5 3874   3.871   2.454   9.201 -0.9722 -0.0685  0.8014
  252TMC3    C6 3875   3.988   2.432   9.268 -0.0127  0.7583  0.2845
  252TMC3     C 3876   3.991   2.638   8.905 -0.6508  0.3666  0.2599
  252TMC3     O 3877   3.889   2.636   8.838 -0.2750 -0.3977 -0.0713
  252TMC3     H 3878   4.212   2.567   9.061 -0.6317  3.0040  2.8252
  252TMC3    H1 3879   3.787   2.532   9.023 -0.3888  2.8977  0.3039
  252TMC3    H2 3880   3.997   2.378   9.361  0.3735 -0.0264 -0.2082
  252TMC3    C7 3881   3.752   2.373   9.232 -0.8801  0.3874 -0.0600
  252TMC3    C8 3882   4.231   2.437   9.291 -0.2477 -0.4393  0.7894
  252TMC3    O1 3883   3.650   2.407   9.168 -0.7808 -0.4083 -0.5892
  252TMC3    O2 3884   4.239   2.476   9.405  0.3151  0.2992  0.0274
  253MPD2     C 3885   4.720   0.694  15.674 -0.3437 -0.1256 -0.3722
  253MPD2    C1 3886   4.625   0.652  15.587  0.2358  0.0840  0.1459
  253MPD2    C2 3887   4.515   0.590  15.647  0.0832  0.2494 -0.4171
  253MPD2    C3 3888   4.499   0.565  15.783  0.3559  0.1538  0.3131
  253MPD2    C4 3889   4.589   0.627  15.868  1.3357 -0.0919 -0.1934
  253MPD2    C5 3890   4.699   0.682  15.810  0.0951 -0.3594 -0.5893
  253MPD2     H 3891   4.440   0.549  15.580  1.3699 -1.3316 -0.8955
  253MPD2    H1 3892   4.579   0.622  15.976  0.7939  1.2055 -0.1817
  253MPD2    H2 3893   0.067   0.748  15.630 -0.8191  0.4432 -0.5746
  253MPD2    H3 3894   0.022   0.734  15.885  0.2518 -1.2716 -0.0861
  253MPD2     N 3895   4.384   0.498  15.845 -0.0413  0.0958 -0.2672
  253MPD2    H5 3896   4.384   0.489  15.946 -2.6815 -1.3320 -0.3887
  253MPD2    N1 3897   4.637   0.667  15.446  0.1865  0.0858  0.3729
  253MPD2    H7 3898   4.568   0.623  15.387 -0.2994  1.3468 -0.0155
  254TMC3    C1 3899   4.186   0.377  15.853 -0.0839  0.0524  0.8713
  254TMC3    C2 3900   4.061   0.428  15.842  0.3536 -0.3985  0.4379
  254TMC3    C3 3901   3.977   0.421  15.946 -0.2805 -0.4700  0.4239
  254TMC3    C4 3902   4.233   0.314  15.963  0.4255  0.5802 -0.8049
  254TMC3    C5 3903   4.144   0.312  16.067  0.2504 -0.2031 -0.5792
  254TMC3    C6 3904   4.018   0.352  16.057 -0.2182  0.3163  0.3792
  254TMC3     C 3905   4.282   0.452  15.770 -0.0489 -0.0274 -0.2213
  254TMC3     O 3906   4.239   0.487  15.664  0.1547  0.5292 -0.6332
  254TMC3     H 3907   4.031   0.477  15.750 -0.9856 -1.1296  0.4747
  254TMC3    H1 3908   4.335   0.278  15.970  0.3382  0.4872  0.0279
  254TMC3    H2 3909   3.962   0.374  16.148  0.6010  0.3577  0.8676
  254TMC3    C7 3910   4.189   0.238  16.186  0.6818 -0.6578  0.3568
  254TMC3    C8 3911   3.925   0.545  15.986 -0.2839  0.7573  0.3383
  254TMC3    O1 3912   4.313   0.231  16.205  0.3592 -0.0366  0.2352
  254TMC3    O2 3913   4.007   0.634  16.014 -0.3075 -0.5843 -0.3606
  255MPD2     C 3914   3.600   3.203  10.581  0.6066 -0.2591  0.9208
  255MPD2    C1 3915   3.707   3.293  10.580  1.4617  0.2726  0.5331
  255MPD2    C2 3916   3.822   3.256  10.515 -1.1840 -0.2726 -0.4132
  255MPD2    C3 3917   3.826   3.144  10.433  0.0012  0.1469  0.3879
  255MPD2    C4 3918   3.719   3.059  10.428  0.7579 -0.4433  0.4676
  255MPD2    C5 3919   3.610   3.084  10.511  0.5276 -0.0681 -0.3591
  255MPD2     H 3920   3.913   3.313  10.516 -0.4512 -1.4392 -0.2758
  255MPD2    H1 3921   3.723   2.967  10.370 -1.6152 -1.5877  2.0974
  255MPD2    H2 3922   3.515   3.226  10.644 -1.4737 -3.0402 -0.8488
  255MPD2    H3 3923   3.530   3.012  10.528  0.0896  0.5114  0.0228
  255MPD2     N 3924   3.945   3.128  10.357  0.4896  0.3974 -0.0957
  255MPD2    H5 3925   4.015   3.202  10.357  0.2803  0.6119 -1.8893
  255MPD2    N1 3926   3.698   3.422  10.642 -0.0070 -0.0071  0.5309
  255MPD2    H7 3927   3.621   3.428  10.707 -2.0786  0.7618 -1.9684
  256TMC3    C1 3928   3.790   3.622  10.724 -0.5759 -0.0208 -0.8499
  256TMC3    C2 3929   3.861   3.740  10.690 -0.1668 -0.6612  0.3545
  256TMC3    C3 3930   3.808   3.857  10.738 -0.6903  0.0415  0.0242
  256TMC3    C4 3931   3.679   3.630  10.798 -0.1123 -0.9167  0.5787
  256TMC3    C5 3932   3.635   3.743  10.858 -0.4248 -0.3283  0.5098
  256TMC3    C6 3933   3.698   3.858  10.820 -1.3013  0.6460 -0.6671
  256TMC3     C 3934   3.791   3.522  10.620  0.2420  0.1058  0.1842
  256TMC3     O 3935   3.878   3.533  10.540  0.3925  0.0119  0.4575
  256TMC3     H 3936   3.944   3.740  10.620  0.0952 -1.1406  0.6633
  256TMC3    H1 3937   3.623   3.544  10.833 -2.8518 -0.2103 -1.9950
  256TMC3    H2 3938   3.683   3.941  10.888  2.3564 -0.7089  1.7960
  256TMC3    C7 3939   3.495   3.758  10.813  0.6821 -0.2818  0.3694
  256TMC3    C8 3940   3.818   3.974  10.653  0.1273  0.1442  0.2011
  256TMC3    O1 3941   3.476   3.685  10.714  0.6088 -0.0468  0.0697
  256TMC3    O2 3942   3.919   3.984  10.585 -0.3855 -0.5296  0.7235
  257MPD2     C 3943   1.984   0.625  13.157  0.3308  0.1320 -0.1139
  257MPD2    C1 3944   2.109   0.677  13.123  0.2840  0.3607 -0.3025
  257MPD2    C2 3945   2.220   0.610  13.151  0.4575 -0.4108  0.5738
  257MPD2    C3 3946   2.222   0.494  13.228  0.0015 -0.3678  0.6010
  257MPD2    C4 3947   2.094   0.454  13.278  0.5473 -0.0401  0.2131
  257MPD2    C5 3948   1.977   0.512  13.234  0.1053 -0.4135  0.1445
  257MPD2     H 3949   2.318   0.647  13.125  0.3245  0.2358  0.9915
  257MPD2    H1 3950   2.099   0.371  13.348  2.0396  0.8249  1.1220
  257MPD2    H2 3951   1.892   0.672  13.124 -1.3816 -1.0356  2.9762
  257MPD2    H3 3952   1.884   0.477  13.277 -0.6141 -0.5982 -1.5431
  257MPD2     N 3953   2.347   0.440  13.262 -0.3461 -1.3102  0.3286
  257MPD2    H5 3954   2.432   0.488  13.233  0.8906 -2.6966  1.6536
  257MPD2    N1 3955   2.104   0.790  13.038 -0.1718  0.4420  0.1275
  257MPD2    H7 3956   2.013   0.832  13.024 -0.0238  0.7730  0.1532
  258TMC3    C1 3957   2.505   0.335  13.408  0.5108  0.2779  0.5733
  258TMC3    C2 3958   2.598   0.340  13.307 -0.4029  0.5931  0.2195
  258TMC3    C3 3959   2.719   0.287  13.338 -0.0486 -0.6087 -0.4433
  258TMC3    C4 3960   2.525   0.274  13.523  0.4490  0.5943 -0.7296
  258TMC3    C5 3961   2.657   0.244  13.554 -0.7654  0.5380  0.1446
  258TMC3    C6 3962   2.754   0.253  13.461 -0.8672 -0.0367 -0.2583
  258TMC3     C 3963   2.367   0.350  13.366 -0.3888 -0.4837  0.1459
  258TMC3     O 3964   2.284   0.301  13.445  0.3158  0.1294  0.8943
  258TMC3     H 3965   2.573   0.357  13.203  1.1771  0.8204 -0.1201
  258TMC3    H1 3966   2.442   0.256  13.591 -1.4455 -0.0942 -3.2563
  258TMC3    H2 3967   2.858   0.236  13.488 -1.1105 -0.9979  0.0912
  258TMC3    C7 3968   2.686   0.225  13.689 -0.5674 -0.3953 -0.3534
  258TMC3    C8 3969   2.808   0.250  13.223 -0.0036  0.3405  0.1106
  258TMC3    O1 3970   2.591   0.252  13.760  0.2117 -0.1290 -0.1640
  258TMC3    O2 3971   2.928   0.222  13.253  0.7146  0.1313  0.4962
  259MPD2     C 3972   0.688   2.462   0.532  0.0872  0.3640 -0.7497
  259MPD2    C1 3973   0.826   2.462   0.529 -0.2360 -0.5874 -0.7892
  259MPD2    C2 3974   0.887   2.505   0.414  0.2265 -0.1739 -0.1458
  259MPD2    C3 3975   0.812   2.540   0.305 -0.1465  0.2830 -0.3284
  259MPD2    C4 3976   0.678   2.529   0.308 -0.0594 -0.0336  0.2713
  259MPD2    C5 3977   0.609   2.488   0.419 -0.0405 -0.4828 -0.5898
  259MPD2     H 3978   0.995   2.510   0.410  0.2305 -0.2109 -0.0651
  259MPD2    H1 3979   0.618   2.563   0.224  1.6855 -1.0073 -1.3708
  259MPD2    H2 3980   0.639   2.453   0.628 -2.1373 -1.6797 -2.0967
  259MPD2    H3 3981   0.501   2.488   0.429  0.2434 -1.5163  2.5286
  259MPD2     N 3982   0.870   2.592   0.189 -0.0428 -0.1789 -0.0714
  259MPD2    H5 3983   0.817   2.602   0.103 -1.3176 -3.1248  0.3832
  259MPD2    N1 3984   0.896   2.430   0.648  0.1173  0.4828  0.5471
  259MPD2    H7 3985   0.834   2.394   0.719  0.6061 -1.9550 -0.2768
  260TMC3    C1 3986   1.045   2.612   0.038  0.0009  0.0726  0.6062
  260TMC3    C2 3987   1.174   2.662   0.014 -0.9173  0.0285  0.2161
  260TMC3    C3 3988   1.244   2.609  17.655 -0.4324 -0.1426 -0.4497
  260TMC3    C4 3989   0.995   2.510  17.702  0.3471  0.0294 -0.7156
  260TMC3    C5 3990   1.081   2.452  17.603 -0.4127  0.2985  0.4717
  260TMC3    C6 3991   1.206   2.508  17.575  0.0064  0.4454  0.1909
  260TMC3     C 3992   1.003   2.628   0.174  0.0786 -0.0531  0.2485
  260TMC3     O 3993   1.096   2.624   0.252  0.4388 -0.1872 -0.3258
  260TMC3     H 3994   1.216   2.732   0.086  1.6627 -1.1532 -0.1697
  260TMC3    H1 3995   0.895   2.477  17.728  0.0759 -0.5540 -2.5392
  260TMC3    H2 3996   1.259   2.474  17.486  0.7869  3.0711 -0.3376
  260TMC3    C7 3997   1.095   2.313  17.630  0.7346 -0.5070 -0.2577
  260TMC3    C8 3998   1.385   2.609  17.681 -0.5287 -0.0913  0.0635
  260TMC3    O1 3999   1.187   2.254  17.582  0.1352 -0.1362 -1.2505
  260TMC3    O2 4000   1.431   2.703   0.004 -0.2478  0.1819 -0.3216
  261MPD2     C 4001   2.903   0.623  12.660 -0.2407  0.0702  1.0042
  261MPD2    C1 4002   3.019   0.616  12.586 -0.2005  0.3916 -0.4525
  261MPD2    C2 4003   3.030   0.656  12.454  0.2615  0.4664 -0.7180
  261MPD2    C3 4004   2.918   0.712  12.391  0.1580  0.4083 -0.6685
  261MPD2    C4 4005   2.808   0.731  12.468 -0.2234 -0.4833  0.2040
  261MPD2    C5 4006   2.801   0.689  12.596 -0.1738 -0.2744  0.7099
  261MPD2     H 4007   3.129   0.636  12.413  0.7599 -0.7303  1.0953
  261MPD2    H1 4008   2.719   0.786  12.442  0.4326  0.9834  1.0348
  261MPD2    H2 4009   2.890   0.596  12.763 -0.9669  0.6189  1.0623
  261MPD2    H3 4010   2.717   0.710  12.661 -0.0620 -1.6761  1.3112
  261MPD2     N 4011   2.919   0.759  12.258 -0.6391 -0.3219 -0.4880
  261MPD2    H5 4012   2.997   0.732  12.199  0.5106 -0.2035  0.9828
  261MPD2    N1 4013   3.134   0.567  12.655 -0.6918  0.1266  1.1162
  261MPD2    H7 4014   3.212   0.575  12.591 -0.6372 -0.2453  1.1395
  262TMC3    C1 4015   2.876   0.904  12.083  1.1641 -0.4136 -0.2709
  262TMC3    C2 4016   2.787   0.981  12.012  0.5958 -0.2128 -0.2953
  262TMC3    C3 4017   2.820   1.009  11.876 -0.1798 -0.0053  0.3585
  262TMC3    C4 4018   2.994   0.863  12.030 -0.7069 -0.2529 -0.7190
  262TMC3    C5 4019   3.021   0.892  11.899  0.0906 -0.5095  0.1366
  262TMC3    C6 4020   2.937   0.968  11.827  0.0118 -0.4943 -0.1019
  262TMC3     C 4021   2.831   0.851  12.214  0.0151 -0.0121  0.2700
  262TMC3     O 4022   2.752   0.919  12.270  0.1159  0.2846  0.6157
  262TMC3     H 4023   2.690   1.014  12.047  0.9584  2.4309 -1.7903
  262TMC3    H1 4024   3.071   0.823  12.095 -0.1366 -0.3608 -1.4514
  262TMC3    H2 4025   2.965   0.996  11.726 -1.4560 -0.5801 -0.5331
  262TMC3    C7 4026   3.146   0.858  11.845 -0.1795 -0.6004 -0.0838
  262TMC3    C8 4027   2.746   1.112  11.804 -0.5553 -0.0799 -0.6169
  262TMC3    O1 4028   3.200   0.769  11.904  0.3758  0.5357  0.0793
  262TMC3    O2 4029   2.677   1.194  11.863 -0.3912  0.1832 -0.2067
  263MPD2     C 4030   4.052   0.286  11.051 -0.5078 -0.7861  0.4319
  263MPD2    C1 4031   4.177   0.249  11.016 -0.2587  0.8730  0.6629
  263MPD2    C2 4032   4.231   0.308  10.898 -0.8373  0.2406 -0.1542
  263MPD2    C3 4033   4.164   0.392  10.819 -0.1938  0.2343  0.3258
  263MPD2    C4 4034   4.034   0.430  10.855  0.3657  0.9569 -0.3699
  263MPD2    C5 4035   3.981   0.374  10.967  0.4698 -0.4435  0.2983
  263MPD2     H 4036   4.337   0.295  10.879 -1.0903 -0.4946 -1.0263
  263MPD2    H1 4037   3.988   0.515  10.806 -2.2425 -0.4296 -0.2874
  263MPD2    H2 4038   4.007   0.248  11.143 -2.1672  1.5171  0.5701
  263MPD2    H3 4039   3.880   0.395  11.000  0.4706 -1.0343  0.6925
  263MPD2     N 4040   4.237   0.450  10.710 -0.3539 -0.0860  0.5022
  263MPD2    H5 4041   4.327   0.407  10.692  0.3485  0.6011  2.2969
  263MPD2    N1 4042   4.241   0.160  11.108  0.9946  0.4154  0.1734
  263MPD2    H7 4043   4.205   0.141  11.200  0.9282  0.8709  0.2379
  264TMC3    C1 4044   4.301   0.629  10.571  0.2373  0.1233 -0.4357
  264TMC3    C2 4045   4.289   0.763  10.598 -0.4357  0.2038 -0.4307
  264TMC3    C3 4046   4.400   0.835  10.591  0.0032  0.0427  0.2620
  264TMC3    C4 4047   4.416   0.568  10.533  0.0970 -0.1119 -0.2565
  264TMC3    C5 4048   4.519   0.654  10.503  0.0961 -0.3674 -0.1803
  264TMC3    C6 4049   4.516   0.785  10.535 -0.2177 -1.1343  0.1126
  264TMC3     C 4050   4.194   0.552  10.631  0.5245 -0.5831 -0.0005
  264TMC3     O 4051   4.083   0.606  10.626 -0.1460  0.0414 -0.1253
  264TMC3     H 4052   4.196   0.805  10.635 -1.5937 -1.7610 -1.1665
  264TMC3    H1 4053   4.423   0.464  10.504 -0.8877 -0.1973 -0.1893
  264TMC3    H2 4054   4.605   0.846  10.523 -0.8665 -0.4688 -1.2913
  264TMC3    C7 4055   4.612   0.629  10.392  0.0663 -0.1974  0.6956
  264TMC3    C8 4056   4.425   0.944  10.673 -0.2178  0.0286 -0.0185
  264TMC3    O1 4057   4.695   0.540  10.393 -0.1146  1.0064 -0.3157
  264TMC3    O2 4058   4.528   1.012  10.664 -0.1738  0.2309  0.2964
  265MPD2     C 4059   0.743   0.275  15.641  0.1177 -0.2809  0.0942
  265MPD2    C1 4060   0.821   0.385  15.600  0.2854  0.5558  0.5539
  265MPD2    C2 4061   0.909   0.356  15.496 -0.6055 -0.1619  1.3558
  265MPD2    C3 4062   0.922   0.229  15.436 -0.7364  0.4363 -0.2986
  265MPD2    C4 4063   0.856   0.128  15.501  0.1059 -0.1711  0.2257
  265MPD2    C5 4064   0.755   0.157  15.582 -0.0881 -0.2497  0.5519
  265MPD2     H 4065   0.968   0.436  15.452 -0.2298 -1.8172 -1.1602
  265MPD2    H1 4066   0.869   0.025  15.468 -1.5889 -0.7419  1.2921
  265MPD2    H2 4067   0.665   0.289  15.715 -0.3364  0.2604 -0.4757
  265MPD2    H3 4068   0.695   0.075  15.620 -0.0994 -0.3196  0.3835
  265MPD2     N 4069   1.005   0.194  15.331 -0.2143 -0.3336 -0.0902
  265MPD2    H5 4070   1.021   0.094  15.320 -0.8915 -0.6453  1.6947
  265MPD2    N1 4071   0.800   0.512  15.657 -0.0889  0.7423  0.9353
  265MPD2    H7 4072   0.832   0.594  15.606  0.0949  0.0843  0.0009
  266TMC3    C1 4073   0.728   0.646  15.835  0.2662 -0.2308  0.1008
  266TMC3    C2 4074   0.758   0.678  15.967 -0.6365  0.1384  0.5507
  266TMC3    C3 4075   0.771   0.808  16.004 -1.0038 -0.1508 -1.0537
  266TMC3    C4 4076   0.717   0.745  15.739 -0.3639 -0.2674  0.0631
  266TMC3    C5 4077   0.745   0.871  15.778 -0.4394 -0.0910  0.0559
  266TMC3    C6 4078   0.767   0.908  15.910  0.5063  0.3712 -0.3801
  266TMC3     C 4079   0.754   0.520  15.786 -0.5648 -0.5176  0.8853
  266TMC3     O 4080   0.755   0.435  15.872  0.4142 -0.2778 -0.3880
  266TMC3     H 4081   0.760   0.598  16.040  0.9629  0.3666  0.7624
  266TMC3    H1 4082   0.674   0.714  15.645 -1.5568  1.7443 -0.0607
  266TMC3    H2 4083   0.765   1.014  15.934 -1.3685  0.4115 -0.7032
  266TMC3    C7 4084   0.736   0.983  15.681 -0.4051  0.2231  0.3324
  266TMC3    C8 4085   0.893   0.831  16.092  0.8598  0.0357  0.3215
  266TMC3    O1 4086   0.835   1.056  15.664  0.4692  0.2894  0.1012
  266TMC3    O2 4087   0.947   0.729  16.118 -0.1353  0.1627 -0.0022
  267MPD2     C 4088   2.945   2.100   0.106 -0.8367 -0.7181  0.4204
  267MPD2    C1 4089   3.055   2.178   0.058  0.1998  0.7797  0.1879
  267MPD2    C2 4090   3.046   2.235  17.672 -0.0910  0.0043  0.0683
  267MPD2    C3 4091   2.922   2.230  17.596 -0.3370  0.0957 -0.0663
  267MPD2    C4 4092   2.821   2.149  17.646 -0.2351  0.0972  0.0413
  267MPD2    C5 4093   2.839   2.088   0.025 -0.7434  0.5857 -0.4312
  267MPD2     H 4094   3.126   2.292  17.624 -0.7729  0.1323 -0.9191
  267MPD2    H1 4095   2.737   2.121  17.584  0.2983 -2.5807  0.5633
  267MPD2    H2 4096   2.939   2.059   0.206 -5.9934  2.7950  1.5296
  267MPD2    H3 4097   2.756   2.028   0.062 -1.7656  2.1013 -0.2770
  267MPD2     N 4098   2.922   2.283  17.462  0.4852  0.2142 -0.0880
  267MPD2    H5 4099   2.850   2.246  17.401  1.4525 -0.7391 -0.6362
  267MPD2    N1 4100   3.168   2.177   0.150 -0.1464 -0.4233 -0.9096
  267MPD2    H7 4101   3.161   2.110   0.226 -0.2173 -2.1968 -2.4805
  268TMC3    C1 4102   3.407   2.180   0.165 -0.3572  0.2017  0.8557
  268TMC3    C2 4103   3.518   2.258   0.145 -0.4495 -0.5560 -0.4872
  268TMC3    C3 4104   3.642   2.203   0.152  0.3697 -0.2158  0.9091
  268TMC3    C4 4105   3.415   2.048   0.205 -0.3435 -0.4309  0.3907
  268TMC3    C5 4106   3.544   1.995   0.223 -0.0959 -0.5540 -0.2494
  268TMC3    C6 4107   3.657   2.074   0.194  0.2336  0.6295  0.1608
  268TMC3     C 4108   3.283   2.240   0.120 -0.1336  0.4789  0.1819
  268TMC3     O 4109   3.304   2.334   0.045 -0.2634 -0.1094  0.0987
  268TMC3     H 4110   3.499   2.365   0.140 -2.9496 -1.0523 -1.5660
  268TMC3    H1 4111   3.328   1.984   0.213  0.1948 -1.4002 -1.5590
  268TMC3    H2 4112   3.757   2.032   0.184  0.1423  0.3993  0.1961
  268TMC3    C7 4113   3.550   1.867   0.286  0.6240  0.1295 -0.5949
  268TMC3    C8 4114   3.752   2.290   0.124  0.2936 -0.2862  0.0967
  268TMC3    O1 4115   3.484   1.827   0.375  0.0020  0.5132 -0.5117
  268TMC3    O2 4116   3.860   2.267   0.174  0.1400  0.0293 -0.5824
  269MPD2     C 4117   3.841   0.768  15.751 -0.1088 -0.0098  0.0326
  269MPD2    C1 4118   3.717   0.784  15.695  1.0129 -0.6927 -0.4569
  269MPD2    C2 4119   3.656   0.909  15.697 -0.5716 -0.6017 -0.1816
  269MPD2    C3 4120   3.726   1.014  15.750  0.2166 -0.4459  0.0773
  269MPD2    C4 4121   3.859   0.997  15.790 -0.1685  0.1865  0.0238
  269MPD2    C5 4122   3.916   0.873  15.792  0.0812 -0.2314  0.3478
  269MPD2     H 4123   3.556   0.915  15.656 -1.0563 -1.6862  0.8364
  269MPD2    H1 4124   3.916   1.077  15.837  0.6078  1.3628 -2.9228
  269MPD2    H2 4125   3.876   0.666  15.759 -0.0200 -0.0228 -0.5079
  269MPD2    H3 4126   4.013   0.858  15.839 -0.2921  0.7112  1.4174
  269MPD2     N 4127   3.669   1.146  15.739 -0.0673 -0.1838 -0.0207
  269MPD2    H5 4128   3.573   1.153  15.705 -0.5105  3.2972  1.9156
  269MPD2    N1 4129   3.649   0.665  15.659 -0.0438 -0.0336 -0.0593
  269MPD2    H7 4130   3.707   0.582  15.650  0.8303  0.6413 -0.6219
  270TMC3    C1 4131   3.475   0.514  15.578 -0.2456 -0.0069 -0.2766
  270TMC3    C2 4132   3.399   0.503  15.470  0.2953  0.8719 -0.2599
  270TMC3    C3 4133   3.408   0.388  15.401  0.3086  0.1976  0.0422
  270TMC3    C4 4134   3.567   0.414  15.619 -0.3423 -0.1460 -0.5206
  270TMC3    C5 4135   3.577   0.297  15.546 -0.3364  0.4779 -0.5834
  270TMC3    C6 4136   3.499   0.284  15.432 -0.4790  0.2734 -0.5560
  270TMC3     C 4137   3.518   0.650  15.612  0.0377 -0.1414 -0.6856
  270TMC3     O 4138   3.426   0.727  15.613 -0.4019  0.2303  0.0222
  270TMC3     H 4139   3.336   0.584  15.434  0.3545  0.6936 -0.7699
  270TMC3    H1 4140   3.633   0.439  15.701 -1.0165 -1.7100  0.5079
  270TMC3    H2 4141   3.488   0.187  15.384  2.3501  0.0731 -0.7860
  270TMC3    C7 4142   3.714   0.235  15.554  0.4861  0.2931 -0.4509
  270TMC3    C8 4143   3.311   0.371  15.295  0.2136 -0.2546 -0.1328
  270TMC3    O1 4144   3.762   0.239  15.668 -0.1887  0.3332 -0.0463
  270TMC3    O2 4145   3.201   0.429  15.311  0.4332  0.0234  0.3631
  271MPD2     C 4146   3.173   0.831  13.625 -0.0745 -0.3628 -0.7166
  271MPD2    C1 4147   3.070   0.818  13.711 -0.7040  0.0664  0.1524
  271MPD2    C2 4148   2.953   0.889  13.684 -0.1846  0.3508  0.0101
  271MPD2    C3 4149   2.929   0.959  13.570  0.0889 -0.0563 -0.5084
  271MPD2    C4 4150   3.028   0.967  13.479 -0.3971  0.4248 -0.5888
  271MPD2    C5 4151   3.147   0.903  13.507  0.3283 -0.2211 -0.1616
  271MPD2     H 4152   2.876   0.855  13.752 -0.4330 -1.9413 -1.4316
  271MPD2    H1 4153   3.017   1.004  13.378  2.9703 -0.7105 -1.4014
  271MPD2    H2 4154   3.270   0.785  13.639  1.3185  2.4757 -0.9766
  271MPD2    H3 4155   3.221   0.893  13.428  0.6406  1.4506 -0.0960
  271MPD2     N 4156   2.804   1.019  13.532  0.2554  0.1346  0.1904
  271MPD2    H5 4157   2.793   1.045  13.435  1.5386 -2.7060 -0.7006
  271MPD2    N1 4158   3.073   0.743  13.826  0.1229 -0.3337 -0.4262
  271MPD2    H7 4159   2.995   0.765  13.888 -1.2714 -0.1381 -2.2427
  272TMC3    C1 4160   3.140   0.579  13.984  0.3568 -0.2514  0.5460
  272TMC3    C2 4161   3.189   0.453  13.996 -0.0714  0.0327  0.1378
  272TMC3    C3 4162   3.179   0.383  14.117 -0.1014  0.9686 -0.2137
  272TMC3    C4 4163   3.086   0.642  14.092  0.2246 -0.1122  0.0132
  272TMC3    C5 4164   3.074   0.568  14.205  0.0775  0.4380  0.1594
  272TMC3    C6 4165   3.116   0.441  14.219 -0.1260  0.6215  0.1066
  272TMC3     C 4166   3.166   0.646  13.863  0.2238  0.1837  0.1762
  272TMC3     O 4167   3.258   0.608  13.796 -0.3046 -0.1645 -0.0505
  272TMC3     H 4168   3.221   0.402  13.906  0.9416  0.3163  0.3318
  272TMC3    H1 4169   3.065   0.748  14.082 -1.8605 -0.2213  3.3192
  272TMC3    H2 4170   3.104   0.386  14.312 -0.0536 -0.1927 -0.3706
  272TMC3    C7 4171   3.037   0.648  14.316 -0.1032 -0.4053 -1.2125
  272TMC3    C8 4172   3.253   0.261  14.125  0.8750 -0.4498  0.4517
  272TMC3    O1 4173   2.953   0.738  14.298 -0.0746 -1.0389 -0.4349
  272TMC3    O2 4174   3.303   0.229  14.018  0.0590 -0.5999 -0.2420
  273MPD2     C 4175   0.604   3.470  11.388 -1.0261  0.1107 -0.5107
  273MPD2    C1 4176   0.588   3.573  11.475  0.8707 -1.0391  0.3635
  273MPD2    C2 4177   0.596   3.699  11.430  0.0490  0.6499  0.0654
  273MPD2    C3 4178   0.615   3.728  11.295  0.8503  0.6760  0.5403
  273MPD2    C4 4179   0.614   3.619  11.207  0.1367 -0.1298  0.4213
  273MPD2    C5 4180   0.604   3.494  11.255  0.2059  0.2767 -0.4226
  273MPD2     H 4181   0.600   3.781  11.501  1.7643 -0.3991  1.1864
  273MPD2    H1 4182   0.626   3.631  11.100 -1.1029 -0.8032  0.2095
  273MPD2    H2 4183   0.600   3.373  11.436  0.2560  1.4410  2.2501
  273MPD2    H3 4184   0.619   3.411  11.187  3.7277  0.2801  0.3526
  273MPD2     N 4185   0.609   3.862  11.243  0.6700 -0.1168  0.3945
  273MPD2    H5 4186   0.598   3.878  11.143  1.5300  2.6768  0.7313
  273MPD2    N1 4187   0.571   3.536  11.614  0.1840  0.4246 -0.8632
  273MPD2    H7 4188   0.577   3.437  11.633  2.2757  1.2641  2.7434
  274TMC3    C1 4189   0.571   4.097  11.220  0.0494 -0.5345  0.3165
  274TMC3    C2 4190   0.582   4.071  11.090 -0.5246  0.2540  0.1970
  274TMC3    C3 4191   0.589   4.176  11.003 -0.8800 -0.3577  0.5748
  274TMC3    C4 4192   0.558   4.223  11.270 -0.2454 -0.9466  0.4614
  274TMC3    C5 4193   0.565   4.321  11.174 -0.0449 -0.4752  0.0866
  274TMC3    C6 4194   0.585   4.304  11.039  0.3911  0.5155  0.3393
  274TMC3     C 4195   0.590   3.985  11.315 -0.1665  0.7420  0.0522
  274TMC3     O 4196   0.609   4.002  11.434 -0.4837  0.0798  0.0335
  274TMC3     H 4197   0.577   3.972  11.045 -0.6137  0.4179 -0.1488
  274TMC3    H1 4198   0.539   4.235  11.376 -0.1824  3.5563 -0.0499
  274TMC3    H2 4199   0.570   4.380  10.962 -2.5000 -0.3795  0.0312
  274TMC3    C7 4200   0.483   4.436  11.203  0.2689 -0.3143 -0.1453
  274TMC3    C8 4201   0.541   4.140  10.867 -0.2400  0.1889 -0.5121
  274TMC3    O1 4202   0.412   4.424  11.305  0.2864 -0.1619 -0.5342
  274TMC3    O2 4203   0.449   4.060  10.871 -0.2094 -1.0166  0.0939
  275MPD2     C 4204   4.281   1.905  14.825 -0.8921  0.5035  0.0462
  275MPD2    C1 4205   4.333   1.773  14.797  0.1765  0.3102  0.0731
  275MPD2    C2 4206   4.246   1.667  14.791  0.1713 -0.5524 -0.1642
  275MPD2    C3 4207   4.106   1.679  14.818  0.2983  0.2390 -0.9529
  275MPD2    C4 4208   4.066   1.809  14.848  0.4029  0.6394 -0.4529
  275MPD2    C5 4209   4.148   1.913  14.856 -0.4981 -0.1944 -0.0896
  275MPD2     H 4210   4.283   1.568  14.766  1.0839  0.4608 -2.7330
  275MPD2    H1 4211   3.963   1.825  14.878  0.5294 -2.0083  1.4372
  275MPD2    H2 4212   4.343   1.993  14.811 -2.0831  1.3197 -0.0564
  275MPD2    H3 4213   4.095   2.006  14.871  0.6377  0.3016  0.8031
  275MPD2     N 4214   4.015   1.570  14.825  0.4363  0.0848  0.4593
  275MPD2    H5 4215   3.921   1.589  14.856 -0.1848 -1.9745 -0.1530
  275MPD2    N1 4216   4.468   1.742  14.764 -0.1437 -0.6118 -0.5072
  275MPD2    H7 4217   4.489   1.644  14.744 -2.7057 -1.0165 -1.1144
  276TMC3    C1 4218   4.697   1.759  14.791 -0.3825  0.4990  0.1605
  276TMC3    C2 4219   4.728   1.650  14.711  0.1013 -0.0980  0.3352
  276TMC3    C3 4220   0.126   1.602  14.724  0.2472 -0.4651  0.2472
  276TMC3    C4 4221   0.066   1.829  14.853 -0.3768  0.5586  0.1128
  276TMC3    C5 4222   0.196   1.783  14.853 -0.1942 -0.4189 -0.6401
  276TMC3    C6 4223   0.227   1.668  14.786  0.5904 -0.0846 -0.5990
  276TMC3     C 4224   4.570   1.828  14.789  0.5390  0.3835 -0.3378
  276TMC3     O 4225   4.561   1.945  14.813 -0.2591 -0.2177  0.2686
  276TMC3     H 4226   4.656   1.588  14.659 -1.3948 -0.1784  2.5024
  276TMC3    H1 4227   0.027   1.910  14.914 -1.1640 -0.6842  1.2454
  276TMC3    H2 4228   0.327   1.626  14.792  1.2235  1.6689  1.1835
  276TMC3    C7 4229   0.294   1.841  14.952  0.0856 -1.6121  0.1778
  276TMC3    C8 4230   0.142   1.484  14.645  0.2727 -0.5572  0.2253
  276TMC3    O1 4231   0.247   1.908  15.043  0.8702  0.7297 -0.2403
  276TMC3    O2 4232   0.073   1.481  14.543  0.3786 -0.1254 -0.3346
  277MPD2     C 4233   1.750   1.102  13.035  0.7117  0.5238  0.1594
  277MPD2    C1 4234   1.621   1.084  13.040 -0.5244  0.0032 -0.5219
  277MPD2    C2 4235   1.564   0.993  13.124 -0.0926  0.3683 -0.0292
  277MPD2    C3 4236   1.642   0.915  13.205  0.6052  0.4644 -0.5642
  277MPD2    C4 4237   1.775   0.941  13.210  0.2926 -1.5297 -0.3562
  277MPD2    C5 4238   1.831   1.034  13.128  0.3106  0.3042  0.2945
  277MPD2     H 4239   1.458   0.972  13.124  0.2719 -1.4608  2.5058
  277MPD2    H1 4240   1.840   0.884  13.275  1.4074  0.0983 -0.0364
  277MPD2    H2 4241   1.799   1.179  12.976  1.9462 -0.8418 -0.5837
  277MPD2    H3 4242   1.938   1.051  13.138  0.3265  1.0628 -1.2465
  277MPD2     N 4243   1.578   0.822  13.287 -0.2558  0.4041  0.0948
  277MPD2    H5 4244   1.478   0.809  13.269 -0.1359 -1.8834  1.1587
  277MPD2    N1 4245   1.545   1.178  12.955  0.1118 -0.3748 -0.3830
  277MPD2    H7 4246   1.597   1.252  12.910 -0.3477  0.5476  0.5905
  278TMC3    C1 4247   1.539   0.666  13.457 -0.7712  0.7283 -0.0212
  278TMC3    C2 4248   1.535   0.534  13.418 -0.2065  0.0491  0.3546
  278TMC3    C3 4249   1.423   0.462  13.394  0.6278 -0.8726  0.7783
  278TMC3    C4 4250   1.424   0.736  13.469  0.1339 -0.7333 -0.0313
  278TMC3    C5 4251   1.308   0.660  13.444  0.2533 -0.3568 -0.2905
  278TMC3    C6 4252   1.304   0.526  13.413  0.8678 -0.4503 -0.1803
  278TMC3     C 4253   1.636   0.734  13.379 -0.1562 -0.0104  0.1288
  278TMC3     O 4254   1.758   0.721  13.403  0.1367  0.1423  0.2082
  278TMC3     H 4255   1.623   0.481  13.381 -0.1266  0.0871  0.4891
  278TMC3    H1 4256   1.436   0.839  13.500  1.4183 -0.1541 -2.4654
  278TMC3    H2 4257   1.212   0.478  13.381  1.3924 -1.3598 -0.3463
  278TMC3    C7 4258   1.202   0.742  13.396 -0.5656  0.0327 -0.0257
  278TMC3    C8 4259   1.429   0.316  13.410  0.0514  0.6157 -0.3305
  278TMC3    O1 4260   1.237   0.855  13.360 -0.1266  0.3875  0.1822
  278TMC3    O2 4261   1.541   0.269  13.417 -0.4231 -0.1825 -0.0031
  279MPD2     C 4262   0.752   0.471   0.169  0.1787  0.5247 -0.1443
  279MPD2    C1 4263   0.719   0.607   0.175  0.0972 -0.1781 -0.2442
  279MPD2    C2 4264   0.678   0.657   0.055  0.0042 -0.7359  0.4236
  279MPD2    C3 4265   0.671   0.587  17.683  0.3266 -0.3502 -0.7305
  279MPD2    C4 4266   0.689   0.451  17.688 -0.1378 -0.2558 -0.1321
  279MPD2    C5 4267   0.728   0.390   0.061 -0.2936 -0.1148  0.5553
  279MPD2     H 4268   0.641   0.759   0.048 -1.0047 -1.1245  0.2214
  279MPD2    H1 4269   0.678   0.394  17.597  1.3840 -2.2091  0.9155
  279MPD2    H2 4270   0.785   0.427   0.262  0.2069  3.1034  1.0628
  279MPD2    H3 4271   0.741   0.283   0.075 -1.0561 -0.2973 -0.1403
  279MPD2     N 4272   0.636   0.635  17.556 -0.3049 -0.0682  0.0624
  279MPD2    H5 4273   0.629   0.568  17.481 -0.5404  0.1674 -0.1267
  279MPD2    N1 4274   0.714   0.663   0.309  0.6294 -0.3279  0.1968
  279MPD2    H7 4275   0.765   0.610   0.378  0.4090 -0.9923 -0.1465
  280TMC3    C1 4276   0.554   0.848   0.288 -0.3422  0.2279  0.2240
  280TMC3    C2 4277   0.457   0.753   0.268 -0.5579 -0.0648 -0.1093
  280TMC3    C3 4278   0.340   0.797   0.216 -0.2771 -0.8841  0.4570
  280TMC3    C4 4279   0.532   0.979   0.269 -0.3318  0.4798  0.9515
  280TMC3    C5 4280   0.416   1.020   0.221  0.4790 -0.4205 -0.6329
  280TMC3    C6 4281   0.312   0.931   0.199  0.6241  0.5693  0.1228
  280TMC3     C 4282   0.685   0.796   0.340  0.5059 -0.4655  0.0378
  280TMC3     O 4283   0.735   0.867   0.425  0.2536  0.0336  0.2583
  280TMC3     H 4284   0.473   0.649   0.292 -0.4931 -0.1974 -0.7355
  280TMC3    H1 4285   0.615   1.046   0.284 -0.5900  1.2745 -1.1546
  280TMC3    H2 4286   0.211   0.957   0.172  2.1375  2.2215 -3.9819
  280TMC3    C7 4287   0.395   1.159   0.186  0.1251  0.5266 -0.9004
  280TMC3    C8 4288   0.238   0.708   0.159 -0.0106  0.7105 -0.5324
  280TMC3    O1 4289   0.481   1.242   0.214  0.2932  0.5572  0.1068
  280TMC3    O2 4290   0.169   0.755   0.067 -0.0772  0.4870  0.5587
  281TMC3    C1 4291   4.630   1.000  13.338  0.5536 -0.0993  0.0865
  281TMC3    C2 4292   4.702   1.102  13.287 -0.4503  0.5941 -1.0724
  281TMC3    C3 4293   0.052   1.078  13.187  0.0256  0.3252 -0.3941
  281TMC3    C4 4294   4.661   0.867  13.309 -0.5465 -0.3247 -0.2182
  281TMC3    C5 4295   0.015   0.849  13.208  0.1276 -1.0752 -0.2788
  281TMC3    C6 4296   0.071   0.951  13.138 -0.6268  0.2545 -0.3806
  281TMC3     C 4297   4.516   1.018  13.423 -0.2635  0.0489  0.6146
  281TMC3     O 4298   4.456   0.916  13.450  0.2430 -0.1605 -0.4417
  281TMC3     H 4299   4.696   1.198  13.338  1.2205  0.4038 -0.5163
  281TMC3    H1 4300   4.619   0.797  13.379 -1.5569  1.0816  0.5750
  281TMC3    H2 4301   0.140   0.928  13.057  0.5755 -0.8326  0.9542
  281TMC3    C7 4302   4.723   0.732  13.127  0.0912 -0.5427  0.0551
  281TMC3    C8 4303   0.154   1.181  13.153  0.1558 -0.2423  0.0474
  281TMC3    O1 4304   0.023   0.742  13.013  0.0538 -0.2052  0.1434
  281TMC3    O2 4305   0.263   1.136  13.120  0.0492 -0.0738 -0.1112
  282MPD2     C 4306   1.294   2.101  14.849 -0.0538  0.1853 -0.6158
  282MPD2    C1 4307   1.216   2.217  14.878 -0.1967  0.7966 -0.3045
  282MPD2    C2 4308   1.174   2.294  14.772  0.4645 -0.5934  0.4521
  282MPD2    C3 4309   1.186   2.247  14.642  0.5752  0.1833 -0.0412
  282MPD2    C4 4310   1.271   2.145  14.617 -0.4083  0.1984  0.0871
  282MPD2    C5 4311   1.324   2.075  14.717 -0.0798 -0.2697 -0.4362
  282MPD2     H 4312   1.120   2.384  14.795 -0.5752 -1.4001  1.1315
  282MPD2    H1 4313   1.301   2.106  14.520  0.8694 -1.4036  1.1191
  282MPD2    H2 4314   1.321   2.030  14.926  1.1681 -0.0969 -1.3111
  282MPD2    H3 4315   1.378   1.984  14.693 -0.0179 -0.1153 -0.8945
  282MPD2     N 4316   1.119   2.318  14.540  0.4687  0.2393 -0.5251
  282MPD2    H5 4317   1.049   2.387  14.563 -0.3993 -0.5455 -0.8164
  282MPD2    N1 4318   1.186   2.247  15.014  0.3720  0.1909  0.1152
  282MPD2    H7 4319   1.155   2.343  15.026 -0.4350 -0.0099 -0.3542
  283TMC3    C1 4320   1.152   2.227  15.249 -0.5097  0.2165 -0.0388
  283TMC3    C2 4321   1.139   2.366  15.252  0.1158  0.3960  0.4295
  283TMC3    C3 4322   1.103   2.421  15.375  0.0259 -0.1228  0.4058
  283TMC3    C4 4323   1.131   2.150  15.356 -0.1793  0.2735 -0.1849
  283TMC3    C5 4324   1.095   2.210  15.473 -0.0026 -1.3224 -0.4978
  283TMC3    C6 4325   1.079   2.345  15.483  0.1674 -0.3438  0.2084
  283TMC3     C 4326   1.187   2.166  15.124  0.4950 -0.9105 -0.1636
  283TMC3     O 4327   1.212   2.049  15.129  0.5258  0.6024 -0.5962
  283TMC3     H 4328   1.166   2.437  15.174 -0.9724 -0.6263 -0.8769
  283TMC3    H1 4329   1.138   2.043  15.342  0.5170  0.1911  0.8420
  283TMC3    H2 4330   1.053   2.394  15.576  0.8378  0.9792 -0.2906
  283TMC3    C7 4331   1.036   2.145  15.587  0.0719  0.6098  0.7883
  283TMC3    C8 4332   1.129   2.564  15.407 -0.2696  0.1581  0.0914
  283TMC3    O1 4333   1.024   2.210  15.689 -0.3358  1.0476 -0.3826
  283TMC3    O2 4334   1.164   2.589  15.521  0.1984  0.2824 -0.4178
  284MPD2     C 4335   4.437   1.797  11.849  0.0892 -0.2776  0.4824
  284MPD2    C1 4336   4.331   1.762  11.776  0.9153  0.5422  0.7168
  284MPD2    C2 4337   4.268   1.636  11.783  0.2680 -0.4423  0.7215
  284MPD2    C3 4338   4.321   1.544  11.870 -0.1067  0.2045  0.0271
  284MPD2    C4 4339   4.431   1.582  11.943  0.1383  0.0894 -0.1289
  284MPD2    C5 4340   4.488   1.702  11.932 -0.8316 -0.6837 -0.1732
  284MPD2     H 4341   4.181   1.609  11.725  0.2959 -0.5999  0.7530
  284MPD2    H1 4342   4.468   1.516  12.020 -0.0977 -0.0802 -0.1597
  284MPD2    H2 4343   4.487   1.893  11.834 -3.4675  1.4432 -0.3661
  284MPD2    H3 4344   4.566   1.732  12.001 -0.4652 -0.3429 -0.7435
  284MPD2     N 4345   4.264   1.414  11.888  0.7111  0.0970  0.1208
  284MPD2    H5 4346   4.327   1.350  11.935 -0.5017 -1.6072 -0.5936
  284MPD2    N1 4347   4.269   1.850  11.692 -0.2854 -0.3082 -0.0456
  284MPD2    H7 4348   4.199   1.810  11.630  0.2386 -0.5651 -0.4741
  285TMC3    C1 4349   4.276   2.047  11.553  0.5246 -0.3571  0.2400
  285TMC3    C2 4350   4.295   1.964  11.443  0.9984 -0.3232 -0.9778
  285TMC3    C3 4351   4.330   2.024  11.322 -0.1708  0.4027 -0.0041
  285TMC3    C4 4352   4.293   2.180  11.548  0.6382  0.4200 -0.2745
  285TMC3    C5 4353   4.301   2.236  11.425 -0.6212 -0.1759 -0.8439
  285TMC3    C6 4354   4.338   2.160  11.307 -0.2857 -0.5921  0.1929
  285TMC3     C 4355   4.296   1.990  11.683 -0.3963 -0.1651 -0.2857
  285TMC3     O 4356   4.349   2.057  11.771  0.3968  0.5408  0.2547
  285TMC3     H 4357   4.294   1.856  11.450 -0.1623 -0.4477 -2.9086
  285TMC3    H1 4358   4.280   2.227  11.645 -0.0468 -1.7426  0.6993
  285TMC3    H2 4359   4.373   2.214  11.220  1.0513  0.9525  1.7003
  285TMC3    C7 4360   4.349   2.372  11.425 -0.1177 -0.1543 -0.0041
  285TMC3    C8 4361   4.431   1.949  11.244  0.4455  0.1631  0.1985
  285TMC3    O1 4362   4.423   2.408  11.334  0.1658 -0.5352 -0.3477
  285TMC3    O2 4363   4.408   1.836  11.212  0.0980 -0.7340 -0.4493
  286MPD2     C 4364   0.297   0.806   1.390 -0.0266  0.2007  0.1979
  286MPD2    C1 4365   0.207   0.724   1.334  0.5255 -0.1686 -0.7369
  286MPD2    C2 4366   0.237   0.592   1.299  0.1515 -0.0051  0.6110
  286MPD2    C3 4367   0.359   0.538   1.340  0.0978  0.2007 -0.0145
  286MPD2    C4 4368   0.446   0.618   1.410  0.0500 -0.4511  0.0196
  286MPD2    C5 4369   0.414   0.753   1.440  0.2740 -0.4161 -0.7471
  286MPD2     H 4370   0.176   0.528   1.236  2.8481 -1.4277 -0.5300
  286MPD2    H1 4371   0.546   0.578   1.428 -0.5229 -1.5615  0.7756
  286MPD2    H2 4372   0.275   0.909   1.417  3.1399  0.9199  0.0657
  286MPD2    H3 4373   0.479   0.819   1.496  1.3590  0.6294 -3.2125
  286MPD2     N 4374   0.404   0.405   1.313  0.7385  0.1339  0.0256
  286MPD2    H5 4375   0.494   0.379   1.351  0.2277 -0.1289  1.0541
  286MPD2    N1 4376   0.087   0.769   1.282 -0.0038  0.2317  0.3888
  286MPD2    H7 4377   0.028   0.702   1.234  1.2983 -0.8035  0.2184
  287TMC3    C1 4378   0.393   0.181   1.228 -0.4116 -0.4723 -0.1956
  287TMC3    C2 4379   0.318   0.082   1.162 -0.2867 -0.0112 -0.2952
  287TMC3    C3 4380   0.389   4.711   1.115 -0.0308  0.1003  0.0378
  287TMC3    C4 4381   0.528   0.187   1.227 -0.1165  0.8088 -1.0534
  287TMC3    C5 4382   0.596   0.079   1.169 -0.0536  0.9111  0.6760
  287TMC3    C6 4383   0.526   4.706   1.115 -0.1888  0.7786  0.6838
  287TMC3     C 4384   0.326   0.308   1.247 -0.0853 -0.2247 -0.0747
  287TMC3     O 4385   0.215   0.317   1.193  0.0291  0.1186  0.2513
  287TMC3     H 4386   0.210   0.082   1.155 -0.2905  1.3835 -0.2507
  287TMC3    H1 4387   0.596   0.266   1.257 -0.3908  0.2222  1.1115
  287TMC3    H2 4388   0.572   4.627   1.057  1.0169 -0.0053  2.6754
  287TMC3    C7 4389   0.741   0.081   1.183 -0.1157  0.4060  0.1774
  287TMC3    C8 4390   0.315   4.612   1.031  0.1745 -0.0121  0.0918
  287TMC3    O1 4391   0.793   0.140   1.277 -0.4163 -0.3412  0.1914
  287TMC3    O2 4392   0.373   4.511   0.994  0.0008  0.5779 -0.3899
  288TMC3    C1 4393   0.904   0.066  14.351 -0.7182  0.0415  0.4903
  288TMC3    C2 4394   0.911   0.043  14.488  0.1642 -0.3651 -0.7035
  288TMC3    C3 4395   0.948   0.152  14.561 -0.0661  0.3892  0.2254
  288TMC3    C4 4396   0.923   0.180  14.286  0.2261 -0.6456  0.3652
  288TMC3    C5 4397   0.988   0.279  14.361 -1.1440  0.6649 -0.8351
  288TMC3    C6 4398   0.992   0.264  14.499  1.2110 -0.3905  0.0507
  288TMC3     C 4399   0.895   4.682  14.262  0.2528  0.7476 -0.2880
  288TMC3     O 4400   0.939   4.575  14.306 -0.5225 -0.3488  0.2655
  288TMC3     H 4401   0.903   4.677  14.524  1.4200  0.0396  0.7174
  288TMC3    H1 4402   0.917   0.189  14.178  1.1844 -2.1391  0.1856
  288TMC3    H2 4403   1.011   0.347  14.565 -3.9820  2.1694 -1.6831
  288TMC3    C7 4404   1.042   0.397  14.298  0.0282  0.5526 -0.1535
  288TMC3    C8 4405   0.917   0.164  14.700 -0.5170 -0.1355  0.1605
  288TMC3    O1 4406   1.053   0.495  14.365  0.0826 -0.0626 -0.0697
  288TMC3    O2 4407   0.979   0.243  14.771 -0.5212 -0.2769 -1.1290
  289MPD2     C 4408   1.361   4.025  14.595 -0.1715  0.7935 -0.2240
  289MPD2    C1 4409   1.340   4.128  14.503 -0.0107 -0.4112  0.5893
  289MPD2    C2 4410   1.225   4.120  14.424  0.4437 -0.8315  0.8332
  289MPD2    C3 4411   1.116   4.027  14.446 -0.2320 -0.2523 -0.2104
  289MPD2    C4 4412   1.145   3.926  14.530  0.1801 -0.3593  0.3677
  289MPD2    C5 4413   1.268   3.923  14.599  0.1479 -0.2654 -0.1229
  289MPD2     H 4414   1.222   4.187  14.339  1.7186  0.0108  1.4374
  289MPD2    H1 4415   1.086   3.839  14.558  1.3515 -0.4149  2.6939
  289MPD2    H2 4416   1.448   4.012  14.658  0.3733  2.3503 -0.6460
  289MPD2    H3 4417   1.279   3.836  14.662  1.3098 -0.4278 -0.5436
  289MPD2     N 4418   0.987   4.028  14.386 -0.3574  0.2536 -0.5127
  289MPD2    H5 4419   0.938   3.940  14.391  1.5319 -0.7237  1.0724
  289MPD2    N1 4420   1.438   4.224  14.501 -0.4520  0.0718  0.1978
  289MPD2    H7 4421   1.523   4.215  14.557  0.2330  1.8791 -0.5565
  290TMC3    C1 4422   0.807   4.107  14.260  0.1820 -0.3839  0.3221
  290TMC3    C2 4423   0.731   4.223  14.266  0.1970  0.7506  0.6241
  290TMC3    C3 4424   0.598   4.210  14.263 -0.2937 -0.2343  0.2511
  290TMC3    C4 4425   0.755   3.986  14.242 -0.3500 -0.0759  1.0863
  290TMC3    C5 4426   0.615   3.979  14.239 -0.3259  0.5170  0.2658
  290TMC3    C6 4427   0.534   4.088  14.254 -0.8149 -0.2142  0.3074
  290TMC3     C 4428   0.945   4.123  14.293 -0.2153  0.3503 -0.3664
  290TMC3     O 4429   0.998   4.233  14.271  0.3679 -0.3317 -0.0734
  290TMC3     H 4430   0.784   4.317  14.270 -2.2438  2.2480 -2.2394
  290TMC3    H1 4431   0.823   3.906  14.216  1.6932  1.4889  1.5741
  290TMC3    H2 4432   0.426   4.087  14.250 -0.8252  1.3492  0.3048
  290TMC3    C7 4433   0.556   3.888  14.145  0.2525  0.0698 -0.1352
  290TMC3    C8 4434   0.516   4.317  14.210 -0.2801 -0.0132 -0.6852
  290TMC3    O1 4435   0.448   3.920  14.097  0.2096  0.0599 -0.6010
  290TMC3    O2 4436   0.428   4.286  14.131 -0.3026  0.3911 -0.5725
  291MPD2     C 4437   0.612   4.156   0.301  0.6882  0.1970 -0.6215
  291MPD2    C1 4438   0.736   4.090   0.295  0.3581 -0.5908 -0.6349
  291MPD2    C2 4439   0.848   4.166   0.284 -0.2313 -0.0391  0.0376
  291MPD2    C3 4440   0.839   4.302   0.282  0.2310 -0.9565  0.2375
  291MPD2    C4 4441   0.717   4.364   0.298 -0.0792 -0.6070 -0.3400
  291MPD2    C5 4442   0.606   4.288   0.317 -0.0624 -0.2183  0.2811
  291MPD2     H 4443   0.939   4.109   0.267  0.0762  0.8770 -1.3525
  291MPD2    H1 4444   0.723   4.472   0.296  0.1525 -0.6337 -1.1164
  291MPD2    H2 4445   0.517   4.104   0.315  0.1056  0.8015 -2.3618
  291MPD2    H3 4446   0.505   4.327   0.320  0.1873  0.5805 -1.6516
  291MPD2     N 4447   0.956   4.386   0.258  0.1063 -0.0505 -0.2287
  291MPD2    H5 4448   0.944   4.486   0.270 -0.8964 -0.3507  1.3298
  291MPD2    N1 4449   0.740   3.948   0.273 -0.2159 -0.3184 -0.6690
  291MPD2    H7 4450   0.833   3.907   0.280 -0.6281 -1.0622  0.4794
  292TMC3    C1 4451   0.675   3.734   0.279  0.2830  0.4583 -0.5459
  292TMC3    C2 4452   0.765   3.705   0.373  0.0160 -0.1333 -0.2257
  292TMC3    C3 4453   0.760   3.584   0.426  0.0806  0.3131 -0.3670
  292TMC3    C4 4454   0.588   3.640   0.225 -0.8052  0.2018 -0.2935
  292TMC3    C5 4455   0.593   3.511   0.271  0.1913 -0.2399 -0.0311
  292TMC3    C6 4456   0.689   3.479   0.365 -0.3168 -0.1516  0.0848
  292TMC3     C 4457   0.632   3.865   0.254 -0.1995  0.0344 -0.0474
  292TMC3     O 4458   0.512   3.893   0.235  0.6736  0.0319 -0.2049
  292TMC3     H 4459   0.828   3.781   0.419 -1.4998  2.2689 -2.1748
  292TMC3    H1 4460   0.522   3.685   0.151 -1.7111  0.9735  0.9921
  292TMC3    H2 4461   0.684   3.381   0.412 -0.0661 -0.0179  0.3870
  292TMC3    C7 4462   0.543   3.417   0.171  0.2471 -0.3219  0.3097
  292TMC3    C8 4463   0.835   3.567   0.551  0.2247  0.2502  0.3787
  292TMC3    O1 4464   0.613   3.321   0.146 -0.1632  0.2108  0.0713
  292TMC3    O2 4465   0.940   3.635   0.564 -1.0107  0.3511 -0.3172
  293MPD2     C 4466   2.623   1.012  12.638  0.1125  0.3814 -0.3284
  293MPD2    C1 4467   2.530   0.915  12.668 -0.1873  0.7491  0.5084
  293MPD2    C2 4468   2.529   0.866  12.799 -0.6211  0.3743 -0.3433
  293MPD2    C3 4469   2.612   0.912  12.896  0.7785  0.0114  0.2415
  293MPD2    C4 4470   2.694   1.015  12.863  0.2037  0.2226  0.1482
  293MPD2    C5 4471   2.707   1.057  12.734  0.5195  0.2972 -1.2431
  293MPD2     H 4472   2.478   0.772  12.816  0.8061 -0.7781 -2.4849
  293MPD2    H1 4473   2.755   1.057  12.942  0.8986  2.2450 -1.4465
  293MPD2    H2 4474   2.628   1.043  12.534  0.6901  0.7967 -0.1803
  293MPD2    H3 4475   2.776   1.132  12.696  1.8064  0.4311  1.3132
  293MPD2     N 4476   2.609   0.865  13.029  0.0611  0.1695  0.0755
  293MPD2    H5 4477   2.530   0.803  13.044 -0.2919  0.9245  1.3139
  293MPD2    N1 4478   2.440   0.873  12.572  0.0671 -0.3055 -0.5423
  293MPD2    H7 4479   2.453   0.907  12.477 -0.6940  1.1390 -0.1330
  294TMC3    C1 4480   2.242   0.770  12.489  0.3663  0.1077 -0.4506
  294TMC3    C2 4481   2.110   0.762  12.523 -0.7039  0.2079  0.2825
  294TMC3    C3 4482   2.017   0.726  12.427 -0.6199 -0.2563  0.1317
  294TMC3    C4 4483   2.284   0.741  12.366  0.0834 -0.4968  0.4586
  294TMC3    C5 4484   2.194   0.695  12.278 -0.1479 -0.0155  0.4272
  294TMC3    C6 4485   2.059   0.694  12.302 -0.2102  0.2056  0.1738
  294TMC3     C 4486   2.335   0.785  12.602 -0.5362 -0.0770  0.3110
  294TMC3     O 4487   2.281   0.763  12.713 -0.5452  0.1071  0.1362
  294TMC3     H 4488   2.078   0.790  12.623  1.0952  0.4652  0.7699
  294TMC3    H1 4489   2.389   0.738  12.338  0.1315  1.4929  0.4344
  294TMC3    H2 4490   1.980   0.670  12.232 -0.4644 -0.8754  0.8284
  294TMC3    C7 4491   2.242   0.619  12.161 -0.2965  0.5800  0.0237
  294TMC3    C8 4492   1.877   0.725  12.469 -0.2418  0.4258 -0.2819
  294TMC3    O1 4493   2.361   0.597  12.158 -0.0706 -0.4346  0.0677
  294TMC3    O2 4494   1.859   0.770  12.580  0.2175  0.0675 -0.5722
  295MPD2     C 4495   3.989   4.363   0.770  0.0294 -0.0882 -0.5237
  295MPD2    C1 4496   3.928   4.272   0.682  0.5565  0.3092 -0.3137
  295MPD2    C2 4497   3.920   4.144   0.736 -0.6564 -0.0937  0.5146
  295MPD2    C3 4498   3.969   4.101   0.861  0.1580  0.1490 -0.4968
  295MPD2    C4 4499   4.023   4.200   0.941  0.2981  0.4774 -0.3184
  295MPD2    C5 4500   4.037   4.329   0.897 -0.0281 -0.1976  0.1541
  295MPD2     H 4501   3.875   4.063   0.679  0.6262 -0.6259  0.2381
  295MPD2    H1 4502   4.057   4.176   1.041 -1.7794  1.1205  0.5489
  295MPD2    H2 4503   3.989   4.468   0.745  4.7149  0.0046 -0.0726
  295MPD2    H3 4504   4.093   4.399   0.958 -0.0707 -0.4573  0.4863
  295MPD2     N 4505   3.974   3.975   0.920 -0.5485 -0.6094 -0.4590
  295MPD2    H5 4506   4.022   3.970   1.009 -0.7703 -0.8730 -0.3520
  295MPD2    N1 4507   3.890   4.295   0.547 -0.1303  0.7813  0.7589
  295MPD2    H7 4508   3.860   4.213   0.496  0.2934  1.6144 -0.8397
  296TMC3    C1 4509   3.954   3.739   0.946 -0.2551  0.2252  0.3156
  296TMC3    C2 4510   3.974   3.757   1.080 -0.5778 -0.0554 -0.1120
  296TMC3    C3 4511   3.993   3.638   1.145  0.4133 -0.3941  0.3277
  296TMC3    C4 4512   3.951   3.614   0.880  0.2744 -0.0119  0.2070
  296TMC3    C5 4513   3.957   3.504   0.965  0.1922 -0.6300 -0.1119
  296TMC3    C6 4514   3.985   3.513   1.092  0.0245 -0.4543 -0.7813
  296TMC3     C 4515   3.921   3.857   0.869  0.0793 -0.4046 -0.2387
  296TMC3     O 4516   3.859   3.850   0.766  0.2011  0.2440 -0.4717
  296TMC3     H 4517   3.975   3.848   1.140 -1.3060  1.4917 -2.4191
  296TMC3    H1 4518   3.934   3.600   0.774 -0.2306 -0.0945  0.3021
  296TMC3    H2 4519   3.995   3.422   1.152  2.7020 -0.0211 -0.5671
  296TMC3    C7 4520   3.900   3.383   0.910 -0.5385  0.0725  0.4528
  296TMC3    C8 4521   4.024   3.651   1.290  0.1934 -0.5746 -0.4615
  296TMC3    O1 4522   3.915   3.364   0.792  0.3118 -0.2256 -0.4405
  296TMC3    O2 4523   3.962   3.739   1.348 -0.3742  0.0313 -0.1226
  297MPD2     C 4524   0.153   1.341  16.747  0.1186  0.1219 -0.3010
  297MPD2    C1 4525   0.163   1.346  16.605 -0.1093 -0.6092  0.3915
  297MPD2    C2 4526   0.280   1.397  16.556 -0.1485  0.1806 -0.0773
  297MPD2    C3 4527   0.384   1.435  16.640 -0.2720  1.0620 -0.1398
  297MPD2    C4 4528   0.377   1.407  16.778  0.5139  0.2012 -0.7273
  297MPD2    C5 4529   0.256   1.368  16.833  0.2701 -0.3990 -0.7957
  297MPD2     H 4530   0.285   1.418  16.450 -0.5571 -1.0921 -0.3523
  297MPD2    H1 4531   0.464   1.427  16.839 -1.7930 -0.6071  2.8065
  297MPD2    H2 4532   0.063   1.325  16.805 -1.3125  2.8066 -1.8192
  297MPD2    H3 4533   0.242   1.370  16.940 -2.0581 -0.7147 -1.1007
  297MPD2     N 4534   0.500   1.494  16.583 -0.1186 -0.0958  0.1175
  297MPD2    H5 4535   0.510   1.480  16.483 -1.6337 -2.7462  0.3308
  297MPD2    N1 4536   0.055   1.324  16.515  0.6100 -0.2724 -0.8227
  297MPD2    H7 4537   0.060   1.340  16.415  0.0578  2.1046 -0.4848
  298TMC3    C1 4538   4.572   1.270  16.435  0.3583  0.5008  0.1991
  298TMC3    C2 4539   4.617   1.209  16.325  0.0660  0.5167 -0.0961
  298TMC3    C3 4540   4.536   1.196  16.218 -0.0852  0.1499 -0.2404
  298TMC3    C4 4541   4.437   1.303  16.448  0.6165  0.2529  0.0670
  298TMC3    C5 4542   4.358   1.303  16.334  0.2561  0.6470 -0.2655
  298TMC3    C6 4543   4.412   1.250  16.214  0.5459  0.1089  0.1207
  298TMC3     C 4544   4.665   1.289  16.550  0.0038  0.4062 -0.1947
  298TMC3     O 4545   4.614   1.286  16.660 -0.3303 -0.2091  0.4176
  298TMC3     H 4546   4.723   1.191  16.310  0.1859  0.4514  0.8292
  298TMC3    H1 4547   4.400   1.341  16.543 -1.1548 -2.2057  0.3686
  298TMC3    H2 4548   4.353   1.238  16.124  0.5538  0.0621  0.1216
  298TMC3    C7 4549   4.231   1.366  16.348 -0.0908  0.4546 -0.0057
  298TMC3    C8 4550   4.604   1.176  16.092 -0.1935 -0.6898  0.0436
  298TMC3    O1 4551   4.213   1.432  16.449 -0.5655 -0.0942  0.2232
  298TMC3    O2 4552   4.562   1.235  15.995  0.1748 -0.0890  0.1155
  299MPD2     C 4553   1.217   1.116  10.507  0.0185  0.2687  0.7353
  299MPD2    C1 4554   1.152   1.235  10.482  0.2373 -0.4143 -0.5148
  299MPD2    C2 4555   1.065   1.252  10.380 -0.1358  0.6292 -0.0743
  299MPD2    C3 4556   1.033   1.145  10.296 -0.4332  0.9049 -0.6670
  299MPD2    C4 4557   1.099   1.029  10.326  0.0303 -0.0873  0.0211
  299MPD2    C5 4558   1.192   1.012  10.422 -0.7962 -0.0250 -0.4396
  299MPD2     H 4559   1.013   1.346  10.366 -1.1678 -0.1129 -1.1996
  299MPD2    H1 4560   1.086   0.945  10.259 -0.0487  1.2764 -1.6592
  299MPD2    H2 4561   1.283   1.095  10.590 -2.4708 -1.1286  2.3980
  299MPD2    H3 4562   1.246   0.919  10.440  0.3405  0.5536 -0.8658
  299MPD2     N 4563   0.942   1.157  10.189  0.6460  0.2549 -0.7848
  299MPD2    H5 4564   0.925   1.078  10.128 -0.3843  0.0053 -0.1800
  299MPD2    N1 4565   1.167   1.337  10.574  0.3908 -0.4693 -0.0570
  299MPD2    H7 4566   1.221   1.307  10.654 -0.3377  1.5680  1.1952
  300TMC3    C1 4567   0.773   1.269  10.072  0.6195  0.2394  0.3110
  300TMC3    C2 4568   0.743   1.374   9.982 -0.5340 -0.4157 -0.3473
  300TMC3    C3 4569   0.613   1.377   9.932 -0.2258  0.4732  0.3588
  300TMC3    C4 4570   0.682   1.168  10.103  0.6035  0.2744  0.2453
  300TMC3    C5 4571   0.559   1.186  10.047 -0.3064 -0.1206  0.2673
  300TMC3    C6 4572   0.523   1.280   9.959  0.2591  0.1849  0.3804
  300TMC3     C 4573   0.901   1.278  10.142 -0.3900  0.3657  0.6070
  300TMC3     O 4574   0.942   1.395  10.152 -0.2430  0.3601  0.0959
  300TMC3     H 4575   0.809   1.456   9.956  0.2569 -1.4405 -1.5318
  300TMC3    H1 4576   0.698   1.089  10.175  0.9332  0.1241  0.0081
  300TMC3    H2 4577   0.426   1.283   9.910 -0.4263 -3.3088  1.5044
  300TMC3    C7 4578   0.443   1.133  10.115 -0.0166 -0.2762 -0.3875
  300TMC3    C8 4579   0.567   1.514   9.953 -0.7982 -0.0949 -0.3269
  300TMC3    O1 4580   0.346   1.105  10.047 -0.1846 -0.4194 -0.0411
  300TMC3    O2 4581   0.642   1.601   9.997 -0.3558  0.3096  0.0582
  301MPD2     C 4582   3.098   2.253   1.186 -0.1274  0.0236 -0.3505
  301MPD2    C1 4583   3.006   2.237   1.080  0.6260  0.1674 -0.0903
  301MPD2    C2 4584   2.987   2.105   1.043  0.3543  0.4357  0.1477
  301MPD2    C3 4585   3.060   1.999   1.089 -0.1945  0.8625 -0.0756
  301MPD2    C4 4586   3.161   2.024   1.181  0.1103  0.2987 -0.9537
  301MPD2    C5 4587   3.176   2.149   1.231  0.1495  0.3282 -0.2495
  301MPD2     H 4588   2.912   2.095   0.964 -1.3696 -0.2489  1.8695
  301MPD2    H1 4589   3.221   1.946   1.226 -1.2693 -1.0020 -1.3225
  301MPD2    H2 4590   3.121   2.354   1.219 -0.4149 -0.0243 -0.0024
  301MPD2    H3 4591   3.241   2.164   1.316 -0.9040  2.6670  0.1240
  301MPD2     N 4592   3.034   1.860   1.052  0.3252 -0.0022  0.2850
  301MPD2    H5 4593   3.058   1.791   1.122  0.7399  2.1302  2.2342
  301MPD2    N1 4594   2.924   2.335   1.021 -0.3283  0.0126 -0.3755
  301MPD2    H7 4595   2.842   2.310   0.969 -1.3397 -0.5335  1.4850
  302TMC3    C1 4596   2.912   1.680   0.944 -0.1606 -0.4415 -0.2599
  302TMC3    C2 4597   2.951   1.579   1.034  0.0050 -0.3275  0.3206
  302TMC3    C3 4598   2.912   1.447   1.010  0.8698 -0.7010 -0.8052
  302TMC3    C4 4599   2.833   1.645   0.837  0.7039  0.2212 -0.1293
  302TMC3    C5 4600   2.812   1.513   0.811  0.3096  0.4826 -0.7136
  302TMC3    C6 4601   2.851   1.417   0.890  0.2089  0.4634 -0.5360
  302TMC3     C 4602   2.952   1.821   0.948  0.1799  0.3276 -0.5297
  302TMC3     O 4603   2.938   1.887   0.844  0.4427 -0.1681  0.0056
  302TMC3     H 4604   2.992   1.608   1.130 -1.0637  0.1926  0.6216
  302TMC3    H1 4605   2.814   1.717   0.758  1.3851  2.0592  1.3869
  302TMC3    H2 4606   2.825   1.316   0.862  0.4891  0.2622 -0.0477
  302TMC3    C7 4607   2.706   1.482   0.711  0.6498 -0.5246 -0.2947
  302TMC3    C8 4608   2.913   1.349   1.118  0.4904 -0.3869  0.2297
  302TMC3    O1 4609   2.710   1.361   0.673 -0.1728 -0.2936  0.3861
  302TMC3    O2 4610   2.980   1.379   1.215 -0.1317 -0.0007 -0.0183
  303MPD2     C 4611   3.099   0.673  11.216  0.1502 -1.2074  0.3455
  303MPD2    C1 4612   3.085   0.578  11.118 -0.1283 -0.4316 -0.1085
  303MPD2    C2 4613   3.147   0.605  10.995  1.0539  0.5741 -0.3219
  303MPD2    C3 4614   3.244   0.706  10.980  0.2917 -0.2821  0.3268
  303MPD2    C4 4615   3.249   0.797  11.083  0.3363  0.9192 -0.8342
  303MPD2    C5 4616   3.172   0.782  11.197  0.5952 -0.6479  0.2724
  303MPD2     H 4617   3.134   0.531  10.917  1.0943  0.3836 -0.1474
  303MPD2    H1 4618   3.319   0.879  11.070 -0.0968  1.7200  2.0466
  303MPD2    H2 4619   3.045   0.665  11.310  0.9410  2.0538  1.0808
  303MPD2    H3 4620   3.194   0.854  11.275 -1.7042  1.2670 -0.8616
  303MPD2     N 4621   3.311   0.738  10.856  0.4337 -0.0334  0.3472
  303MPD2    H5 4622   3.351   0.832  10.854 -1.1743  0.5835 -1.9996
  303MPD2    N1 4623   3.007   0.466  11.151 -0.1674  0.0710 -0.1091
  303MPD2    H7 4624   2.964   0.451  11.242  0.5222 -1.8305 -0.1010
  304TMC3    C1 4625   2.896   0.259  11.133 -0.5999 -0.5664 -0.2685
  304TMC3    C2 4626   2.767   0.299  11.110 -0.3844 -0.0002  0.5613
  304TMC3    C3 4627   2.671   0.205  11.085 -0.2859  0.3230 -1.0240
  304TMC3    C4 4628   2.935   0.132  11.110 -0.5362  0.0985 -0.9377
  304TMC3    C5 4629   2.836   0.038  11.081  0.0280  0.3654 -0.2126
  304TMC3    C6 4630   2.706   0.076  11.086  0.3710  0.0145 -0.8082
  304TMC3     C 4631   2.989   0.355  11.071 -0.3139 -0.4008 -0.3301
  304TMC3     O 4632   3.041   0.325  10.961 -0.3556  0.6352 -0.7715
  304TMC3     H 4633   2.739   0.403  11.114  2.2499  0.5787  3.1521
  304TMC3    H1 4634   3.037   0.111  11.079 -0.5625 -1.0574 -0.2441
  304TMC3    H2 4635   2.632   0.003  11.054  1.6300 -2.6007  2.2829
  304TMC3    C7 4636   2.857   4.692  10.963 -0.5011 -0.1353  0.1597
  304TMC3    C8 4637   2.593   0.253  10.976  0.4425 -0.0276 -0.1044
  304TMC3    O1 4638   2.760   4.663  10.893  0.1710 -0.3030  0.2006
  304TMC3    O2 4639   2.520   0.351  10.987 -0.8243 -0.1186 -0.1543
  305MPD2     C 4640   1.167   2.670  14.006 -0.2204 -0.3816 -0.0488
  305MPD2    C1 4641   1.250   2.567  14.030  0.1156 -0.3113  0.0339
  305MPD2    C2 4642   1.274   2.473  13.924  0.5244  0.5883  0.6712
  305MPD2    C3 4643   1.208   2.491  13.802  0.4942 -0.9071  0.1583
  305MPD2    C4 4644   1.123   2.594  13.783 -0.3068  0.4521 -0.1248
  305MPD2    C5 4645   1.100   2.686  13.884  0.3192  0.1575 -0.4471
  305MPD2     H 4646   1.344   2.392  13.939 -2.5937 -2.5580 -1.8079
  305MPD2    H1 4647   1.081   2.605  13.683  0.3065  0.7570 -0.3496
  305MPD2    H2 4648   1.163   2.750  14.080  2.9685  1.8712 -2.3116
  305MPD2    H3 4649   1.028   2.765  13.866 -1.7659 -1.6287 -0.0962
  305MPD2     N 4650   1.231   2.409  13.688 -0.5326  0.2342 -0.2918
  305MPD2    H5 4651   1.174   2.427  13.606  1.1406 -3.1187 -2.2147
  305MPD2    N1 4652   1.324   2.563  14.153  0.0577 -0.4411  0.0232
  305MPD2    H7 4653   1.343   2.648  14.205  1.3472 -0.6208 -0.1649
  306TMC3    C1 4654   1.445   2.460  14.333 -0.1222 -0.4698  0.5867
  306TMC3    C2 4655   1.529   2.356  14.364  0.4423 -0.0334 -0.1171
  306TMC3    C3 4656   1.571   2.344  14.494 -0.5994  0.2622  0.4479
  306TMC3    C4 4657   1.401   2.546  14.422 -0.0408  0.6464 -0.0080
  306TMC3    C5 4658   1.436   2.535  14.554  0.3411  0.5807  0.1601
  306TMC3    C6 4659   1.525   2.435  14.593  0.3647 -0.3581  0.5976
  306TMC3     C 4660   1.385   2.448  14.202  0.1621  0.3603  0.8785
  306TMC3     O 4661   1.388   2.334  14.156  0.0271 -0.3603 -0.4502
  306TMC3     H 4662   1.560   2.283  14.291  0.8864 -1.1133  1.1465
  306TMC3    H1 4663   1.335   2.627  14.397  0.2787 -0.0542 -3.1509
  306TMC3    H2 4664   1.554   2.424  14.697  3.0282  0.3170 -0.0875
  306TMC3    C7 4665   1.409   2.646  14.637 -0.6883  0.0885 -0.7795
  306TMC3    C8 4666   1.650   2.222  14.533 -0.0997 -0.0987  0.5113
  306TMC3    O1 4667   1.365   2.752  14.585  0.0964  0.2973  0.1700
  306TMC3    O2 4668   1.661   2.135  14.446  0.2359 -0.8690  0.1567
  307MPD2     C 4669   3.989   0.819   0.739  0.6051 -0.9351  0.8928
  307MPD2    C1 4670   3.885   0.900   0.688 -0.0394  0.6829 -0.4176
  307MPD2    C2 4671   3.777   0.922   0.771 -0.0358  0.0983  0.8264
  307MPD2    C3 4672   3.758   0.859   0.893  0.0149 -0.2891  0.3314
  307MPD2    C4 4673   3.867   0.781   0.933 -0.0287 -0.2406  0.3522
  307MPD2    C5 4674   3.978   0.761   0.861  0.1269 -0.3811 -0.0697
  307MPD2     H 4675   3.695   0.988   0.745  0.8411  0.0953 -1.9271
  307MPD2    H1 4676   3.865   0.729   1.028  3.6063 -1.2324 -0.1196
  307MPD2    H2 4677   4.082   0.805   0.685 -0.0805  1.1820 -0.8380
  307MPD2    H3 4678   4.065   0.715   0.906  0.8440 -0.4063 -1.4839
  307MPD2     N 4679   3.645   0.882   0.974  0.7633  0.9799  0.9255
  307MPD2    H5 4680   3.587   0.955   0.934  1.6271  0.6790 -0.9026
  307MPD2    N1 4681   3.887   0.968   0.560  0.4371  0.8894 -0.3250
  307MPD2    H7 4682   3.810   1.029   0.535 -0.8874  0.6173  3.1118
  308TMC3    C1 4683   3.259   0.848   1.156 -0.3118 -0.4195 -0.0662
  308TMC3    C2 4684   3.243   0.985   1.121 -0.6861 -0.9365  0.3652
  308TMC3    C3 4685   3.356   1.059   1.122 -0.4399 -0.2028 -0.6299
  308TMC3    C4 4686   3.387   0.794   1.177  0.3761  0.8222 -0.4827
  308TMC3    C5 4687   3.499   0.875   1.163  0.1211  0.0960 -0.2916
  308TMC3    C6 4688   3.484   1.012   1.143 -0.5818  0.8695  0.0568
  308TMC3     C 4689   3.146   0.761   1.155 -0.2693 -0.4230 -0.3565
  308TMC3     O 4690   3.168   0.640   1.174  0.3767  0.6975  0.3792
  308TMC3     H 4691   3.142   1.026   1.121  0.0477  0.8529 -1.6590
  308TMC3    H1 4692   3.404   0.688   1.189  0.7329  1.1431  1.7349
  308TMC3    H2 4693   3.565   1.076   1.111  0.0306  0.2514  0.3768
  308TMC3    C7 4694   3.606   0.812   1.092  0.2521 -0.1116  0.0403
  308TMC3    C8 4695   3.353   1.206   1.120 -0.0042  0.3530  0.1453
  308TMC3    O1 4696   3.621   0.697   1.128 -0.2981 -0.5567 -0.3951
  308TMC3    O2 4697   3.441   1.262   1.190  0.0989  0.6600  0.2349
  309MPD2     C 4698   2.816   0.860  17.352  0.2712  0.4170  1.0325
  309MPD2    C1 4699   2.725   0.833  17.252 -0.6236 -0.1691 -1.0614
  309MPD2    C2 4700   2.593   0.847  17.289  0.2613 -0.1658  0.8489
  309MPD2    C3 4701   2.549   0.890  17.413  0.4406  0.0826 -0.2265
  309MPD2    C4 4702   2.646   0.928  17.506  0.3066 -0.0634 -0.0760
  309MPD2    C5 4703   2.778   0.905  17.475 -0.1745 -0.3162  0.3610
  309MPD2     H 4704   2.527   0.815  17.210 -1.2452 -0.1186  2.0918
  309MPD2    H1 4705   2.625   0.967  17.605  2.5921  1.9138 -0.3653
  309MPD2    H2 4706   2.921   0.851  17.325  0.0680  2.3376 -0.4570
  309MPD2    H3 4707   2.850   0.915  17.556  0.4173  0.0304 -0.2027
  309MPD2     N 4708   2.413   0.925  17.444 -0.3398  0.3246 -0.2464
  309MPD2    H5 4709   2.401   0.983  17.526 -2.1734 -1.7110  0.9239
  309MPD2    N1 4710   2.756   0.780  17.126  0.1399  0.1603 -0.0916
  309MPD2    H7 4711   2.682   0.770  17.057  0.0535  0.7356 -0.0872
  310TMC3    C1 4712   2.887   0.730  16.940  0.1205  0.8388 -0.6913
  310TMC3    C2 4713   2.817   0.807  16.847 -0.0668  0.6509  0.2738
  310TMC3    C3 4714   2.829   0.785  16.713  0.0393  0.7392 -0.1968
  310TMC3    C4 4715   2.983   0.645  16.889 -1.1963  0.3488  0.3332
  310TMC3    C5 4716   2.995   0.626  16.753 -0.0314 -0.0310 -0.1220
  310TMC3    C6 4717   2.921   0.697  16.664 -0.6626 -0.2725  0.4650
  310TMC3     C 4718   2.878   0.740  17.086 -0.5417 -0.2250  0.1937
  310TMC3     O 4719   2.984   0.716  17.148 -0.6095 -0.1314  0.2288
  310TMC3     H 4720   2.759   0.894  16.874  0.0075 -0.1419  3.0249
  310TMC3    H1 4721   3.042   0.583  16.955 -0.9268  1.7378  1.4145
  310TMC3    H2 4722   2.933   0.684  16.557  0.7428 -0.0115  0.5982
  310TMC3    C7 4723   3.082   0.526  16.699  0.2844  0.2395 -0.0293
  310TMC3    C8 4724   2.804   0.895  16.618  0.2561  0.0820  0.0614
  310TMC3    O1 4725   3.040   0.460  16.607  0.2417  0.3321 -0.0263
  310TMC3    O2 4726   2.692   0.945  16.613 -0.4246  0.2257  0.1431
  311MPD2     C 4727   0.453   2.644  11.958 -0.2750 -0.0190 -0.1604
  311MPD2    C1 4728   0.492   2.669  12.084 -0.1860 -0.5466 -0.0625
  311MPD2    C2 4729   0.409   2.642  12.191  0.0489  0.2023 -0.3655
  311MPD2    C3 4730   0.296   2.558  12.179  0.0479 -0.5375 -0.2579
  311MPD2    C4 4731   0.263   2.519  12.046 -0.9164 -0.1990 -1.6094
  311MPD2    C5 4732   0.344   2.566  11.943 -0.1181  0.7193 -0.4315
  311MPD2     H 4733   0.429   2.665  12.295 -2.1696  0.6062 -0.0335
  311MPD2    H1 4734   0.180   2.453  12.024 -1.2609 -0.1359 -0.5290
  311MPD2    H2 4735   0.522   2.659  11.875 -1.1304  1.1513 -0.6584
  311MPD2    H3 4736   0.336   2.528  11.842 -1.9045 -2.0598  0.7862
  311MPD2     N 4737   0.221   2.523  12.294 -0.0732  0.8578 -0.5080
  311MPD2    H5 4738   0.270   2.556  12.377  0.4330  4.0164 -2.0520
  311MPD2    N1 4739   0.616   2.740  12.112  0.4345  0.3876 -0.7415
  311MPD2    H7 4740   0.648   2.744  12.208 -1.5430  0.5650 -0.0833
  312TMC3    C1 4741   0.089   2.399  12.445  0.1404 -0.5719  0.2766
  312TMC3    C2 4742   4.714   2.327  12.469  0.1652 -0.0483 -0.1979
  312TMC3    C3 4743   4.675   2.322  12.597 -0.1737  0.7714  0.1845
  312TMC3    C4 4744   0.165   2.461  12.541 -0.5363  0.0620  0.6472
  312TMC3    C5 4745   0.126   2.436  12.665  0.0100  0.2814 -0.0192
  312TMC3    C6 4746   0.016   2.359  12.699  0.9400  0.1652 -0.0062
  312TMC3     C 4747   0.120   2.431  12.301  1.2501 -0.0015 -0.1889
  312TMC3     O 4748   0.075   2.358  12.217 -0.0298  0.4225  0.0963
  312TMC3     H 4749   4.653   2.285  12.390  0.8107  1.3769 -1.4458
  312TMC3    H1 4750   0.249   2.525  12.519  0.0317 -0.7148  0.5577
  312TMC3    H2 4751   4.704   2.365  12.796  1.0586 -1.1060  0.1270
  312TMC3    C7 4752   0.203   2.495  12.778  0.0711  0.5339  0.8753
  312TMC3    C8 4753   4.547   2.258  12.631  0.2066  0.2790  0.5879
  312TMC3    O1 4754   0.276   2.595  12.757 -0.4775  0.1632 -0.1144
  312TMC3    O2 4755   4.541   2.184  12.727  0.1894  0.6572 -0.3300
  313MPD2     C 4756   4.375   2.026  10.857  0.6095 -0.2335 -0.7056
  313MPD2    C1 4757   4.503   2.071  10.842 -1.2038  0.5045  0.0444
  313MPD2    C2 4758   4.592   1.999  10.775 -0.0956 -0.5406  0.2893
  313MPD2    C3 4759   4.564   1.874  10.732 -0.0570  0.0904  0.0625
  313MPD2    C4 4760   4.444   1.818  10.762  0.3271  0.3004 -0.0493
  313MPD2    C5 4761   4.344   1.893  10.821 -0.2607  0.1569 -0.1832
  313MPD2     H 4762   4.691   2.036  10.748 -0.7811  0.8935 -0.2546
  313MPD2    H1 4763   4.414   1.719  10.729 -1.6151  0.4794  1.1750
  313MPD2    H2 4764   4.294   2.084  10.899  0.2738 -1.3451  0.1641
  313MPD2    H3 4765   4.239   1.864  10.820 -0.6943  1.8239 -2.2738
  313MPD2     N 4766   4.667   1.790  10.675 -0.3013 -0.1318  0.5559
  313MPD2    H5 4767   0.015   1.846  10.663 -0.0334 -0.5526  0.4523
  313MPD2    N1 4768   4.537   2.203  10.882  0.8211 -0.1188 -0.5472
  313MPD2    H7 4769   4.630   2.224  10.848  0.7317 -0.0360 -0.7428
  314TMC3    C1 4770   4.531   2.428  10.930 -0.2364  0.4788  0.1839
  314TMC3    C2 4771   4.654   2.438  10.980  0.1604  0.5680 -0.0075
  314TMC3    C3 4772   0.006   2.527  10.921  0.1154  0.6464  0.4306
  314TMC3    C4 4773   4.494   2.495  10.818  1.0090 -0.4120  0.0762
  314TMC3    C5 4774   4.593   2.563  10.744  0.3930 -0.4552  0.0886
  314TMC3    C6 4775   4.717   2.576  10.794 -0.5231  0.7051  0.8266
  314TMC3     C 4776   4.457   2.302  10.938 -0.3799 -0.4126  0.0706
  314TMC3     O 4777   4.348   2.298  10.989 -0.1432 -0.5957  0.7033
  314TMC3     H 4778   4.675   2.389  11.075 -1.4087 -2.0437 -1.0340
  314TMC3    H1 4779   4.406   2.461  10.763  2.8927 -2.5292 -1.6668
  314TMC3    H2 4780   0.051   2.633  10.736 -0.6096 -0.6517 -0.6033
  314TMC3    C7 4781   4.596   2.532  10.604 -0.2045  0.6780  0.2809
  314TMC3    C8 4782   0.143   2.536  10.962 -0.6286 -0.4024 -0.0305
  314TMC3    O1 4783   4.703   2.526  10.546 -0.0236 -0.0507  0.1116
  314TMC3    O2 4784   0.219   2.580  10.880 -0.1670 -0.3765  0.3046
  315MPD2     C 4785   4.164   0.732  17.540 -0.5325 -0.0371  0.5936
  315MPD2    C1 4786   4.267   0.791  17.613  0.3535  0.0743  0.3976
  315MPD2    C2 4787   4.330   0.903  17.565  0.1883  0.7575 -0.8737
  315MPD2    C3 4788   4.294   0.974  17.458  0.5995 -0.0930  0.2026
  315MPD2    C4 4789   4.187   0.919  17.388 -0.8699 -0.9076 -0.2887
  315MPD2    C5 4790   4.132   0.798  17.425 -0.2198  0.5514  0.5845
  315MPD2     H 4791   4.404   0.952  17.628  1.0354 -1.1585 -0.3776
  315MPD2    H1 4792   4.139   0.963  17.302 -1.2939 -0.3527  0.2310
  315MPD2    H2 4793   4.115   0.642  17.575  0.7564 -1.2036 -0.5971
  315MPD2    H3 4794   4.060   0.745  17.364  0.6661 -1.3771  1.1975
  315MPD2     N 4795   4.359   1.095  17.424 -0.5355  0.9679  0.2680
  315MPD2    H5 4796   4.418   1.146  17.489  0.2984  0.5051 -0.1359
  315MPD2    N1 4797   4.306   0.732  17.729 -0.4037 -0.1273  0.3800
  315MPD2    H7 4798   4.386   0.781   0.023  0.1730 -0.7152 -0.0838
  316TMC3    C1 4799   4.377   1.297  17.317  0.6857 -0.0946  0.0516
  316TMC3    C2 4800   4.489   1.323  17.390  0.1597 -0.4666  0.0732
  316TMC3    C3 4801   4.496   1.451  17.442  0.3993 -0.0449  0.3776
  316TMC3    C4 4802   4.279   1.388  17.300  0.3534  0.3646 -0.2964
  316TMC3    C5 4803   4.294   1.513  17.348  0.2424 -0.3397 -0.1700
  316TMC3    C6 4804   4.401   1.543  17.419  0.2694  0.5410  0.2366
  316TMC3     C 4805   4.329   1.164  17.311 -0.3117  0.6346 -0.3984
  316TMC3     O 4806   4.251   1.136  17.217 -0.2881 -0.0385  0.0555
  316TMC3     H 4807   4.573   1.254  17.391  0.2476 -0.3254  2.1649
  316TMC3    H1 4808   4.191   1.367  17.241  1.8112 -1.3068 -1.8741
  316TMC3    H2 4809   4.410   1.644  17.460 -1.7535  0.6207  0.4791
  316TMC3    C7 4810   4.177   1.599  17.371  0.0775  0.6705 -0.2363
  316TMC3    C8 4811   4.620   1.493  17.518 -0.0123 -0.3583 -0.5403
  316TMC3    O1 4812   4.154   1.626  17.489  0.3528 -0.7170  0.8831
  316TMC3    O2 4813   4.626   1.611  17.542 -0.0356 -0.2739 -0.1539
  317MPD2     C 4814   1.714   4.561  12.376  0.1117 -0.1597 -0.3188
  317MPD2    C1 4815   1.710   4.419  12.362  0.1608  0.3338 -0.3020
  317MPD2    C2 4816   1.753   4.342  12.467  0.8115 -0.6147 -0.4882
  317MPD2    C3 4817   1.794   4.396  12.583 -0.4351 -0.1835  1.0971
  317MPD2    C4 4818   1.783   4.533  12.600  0.3732 -0.1826 -0.2877
  317MPD2    C5 4819   1.749   4.615  12.496 -0.2694  0.3619 -0.8882
  317MPD2     H 4820   1.736   4.235  12.463  1.9609 -0.7847 -0.9281
  317MPD2    H1 4821   1.798   4.588  12.692  0.6205 -0.8375  0.0643
  317MPD2    H2 4822   1.669   4.628  12.304  1.8993  0.2693 -1.0418
  317MPD2    H3 4823   1.743   4.721  12.516  2.0418  0.6539 -1.7952
  317MPD2     N 4824   1.804   4.307  12.688 -0.2558 -0.5808 -0.5994
  317MPD2    H5 4825   1.807   4.209  12.663  1.9605 -0.6494 -0.0332
  317MPD2    N1 4826   1.659   4.356  12.246 -0.4515  0.1265 -0.1055
  317MPD2    H7 4827   1.634   4.258  12.247  1.9597 -0.4896 -0.0623
  318TMC3    C1 4828   1.776   4.226  12.904  0.8534 -0.3028  0.1155
  318TMC3    C2 4829   1.721   4.121  12.836 -0.1254  0.0502 -0.7273
  318TMC3    C3 4830   1.703   4.006  12.906  0.2507 -0.1502  0.0379
  318TMC3    C4 4831   1.824   4.220  13.026  0.4032 -0.9297 -0.1495
  318TMC3    C5 4832   1.799   4.108  13.096  0.3245  0.5467 -0.0314
  318TMC3    C6 4833   1.740   3.996  13.040  0.2572 -0.1305 -0.1049
  318TMC3     C 4834   1.820   4.338  12.824 -0.5825  0.2843 -0.0874
  318TMC3     O 4835   1.873   4.431  12.879  0.2117 -0.3181  0.5579
  318TMC3     H 4836   1.679   4.123  12.736 -3.9791  3.5808  0.9308
  318TMC3    H1 4837   1.864   4.301  13.085  0.0185 -0.4271 -0.5721
  318TMC3    H2 4838   1.719   3.909  13.101 -0.0449 -1.3925 -1.9825
  318TMC3    C7 4839   1.849   4.088  13.227 -0.4106  0.2063  0.0455
  318TMC3    C8 4840   1.651   3.897  12.834  0.4340  0.2842  0.1915
  318TMC3    O1 4841   1.872   4.176  13.302 -0.3266 -0.4437 -0.4462
  318TMC3    O2 4842   1.664   3.900  12.712 -0.3872 -0.0375 -0.0449
  319MPD2     C 4843   2.470   0.368  16.311  0.8453  0.2224  0.4891
  319MPD2    C1 4844   2.393   0.321  16.411 -0.5424  0.6003 -0.7167
  319MPD2    C2 4845   2.259   0.284  16.401  0.1633  0.7786  0.1569
  319MPD2    C3 4846   2.203   0.292  16.276 -0.5524 -0.6306  0.0639
  319MPD2    C4 4847   2.287   0.344  16.176 -0.3720  0.3768  0.1381
  319MPD2    C5 4848   2.417   0.373  16.182  0.5521 -0.0364 -0.1813
  319MPD2     H 4849   2.209   0.239  16.486  1.7474 -0.4412  0.4345
  319MPD2    H1 4850   2.239   0.353  16.079 -0.0080 -2.7563 -0.3083
  319MPD2    H2 4851   2.573   0.401  16.321  0.4604  0.6242  3.0836
  319MPD2    H3 4852   2.474   0.409  16.097  1.4329  1.4038  1.0423
  319MPD2     N 4853   2.064   0.256  16.246  0.2910 -0.1906  0.4089
  319MPD2    H5 4854   2.018   0.269  16.156 -1.8419 -0.1020  1.5122
  319MPD2    N1 4855   2.450   0.307  16.542  0.6329  0.1288  0.2393
  319MPD2    H7 4856   2.388   0.264  16.610 -0.0914 -0.5613 -0.8661
  320TMC3    C1 4857   1.848   0.190  16.274  0.5999  0.0312  0.4014
  320TMC3    C2 4858   1.794   0.277  16.182 -0.4528 -0.3367 -0.2504
  320TMC3    C3 4859   1.673   0.242  16.131 -0.0678 -0.1296  0.8253
  320TMC3    C4 4860   1.795   0.068  16.302 -0.6604 -0.0446 -0.4812
  320TMC3    C5 4861   1.678   0.027  16.239  0.5819 -0.0649  0.7364
  320TMC3    C6 4862   1.621   0.120  16.151  0.1405 -0.1005 -0.2661
  320TMC3     C 4863   1.980   0.207  16.338  0.4788 -0.3584  0.3247
  320TMC3     O 4864   2.003   0.159  16.447  0.1453 -0.1849  0.0267
  320TMC3     H 4865   1.840   0.373  16.160 -0.1121 -0.5859 -0.6315
  320TMC3    H1 4866   1.857   4.728  16.347 -0.8250 -0.4446 -0.9235
  320TMC3    H2 4867   1.540   0.084  16.088  0.4786 -0.7981 -0.2961
  320TMC3    C7 4868   1.708   4.633  16.171 -0.0202 -0.9490 -0.3867
  320TMC3    C8 4869   1.597   0.344  16.056 -0.3294  0.2803  0.3522
  320TMC3    O1 4870   1.724   4.645  16.052  0.1397 -0.0436 -0.2947
  320TMC3    O2 4871   1.630   0.460  16.080 -0.9505  0.3063  0.0580
  321TMC3    C1 4872   2.598   0.294  16.712  1.1341 -0.7298  0.7123
  321TMC3    C2 4873   2.719   0.249  16.743  0.1917  0.4418  0.4202
  321TMC3    C3 4874   2.723   0.161  16.851  0.6550  0.8150 -0.1244
  321TMC3    C4 4875   2.486   0.281  16.789 -0.0583 -0.2602 -0.8936
  321TMC3    C5 4876   2.495   0.211  16.906  0.2467 -0.3074  0.1462
  321TMC3    C6 4877   2.614   0.140  16.928 -0.2346 -0.0413 -1.1099
  321TMC3     C 4878   2.575   0.331  16.580 -0.2122 -0.3627  0.2157
  321TMC3     O 4879   2.668   0.363  16.510 -1.2318  0.3193  0.2751
  321TMC3     H 4880   2.802   0.282  16.682 -0.5625  1.7254  0.0958
  321TMC3    H1 4881   2.398   0.340  16.767  0.1740  0.7214  0.8471
  321TMC3    H2 4882   2.618   0.067  17.009  0.7688  1.9434  0.6409
  321TMC3    C7 4883   2.477   0.311  17.013 -0.2331  0.0580 -0.0953
  321TMC3    C8 4884   2.843   0.148  16.933 -0.3204  0.8775  0.0829
  321TMC3    O1 4885   2.378   0.380  17.006  0.1194  0.2733 -0.1604
  321TMC3    O2 4886   2.818   0.146  17.055 -0.0925 -0.4984 -0.0322
  322MPD2     C 4887   1.018   1.632  13.787 -0.3614  0.2942 -1.1990
  322MPD2    C1 4888   1.138   1.693  13.745  0.4552 -0.4937  0.8169
  322MPD2    C2 4889   1.202   1.651  13.623 -0.3399  0.0219  0.0446
  322MPD2    C3 4890   1.155   1.543  13.558  0.5907  0.0386  0.6399
  322MPD2    C4 4891   1.041   1.476  13.603  0.3865  0.3687  0.2044
  322MPD2    C5 4892   0.982   1.522  13.721 -0.1847 -0.3664 -0.2005
  322MPD2     H 4893   1.293   1.703  13.599 -0.5484 -0.0381 -0.8611
  322MPD2    H1 4894   0.992   1.395  13.550  0.8853 -0.5458  1.1566
  322MPD2    H2 4895   0.964   1.674  13.871  0.2709  0.8584 -1.0694
  322MPD2    H3 4896   0.895   1.471  13.760 -1.3741  1.0861 -1.0055
  322MPD2     N 4897   1.232   1.493  13.449 -0.4246  0.1763 -0.7367
  322MPD2    H5 4898   1.308   1.552  13.415 -1.1134  0.7577 -1.2773
  322MPD2    N1 4899   1.196   1.786  13.836 -0.8167 -0.2423 -0.5234
  322MPD2    H7 4900   1.139   1.822  13.912 -3.1831 -0.6985 -2.0587
  323TMC3    C1 4901   1.360   1.921  13.940 -0.0226  0.2391 -0.5680
  323TMC3    C2 4902   1.456   2.019  13.927  0.3724 -0.0308 -0.4336
  323TMC3    C3 4903   1.504   2.080  14.038  0.0208 -0.6159  0.3225
  323TMC3    C4 4904   1.330   1.863  14.060  0.7615 -0.2941 -0.5003
  323TMC3    C5 4905   1.396   1.924  14.172 -0.2486 -0.2959 -0.4349
  323TMC3    C6 4906   1.474   2.035  14.165 -0.0176 -1.1477  0.5407
  323TMC3     C 4907   1.310   1.850  13.821 -0.2095 -0.5665 -0.1803
  323TMC3     O 4908   1.396   1.837  13.732 -0.1990 -0.0901 -0.8521
  323TMC3     H 4909   1.483   2.044  13.825  1.5278  1.6126  0.2712
  323TMC3    H1 4910   1.246   1.795  14.065  0.4922  0.0595 -0.2503
  323TMC3    H2 4911   1.522   2.069  14.256 -1.6243  0.2326  0.8883
  323TMC3    C7 4912   1.413   1.816  14.264  0.9865  0.0040  0.7425
  323TMC3    C8 4913   1.624   2.161  14.029  0.5812  0.4693  1.4491
  323TMC3    O1 4914   1.394   1.700  14.221 -0.0029 -0.1719  0.2765
  323TMC3    O2 4915   1.701   2.158  14.124  0.4775  0.3573  0.2847
  324MPD2     C 4916   2.847   2.748  14.207 -0.4402 -0.2383 -0.2045
  324MPD2    C1 4917   2.898   2.876  14.199  0.3525  0.1949  0.2369
  324MPD2    C2 4918   2.821   2.971  14.129 -0.4467 -0.1945 -0.4597
  324MPD2    C3 4919   2.697   2.947  14.079  0.2199 -0.7208  0.2467
  324MPD2    C4 4920   2.656   2.819  14.077 -0.2310  0.9812 -0.7560
  324MPD2    C5 4921   2.731   2.724  14.141  0.0522 -0.4561 -0.6514
  324MPD2     H 4922   2.873   3.066  14.133 -1.5823  0.3172  1.7182
  324MPD2    H1 4923   2.563   2.790  14.028  1.3124 -3.6088 -0.9575
  324MPD2    H2 4924   2.893   2.670  14.266  0.3297  0.5477  0.2367
  324MPD2    H3 4925   2.691   2.624  14.145 -0.4086 -0.0949  3.6067
  324MPD2     N 4926   2.618   3.049  14.014  1.1085  0.2156  0.0656
  324MPD2    H5 4927   2.524   3.021  13.987  0.1644  1.5011  2.0503
  324MPD2    N1 4928   3.022   2.921  14.247 -0.5083  0.0973  0.5531
  324MPD2    H7 4929   3.043   3.019  14.233  0.0491 -0.0706  0.1909
  325TMC3    C1 4930   2.549   3.270  13.947  0.9252 -0.6162  0.0178
  325TMC3    C2 4931   2.428   3.228  13.901 -0.4357 -0.2162  0.0740
  325TMC3    C3 4932   2.320   3.319  13.897  0.5980 -0.1550  0.0008
  325TMC3    C4 4933   2.570   3.400  13.974 -0.2775  0.0441 -0.5103
  325TMC3    C5 4934   2.465   3.488  13.965 -0.0078  0.5325  0.2819
  325TMC3    C6 4935   2.339   3.455  13.928 -0.3975 -0.3202 -0.5806
  325TMC3     C 4936   2.652   3.178  14.000  0.2821 -0.0706  0.0547
  325TMC3     O 4937   2.746   3.241  14.042  0.2838 -0.0271  0.1881
  325TMC3     H 4938   2.415   3.124  13.872 -1.2820 -0.4432  1.2526
  325TMC3    H1 4939   2.667   3.440  14.002 -0.6809  1.2060 -0.7501
  325TMC3    H2 4940   2.271   3.534  13.900 -0.2098  0.1970  0.4142
  325TMC3    C7 4941   2.470   3.591  14.071 -0.8182 -0.1245  0.1410
  325TMC3    C8 4942   2.181   3.281  13.888 -0.3157  0.2309  0.1575
  325TMC3    O1 4943   2.579   3.642  14.109  0.4371  0.0174 -0.1332
  325TMC3    O2 4944   2.098   3.363  13.919 -0.3378 -0.8446 -0.4413
  326MPD2     C 4945   0.042   4.077  10.996  0.1055 -0.4491  0.0037
  326MPD2    C1 4946   4.694   4.142  10.914  0.7399  0.0349  0.0342
  326MPD2    C2 4947   4.717   4.274  10.890  0.1889 -0.1251 -0.0917
  326MPD2    C3 4948   0.103   4.324  10.925  0.0765 -0.4289  0.5050
  326MPD2    C4 4949   0.196   4.257  10.999 -0.1868  0.2732 -0.1688
  326MPD2    C5 4950   0.166   4.133  11.041 -0.2669  0.2045  0.2197
  326MPD2     H 4951   4.642   4.322  10.828 -2.2862  0.6035  3.4801
  326MPD2    H1 4952   0.281   4.306  11.046  0.2694 -1.1314  0.4697
  326MPD2    H2 4953   0.018   3.975  11.028  1.8805 -0.6361  0.7423
  326MPD2    H3 4954   0.233   4.085  11.112  1.2988  2.2901  0.1373
  326MPD2     N 4955   0.154   4.449  10.894  0.5348 -0.1931 -0.0857
  326MPD2    H5 4956   0.247   4.470  10.927 -0.3458 -0.4434  2.5173
  326MPD2    N1 4957   4.578   4.066  10.875  0.1987  0.3136  0.9507
  326MPD2    H7 4958   4.566   3.984  10.933 -0.7936  0.2775  0.6911
  327TMC3    C1 4959   4.515   4.192  10.678  0.0097 -0.4209  0.6780
  327TMC3    C2 4960   4.410   4.262  10.638  0.1525  0.1120  0.2705
  327TMC3    C3 4961   4.424   4.337  10.522 -0.1905 -0.1371 -0.2020
  327TMC3    C4 4962   4.636   4.193  10.609 -0.0293  0.8891  0.1501
  327TMC3    C5 4963   4.647   4.263  10.496  0.6890 -0.1847  0.2576
  327TMC3    C6 4964   4.541   4.345  10.452 -0.0866 -0.2061 -0.7726
  327TMC3     C 4965   4.482   4.096  10.780  0.0735  0.1119  0.1082
  327TMC3     O 4966   4.367   4.048  10.761 -0.0479 -0.2016 -0.3820
  327TMC3     H 4967   4.333   4.268  10.714 -0.7208  1.2412 -0.7088
  327TMC3    H1 4968   4.712   4.124  10.644  0.3052 -0.6976 -3.7814
  327TMC3    H2 4969   4.550   4.409  10.365  1.7500  0.0079 -0.4366
  327TMC3    C7 4970   0.042   4.327  10.474 -0.2232 -0.6384 -0.3371
  327TMC3    C8 4971   4.324   4.423  10.469  0.2147 -0.1804 -0.1810
  327TMC3    O1 4972   0.052   4.400  10.378  0.2293  0.4640 -0.3057
  327TMC3    O2 4973   4.367   4.525  10.416  0.5996  0.3657 -1.0148
  328MPD2     C 4974   1.912   3.937  16.984 -0.4331 -0.2360  0.3439
  328MPD2    C1 4975   1.783   3.903  16.958 -0.0278  0.1539 -0.2608
  328MPD2    C2 4976   1.717   3.967  16.858 -0.1785  0.0936 -1.0097
  328MPD2    C3 4977   1.777   4.069  16.786  0.6197 -0.3953 -0.3950
  328MPD2    C4 4978   1.913   4.089  16.801  0.5616  0.1697  0.9048
  328MPD2    C5 4979   1.976   4.025  16.902  0.0909 -0.3114  0.0467
  328MPD2     H 4980   1.618   3.935  16.827 -0.2105 -1.3247  0.5666
  328MPD2    H1 4981   1.968   4.165  16.746 -0.3603  0.7176  0.7416
  328MPD2    H2 4982   1.972   3.874  17.048  1.2105  1.0265  0.0330
  328MPD2    H3 4983   2.082   4.041  16.922 -0.2156  0.8345  0.7882
  328MPD2     N 4984   1.704   4.142  16.692 -0.2331  0.6082 -0.4589
  328MPD2    H5 4985   1.734   4.237  16.674  0.3482  0.8241  1.5785
  328MPD2    N1 4986   1.726   3.804  17.038  0.0933 -0.0868 -1.0639
  328MPD2    H7 4987   1.775   3.784  17.124 -1.0233  2.3615  0.1376
  329TMC3    C1 4988   1.536   3.677  17.110 -0.7257 -0.0237 -0.2174
  329TMC3    C2 4989   1.479   3.773  17.189 -0.1114 -0.0715 -0.0475
  329TMC3    C3 4990   1.349   3.763  17.226  0.2082 -0.1188 -0.0194
  329TMC3    C4 4991   1.459   3.574  17.068  0.6737 -0.2777 -0.3785
  329TMC3    C5 4992   1.327   3.583  17.098  0.9565  0.4426  0.8152
  329TMC3    C6 4993   1.264   3.669  17.179 -0.1244  0.5072 -0.0490
  329TMC3     C 4994   1.619   3.726  17.003  0.3311 -0.6216  0.6862
  329TMC3     O 4995   1.567   3.706  16.893  0.3299 -0.4514  0.2278
  329TMC3     H 4996   1.544   3.855  17.218  1.3628 -1.4025  0.4158
  329TMC3    H1 4997   1.508   3.485  17.028  1.4429  0.1713 -0.4268
  329TMC3    H2 4998   1.156   3.683  17.177 -0.2047  0.0740  1.1199
  329TMC3    C7 4999   1.239   3.531  16.998 -0.1326 -0.0782 -0.0675
  329TMC3    C8 5000   1.280   3.895  17.251  1.0706 -0.1292  0.2315
  329TMC3    O1 5001   1.116   3.539  17.004 -0.0358  0.5274  0.4476
  329TMC3    O2 5002   1.163   3.898  17.218 -0.2934  0.0341 -0.0643
  330TMC3    C1 5003   0.667   3.657   9.641  0.1685 -0.0185 -0.1034
  330TMC3    C2 5004   0.574   3.627   9.541 -0.0254 -0.2173  0.1229
  330TMC3    C3 5005   0.515   3.505   9.546  0.1517  0.9394 -0.0558
  330TMC3    C4 5006   0.689   3.581   9.755  0.2199  0.0069 -0.1374
  330TMC3    C5 5007   0.624   3.461   9.751  0.4332  0.5920  0.2444
  330TMC3    C6 5008   0.539   3.423   9.651 -0.2341 -0.0814  0.5850
  330TMC3     C 5009   0.677   3.794   9.677 -0.2197  0.7174  0.2737
  330TMC3     O 5010   0.694   3.825   9.795 -0.4114 -0.1531 -0.4430
  330TMC3     H 5011   0.548   3.699   9.464  1.0483 -1.4916 -1.4599
  330TMC3    H1 5012   0.767   3.611   9.824 -0.9896  0.4971  1.0092
  330TMC3    H2 5013   0.518   3.317   9.639  0.0324 -0.1230  0.4945
  330TMC3    C7 5014   0.635   3.377   9.866 -0.5381  0.2208 -0.2028
  330TMC3    C8 5015   0.448   3.459   9.432  1.0143  0.1165 -0.5587
  330TMC3    O1 5016   0.694   3.429   9.959 -0.3024  0.9339  0.4607
  330TMC3    O2 5017   0.487   3.500   9.324 -0.4022 -0.2894 -0.7233
  331MPD2     C 5018   3.340   2.568  13.244  0.6647 -0.5648 -1.3030
  331MPD2    C1 5019   3.222   2.541  13.177  0.1964 -1.0811 -0.5454
  331MPD2    C2 5020   3.153   2.428  13.207  0.2552  0.0605  0.0035
  331MPD2    C3 5021   3.200   2.337  13.303 -0.3195  0.0323 -0.1266
  331MPD2    C4 5022   3.317   2.365  13.370  0.4812  0.1298 -0.3601
  331MPD2    C5 5023   3.384   2.477  13.341 -0.5174  0.1541 -0.3436
  331MPD2     H 5024   3.065   2.396  13.153  0.7017  2.5712 -2.1772
  331MPD2    H1 5025   3.355   2.297  13.445  1.7960  2.6168  1.2153
  331MPD2    H2 5026   3.401   2.653  13.218  1.6448 -1.3264 -1.4722
  331MPD2    H3 5027   3.478   2.501  13.390 -0.3282 -0.0841 -0.5926
  331MPD2     N 5028   3.122   2.217  13.312 -0.1729  0.4575  0.5277
  331MPD2    H5 5029   3.058   2.199  13.235  1.0640  0.8642 -0.5716
  331MPD2    N1 5030   3.186   2.624  13.065 -0.2461 -0.1413  0.4983
  331MPD2    H7 5031   3.255   2.692  13.035 -0.6445 -0.6340 -1.5408
  332TMC3    C1 5032   3.066   1.993  13.362 -0.3783  0.3391 -0.4916
  332TMC3    C2 5033   2.949   2.011  13.292  0.3307  0.4757 -0.3968
  332TMC3    C3 5034   2.879   1.901  13.258  0.1197 -0.1077 -0.1900
  332TMC3    C4 5035   3.118   1.868  13.396  0.1574  0.3418 -0.0408
  332TMC3    C5 5036   3.049   1.763  13.352  0.2300 -0.5515  0.3341
  332TMC3    C6 5037   2.933   1.779  13.280  0.1644  0.2472  0.0231
  332TMC3     C 5038   3.144   2.111  13.400  0.1076 -0.2117 -0.0636
  332TMC3     O 5039   3.232   2.097  13.479 -0.3780  0.1533  0.0290
  332TMC3     H 5040   2.919   2.113  13.272 -0.8312  0.0897 -0.6288
  332TMC3    H1 5041   3.219   1.856  13.434  0.2089 -0.0825 -0.3082
  332TMC3    H2 5042   2.882   1.691  13.244  1.4172  0.0577 -1.2882
  332TMC3    C7 5043   3.128   1.639  13.328  0.0956  0.1652  0.4756
  332TMC3    C8 5044   2.807   1.902  13.134  0.9272  0.3775 -0.0967
  332TMC3    O1 5045   3.062   1.538  13.317 -0.4993  0.1143  0.2956
  332TMC3    O2 5046   2.811   2.010  13.071  0.0849  0.6095  0.6933
  333MPD2     C 5047   3.204   2.698  11.214 -0.3019 -0.6201 -0.4200
  333MPD2    C1 5048   3.257   2.656  11.097 -0.7347  0.1228  0.5419
  333MPD2    C2 5049   3.196   2.538  11.041  0.7583  0.8268  0.0850
  333MPD2    C3 5050   3.090   2.473  11.110 -0.2764 -0.0210  0.2997
  333MPD2    C4 5051   3.034   2.535  11.219  0.1179 -0.4173  0.4135
  333MPD2    C5 5052   3.091   2.642  11.272 -0.1377  0.3623 -0.3906
  333MPD2     H 5053   3.236   2.488  10.954  1.5546  0.4688  0.6503
  333MPD2    H1 5054   2.943   2.507  11.271 -0.6380 -0.8380 -1.1322
  333MPD2    H2 5055   3.243   2.787  11.261  0.9717 -0.1141 -2.4227
  333MPD2    H3 5056   3.052   2.700  11.354  0.0017 -0.0447 -0.0365
  333MPD2     N 5057   3.038   2.349  11.065  0.4859  0.4887  0.4080
  333MPD2    H5 5058   3.100   2.312  10.993 -0.3711 -2.5216  1.1869
  333MPD2    N1 5059   3.349   2.739  11.034  0.4028 -0.3414  0.1554
  333MPD2    H7 5060   3.381   2.824  11.080  0.8592  0.2272 -1.2252
  334TMC3    C1 5061   3.510   2.810  10.885 -0.3723 -0.3929  0.5278
  334TMC3    C2 5062   3.617   2.774  10.808 -0.1811  0.1021  0.2338
  334TMC3    C3 5063   3.718   2.862  10.793  0.6535  0.8125 -0.0206
  334TMC3    C4 5064   3.488   2.941  10.919  0.2125  0.7967 -0.1425
  334TMC3    C5 5065   3.591   3.024  10.895  0.2708  0.3214  0.0704
  334TMC3    C6 5066   3.711   2.994  10.839  0.5496 -0.1775  0.0068
  334TMC3     C 5067   3.421   2.706  10.926 -0.0162 -0.2000  0.5626
  334TMC3     O 5068   3.429   2.600  10.865 -0.4049  0.2688  0.1739
  334TMC3     H 5069   3.623   2.680  10.755 -0.2337  0.5259 -0.5169
  334TMC3    H1 5070   3.400   2.970  10.976 -0.0938 -1.1276  0.3845
  334TMC3    H2 5071   3.786   3.070  10.821  0.1845 -0.0756 -1.0948
  334TMC3    C7 5072   3.571   3.166  10.922 -1.5481 -0.0869  0.0211
  334TMC3    C8 5073   3.813   2.832  10.688 -0.2960  0.0223 -0.1794
  334TMC3    O1 5074   3.671   3.230  10.950  0.0203  0.1364 -0.3103
  334TMC3    O2 5075   3.765   2.767  10.597 -0.4802 -0.4835 -0.1854
  335TMC3    C1 5076   2.299   3.899  17.529 -0.0261 -0.1601  1.0407
  335TMC3    C2 5077   2.238   3.823  17.427  0.0898 -0.0900  0.7632
  335TMC3    C3 5078   2.305   3.793  17.314 -1.0133 -0.5415  0.4046
  335TMC3    C4 5079   2.427   3.951  17.504 -0.3981  0.4296  0.8517
  335TMC3    C5 5080   2.495   3.914  17.389 -0.5874 -0.4681  0.0089
  335TMC3    C6 5081   2.433   3.842  17.290  0.8244  0.0419 -0.0023
  335TMC3     C 5082   2.233   3.906  17.658  0.0769  0.4813  0.6814
  335TMC3     O 5083   2.135   3.837  17.682  0.2475  0.1677 -0.2911
  335TMC3     H 5084   2.143   3.779  17.456 -0.3932  1.3566  1.4013
  335TMC3    H1 5085   2.482   4.012  17.574 -2.6842  1.3297  1.8357
  335TMC3    H2 5086   2.495   3.813  17.206 -1.0847  0.9778 -1.7263
  335TMC3    C7 5087   2.609   3.981  17.339 -0.4727  0.6897 -0.0392
  335TMC3    C8 5088   2.232   3.761  17.189 -0.5061  0.0509 -0.2237
  335TMC3    O1 5089   2.618   4.012  17.222  0.0892  0.0909  0.3204
  335TMC3    O2 5090   2.263   3.815  17.084 -0.3512  0.1794  0.6787
  336MPD2     C 5091   1.956   1.569  16.330  0.4429 -0.6295 -0.0657
  336MPD2    C1 5092   1.959   1.497  16.212  0.4236 -0.2291  0.5994
  336MPD2    C2 5093   1.999   1.361  16.211  0.2013 -0.2019  0.4429
  336MPD2    C3 5094   2.030   1.297  16.331  0.1075 -0.7434  0.1901
  336MPD2    C4 5095   2.038   1.379  16.447  0.3156 -0.1446 -0.1846
  336MPD2    C5 5096   2.001   1.509  16.449 -1.0356 -0.3877 -0.1177
  336MPD2     H 5097   1.984   1.314  16.114  0.9457  0.6663 -0.0929
  336MPD2    H1 5098   2.071   1.341  16.544  0.3456  1.3360  0.3905
  336MPD2    H2 5099   1.922   1.672  16.338  2.6551  0.1501 -0.6615
  336MPD2    H3 5100   1.996   1.556  16.547  1.6084  1.1960 -0.7325
  336MPD2     N 5101   2.080   1.167  16.346 -0.3462  0.5700 -0.2600
  336MPD2    H5 5102   2.107   1.121  16.432  1.0092  3.9611  1.0854
  336MPD2    N1 5103   1.901   1.545  16.093  0.0083 -0.3792 -0.2394
  336MPD2    H7 5104   1.903   1.477  16.018  1.0035  0.0361 -0.5826
  337TMC3    C1 5105   1.811   1.699  15.934 -0.5025  0.5496 -0.2475
  337TMC3    C2 5106   1.730   1.605  15.886  0.0487 -0.1122 -0.2641
  337TMC3    C3 5107   1.649   1.643  15.787  0.2396  0.3877 -0.3299
  337TMC3    C4 5108   1.828   1.824  15.889 -0.6779  0.3706  0.0482
  337TMC3    C5 5109   1.736   1.862  15.795  0.1194 -0.0811 -0.2618
  337TMC3    C6 5110   1.642   1.771  15.745 -0.1577  0.7240 -0.2686
  337TMC3     C 5111   1.861   1.673  16.066  0.5056  0.4304 -0.0564
  337TMC3     O 5112   1.857   1.768  16.138 -0.8363  0.1233  0.2201
  337TMC3     H 5113   1.709   1.515  15.943 -0.3617  0.0412 -0.1691
  337TMC3    H1 5114   1.908   1.882  15.933 -0.5505 -1.1564  1.8418
  337TMC3    H2 5115   1.577   1.811  15.668  0.4839  2.3533  0.0216
  337TMC3    C7 5116   1.781   1.945  15.688 -0.0976 -0.0811  0.5230
  337TMC3    C8 5117   1.546   1.559  15.750 -0.3256 -0.2910  0.3312
  337TMC3    O1 5118   1.772   1.899  15.576 -0.3326 -0.2538  0.3194
  337TMC3    O2 5119   1.519   1.464  15.825 -0.0595 -0.3256 -0.1601
  338MPD2     C 5120   2.483   1.553   1.022  0.0528 -0.2804 -0.4321
  338MPD2    C1 5121   2.380   1.517   0.933 -0.2325 -0.2391 -0.0603
  338MPD2    C2 5122   2.259   1.584   0.928  0.1781  0.2841 -0.3451
  338MPD2    C3 5123   2.237   1.693   1.007 -0.7552  0.2900 -0.7661
  338MPD2    C4 5124   2.335   1.734   1.085 -0.0939  0.0299  0.4463
  338MPD2    C5 5125   2.454   1.660   1.103  0.6027  0.2701  0.2564
  338MPD2     H 5126   2.176   1.538   0.874 -0.3142 -2.2770  2.6124
  338MPD2    H1 5127   2.332   1.829   1.137 -1.1950 -0.1944  0.8067
  338MPD2    H2 5128   2.577   1.501   1.034 -0.6963 -1.7761 -1.0698
  338MPD2    H3 5129   2.528   1.695   1.173  1.1349 -0.9545  0.3129
  338MPD2     N 5130   2.118   1.771   0.978  0.1840 -0.1166  0.4338
  338MPD2    H5 5131   2.052   1.734   0.910  2.3959 -1.0703 -1.1925
  338MPD2    N1 5132   2.378   1.395   0.864  0.2676  0.4010 -0.2657
  338MPD2    H7 5133   2.305   1.373   0.798  1.0971  0.1871 -1.1088
  339TMC3    C1 5134   1.944   1.919   0.993  0.1095 -0.5395  0.0833
  339TMC3    C2 5135   1.846   1.929   1.084  0.3518  0.4201  0.0469
  339TMC3    C3 5136   1.715   1.893   1.034  1.0652  0.1984 -0.8567
  339TMC3    C4 5137   1.917   1.884   0.870  0.6679  0.2364  0.2288
  339TMC3    C5 5138   1.788   1.863   0.828 -0.5395 -0.1803  0.3767
  339TMC3    C6 5139   1.683   1.863   0.908  0.2457  0.2779 -0.2483
  339TMC3     C 5140   2.078   1.892   1.034  0.9468  0.0441  0.5195
  339TMC3     O 5141   2.125   1.948   1.133  0.7514  0.2018 -0.1100
  339TMC3     H 5142   1.858   1.942   1.191 -0.5947  2.5186 -0.1006
  339TMC3    H1 5143   1.993   1.884   0.793  1.2092  0.6274  0.7610
  339TMC3    H2 5144   1.579   1.851   0.878  0.3734  0.8680 -0.9218
  339TMC3    C7 5145   1.779   1.817   0.691 -0.1552  0.3559  0.6701
  339TMC3    C8 5146   1.602   1.880   1.124  0.0874 -0.2630 -0.0822
  339TMC3    O1 5147   1.881   1.823   0.619 -0.2908  0.3454  0.7012
  339TMC3    O2 5148   1.593   1.961   1.209 -0.3159  0.0734 -0.0371
  340MPD2     C 5149   3.108   4.077  10.687  0.2370 -0.1065 -0.1047
  340MPD2    C1 5150   3.205   4.013  10.616  0.0165  0.5098  0.3645
  340MPD2    C2 5151   3.298   3.923  10.671  0.6571  0.4867 -0.0468
  340MPD2    C3 5152   3.307   3.918  10.809 -0.5443  0.0361  0.7902
  340MPD2    C4 5153   3.221   3.994  10.887 -0.4892 -0.0270  0.5770
  340MPD2    C5 5154   3.115   4.058  10.827 -0.2213 -0.2320 -0.6989
  340MPD2     H 5155   3.368   3.872  10.608  0.8145 -0.0053  0.5266
  340MPD2    H1 5156   3.228   3.982  10.995 -0.8210 -2.3609  0.3247
  340MPD2    H2 5157   3.036   4.144  10.642 -0.2271 -1.7154 -1.7456
  340MPD2    H3 5158   3.033   4.101  10.883 -0.6235  0.2194 -1.6361
  340MPD2     N 5159   3.425   3.861  10.868 -0.2944  0.3952  0.0629
  340MPD2    H5 5160   3.457   3.903  10.954 -1.3368  0.5868  0.3537
  340MPD2    N1 5161   3.215   4.055  10.478  0.3104 -0.1657 -0.9115
  340MPD2    H7 5162   3.143   4.123  10.458  0.3917  0.4378  0.8336
  341TMC3    C1 5163   3.298   4.085  10.250  0.0700  0.2584  0.0064
  341TMC3    C2 5164   3.189   4.159  10.229  0.4553  0.8315  0.3113
  341TMC3    C3 5165   3.162   4.223  10.105  0.0911 -0.6501 -0.1220
  341TMC3    C4 5166   3.401   4.075  10.160  0.0759 -0.2693 -0.0486
  341TMC3    C5 5167   3.389   4.158  10.051  0.1805  0.2180 -0.6385
  341TMC3    C6 5168   3.272   4.232  10.017  0.8078  0.5486  0.6119
  341TMC3     C 5169   3.310   4.013  10.381 -0.4246  0.2529 -0.6434
  341TMC3     O 5170   3.398   3.931  10.395 -0.6065 -0.3576 -0.2531
  341TMC3     H 5171   3.105   4.173  10.296 -0.5793  0.5446 -0.9315
  341TMC3    H1 5172   3.494   4.021  10.174  0.7511  0.3214 -2.2430
  341TMC3    H2 5173   3.267   4.284   9.923  0.9374 -0.6146 -0.0331
  341TMC3    C7 5174   3.503   4.159   9.962 -0.4126 -0.0416  0.2998
  341TMC3    C8 5175   3.043   4.155  10.051 -0.0042 -0.3395  0.0656
  341TMC3    O1 5176   3.589   4.074   9.974 -0.0204 -0.3956 -0.3051
  341TMC3    O2 5177   2.986   4.079  10.132  0.7380  0.0604  0.2617
  342MPD2     C 5178   0.008   2.119  17.403 -0.5545 -0.5054 -0.0083
  342MPD2    C1 5179   0.136   2.122  17.348  0.3278 -0.4299  0.6269
  342MPD2    C2 5180   0.217   2.229  17.367  0.6912 -0.0521  0.4963
  342MPD2    C3 5181   0.172   2.335  17.440  0.2382 -0.1880 -0.2809
  342MPD2    C4 5182   0.040   2.337  17.486  0.0828  0.1687 -0.8788
  342MPD2    C5 5183   4.694   2.232  17.468 -0.0696 -0.5639  0.2031
  342MPD2     H 5184   0.318   2.223  17.328  1.3865  0.2773  2.2246
  342MPD2    H1 5185   4.736   2.425  17.535  1.0441  0.1239  0.0063
  342MPD2    H2 5186   4.677   2.034  17.401 -0.6242 -0.4298 -0.8545
  342MPD2    H3 5187   4.597   2.224  17.515  0.2187 -0.7691  0.7698
  342MPD2     N 5188   0.246   2.454  17.466  0.1203  0.0397  0.1240
  342MPD2    H5 5189   0.195   2.536  17.495 -0.9024 -1.0092  1.2903
  342MPD2    N1 5190   0.182   2.013  17.274 -1.1631 -0.2302 -0.5386
  342MPD2    H7 5191   0.254   2.023  17.203 -0.1804 -1.0628  0.3146
  343TMC3    C1 5192   0.207   1.776  17.229 -1.3376  0.0738  0.2672
  343TMC3    C2 5193   0.334   1.796  17.178 -0.3042 -0.4490  0.4446
  343TMC3    C3 5194   0.428   1.693  17.181  0.3091 -0.0092 -0.1438
  343TMC3    C4 5195   0.168   1.651  17.252 -0.1940 -0.0516 -0.4750
  343TMC3    C5 5196   0.253   1.549  17.238  0.1298 -0.4990  0.1830
  343TMC3    C6 5197   0.387   1.562  17.209  0.5302 -0.5245  0.0956
  343TMC3     C 5198   0.120   1.883  17.277  0.0033 -0.5449  0.2583
  343TMC3     O 5199   0.008   1.855  17.302 -0.3905 -0.1568  0.0877
  343TMC3     H 5200   0.368   1.896  17.155 -1.0339 -0.1762  0.5434
  343TMC3    H1 5201   0.074   1.637  17.305 -1.2249  1.1977 -1.9506
  343TMC3    H2 5202   0.465   1.488  17.221  2.0731  0.5722 -3.1616
  343TMC3    C7 5203   0.199   1.423  17.275 -0.3272  0.0848 -0.0133
  343TMC3    C8 5204   0.569   1.713  17.150 -0.2885 -0.7980 -0.3160
  343TMC3    O1 5205   0.079   1.411  17.246  0.1387  0.2055 -0.2488
  343TMC3    O2 5206   0.611   1.826  17.184  0.9353 -0.3770 -0.0305
  344MPD2     C 5207   1.480   2.066  10.801  0.5107  0.0004 -0.4651
  344MPD2    C1 5208   1.430   2.003  10.689  0.1435 -0.1936 -0.5069
  344MPD2    C2 5209   1.468   2.041  10.562 -0.1856 -0.6063 -0.6328
  344MPD2    C3 5210   1.548   2.157  10.551  0.2173 -0.2416  0.2065
  344MPD2    C4 5211   1.592   2.224  10.660  0.9365 -0.9209  0.4484
  344MPD2    C5 5212   1.565   2.177  10.786  0.4220  0.2209 -0.4680
  344MPD2     H 5213   1.441   1.986  10.472  1.2384 -1.3140 -0.6355
  344MPD2    H1 5214   1.656   2.311  10.650 -0.7400  0.0485 -1.6625
  344MPD2    H2 5215   1.449   2.048  10.904  0.3812  1.5967 -0.2172
  344MPD2    H3 5216   1.582   2.244  10.870 -0.3801 -0.2917  0.0980
  344MPD2     N 5217   1.610   2.206  10.435  0.1298  0.5155 -0.8125
  344MPD2    H5 5218   1.658   2.295  10.442  1.9903 -0.8031  3.4273
  344MPD2    N1 5219   1.337   1.898  10.692  0.2371 -0.0634 -0.1438
  344MPD2    H7 5220   1.294   1.874  10.603  0.5633 -0.1567 -0.2774
  345TMC3    C1 5221   1.738   2.209  10.241  0.1499 -0.5581 -0.3767
  345TMC3    C2 5222   1.861   2.212  10.305 -0.0625  0.4131 -0.3466
  345TMC3    C3 5223   1.966   2.264  10.232  0.2520  0.0781 -0.0753
  345TMC3    C4 5224   1.726   2.247  10.109 -0.4342 -0.5705 -0.6937
  345TMC3    C5 5225   1.828   2.320  10.047  0.3419  0.5117  0.0896
  345TMC3    C6 5226   1.950   2.319  10.107 -0.7062 -0.2478 -0.9084
  345TMC3     C 5227   1.622   2.147  10.311 -0.3730  0.0044  0.3940
  345TMC3     O 5228   1.560   2.054  10.271  0.0552 -0.4226 -0.2755
  345TMC3     H 5229   1.866   2.169  10.404  1.1052  2.3682  0.4642
  345TMC3    H1 5230   1.629   2.233  10.062 -1.0019  1.2951 -0.1118
  345TMC3    H2 5231   2.027   2.382  10.065 -0.6505 -0.1838 -0.7070
  345TMC3    C7 5232   1.797   2.442   9.979 -0.0191 -0.1086  0.6429
  345TMC3    C8 5233   2.075   2.316  10.307 -0.0295  0.4215 -0.4005
  345TMC3    O1 5234   1.879   2.530   9.982 -0.5136  0.1419  0.0182
  345TMC3    O2 5235   2.143   2.401  10.252 -0.4481 -0.7762 -0.2986
  346MPD2     C 5236   1.261   3.356  13.871  0.1334  0.3030  0.1533
  346MPD2    C1 5237   1.353   3.452  13.841 -0.4164  0.2982  0.1388
  346MPD2    C2 5238   1.421   3.513  13.944 -0.1560  0.2256  0.0399
  346MPD2    C3 5239   1.395   3.500  14.080  0.0885  0.1290 -0.6363
  346MPD2    C4 5240   1.296   3.408  14.111 -0.8961 -0.0560 -0.3214
  346MPD2    C5 5241   1.235   3.343  14.011  0.4407 -0.0029  0.1374
  346MPD2     H 5242   1.485   3.594  13.910 -0.1345  0.6323  1.0384
  346MPD2    H1 5243   1.280   3.376  14.213  0.9201  4.1405  1.2755
  346MPD2    H2 5244   1.211   3.297  13.796  0.5166 -0.4170  0.4631
  346MPD2    H3 5245   1.165   3.266  14.041  0.8730 -0.5366 -0.2139
  346MPD2     N 5246   1.463   3.588  14.170  0.2119  0.3824 -0.0838
  346MPD2    H5 5247   1.526   3.657  14.130  1.6035 -1.4225 -1.0136
  346MPD2    N1 5248   1.397   3.483  13.707  0.1402 -0.4720  0.4333
  346MPD2    H7 5249   1.465   3.556  13.690  0.5864 -1.1865 -0.9127
  347TMC3    C1 5250   1.520   3.683  14.384  0.7049  0.7670 -0.0351
  347TMC3    C2 5251   1.645   3.704  14.329 -0.3007 -0.3850 -0.4558
  347TMC3    C3 5252   1.755   3.738  14.406  0.4899 -0.7507 -0.5665
  347TMC3    C4 5253   1.511   3.692  14.519 -0.5550  0.1207  0.0037
  347TMC3    C5 5254   1.619   3.723  14.603  0.2253  0.3414  0.0581
  347TMC3    C6 5255   1.743   3.750  14.546 -0.0885 -0.1561  0.0200
  347TMC3     C 5256   1.430   3.592  14.309  0.0730  0.7381  1.1543
  347TMC3     O 5257   1.335   3.545  14.371  0.8860  0.1241 -0.9080
  347TMC3     H 5258   1.651   3.704  14.221  2.9002  0.7945 -0.2850
  347TMC3    H1 5259   1.418   3.676  14.572  0.3246 -3.7442  0.3707
  347TMC3    H2 5260   1.828   3.780  14.606 -0.2676 -1.5678  0.9835
  347TMC3    C7 5261   1.617   3.697  14.745 -0.6246  0.4299  0.1837
  347TMC3    C8 5262   1.885   3.719  14.349 -0.1688 -0.2117 -0.2918
  347TMC3    O1 5263   1.514   3.730  14.792  0.4910 -0.3294 -0.1358
  347TMC3    O2 5264   1.886   3.639  14.256  0.4895 -0.3952 -0.2311
  348MPD2     C 5265   1.068   3.201  11.687  0.0754 -0.0718 -0.5519
  348MPD2    C1 5266   0.988   3.161  11.585  0.2526 -0.2234 -0.4423
  348MPD2    C2 5267   0.929   3.260  11.506  0.3068 -0.1683  0.4454
  348MPD2    C3 5268   0.960   3.396  11.509  0.7513 -0.6969  0.0590
  348MPD2    C4 5269   1.046   3.430  11.613  0.2136 -0.4324  0.1342
  348MPD2    C5 5270   1.102   3.337  11.704 -0.2322 -0.2464  0.1129
  348MPD2     H 5271   0.859   3.239  11.427 -0.5811  2.6573  0.5008
  348MPD2    H1 5272   1.081   3.529  11.636 -2.7788  0.8158 -0.6853
  348MPD2    H2 5273   1.121   3.136  11.756  1.1454  1.7231  0.3285
  348MPD2    H3 5274   1.162   3.361  11.791  0.9387 -2.3041 -0.1255
  348MPD2     N 5275   0.939   3.490  11.401  0.5272 -0.3245  0.0642
  348MPD2    H5 5276   0.900   3.457  11.313  3.1055  0.8186 -1.5073
  348MPD2    N1 5277   0.930   3.027  11.572  0.6575 -0.0014 -0.0207
  348MPD2    H7 5278   0.860   3.012  11.500 -0.4007  1.3583  0.7357
  349TMC3    C1 5279   0.919   2.787  11.601  0.3391 -0.1083  0.5491
  349TMC3    C2 5280   0.907   2.688  11.693 -0.5444 -0.1888 -0.3551
  349TMC3    C3 5281   0.821   2.591  11.670  0.4028 -0.3694 -0.0524
  349TMC3    C4 5282   0.854   2.784  11.479  0.7349  0.6420  0.2982
  349TMC3    C5 5283   0.771   2.676  11.459  0.0718  0.4556 -0.9686
  349TMC3    C6 5284   0.748   2.577  11.553 -0.0360 -0.5204 -0.0841
  349TMC3     C 5285   0.970   2.916  11.648  0.1820  0.6988 -0.0032
  349TMC3     O 5286   1.044   2.921  11.743  0.2496 -0.0209  0.9189
  349TMC3     H 5287   0.960   2.707  11.786 -0.2927  1.3429 -0.8082
  349TMC3    H1 5288   0.868   2.863  11.407  2.7772  2.2347  2.4604
  349TMC3    H2 5289   0.691   2.488  11.529  0.5210 -0.7756 -0.4732
  349TMC3    C7 5290   0.668   2.693  11.362 -0.3945  0.3204 -0.2502
  349TMC3    C8 5291   0.794   2.500  11.779 -0.0066  0.8364  0.0293
  349TMC3    O1 5292   0.558   2.648  11.390 -0.0377  0.5065 -0.1067
  349TMC3    O2 5293   0.871   2.500  11.877  0.0361 -0.2512 -0.0691
  350MPD2     C 5294   4.295   1.639  10.024 -0.0075 -0.1616  0.2932
  350MPD2    C1 5295   4.352   1.515  10.070  0.1105 -0.1268  0.3966
  350MPD2    C2 5296   4.486   1.505  10.105 -0.0770  0.3078 -0.6315
  350MPD2    C3 5297   4.558   1.622  10.115 -0.0877 -0.2595 -0.1276
  350MPD2    C4 5298   4.496   1.744  10.075  0.9577  0.0675 -0.3806
  350MPD2    C5 5299   4.375   1.751  10.028 -0.2896 -0.0909 -0.1599
  350MPD2     H 5300   4.527   1.409  10.137 -1.7710 -0.8790 -2.0129
  350MPD2    H1 5301   4.540   1.842  10.091  1.6616 -0.1724 -0.8459
  350MPD2    H2 5302   4.194   1.643   9.986  0.4136  2.7032 -0.4954
  350MPD2    H3 5303   4.326   1.845  10.005  0.1879  0.6015  1.6944
  350MPD2     N 5304   4.675   1.612  10.189 -0.5456 -0.8468 -0.0431
  350MPD2    H5 5305   4.706   1.518  10.212 -1.8579 -1.4663 -0.8250
  350MPD2    N1 5306   4.273   1.397  10.079 -0.3875  0.5240 -0.4494
  350MPD2    H7 5307   4.328   1.316  10.108 -1.0707  0.1564 -0.1938
  351TMC3    C1 5308   4.089   1.258  10.095  0.2030  0.0062 -0.1003
  351TMC3    C2 5309   4.165   1.149  10.054 -0.1293 -0.1619 -0.6587
  351TMC3    C3 5310   4.108   1.027  10.053 -0.1241 -0.3986 -0.1088
  351TMC3    C4 5311   3.959   1.249  10.128  0.6500 -0.5719  0.1008
  351TMC3    C5 5312   3.906   1.127  10.135 -0.5395  0.6071  0.4242
  351TMC3    C6 5313   3.980   1.016  10.112  0.2116  0.4762  0.0476
  351TMC3     C 5314   4.137   1.393  10.078 -0.0818  0.1231 -0.1526
  351TMC3     O 5315   4.069   1.495  10.098  0.2993  0.0445 -0.7162
  351TMC3     H 5316   4.258   1.167  10.001 -0.4161  0.8886 -0.8043
  351TMC3    H1 5317   3.903   1.341  10.146 -0.3868 -0.9146 -1.4239
  351TMC3    H2 5318   3.932   0.921  10.129 -0.1271  0.7965  0.8532
  351TMC3    C7 5319   3.767   1.117  10.109 -0.7080 -0.4140 -0.0443
  351TMC3    C8 5320   4.189   0.910  10.010  0.3416 -0.2986 -0.0111
  351TMC3    O1 5321   3.695   1.058  10.190 -0.1943 -0.1477 -0.7167
  351TMC3    O2 5322   4.265   0.925   9.917  0.4724 -0.4385 -0.6881
  352MPD2     C 5323   2.588   3.222   1.268 -0.6039 -0.1369 -0.1497
  352MPD2    C1 5324   2.547   3.204   1.129 -0.1778  0.0460 -0.4536
  352MPD2    C2 5325   2.619   3.116   1.046 -0.3030  0.1307 -1.4274
  352MPD2    C3 5326   2.717   3.038   1.106 -0.0837 -0.2046 -0.4274
  352MPD2    C4 5327   2.747   3.050   1.240  0.6704 -0.7081  0.1096
  352MPD2    C5 5328   2.676   3.137   1.319  0.3919  0.9037  0.9330
  352MPD2     H 5329   2.579   3.102   0.947  0.3743  1.3176 -1.8606
  352MPD2    H1 5330   2.827   2.990   1.281 -0.3951 -1.4355  1.0965
  352MPD2    H2 5331   2.546   3.301   1.329 -1.5319 -0.0922 -0.8334
  352MPD2    H3 5332   2.704   3.166   1.420 -0.2384  0.9184  1.1040
  352MPD2     N 5333   2.775   2.933   1.047  0.1041 -0.7461  0.6122
  352MPD2    H5 5334   2.826   2.873   1.111 -1.1449 -2.3632  0.0958
  352MPD2    N1 5335   2.432   3.279   1.095  0.2473 -0.0673 -0.2586
  352MPD2    H7 5336   2.389   3.340   1.164  0.9860 -0.5337  0.6157
  353TMC3    C1 5337   2.775   2.755   0.891 -0.0231 -0.2266 -0.5927
  353TMC3    C2 5338   2.870   2.685   0.956  0.6866  1.0254 -0.3511
  353TMC3    C3 5339   2.841   2.551   0.980 -0.6866  0.1884 -0.1726
  353TMC3    C4 5340   2.663   2.695   0.832 -0.2749 -0.4460  0.4309
  353TMC3    C5 5341   2.648   2.556   0.862 -0.8924 -0.7942 -0.2930
  353TMC3    C6 5342   2.727   2.485   0.941 -0.2698 -0.1166 -0.3600
  353TMC3     C 5343   2.760   2.896   0.914 -0.9500 -0.4925 -0.5285
  353TMC3     O 5344   2.718   2.965   0.821 -0.6511 -0.0698  0.1372
  353TMC3     H 5345   2.951   2.742   1.001  1.3641  0.8130 -1.2971
  353TMC3    H1 5346   2.597   2.766   0.785 -1.2394 -1.4382  0.2989
  353TMC3    H2 5347   2.667   2.409   0.988  1.1101 -0.6794  0.4964
  353TMC3    C7 5348   2.515   2.501   0.839 -0.1202 -0.3614 -0.7576
  353TMC3    C8 5349   2.943   2.472   1.042 -0.2840 -0.3146  0.6896
  353TMC3    O1 5350   2.511   2.384   0.809 -0.2880 -0.1965  0.3767
  353TMC3    O2 5351   3.052   2.520   1.077 -0.0926  0.3150 -0.1527
  354TMC3    C1 5352   4.217   4.057  13.071  0.5859 -0.5629 -0.6223
  354TMC3    C2 5353   4.189   4.190  13.080 -0.1164 -0.6364  0.3967
  354TMC3    C3 5354   4.245   4.268  12.982 -0.6752  0.5604  0.3115
  354TMC3    C4 5355   4.279   3.993  12.963 -0.1424 -0.0199  0.1713
  354TMC3    C5 5356   4.327   4.078  12.874 -0.0929  0.2558  0.4524
  354TMC3    C6 5357   4.297   4.208  12.867 -0.2073  0.2906  0.4058
  354TMC3     C 5358   4.169   3.981  13.183  0.2877  0.3921 -0.0626
  354TMC3     O 5359   4.092   3.894  13.155 -0.5146 -0.2747  0.2202
  354TMC3     H 5360   4.145   4.234  13.169 -0.4101 -1.3050  0.5864
  354TMC3    H1 5361   4.317   3.893  12.973  0.1789  0.2002  1.1265
  354TMC3    H2 5362   4.343   4.265  12.786 -0.6278 -1.0940 -0.7997
  354TMC3    C7 5363   4.453   4.038  12.815 -0.3299  0.1269 -0.2302
  354TMC3    C8 5364   4.198   4.406  12.965  0.0113  0.5223 -0.3410
  354TMC3    O1 5365   4.451   3.929  12.754  0.4009 -0.3070  0.4354
  354TMC3    O2 5366   4.156   4.463  13.065  0.1349 -0.5904  0.0374
  355MPD2     C 5367   4.182   0.470  11.562 -0.6681  0.0518  0.1238
  355MPD2    C1 5368   4.231   0.519  11.442  1.2712  0.1444  0.5134
  355MPD2    C2 5369   4.368   0.524  11.415 -0.4408  0.7288 -0.1145
  355MPD2    C3 5370   4.459   0.493  11.515 -0.0815  0.2716  0.4317
  355MPD2    C4 5371   4.405   0.442  11.637 -0.6551  0.6723  0.1620
  355MPD2    C5 5372   4.269   0.441  11.656 -0.0775  0.2935  0.5390
  355MPD2     H 5373   4.405   0.553  11.317 -0.9441  0.0224 -0.5120
  355MPD2    H1 5374   4.476   0.419  11.715 -1.8222  0.0069  1.0250
  355MPD2    H2 5375   4.076   0.458  11.580 -0.5076  0.4023  1.3119
  355MPD2    H3 5376   4.232   0.404  11.751 -0.5836 -1.2262 -0.2482
  355MPD2     N 5377   4.604   0.495  11.502 -0.2010 -0.9467 -0.4844
  355MPD2    H5 5378   4.658   0.473  11.586 -0.9250  0.5674  0.3752
  355MPD2    N1 5379   4.133   0.554  11.349  0.4781  0.2578  0.2831
  355MPD2    H7 5380   4.038   0.520  11.363  0.2775  0.6644 -0.0707
  356TMC3    C1 5381   0.072   0.579  11.435 -0.0205  0.1929  0.3524
  356TMC3    C2 5382   0.143   0.615  11.323 -0.3086 -0.1578  0.3592
  356TMC3    C3 5383   0.252   0.693  11.347  0.0968  0.4523 -0.2329
  356TMC3    C4 5384   0.101   0.626  11.562  0.5503  1.1560  0.2209
  356TMC3    C5 5385   0.210   0.702  11.577  0.2178  0.2814 -0.1420
  356TMC3    C6 5386   0.286   0.742  11.469 -0.0851  0.0292  0.3635
  356TMC3     C 5387   4.677   0.549  11.397  0.1575 -0.5299  0.3863
  356TMC3     O 5388   4.646   0.556  11.278 -0.1153 -0.7576  0.4957
  356TMC3     H 5389   0.123   0.586  11.221  2.6991 -1.1913  0.0482
  356TMC3    H1 5390   0.023   0.634  11.637 -0.3678  0.9561 -0.7181
  356TMC3    H2 5391   0.383   0.785  11.491 -0.2826  1.3491 -1.3590
  356TMC3    C7 5392   0.248   0.741  11.712  0.0960  0.0011  0.1236
  356TMC3    C8 5393   0.317   0.741  11.230  0.4804 -0.2239  0.0252
  356TMC3    O1 5394   0.214   0.669  11.803 -0.6930  0.8983  0.0228
  356TMC3    O2 5395   0.306   0.673  11.127  0.2204  0.1667 -0.1997
  357MPD2     C 5396   4.256   0.409   0.943  0.7606 -0.0426 -0.3129
  357MPD2    C1 5397   4.238   0.311   1.041 -0.5311 -0.5905 -0.1181
  357MPD2    C2 5398   4.141   0.216   1.010 -0.8943 -0.2967 -0.3655
  357MPD2    C3 5399   4.066   0.212   0.899 -0.2176  0.7068  0.1720
  357MPD2    C4 5400   4.078   0.321   0.808  0.2375 -0.5727  0.5816
  357MPD2    C5 5401   4.170   0.417   0.825  0.6393  1.1024 -0.3344
  357MPD2     H 5402   4.128   0.132   1.077 -1.8628 -0.7787 -1.1772
  357MPD2    H1 5403   4.015   0.320   0.719 -1.8173  1.0807  2.0172
  357MPD2    H2 5404   4.335   0.483   0.953  0.4413  0.6983 -3.1983
  357MPD2    H3 5405   4.173   0.496   0.750 -1.5294  1.2674 -0.2308
  357MPD2     N 5406   3.974   0.097   0.864 -0.2922  0.5253 -0.7557
  357MPD2    H5 5407   3.921   0.109   0.778 -0.0007 -1.3511 -1.2004
  357MPD2    N1 5408   4.330   0.299   1.142  0.4494  0.0315 -0.0325
  357MPD2    H7 5409   4.403   0.369   1.146  1.0340 -0.5405 -0.8380
  358TMC3    C1 5410   4.474   0.191   1.284  0.1833 -0.5960  0.6509
  358TMC3    C2 5411   4.520   0.069   1.314  0.0099  0.3986  0.4049
  358TMC3    C3 5412   4.652   0.066   1.353 -0.5697  0.4205  0.5134
  358TMC3    C4 5413   4.545   0.306   1.299  0.6745 -0.6427 -1.1333
  358TMC3    C5 5414   4.664   0.299   1.374 -0.2213 -0.0601  0.2701
  358TMC3    C6 5415   4.718   0.175   1.402  0.0495 -0.3453  0.0864
  358TMC3     C 5416   4.345   0.186   1.226  0.0298 -0.1205  0.1903
  358TMC3     O 5417   4.281   0.083   1.241  0.0362  0.1020 -0.1900
  358TMC3     H 5418   4.458   4.717   1.321 -0.3122  0.3761 -3.0274
  358TMC3    H1 5419   4.486   0.396   1.303 -1.7765 -2.2890 -0.3881
  358TMC3    H2 5420   0.089   0.163   1.397 -0.1262 -2.4447  1.0564
  358TMC3    C7 5421   4.700   0.413   1.454  0.0731  0.4392  0.3392
  358TMC3    C8 5422   4.715   4.673   1.321  0.0132  0.4599  0.6289
  358TMC3    O1 5423   4.656   0.520   1.414  0.0067 -0.3096 -0.0398
  358TMC3    O2 5424   0.087   4.652   1.378  0.2302 -0.5446 -0.1710
  359MPD2     C 5425   0.144   3.632  12.368 -0.8121  0.5330  0.3511
  359MPD2    C1 5426   0.171   3.508  12.321  0.4253  0.7729 -0.0722
  359MPD2    C2 5427   0.103   3.405  12.368  0.2801 -0.4328 -0.8809
  359MPD2    C3 5428   0.007   3.422  12.471 -0.1540  0.6258 -0.3760
  359MPD2    C4 5429   4.716   3.551  12.507  0.6427 -0.6940 -0.0895
  359MPD2    C5 5430   0.042   3.660  12.458 -0.0603 -0.4285  0.0672
  359MPD2     H 5431   0.128   3.307  12.331  0.5133 -0.6570 -0.1256
  359MPD2    H1 5432   4.640   3.575  12.580  0.7789  1.3650 -0.6295
  359MPD2    H2 5433   0.200   3.720  12.338 -1.8318  0.7570 -0.9133
  359MPD2    H3 5434   0.034   3.755  12.510  1.1188 -1.9414  3.0037
  359MPD2     N 5435   4.666   3.320  12.527  0.7520  0.1270 -0.1959
  359MPD2    H5 5436   4.588   3.341  12.589  2.6294  2.5746  1.3055
  359MPD2    N1 5437   0.262   3.489  12.219 -0.2907 -0.3511  0.6562
  359MPD2    H7 5438   0.284   3.394  12.193  1.2599 -0.0716  0.9054
  360TMC3    C1 5439   0.418   3.529  12.052 -1.0162  0.1379  0.4408
  360TMC3    C2 5440   0.515   3.449  12.092  0.8112  0.1588  0.0587
  360TMC3    C3 5441   0.630   3.441  12.020  0.1472 -0.0561 -0.1838
  360TMC3    C4 5442   0.417   3.573  11.926 -0.0654  0.5100  0.1224
  360TMC3    C5 5443   0.521   3.543  11.848 -0.2327 -0.2987 -0.6310
  360TMC3    C6 5444   0.637   3.488  11.890 -0.2105 -0.0434 -0.0875
  360TMC3     C 5445   0.328   3.588  12.151 -0.3091  0.4330 -0.1464
  360TMC3     O 5446   0.276   3.694  12.112 -0.1100 -0.8585 -0.3126
  360TMC3     H 5447   0.522   3.444  12.200 -0.4825  1.3273  0.1896
  360TMC3    H1 5448   0.328   3.618  11.884  0.1427 -0.0672 -0.9420
  360TMC3    H2 5449   0.723   3.487  11.823  0.8118  0.1231  1.2115
  360TMC3    C7 5450   0.520   3.608  11.717 -0.6316  0.3638 -0.4744
  360TMC3    C8 5451   0.757   3.406  12.086 -1.0055 -0.7611 -0.4826
  360TMC3    O1 5452   0.476   3.723  11.717 -0.2141 -0.4395  0.3732
  360TMC3    O2 5453   0.761   3.350  12.195  0.1771 -0.3831 -0.2513
  361MPD2     C 5454   1.736   2.490  16.387  0.4009  0.2575 -0.3225
  361MPD2    C1 5455   1.679   2.524  16.508 -0.3079 -0.5565  0.0466
  361MPD2    C2 5456   1.688   2.437  16.612 -0.1118 -0.5844  0.4906
  361MPD2    C3 5457   1.760   2.321  16.611  0.8046 -0.6627 -0.8009
  361MPD2    C4 5458   1.825   2.287  16.495  0.4920  0.3358  0.9214
  361MPD2    C5 5459   1.804   2.366  16.384 -0.8336 -0.3086  0.7628
  361MPD2     H 5460   1.628   2.459  16.700 -0.2483  1.1557 -0.0454
  361MPD2    H1 5461   1.882   2.195  16.489 -0.2572 -0.2446  2.4650
  361MPD2    H2 5462   1.733   2.539  16.290 -1.6430 -1.6536 -1.2278
  361MPD2    H3 5463   1.846   2.343  16.286 -2.3672 -2.5606  0.6347
  361MPD2     N 5464   1.759   2.233  16.722 -0.2552 -0.6646 -0.4581
  361MPD2    H5 5465   1.807   2.145  16.709  2.2600  0.5998  0.3312
  361MPD2    N1 5466   1.608   2.642  16.522  0.1622 -0.3096 -0.2729
  361MPD2    H7 5467   1.559   2.645  16.611 -0.5505  3.5637 -0.8251
  362TMC3    C1 5468   1.488   2.840  16.454  0.4671  0.0288 -0.2358
  362TMC3    C2 5469   1.427   2.843  16.579  0.1163 -0.2657  0.7530
  362TMC3    C3 5470   1.327   2.932  16.611 -0.0688  0.2636 -0.1374
  362TMC3    C4 5471   1.456   2.935  16.360 -0.8325  0.3044 -0.1937
  362TMC3    C5 5472   1.357   3.023  16.400 -0.5119 -0.2950  0.1323
  362TMC3    C6 5473   1.290   3.023  16.517  0.3162  0.4455 -0.2393
  362TMC3     C 5474   1.591   2.745  16.430  0.2202 -0.7596 -0.0722
  362TMC3     O 5475   1.639   2.750  16.320 -0.5992  0.1831 -0.8618
  362TMC3     H 5476   1.470   2.785  16.659  0.1393 -0.2592  0.7453
  362TMC3    H1 5477   1.488   2.924  16.258  0.7165 -1.4987  0.5016
  362TMC3    H2 5478   1.233   3.108  16.554 -0.7244  0.2894 -1.4895
  362TMC3    C7 5479   1.307   3.124  16.315 -0.4332 -0.2588  0.0822
  362TMC3    C8 5480   1.343   2.985  16.744 -0.3690 -0.8560  0.2879
  362TMC3    O1 5481   1.192   3.163  16.328  0.0582 -0.0459 -0.0167
  362TMC3    O2 5482   1.454   2.988  16.797 -0.4778  0.6758  0.0092
  363TMC3    C1 5483   0.304   0.670   9.202  0.1913 -0.4269  0.5229
  363TMC3    C2 5484   0.334   0.585   9.303  0.2163  0.0939 -0.7824
  363TMC3    C3 5485   0.254   0.590   9.414 -0.4235  0.4337 -0.3296
  363TMC3    C4 5486   0.216   0.773   9.205  0.3466  0.7641  0.4104
  363TMC3    C5 5487   0.142   0.775   9.321  0.0919 -0.1550  0.2436
  363TMC3    C6 5488   0.162   0.692   9.427 -0.6216 -0.4157 -0.6044
  363TMC3     C 5489   0.379   0.661   9.073 -0.4248 -0.1463 -0.4517
  363TMC3     O 5490   0.498   0.623   9.072  0.6241  0.3669 -0.8989
  363TMC3     H 5491   0.412   0.512   9.283  0.1747 -0.1967  0.1008
  363TMC3    H1 5492   0.203   0.852   9.132  1.7091 -0.6108 -1.3162
  363TMC3    H2 5493   0.090   0.699   9.507  0.0289  0.5636 -0.1084
  363TMC3    C7 5494   0.050   0.889   9.343  0.3251 -0.3761 -0.5349
  363TMC3    C8 5495   0.294   0.509   9.527 -0.3223  0.1981 -0.1844
  363TMC3    O1 5496   4.684   0.859   9.410  0.0159  0.2684 -0.2565
  363TMC3    O2 5497   0.202   0.494   9.608  0.3255 -0.7468  0.0307
  364MPD2     C 5498   3.862   4.609  10.479  0.1992  0.1243 -0.4150
  364MPD2    C1 5499   3.969   4.649  10.401  0.3853 -0.2694  0.5745
  364MPD2    C2 5500   4.082   4.575  10.416  0.0491  0.2825 -0.0970
  364MPD2    C3 5501   4.077   4.458  10.486  0.1756 -1.1805  1.2454
  364MPD2    C4 5502   3.964   4.418  10.546  0.1467 -0.0245 -0.3536
  364MPD2    C5 5503   3.857   4.498  10.556 -0.1404  1.0477 -0.8507
  364MPD2     H 5504   4.166   4.602  10.351  0.9001 -0.5355  0.6616
  364MPD2    H1 5505   3.966   4.324  10.601 -0.1289 -0.1000 -0.4700
  364MPD2    H2 5506   3.771   4.667  10.478 -0.6856 -1.2565  0.2661
  364MPD2    H3 5507   3.764   4.462  10.599  0.7657 -0.7794 -0.4308
  364MPD2     N 5508   4.193   4.389  10.509  0.3415  0.1881  0.3777
  364MPD2    H5 5509   4.180   4.309  10.570  2.7966 -0.8868 -0.5544
  364MPD2    N1 5510   3.971   0.026  10.322  0.1211  0.5766 -0.2584
  364MPD2    H7 5511   4.057   0.047  10.273  0.3519  0.4772  0.1016
  365TMC3    C1 5512   3.903   0.222  10.213  0.3867  0.1811  0.2571
  365TMC3    C2 5513   4.004   0.208  10.122  0.2382  0.4977  0.3826
  365TMC3    C3 5514   4.039   0.323  10.057  0.4086  0.0867 -0.4320
  365TMC3    C4 5515   3.853   0.346  10.249 -0.8984 -0.9957  0.2715
  365TMC3    C5 5516   3.898   0.453  10.182 -0.3950  0.2979  0.2138
  365TMC3    C6 5517   3.997   0.446  10.084 -0.9554 -0.1184 -0.4954
  365TMC3     C 5518   3.872   0.125  10.317 -0.2065  0.0063  0.2676
  365TMC3     O 5519   3.767   0.139  10.386  0.4644  0.2793  0.1581
  365TMC3     H 5520   4.033   0.107  10.093  0.2417  0.0695  1.8848
  365TMC3    H1 5521   3.757   0.346  10.297 -1.3566  1.5010 -0.6281
  365TMC3    H2 5522   4.050   0.532  10.046 -2.3183 -0.7036 -3.6972
  365TMC3    C7 5523   3.872   0.582  10.240 -0.0875  0.5393 -0.1918
  365TMC3    C8 5524   4.140   0.309   9.953 -0.6270 -0.9611 -0.1926
  365TMC3    O1 5525   3.917   0.677  10.184  0.7530  0.1814 -0.0696
  365TMC3    O2 5526   4.123   0.367   9.848 -0.3423  0.3045 -0.0846
  366MPD2     C 5527   1.282   0.772  15.437 -0.3359  0.7463 -0.7909
  366MPD2    C1 5528   1.409   0.802  15.485  1.1081 -0.3990  0.5030
  366MPD2    C2 5529   1.497   0.700  15.506  0.6091  0.3804 -0.7822
  366MPD2    C3 5530   1.470   0.565  15.474  0.3803  0.8222 -0.1348
  366MPD2    C4 5531   1.348   0.540  15.425  0.6500  1.0035  0.2367
  366MPD2    C5 5532   1.254   0.639  15.404 -0.6466 -0.2034  0.0860
  366MPD2     H 5533   1.589   0.733  15.553  0.2834 -1.0329  0.8624
  366MPD2    H1 5534   1.305   0.447  15.390 -0.0049  1.1589  0.6187
  366MPD2    H2 5535   1.199   0.841  15.427  0.6745  1.5245 -3.7304
  366MPD2    H3 5536   1.155   0.615  15.369 -1.0825  1.9032 -0.1566
  366MPD2     N 5537   1.572   0.467  15.479  0.1041  0.6705  0.4388
  366MPD2    H5 5538   1.662   0.502  15.510  1.6410 -2.3989 -0.5233
  366MPD2    N1 5539   1.465   0.932  15.493 -0.6138 -0.5566  0.2064
  366MPD2    H7 5540   1.566   0.935  15.506 -0.7529  0.9504  0.9033
  367TMC3    C1 5541   1.468   1.164  15.447  0.0306 -0.0892  0.0541
  367TMC3    C2 5542   1.580   1.193  15.510 -0.9347  0.2786  0.3072
  367TMC3    C3 5543   1.646   1.314  15.483 -0.7868 -0.4328 -0.5064
  367TMC3    C4 5544   1.415   1.241  15.351  0.4605  0.5232  0.3509
  367TMC3    C5 5545   1.489   1.351  15.311 -0.4123  1.3780  0.1206
  367TMC3    C6 5546   1.611   1.386  15.372  0.5944 -0.2539 -0.2401
  367TMC3     C 5547   1.388   1.046  15.477 -0.3700 -0.1372  0.5714
  367TMC3     O 5548   1.273   1.069  15.472  0.0440  0.2156  0.6519
  367TMC3     H 5549   1.606   1.133  15.597 -1.4227  1.7459  1.4747
  367TMC3    H1 5550   1.323   1.212  15.302 -0.3614 -0.1231  2.2719
  367TMC3    H2 5551   1.664   1.472  15.334 -1.8471  0.5597 -1.7472
  367TMC3    C7 5552   1.461   1.411  15.179  0.2464 -0.1595  0.5862
  367TMC3    C8 5553   1.774   1.326  15.542 -0.1590 -0.2577  0.2685
  367TMC3    O1 5554   1.519   1.515  15.145 -0.2810 -0.4825 -0.3816
  367TMC3    O2 5555   1.815   1.225  15.598 -0.6758 -0.4157 -0.0450
  368MPD2     C 5556   3.523   2.434  13.861 -0.2268  0.0680 -0.4278
  368MPD2    C1 5557   3.486   2.510  13.750  0.0005 -0.4781 -0.8491
  368MPD2    C2 5558   3.572   2.583  13.680  0.5269 -0.4259 -0.2561
  368MPD2    C3 5559   3.705   2.587  13.722 -0.1571  0.4518  0.2063
  368MPD2    C4 5560   3.745   2.520  13.835 -0.6099  0.7591  0.2832
  368MPD2    C5 5561   3.657   2.437  13.895 -0.0012 -0.2311  0.2590
  368MPD2     H 5562   3.535   2.642  13.596 -1.5004  0.6075  1.3715
  368MPD2    H1 5563   3.846   2.514  13.875 -0.6635 -0.3124  0.2574
  368MPD2    H2 5564   3.461   2.367  13.919  0.1047  1.0521  1.0683
  368MPD2    H3 5565   3.690   2.368  13.972  4.7413  1.8114  0.0026
  368MPD2     N 5566   3.808   2.670  13.658 -0.1695 -0.0729 -0.4591
  368MPD2    H5 5567   3.904   2.658  13.688 -0.2389  0.4334 -0.0404
  368MPD2    N1 5568   3.346   2.526  13.722 -0.4778 -0.0487 -0.2542
  368MPD2    H7 5569   3.281   2.460  13.764 -0.0258  0.1855  0.8288
  369TMC3    C1 5570   3.147   2.659  13.644 -0.3311  0.0823  0.1039
  369TMC3    C2 5571   3.130   2.782  13.579 -1.2388  0.2136  0.2533
  369TMC3    C3 5572   3.039   2.776  13.472 -0.1511  0.2723  0.3744
  369TMC3    C4 5573   3.095   2.546  13.594 -0.0374 -0.4406  0.0992
  369TMC3    C5 5574   3.010   2.550  13.482 -0.0039 -0.0415  0.3211
  369TMC3    C6 5575   2.979   2.668  13.424 -0.1328  0.1469  0.4678
  369TMC3     C 5576   3.289   2.643  13.658  0.6100 -0.9421 -1.4609
  369TMC3     O 5577   3.346   2.739  13.608 -0.0977  0.0850  0.3329
  369TMC3     H 5578   3.156   2.874  13.630  3.7987 -0.7822 -0.5220
  369TMC3    H1 5579   3.102   2.454  13.651 -3.7008 -1.1751 -0.5752
  369TMC3    H2 5580   2.912   2.673  13.339  1.9502  1.2016 -1.1353
  369TMC3    C7 5581   2.911   2.446  13.484 -0.3003  0.5760  0.0032
  369TMC3    C8 5582   3.071   2.884  13.386 -0.0257  0.1408  0.6525
  369TMC3    O1 5583   2.884   2.402  13.596 -0.2018  0.4754 -0.3471
  369TMC3    O2 5584   2.990   2.918  13.298 -0.7845 -0.7090  0.5592
  370TMC3    C1 5585   2.205   3.312  16.195 -0.0955  0.7637 -0.4017
  370TMC3    C2 5586   2.136   3.243  16.291 -0.4034  0.6869 -0.2873
  370TMC3    C3 5587   2.177   3.113  16.308 -0.6605  0.0064  0.5913
  370TMC3    C4 5588   2.303   3.257  16.119 -0.7378 -0.7521  0.1279
  370TMC3    C5 5589   2.345   3.129  16.143  0.0893 -0.1202 -0.3028
  370TMC3    C6 5590   2.270   3.055  16.228  0.1306 -0.0183 -0.0598
  370TMC3     C 5591   2.199   3.459  16.211  0.4710 -0.1105  0.7348
  370TMC3     O 5592   2.112   3.490  16.288 -0.5236 -0.1351  0.5795
  370TMC3     H 5593   2.055   3.288  16.347  0.3310  3.0256 -1.1348
  370TMC3    H1 5594   2.356   3.311  16.042  0.1829 -0.5854  0.8732
  370TMC3    H2 5595   2.284   2.948  16.221 -0.3259 -0.2841  2.9317
  370TMC3    C7 5596   2.406   3.067  16.025 -0.2183 -0.1905  0.0501
  370TMC3    C8 5597   2.139   3.041  16.434  0.0413 -0.4572 -0.6029
  370TMC3    O1 5598   2.380   3.116  15.913 -0.0425 -0.3687 -0.3737
  370TMC3    O2 5599   2.157   2.920  16.436  0.7054  0.4176  0.3998
  371TMC3    C1 5600   3.650   1.376  15.719  0.0207 -0.5094  0.4272
  371TMC3    C2 5601   3.535   1.401  15.786  0.6653  0.2352 -0.3098
  371TMC3    C3 5602   3.494   1.531  15.803 -0.1791  1.2200 -0.3107
  371TMC3    C4 5603   3.733   1.479  15.687  0.4221  0.4549 -0.4221
  371TMC3    C5 5604   3.687   1.605  15.701 -0.0269  0.1292  0.7166
  371TMC3    C6 5605   3.567   1.640  15.759 -0.1111 -0.1515  0.8758
  371TMC3     C 5606   3.727   1.267  15.782  0.2811 -0.3257  0.3649
  371TMC3     O 5607   3.841   1.290  15.805  0.5590 -0.0326  0.5015
  371TMC3     H 5608   3.470   1.320  15.816 -1.1033  1.6348 -0.3672
  371TMC3    H1 5609   3.831   1.465  15.642 -1.1747 -4.4348 -2.3674
  371TMC3    H2 5610   3.539   1.744  15.775  0.2920 -0.0410  0.8855
  371TMC3    C7 5611   3.752   1.714  15.634 -0.0231  0.1682  1.3179
  371TMC3    C8 5612   3.348   1.543  15.813 -0.3476  0.6674 -0.2816
  371TMC3    O1 5613   3.693   1.819  15.622  0.0044  0.1737  0.1283
  371TMC3    O2 5614   3.272   1.449  15.815 -0.4608  0.4275  0.1739
  372MPD2     C 5615   3.187   2.747  13.995 -0.0728 -0.1400  0.4232
  372MPD2    C1 5616   3.295   2.680  14.055  0.5737  0.1674  0.0424
  372MPD2    C2 5617   3.278   2.542  14.080 -0.9255  0.5979  0.2670
  372MPD2    C3 5618   3.157   2.477  14.068  0.5336 -0.0740 -0.4429
  372MPD2    C4 5619   3.045   2.554  14.023 -0.3039 -0.8974  0.0025
  372MPD2    C5 5620   3.064   2.683  13.982  0.0815 -0.1664  0.0186
  372MPD2     H 5621   3.362   2.481  14.112 -0.8930 -0.2990 -1.5011
  372MPD2    H1 5622   2.955   2.498  14.002 -0.9334  0.0848  0.0964
  372MPD2    H2 5623   3.188   2.851  13.962 -1.0229 -0.4069 -0.4812
  372MPD2    H3 5624   2.984   2.735  13.930  1.1719 -0.2601 -1.7647
  372MPD2     N 5625   3.161   2.337  14.091  0.0549  0.2939 -0.4331
  372MPD2    H5 5626   3.252   2.295  14.107 -0.2242  1.3760  3.8553
  372MPD2    N1 5627   3.425   2.733  14.076  0.3870  0.0191 -0.0805
  372MPD2    H7 5628   3.494   2.676  14.126  0.1933 -0.6201 -0.5453
  373TMC3    C1 5629   3.082   2.104  14.068  0.0483 -0.7970  0.0797
  373TMC3    C2 5630   2.982   2.019  14.086  0.2215  0.2473 -0.2975
  373TMC3    C3 5631   3.014   1.884  14.062 -0.4452  0.2349 -0.8855
  373TMC3    C4 5632   3.201   2.076  14.007 -0.7423 -0.3981 -1.1113
  373TMC3    C5 5633   3.215   1.943  13.965 -0.1303 -0.2622  0.0081
  373TMC3    C6 5634   3.122   1.853  13.984 -0.2875  1.0049  0.3018
  373TMC3     C 5635   3.052   2.252  14.091  0.3364 -0.2520 -0.3386
  373TMC3     O 5636   2.931   2.275  14.103  0.0985 -0.3530 -0.3163
  373TMC3     H 5637   2.885   2.036  14.131 -0.3117 -1.5402 -0.7765
  373TMC3    H1 5638   3.277   2.150  13.984 -0.4969  0.5026  2.6043
  373TMC3    H2 5639   3.125   1.754  13.940  1.5156  0.6343  1.2440
  373TMC3    C7 5640   3.331   1.913  13.888  0.3697  0.6970 -0.5312
  373TMC3    C8 5641   2.907   1.788  14.076 -0.1705  0.5633  0.2105
  373TMC3    O1 5642   3.402   1.999  13.844  0.1389 -0.2203 -0.2114
  373TMC3    O2 5643   2.799   1.839  14.065 -0.0513 -0.0385 -0.4689
  374TMC3    C1 5644   4.495   3.256   9.638 -0.7659  0.0640  0.2728
  374TMC3    C2 5645   4.599   3.339   9.617  0.5452 -0.0506  0.9809
  374TMC3    C3 5646   4.603   3.418   9.503 -0.0731 -0.2479 -0.2266
  374TMC3    C4 5647   4.394   3.243   9.545  0.4766  0.0322  0.2058
  374TMC3    C5 5648   4.411   3.301   9.425 -0.3771  0.0948  0.6144
  374TMC3    C6 5649   4.518   3.394   9.403  0.0651 -0.2400  0.0565
  374TMC3     C 5650   4.503   3.181   9.763 -0.2729  0.7367 -0.3082
  374TMC3     O 5651   4.580   3.222   9.852 -0.7967  0.2900  0.3847
  374TMC3     H 5652   4.682   3.339   9.687  1.7151 -0.5876 -0.4160
  374TMC3    H1 5653   4.306   3.183   9.564  0.6143 -0.1316  0.3413
  374TMC3    H2 5654   4.522   3.446   9.308  0.7437 -1.9711 -0.8606
  374TMC3    C7 5655   4.333   3.264   9.310  0.7426  0.4877 -0.0956
  374TMC3    C8 5656   4.692   3.529   9.483 -0.3344  0.0997  0.0946
  374TMC3    O1 5657   4.351   3.321   9.198  0.3709 -0.3358 -0.1234
  374TMC3    O2 5658   4.670   3.603   9.390  0.3716  0.6752 -0.5124
  375MPD2     C 5659   3.923   4.036  17.001 -0.0806 -1.2292  0.2253
  375MPD2    C1 5660   3.826   3.975  16.928  0.9903 -0.2846 -0.3401
  375MPD2    C2 5661   3.857   3.873  16.844  0.1339 -0.0959 -0.6944
  375MPD2    C3 5662   3.992   3.836  16.827  0.5940 -0.9732  0.2200
  375MPD2    C4 5663   4.088   3.899  16.902 -0.0632  0.1520 -0.3494
  375MPD2    C5 5664   4.056   3.997  16.991  0.6223 -0.1863  1.1741
  375MPD2     H 5665   3.776   3.837  16.782 -0.3641  2.5423 -1.6010
  375MPD2    H1 5666   4.193   3.869  16.897  0.1514  1.0281 -1.0375
  375MPD2    H2 5667   3.899   4.114  17.072 -1.0317  0.4912 -1.9634
  375MPD2    H3 5668   4.132   4.045  17.050  1.6879  0.9225 -1.1103
  375MPD2     N 5669   4.037   3.746  16.726 -0.1024  0.8626 -0.1638
  375MPD2    H5 5670   4.130   3.706  16.734 -0.7050 -1.0289 -2.6865
  375MPD2    N1 5671   3.693   4.023  16.921 -0.3300 -0.0835  0.0743
  375MPD2    H7 5672   3.625   3.968  16.869  1.6417 -0.8234 -1.7097
  376TMC3    C1 5673   4.034   3.590  16.548  0.2628  0.1032 -0.5931
  376TMC3    C2 5674   4.161   3.555  16.573 -0.2407  0.3500  0.3339
  376TMC3    C3 5675   4.201   3.431  16.531  0.1812  0.1591 -0.2784
  376TMC3    C4 5676   3.953   3.517  16.456 -0.2913 -0.3105  0.6025
  376TMC3    C5 5677   4.004   3.407  16.398  0.5962 -0.2965 -0.0417
  376TMC3    C6 5678   4.130   3.369  16.432  0.6328  0.2492  0.2128
  376TMC3     C 5679   3.962   3.695  16.620  0.0734  1.1176 -0.2229
  376TMC3     O 5680   3.856   3.736  16.576 -0.2040  0.4966  0.1881
  376TMC3     H 5681   4.235   3.608  16.633  0.4735 -2.0601  1.5958
  376TMC3    H1 5682   3.854   3.553  16.428  1.5892  2.6323 -2.1940
  376TMC3    H2 5683   4.179   3.293  16.372  0.5004  0.4842 -0.1926
  376TMC3    C7 5684   3.949   3.366  16.270 -0.1413  0.6121  0.0236
  376TMC3    C8 5685   4.345   3.398  16.542  0.8576  0.3399 -0.0046
  376TMC3    O1 5686   3.958   3.250  16.237 -0.2067 -0.3296 -0.3304
  376TMC3    O2 5687   4.416   3.490  16.579 -0.4183  0.6082 -0.3998
  377MPD2     C 5688   2.540   2.850  13.279  0.1435 -0.1549 -0.4285
  377MPD2    C1 5689   2.478   2.856  13.153  0.1826  0.1072 -0.0326
  377MPD2    C2 5690   2.385   2.753  13.132  0.5717 -0.2150 -0.0609
  377MPD2    C3 5691   2.358   2.647  13.221  0.1499 -1.0181  0.3929
  377MPD2    C4 5692   2.421   2.647  13.340  0.1302  0.9134  0.0788
  377MPD2    C5 5693   2.511   2.748  13.369 -0.9480  0.5106  0.2183
  377MPD2     H 5694   2.334   2.756  13.036  0.5068  0.3099 -0.0075
  377MPD2    H1 5695   2.396   2.579  13.420  0.7909 -1.5832 -1.8229
  377MPD2    H2 5696   2.610   2.923  13.319 -0.3893  0.2109 -0.1647
  377MPD2    H3 5697   2.555   2.750  13.468 -1.2623  1.1416  0.3411
  377MPD2     N 5698   2.279   2.538  13.177 -0.0683  0.3087 -0.7988
  377MPD2    H5 5699   2.257   2.465  13.243 -1.5873  1.6634  0.1845
  377MPD2    N1 5700   2.519   2.956  13.061  0.4326 -0.4612 -0.4431
  377MPD2    H7 5701   2.599   3.015  13.082 -0.4933  0.4629  0.4823
  378TMC3    C1 5702   2.508   3.253  12.693 -0.5496 -0.3003 -0.4495
  378TMC3    C2 5703   2.447   3.163  12.777 -0.5445 -0.1796  0.6314
  378TMC3    C3 5704   2.524   3.105  12.878  0.0851 -0.3034 -0.7596
  378TMC3    C4 5705   2.637   3.266  12.699 -0.1102  0.2219  0.0749
  378TMC3    C5 5706   2.718   3.196  12.795  0.2704  0.1543 -0.0358
  378TMC3    C6 5707   2.662   3.114  12.884  0.3759 -0.2338 -0.1162
  378TMC3     C 5708   2.436   3.296  12.572  0.4984  0.0504  0.4103
  378TMC3     O 5709   2.329   3.243  12.546  0.7103 -0.2762 -0.0979
  378TMC3     H 5710   2.340   3.150  12.776 -0.4762 -0.4793 -2.2731
  378TMC3    H1 5711   2.695   3.314  12.621 -1.1913 -0.3118 -1.0642
  378TMC3    H2 5712   2.724   3.051  12.947  0.0109  0.2432  0.7197
  378TMC3    C7 5713   2.859   3.210  12.777  0.5360 -0.2873  0.2411
  378TMC3    C8 5714   2.462   2.986  12.936 -0.0586  0.4712  0.3315
  378TMC3    O1 5715   2.894   3.259  12.672 -0.3184  0.0080  0.1550
  378TMC3    O2 5716   2.356   2.943  12.890 -0.2864 -0.2554  0.6042
  379MPD2     C 5717   2.969   1.169  16.203  0.4881  0.9458 -0.1872
  379MPD2    C1 5718   2.844   1.141  16.247 -1.0361 -0.2382 -0.1783
  379MPD2    C2 5719   2.827   1.064  16.360  0.3521  0.0050 -0.2803
  379MPD2    C3 5720   2.931   1.028  16.439 -0.0660 -0.2734  0.1908
  379MPD2    C4 5721   3.055   1.062  16.394 -0.2848  0.3204  0.5786
  379MPD2    C5 5722   3.075   1.129  16.281 -0.2730  0.2375  0.0971
  379MPD2     H 5723   2.732   1.018  16.384  0.2438 -1.5967 -3.7441
  379MPD2    H1 5724   3.143   1.031  16.449  1.0978  1.6159 -0.9154
  379MPD2    H2 5725   3.007   1.227  16.119  1.9237  0.0901 -0.1273
  379MPD2    H3 5726   3.177   1.136  16.243 -0.3024 -2.1831 -0.4396
  379MPD2     N 5727   2.921   0.932  16.555  0.4543 -0.0311  0.8544
  379MPD2    H5 5728   3.005   0.897  16.600 -0.4763 -1.4802  1.4792
  379MPD2    N1 5729   2.739   1.170  16.156 -0.1174 -0.1306 -0.1456
  379MPD2    H7 5730   2.765   1.214  16.069  0.6148  0.0545  0.1681
  380TMC3    C1 5731   2.527   1.182  16.081  0.2258 -0.1698 -1.2236
  380TMC3    C2 5732   2.559   1.125  15.959  0.5389 -0.0099 -0.3007
  380TMC3    C3 5733   2.478   1.146  15.856  0.1461 -0.1436  0.2411
  380TMC3    C4 5734   2.406   1.248  16.098 -0.3535 -0.2004 -0.7698
  380TMC3    C5 5735   2.321   1.256  15.993  0.2539 -0.1895 -0.3249
  380TMC3    C6 5736   2.360   1.214  15.870 -0.5339  0.2130 -0.2060
  380TMC3     C 5737   2.612   1.172  16.197 -1.4520 -0.1949 -0.2699
  380TMC3     O 5738   2.569   1.208  16.308  0.0627 -0.1021  0.5898
  380TMC3     H 5739   2.654   1.074  15.953 -0.0794 -1.1739 -0.2063
  380TMC3    H1 5740   2.393   1.313  16.184 -1.0160  0.9730 -1.7550
  380TMC3    H2 5741   2.306   1.228  15.777  0.4473 -1.2721 -0.9960
  380TMC3    C7 5742   2.260   1.382  15.972 -0.4717  0.2391  0.1581
  380TMC3    C8 5743   2.541   1.159  15.730 -0.9384 -0.3469 -0.0552
  380TMC3    O1 5744   2.342   1.471  15.972 -0.1028 -0.0660 -0.4751
  380TMC3    O2 5745   2.527   1.264  15.676  0.1084 -0.5054  0.1048
  381TMC3    C1 5746   2.248   2.353  16.363  0.5279 -0.6549  0.1355
  381TMC3    C2 5747   2.329   2.463  16.334  0.1070  0.5555  0.9640
  381TMC3    C3 5748   2.319   2.574  16.405 -0.2267  0.1454  0.2867
  381TMC3    C4 5749   2.160   2.357  16.469  0.1540  0.8676 -0.6892
  381TMC3    C5 5750   2.153   2.479  16.542  0.3162 -0.4824  0.6318
  381TMC3    C6 5751   2.235   2.590  16.515 -0.3052 -0.3769 -0.2957
  381TMC3     C 5752   2.253   2.215  16.305 -0.1397 -1.1587  0.0325
  381TMC3     O 5753   2.212   2.123  16.379  0.5536 -0.2571  0.5007
  381TMC3     H 5754   2.405   2.461  16.256 -1.6761  0.1497 -0.7780
  381TMC3    H1 5755   2.104   2.272  16.505  2.3791 -0.3168 -0.0504
  381TMC3    H2 5756   2.236   2.671  16.586 -1.3139 -0.0292 -0.6783
  381TMC3    C7 5757   2.109   2.456  16.682 -0.0526 -0.5911 -0.5411
  381TMC3    C8 5758   2.414   2.682  16.367  0.1564 -0.1118 -0.4151
  381TMC3    O1 5759   2.148   2.348  16.721 -0.4325  0.2041 -0.5201
  381TMC3    O2 5760   2.477   2.682  16.263  0.6099 -0.4334  0.3256
  382MPD2     C 5761   1.728   0.504  16.696 -0.0496  0.5831  0.0261
  382MPD2    C1 5762   1.674   0.511  16.826  0.0408  0.6312  0.4314
  382MPD2    C2 5763   1.662   0.393  16.893 -0.0544 -1.1107  0.5589
  382MPD2    C3 5764   1.689   0.273  16.837  0.2022 -0.6421  0.7292
  382MPD2    C4 5765   1.747   0.272  16.707  0.2760 -0.0485  0.4066
  382MPD2    C5 5766   1.769   0.382  16.644  0.3463 -0.2538  0.7396
  382MPD2     H 5767   1.621   0.407  16.992 -0.2625 -0.8911  0.4404
  382MPD2    H1 5768   1.762   0.179  16.654 -0.4862  0.2063 -0.2698
  382MPD2    H2 5769   1.740   0.593  16.636  0.2502  0.1136 -0.6105
  382MPD2    H3 5770   1.802   0.391  16.541  2.0689  0.5030  1.3522
  382MPD2     N 5771   1.655   0.150  16.893 -0.6199 -0.8903 -0.0704
  382MPD2    H5 5772   1.665   0.064  16.840  1.7823 -2.1877  2.4700
  382MPD2    N1 5773   1.598   0.622  16.873  0.6622 -0.2493  0.1031
  382MPD2    H7 5774   1.541   0.618  16.956 -1.4185 -1.0234 -1.3700
  383TMC3    C1 5775   1.606   0.005  17.051  0.7277 -0.3955 -0.3826
  383TMC3    C2 5776   1.528   4.651  16.987  0.4802  0.1542  0.1796
  383TMC3    C3 5777   1.505   4.533  17.049 -0.0116 -0.2254  0.7085
  383TMC3    C4 5778   1.665   4.710  17.170 -0.3197  0.2329  0.1154
  383TMC3    C5 5779   1.638   4.587  17.231 -0.2692 -0.0325 -0.2605
  383TMC3    C6 5780   1.557   4.494  17.169 -0.4679  0.2513  0.6589
  383TMC3     C 5781   1.608   0.140  17.019 -0.4859 -0.3169  0.4218
  383TMC3     O 5782   1.607   0.218  17.113 -0.1383 -0.0870 -0.1817
  383TMC3     H 5783   1.484   4.678  16.891  1.5459  0.1220 -0.3247
  383TMC3    H1 5784   1.746   0.038  17.203 -0.1705 -0.1152  0.4276
  383TMC3    H2 5785   1.529   4.400  17.215 -0.9462  0.3432  0.5466
  383TMC3    C7 5786   1.665   4.573  17.372  0.9952  0.7955 -0.0322
  383TMC3    C8 5787   1.413   4.444  16.986  0.2678 -0.0068 -0.0211
  383TMC3    O1 5788   1.686   4.455  17.404 -0.3846 -0.2779 -0.9561
  383TMC3    O2 5789   1.329   4.496  16.911  0.6998  0.5236  0.6127
  384MPD2     C 5790   3.009   1.336  12.004  0.6985 -0.4797  0.1864
  384MPD2    C1 5791   3.114   1.347  12.092 -0.1107 -0.9597 -0.5610
  384MPD2    C2 5792   3.238   1.397  12.048  0.9225  0.3405 -1.3947
  384MPD2    C3 5793   3.259   1.429  11.917 -0.1086  0.3243 -0.2615
  384MPD2    C4 5794   3.158   1.402  11.828  0.3506  0.3286  0.3966
  384MPD2    C5 5795   3.039   1.357  11.870 -0.1432 -0.2189 -0.0174
  384MPD2     H 5796   3.315   1.409  12.123  0.8330 -1.1962 -1.0546
  384MPD2    H1 5797   3.157   1.422  11.721 -0.0334  0.3163  0.3984
  384MPD2    H2 5798   2.914   1.292  12.031 -0.0657  1.5334  0.8504
  384MPD2    H3 5799   2.968   1.340  11.790  0.2044 -0.1448 -0.3445
  384MPD2     N 5800   3.383   1.478  11.880  0.0711 -0.2146  0.2337
  384MPD2    H5 5801   3.452   1.493  11.953  0.2580  0.1945 -0.0272
  384MPD2    N1 5802   3.086   1.313  12.226 -0.8336 -1.0009 -0.1350
  384MPD2    H7 5803   2.992   1.278  12.246 -1.1381 -0.4754 -0.6572
  385TMC3    C1 5804   3.583   1.514  11.770  0.1869 -0.1977  0.0042
  385TMC3    C2 5805   3.659   1.402  11.740  0.1365 -0.1971  0.7233
  385TMC3    C3 5806   3.752   1.373  11.829  0.3919 -0.0617  0.6975
  385TMC3    C4 5807   3.615   1.597  11.872 -0.6022 -0.2160 -0.8871
  385TMC3    C5 5808   3.710   1.561  11.969  0.2739 -0.1540 -0.5912
  385TMC3    C6 5809   3.784   1.451  11.937  0.2952 -0.7143 -0.0579
  385TMC3     C 5810   3.436   1.489  11.755 -1.2437  0.9904 -0.4128
  385TMC3     O 5811   3.395   1.455  11.646 -0.3467  0.2067  0.3030
  385TMC3     H 5812   3.609   1.333  11.673 -0.5002 -0.2147  1.2147
  385TMC3    H1 5813   3.561   1.690  11.882 -0.2783 -0.1850  0.5387
  385TMC3    H2 5814   3.861   1.407  11.998  1.4471 -0.7328 -1.5271
  385TMC3    C7 5815   3.649   1.562  12.093  0.8606 -0.0194 -0.4471
  385TMC3    C8 5816   3.806   1.232  11.828  0.0917  0.4117 -0.3358
  385TMC3    O1 5817   3.530   1.572  12.104 -0.0610 -0.7029 -0.4048
  385TMC3    O2 5818   3.815   1.188  11.941 -0.0739  0.1645  0.3808
  386TMC3    C1 5819   4.117   3.592  12.327 -0.7022  0.3554 -0.0580
  386TMC3    C2 5820   4.120   3.693  12.238 -0.4471 -0.0919  0.3668
  386TMC3    C3 5821   4.018   3.781  12.230  0.1729 -0.3133 -0.3500
  386TMC3    C4 5822   4.012   3.583  12.416 -0.4130 -0.5909 -0.5181
  386TMC3    C5 5823   3.911   3.680  12.406 -0.0611  0.3872 -0.0424
  386TMC3    C6 5824   3.909   3.772  12.311  0.4522 -0.2190 -0.1017
  386TMC3     C 5825   4.200   3.484  12.291  0.6525 -0.4420 -0.2031
  386TMC3     O 5826   4.291   3.507  12.209  0.0050  0.9806  0.1397
  386TMC3     H 5827   4.193   3.701  12.158 -0.2180 -0.4095  0.5432
  386TMC3    H1 5828   4.012   3.505  12.490 -2.7815 -0.0377  0.0370
  386TMC3    H2 5829   3.834   3.850  12.315  0.4984 -0.1882  0.1359
  386TMC3    C7 5830   3.783   3.660  12.465  0.7781  1.1038 -0.0143
  386TMC3    C8 5831   3.988   3.858  12.105 -0.0095 -0.7521 -0.0451
  386TMC3    O1 5832   3.764   3.667  12.586  0.3878  0.5912  0.2225
  386TMC3    O2 5833   3.890   3.933  12.109  0.4075 -0.1111 -0.2257
  387MPD2     C 5834   1.771   4.008   9.754  0.1611 -0.4872  0.0127
  387MPD2    C1 5835   1.863   3.937   9.822 -0.2615 -0.2241  0.7431
  387MPD2    C2 5836   1.863   3.801   9.816 -0.0621 -0.6825 -0.3159
  387MPD2    C3 5837   1.763   3.732   9.753  0.0623 -0.1198  0.0407
  387MPD2    C4 5838   1.662   3.807   9.686 -0.1441 -0.1890 -0.5191
  387MPD2    C5 5839   1.674   3.949   9.686 -0.0474  0.6526 -0.0341
  387MPD2     H 5840   1.941   3.745   9.866 -0.2525  1.1182  1.9834
  387MPD2    H1 5841   1.587   3.762   9.623  0.4387 -0.8778 -0.7103
  387MPD2    H2 5842   1.785   4.115   9.760 -1.1374 -0.2830 -0.6175
  387MPD2    H3 5843   1.601   4.012   9.636 -1.5469 -1.2227 -0.2210
  387MPD2     N 5844   1.763   3.593   9.770  0.4921  0.0779  0.0822
  387MPD2    H5 5845   1.841   3.542   9.809 -0.6493 -1.4691  0.3157
  387MPD2    N1 5846   1.964   3.995   9.899 -0.0007  0.1738 -0.0074
  387MPD2    H7 5847   2.029   3.929   9.940  0.8734  1.9608  1.5305
  388TMC3    C1 5848   2.101   4.139  10.014  0.1901  0.0035  0.5370
  388TMC3    C2 5849   2.094   4.227  10.112 -0.2607  0.3998  0.6200
  388TMC3    C3 5850   2.162   4.201  10.229 -0.2949 -0.2699  0.0443
  388TMC3    C4 5851   2.193   4.034  10.018  0.1287  0.0085 -0.4627
  388TMC3    C5 5852   2.259   4.006  10.135 -0.9019 -0.4092  0.4314
  388TMC3    C6 5853   2.232   4.085  10.244  0.3699 -0.5668  0.5847
  388TMC3     C 5854   1.985   4.120   9.940 -0.2208 -0.0179 -0.3190
  388TMC3     O 5855   1.913   4.217   9.935 -0.1197  0.2631  0.4210
  388TMC3     H 5856   2.024   4.310  10.109 -0.1230  0.5219  0.7334
  388TMC3    H1 5857   2.212   3.964   9.937 -0.2297 -0.5027 -0.1050
  388TMC3    H2 5858   2.271   4.054  10.340  1.7995 -1.6989 -0.3715
  388TMC3    C7 5859   2.300   3.869  10.177  0.5657 -0.0907  0.0881
  388TMC3    C8 5860   2.134   4.290  10.343 -0.5161  0.8064  0.2601
  388TMC3    O1 5861   2.366   3.855  10.277 -0.7223 -0.3886  0.5603
  388TMC3    O2 5862   2.177   4.261  10.455  0.4920 -0.2175  0.4000
  389MPD2     C 5863   0.658   2.139  10.941  0.4429 -0.5063 -0.6778
  389MPD2    C1 5864   0.599   2.035  10.873 -0.6563 -0.7001 -0.3091
  389MPD2    C2 5865   0.540   1.924  10.941  0.2978 -0.1077 -0.0872
  389MPD2    C3 5866   0.550   1.921  11.078  0.5661 -0.5526  0.0875
  389MPD2    C4 5867   0.625   2.022  11.143  0.2053 -0.0542  0.9303
  389MPD2    C5 5868   0.679   2.129  11.072  0.2596 -0.2590 -0.2271
  389MPD2     H 5869   0.502   1.841  10.882  0.5012 -1.6209  1.9183
  389MPD2    H1 5870   0.657   2.008  11.245  1.3606 -0.1598  0.5533
  389MPD2    H2 5871   0.691   2.224  10.883 -1.0216 -0.3741 -1.3258
  389MPD2    H3 5872   0.738   2.204  11.123 -1.2029  0.5819  0.2441
  389MPD2     N 5873   0.500   1.818  11.157 -0.0465  1.1563 -0.3660
  389MPD2    H5 5874   0.513   1.818  11.257  2.2156 -0.9537 -0.6707
  389MPD2    N1 5875   0.580   2.069  10.730  0.2402 -0.8209  0.0224
  389MPD2    H7 5876   0.626   2.156  10.703 -1.7577 -0.9050 -3.6690
  390TMC3    C1 5877   0.381   1.643  11.227  0.2388 -0.7734  0.5283
  390TMC3    C2 5878   0.377   1.508  11.246  0.4974 -0.3348  0.5880
  390TMC3    C3 5879   0.345   1.463  11.368 -0.0300  0.1358  0.2686
  390TMC3    C4 5880   0.337   1.726  11.328 -0.1920 -0.1189  0.2125
  390TMC3    C5 5881   0.292   1.674  11.448  0.0919 -0.3225 -0.2458
  390TMC3    C6 5882   0.313   1.545  11.475  0.4379  0.4874  0.5008
  390TMC3     C 5883   0.431   1.706  11.114 -0.3301 -0.4564 -0.1209
  390TMC3     O 5884   0.411   1.668  11.001  0.3100 -0.1012  0.7078
  390TMC3     H 5885   0.403   1.439  11.166  0.4374 -0.9200  1.0726
  390TMC3    H1 5886   0.322   1.832  11.312  0.8398 -0.1881 -1.0990
  390TMC3    H2 5887   0.297   1.511  11.576  0.8818  0.8475  0.6918
  390TMC3    C7 5888   0.153   1.714  11.476 -0.3442  0.0624 -0.7467
  390TMC3    C8 5889   0.272   1.336  11.352  0.0994 -0.3317  0.8878
  390TMC3    O1 5890   0.106   1.809  11.417  0.2080  0.3644  0.0448
  390TMC3    O2 5891   0.228   1.306  11.244  0.0677 -0.0403 -0.4363
  391MPD2     C 5892   0.673   3.365  10.863  0.1781  0.1450 -0.3716
  391MPD2    C1 5893   0.777   3.447  10.823 -0.2147 -0.1976 -0.2538
  391MPD2    C2 5894   0.773   3.500  10.697 -0.1437 -0.2048  0.2680
  391MPD2    C3 5895   0.662   3.475  10.620 -0.3254  0.6553  0.1409
  391MPD2    C4 5896   0.556   3.404  10.662 -0.6395 -0.0642 -0.2891
  391MPD2    C5 5897   0.562   3.341  10.785 -0.0161 -0.0614  0.0690
  391MPD2     H 5898   0.854   3.556  10.652  1.6536 -2.5989  0.5438
  391MPD2    H1 5899   0.469   3.376  10.605 -0.7771  0.8650 -0.5362
  391MPD2    H2 5900   0.681   3.308  10.955  0.8472 -0.6986 -0.9604
  391MPD2    H3 5901   0.485   3.270  10.814 -2.1082  1.8250 -0.8434
  391MPD2     N 5902   0.665   3.518  10.492  0.6296  0.3411 -0.1290
  391MPD2    H5 5903   0.753   3.560  10.464  0.7504 -0.1518 -0.4985
  391MPD2    N1 5904   0.870   3.487  10.927 -0.0496 -0.8410  0.3774
  391MPD2    H7 5905   0.866   3.451  11.022  1.4814 -1.3443  0.2408
  392TMC3    C1 5906   0.571   3.567  10.279  0.4647  0.5388  0.3510
  392TMC3    C2 5907   0.486   3.553  10.175 -0.2396  0.4482  0.3179
  392TMC3    C3 5908   0.480   3.643  10.077  0.2528 -0.0438  0.4880
  392TMC3    C4 5909   0.667   3.658  10.269  0.4906  0.5625  0.0067
  392TMC3    C5 5910   0.671   3.747  10.170  0.0480 -0.3566 -0.0727
  392TMC3    C6 5911   0.572   3.747  10.070 -0.1166  0.3710  0.1643
  392TMC3     C 5912   0.559   3.494  10.399  0.0256  0.2908 -0.1168
  392TMC3     O 5913   0.456   3.431  10.394  0.1917  0.0788 -0.0398
  392TMC3     H 5914   0.414   3.472  10.174 -1.0939  1.2270 -1.8004
  392TMC3    H1 5915   0.747   3.663  10.342 -0.0965  0.1167  0.6903
  392TMC3    H2 5916   0.574   3.813   9.984  2.4006 -0.9845 -0.8309
  392TMC3    C7 5917   0.769   3.855  10.171 -0.1149  0.4906 -0.4083
  392TMC3    C8 5918   0.393   3.616   9.966  0.2310 -0.4029 -0.6069
  392TMC3    O1 5919   0.842   3.864  10.268 -0.0284 -0.0006  0.3404
  392TMC3    O2 5920   0.339   3.501   9.974 -0.0758 -0.3632 -0.1833
  393TMC3    C1 5921   3.920   1.564  10.457 -0.2283  0.2545 -0.3583
  393TMC3    C2 5922   3.805   1.519  10.516 -0.0123 -0.6288  0.2571
  393TMC3    C3 5923   3.800   1.396  10.568  0.1888  0.8184 -0.8357
  393TMC3    C4 5924   4.025   1.480  10.450  0.1528  0.4574  0.1518
  393TMC3    C5 5925   4.007   1.348  10.487 -0.1990  0.1710 -0.4179
  393TMC3    C6 5926   3.896   1.307  10.553 -0.1530  0.4345  0.8382
  393TMC3     C 5927   3.901   1.670  10.354  0.2214 -0.1459  0.1440
  393TMC3     O 5928   3.787   1.696  10.310 -0.1269 -0.3984 -0.0107
  393TMC3     H 5929   3.715   1.581  10.512 -0.5257 -1.4001 -0.1604
  393TMC3    H1 5930   4.111   1.509  10.390  1.1201  0.3115  1.4567
  393TMC3    H2 5931   3.896   1.204  10.585  0.8365 -0.2294 -1.3232
  393TMC3    C7 5932   4.102   1.243  10.461 -0.1808 -0.7001 -0.4399
  393TMC3    C8 5933   3.679   1.349  10.622 -0.1291 -0.0650 -0.5718
  393TMC3    O1 5934   4.074   1.123  10.454 -0.2262 -0.2580 -0.0694
  393TMC3    O2 5935   3.642   1.234  10.613 -0.3923 -0.5405 -0.7710
  394TMC3    C1 5936   0.525   2.045  10.510  0.4824 -0.2335  0.2053
  394TMC3    C2 5937   0.410   2.050  10.429  0.0648 -0.0602 -0.1946
  394TMC3    C3 5938   0.414   2.117  10.310 -0.1018 -0.0781  0.2919
  394TMC3    C4 5939   0.635   2.116  10.478  0.4534  0.3924 -0.0795
  394TMC3    C5 5940   0.627   2.189  10.362 -0.6140  1.1910  0.0334
  394TMC3    C6 5941   0.518   2.193  10.279  0.0609 -0.1852  0.1725
  394TMC3     C 5942   0.508   1.991  10.649 -0.6134 -0.0497 -0.0790
  394TMC3     O 5943   0.432   1.894  10.665  0.1674 -0.3150  0.0540
  394TMC3     H 5944   0.326   1.986  10.453  0.0363  0.2706  0.6040
  394TMC3    H1 5945   0.728   2.104  10.531  0.2708  2.5276  0.7432
  394TMC3    H2 5946   0.507   2.248  10.186 -1.2593  0.8305  0.9272
  394TMC3    C7 5947   0.745   2.255  10.313  0.4897 -0.3425  0.2722
  394TMC3    C8 5948   0.344   2.060  10.194 -0.4070 -1.2791  0.1232
  394TMC3    O1 5949   0.726   2.351  10.237 -0.7595 -0.6052  0.0566
  394TMC3    O2 5950   0.292   2.140  10.117 -0.1487  0.0302 -0.0666
  395TMC3    C1 5951   4.223   3.663  14.726  0.5718 -0.5599 -0.2105
  395TMC3    C2 5952   4.156   3.699  14.610 -0.5263 -0.5667  0.2705
  395TMC3    C3 5953   4.230   3.722  14.500  0.0457  0.1041  0.2559
  395TMC3    C4 5954   4.361   3.659  14.729 -0.3275  0.2889 -0.2288
  395TMC3    C5 5955   4.423   3.702  14.620  0.0453  0.3197  0.7863
  395TMC3    C6 5956   4.364   3.720  14.502  0.3901  0.3056  0.4116
  395TMC3     C 5957   4.153   3.637  14.849 -0.0012 -0.0556 -0.2216
  395TMC3     O 5958   4.221   3.647  14.951  0.0452 -0.4977 -0.1800
  395TMC3     H 5959   4.048   3.711  14.609 -0.4026  0.6697  1.0608
  395TMC3    H1 5960   4.414   3.616  14.814  1.6807  0.1740 -1.5234
  395TMC3    H2 5961   4.422   3.755  14.418 -0.8313  2.8839  0.6313
  395TMC3    C7 5962   4.550   3.756  14.651  0.0840 -0.1960  0.8349
  395TMC3    C8 5963   4.165   3.716  14.370  0.3073  0.2941 -0.6252
  395TMC3    O1 5964   4.578   3.775  14.773 -0.7887 -0.3814  0.5521
  395TMC3    O2 5965   4.048   3.717  14.363 -1.1579 -0.3157  0.3037
  396MPD2     C 5966   4.621   4.410  17.516  0.3002 -0.7534  0.5560
  396MPD2    C1 5967   0.015   4.425  17.459  0.7883 -0.1641  0.4662
  396MPD2    C2 5968   0.020   4.511  17.353  0.2431  0.0577  0.4023
  396MPD2    C3 5969   4.648   4.584  17.298 -0.3775  0.1855 -0.8598
  396MPD2    C4 5970   4.532   4.576  17.367 -0.2437  0.7979  0.0417
  396MPD2    C5 5971   4.520   4.499  17.477 -0.0828  0.3052 -0.0808
  396MPD2     H 5972   0.111   4.520  17.295  1.0624 -1.1714  1.4966
  396MPD2    H1 5973   4.448   4.633  17.327 -0.7688  1.2400  1.7796
  396MPD2    H2 5974   4.597   4.334  17.590 -1.4702 -0.4737  0.2638
  396MPD2    H3 5975   4.419   4.493  17.516  1.0801 -0.1141  2.9467
  396MPD2     N 5976   4.663   4.649  17.176 -0.3674  0.4050 -0.0278
  396MPD2    H5 5977   0.015   4.648  17.126  0.7576 -2.0849  2.0337
  396MPD2    N1 5978   0.134   4.341  17.499  0.2297  0.6776 -0.0345
  396MPD2    H7 5979   0.126   4.285  17.583  2.1252 -0.1506 -0.3943
  397TMC3    C1 5980   0.335   4.228  17.479  0.2167  0.4432  0.4957
  397TMC3    C2 5981   0.419   4.210  17.368 -0.4222 -0.2671 -0.4607
  397TMC3    C3 5982   0.377   4.117  17.277 -0.0473 -0.1372 -0.2764
  397TMC3    C4 5983   0.252   4.124  17.521 -0.4398  0.3467 -0.2864
  397TMC3    C5 5984   0.232   4.013  17.438  0.5923  0.7782 -0.2046
  397TMC3    C6 5985   0.293   4.014  17.316  0.5628  0.6875 -0.3124
  397TMC3     C 5986   0.255   4.342  17.437 -0.0515 -0.1239  0.0292
  397TMC3     O 5987   0.306   4.428  17.365  0.2809  0.5522  0.7578
  397TMC3     H 5988   0.486   4.289  17.337  1.3106 -1.6716 -0.3250
  397TMC3    H1 5989   0.204   4.137  17.617 -0.6253 -1.4181 -0.1454
  397TMC3    H2 5990   0.263   3.943  17.239  0.7775  0.4240 -0.1535
  397TMC3    C7 5991   0.133   3.910  17.475 -0.9162 -0.6183  0.0456
  397TMC3    C8 5992   0.363   4.146  17.140  0.1502  0.5006  1.0674
  397TMC3    O1 5993   0.111   3.822  17.392  0.3512 -0.1045  0.3433
  397TMC3    O2 5994   0.268   4.101  17.074 -0.0862  0.4757  0.4052
  398MPD2     C 5995   2.453   1.298   0.056 -0.0100 -0.8317 -0.4786
  398MPD2    C1 5996   2.544   1.230   0.134  0.2511 -0.7284  0.0340
  398MPD2    C2 5997   2.645   1.293   0.202  0.2333 -0.7316 -0.6298
  398MPD2    C3 5998   2.664   1.431   0.185  0.2745 -0.3589  0.3349
  398MPD2    C4 5999   2.577   1.494   0.096  0.1657  0.6081 -0.5610
  398MPD2    C5 6000   2.472   1.430   0.042 -0.0257 -0.1884 -0.0988
  398MPD2     H 6001   2.712   1.241   0.269 -1.6761  0.6207  2.3114
  398MPD2    H1 6002   2.584   1.601   0.081  0.0437  0.8056  0.7927
  398MPD2    H2 6003   2.364   1.256   0.012 -0.2807 -0.3822 -0.3557
  398MPD2    H3 6004   2.405   1.492  17.727 -0.1722 -0.4279 -0.1843
  398MPD2     N 6005   2.759   1.502   0.263 -0.2833  0.4131 -0.4393
  398MPD2    H5 6006   2.817   1.449   0.328 -0.4648  0.7436 -0.0008
  398MPD2    N1 6007   2.543   1.092   0.156  0.3418  0.5239  0.0117
  398MPD2    H7 6008   2.613   1.062   0.223  0.1934  2.8381  1.1701
  399TMC3    C1 6009   2.483   0.863   0.157 -0.3500  0.3195  0.0353
  399TMC3    C2 6010   2.538   0.849   0.279  0.3632  0.7577  0.1234
  399TMC3    C3 6011   2.579   0.725   0.299  0.3776 -0.3513  0.5061
  399TMC3    C4 6012   2.448   0.763   0.075 -0.0078  0.6288 -0.2030
  399TMC3    C5 6013   2.495   0.636   0.108  0.2268  0.3895 -0.0582
  399TMC3    C6 6014   2.563   0.618   0.221  0.8361 -1.0767  0.5401
  399TMC3     C 6015   2.461   0.994   0.100  0.3826 -0.2542  0.0656
  399TMC3     O 6016   2.360   1.004   0.035 -0.0944  0.0999  0.2595
  399TMC3     H 6017   2.546   0.934   0.346 -0.3940  1.2417 -0.4021
  399TMC3    H1 6018   2.404   0.779  17.721  1.1395 -1.4385 -1.0728
  399TMC3    H2 6019   2.585   0.519   0.261  0.3625 -1.0157  0.9486
  399TMC3    C7 6020   2.447   0.515   0.041  0.2416 -0.3366 -0.3307
  399TMC3    C8 6021   2.683   0.719   0.398 -0.8557  0.0702 -0.0470
  399TMC3    O1 6022   2.341   0.529  17.726 -0.0445 -0.5691  0.1196
  399TMC3    O2 6023   2.680   0.807   0.484  0.3109  0.3371 -0.2696
  400TMC3    C1 6024   1.503   4.208  16.590 -0.2212 -0.1393 -0.0220
  400TMC3    C2 6025   1.373   4.174  16.558  0.3205  0.1818 -0.5294
  400TMC3    C3 6026   1.271   4.268  16.565 -0.1844 -0.6723  0.2070
  400TMC3    C4 6027   1.538   4.341  16.606 -0.5777  0.2669  0.0885
  400TMC3    C5 6028   1.431   4.431  16.609 -1.2786 -0.3381  0.0786
  400TMC3    C6 6029   1.300   4.397  16.602  0.1289 -0.0197  0.4495
  400TMC3     C 6030   1.586   4.097  16.637  0.1299  0.1714 -0.3859
  400TMC3     O 6031   1.543   3.980  16.630 -0.1484  0.1074 -0.0766
  400TMC3     H 6032   1.354   4.068  16.543 -0.8852  0.3918 -0.4332
  400TMC3    H1 6033   1.635   4.388  16.619 -1.6058  1.6792  2.6846
  400TMC3    H2 6034   1.220   4.470  16.594 -0.6237 -1.1879 -3.1164
  400TMC3    C7 6035   1.460   4.568  16.586 -0.0426 -0.4207 -0.5048
  400TMC3    C8 6036   1.135   4.229  16.519  0.1325 -0.0463  0.0905
  400TMC3    O1 6037   1.561   4.604  16.539  0.2798  0.5839  0.1609
  400TMC3    O2 6038   1.057   4.319  16.497 -0.1160  0.2255 -0.3034
  401MPD2     C 6039   0.007   3.298   1.479 -0.5366  0.5766 -0.3616
  401MPD2    C1 6040   4.728   3.229   1.365  0.2738 -0.5649 -0.0103
  401MPD2    C2 6041   4.601   3.193   1.318  0.0502 -0.1656 -0.4069
  401MPD2    C3 6042   4.497   3.206   1.403 -0.5043 -0.8080  0.9330
  401MPD2    C4 6043   4.517   3.258   1.531  0.5462 -0.1804  0.2734
  401MPD2    C5 6044   4.641   3.311   1.563  0.1925 -0.2863 -0.9126
  401MPD2     H 6045   4.600   3.130   1.230  1.9200  1.2682 -1.4753
  401MPD2    H1 6046   4.440   3.261   1.606  1.8604  0.2928  1.6139
  401MPD2    H2 6047   0.101   3.327   1.525 -0.9551 -0.5118  1.1995
  401MPD2    H3 6048   4.659   3.364   1.655  0.3156 -0.2482 -0.9597
  401MPD2     N 6049   4.377   3.160   1.359 -0.3485  0.3200 -0.1168
  401MPD2    H5 6050   4.301   3.160   1.426 -0.3856 -1.0449 -0.1507
  401MPD2    N1 6051   0.100   3.182   1.294 -0.6508 -0.5887 -0.5922
  401MPD2    H7 6052   0.077   3.141   1.205  1.0583 -1.2017 -0.7525
  402TMC3    C1 6053   4.209   3.071   1.199 -0.3294 -0.0289 -0.0628
  402TMC3    C2 6054   4.189   2.962   1.276 -0.0827  0.0631  0.0974
  402TMC3    C3 6055   4.159   2.837   1.217 -0.0640 -0.6616  0.2019
  402TMC3    C4 6056   4.188   3.064   1.061 -0.5631 -0.4271 -0.4232
  402TMC3    C5 6057   4.149   2.943   1.008 -0.3993 -0.1568  0.4830
  402TMC3    C6 6058   4.139   2.827   1.079 -0.6385  0.5286 -0.4356
  402TMC3     C 6059   4.344   3.126   1.228  0.0233  0.0769  0.6153
  402TMC3     O 6060   4.412   3.142   1.126 -0.2152 -0.0271 -0.0548
  402TMC3     H 6061   4.222   2.971   1.379  1.7128  0.5245 -0.5180
  402TMC3    H1 6062   4.210   3.151   1.001  0.7380  0.0991  0.8108
  402TMC3    H2 6063   4.133   2.734   1.023  1.8912 -0.7176  1.4180
  402TMC3    C7 6064   4.154   2.922   0.864  0.3156 -0.4396  0.8258
  402TMC3    C8 6065   4.232   2.727   1.268 -0.0825 -0.0640 -0.1246
  402TMC3    O1 6066   4.219   3.013   0.810 -1.0192  0.4031  0.5244
  402TMC3    O2 6067   4.301   2.672   1.183 -0.1404 -0.5371 -0.0153
  403MPD2     C 6068   3.179   0.484  13.233 -0.0427 -0.5723  0.5354
  403MPD2    C1 6069   3.111   0.509  13.350  0.4780  0.0738 -0.7330
  403MPD2    C2 6070   3.171   0.479  13.467  0.0541  0.3064  0.1759
  403MPD2    C3 6071   3.305   0.436  13.471  0.5268 -0.0469  0.2176
  403MPD2    C4 6072   3.371   0.421  13.357 -0.0045  0.0232 -0.2659
  403MPD2    C5 6073   3.306   0.434  13.238 -0.2077  0.1243 -0.1402
  403MPD2     H 6074   3.125   0.501  13.563 -0.7407  0.1262 -0.1671
  403MPD2    H1 6075   3.470   0.376  13.355 -0.5837 -1.2891  0.4523
  403MPD2    H2 6076   3.126   0.490  13.138  1.3365  0.2848 -0.1804
  403MPD2    H3 6077   3.373   0.423  13.153  0.1409 -0.5080  0.2119
  403MPD2     N 6078   3.366   0.416  13.593 -0.0704 -0.0580 -0.6117
  403MPD2    H5 6079   3.337   0.475  13.671  0.6582 -0.1329 -0.2837
  403MPD2    N1 6080   2.980   0.562  13.342 -0.4433  0.2341 -0.2233
  403MPD2    H7 6081   2.954   0.587  13.247 -1.4171  1.4865  0.3773
  404TMC3    C1 6082   2.786   0.686  13.406  0.5723  0.1803 -0.2596
  404TMC3    C2 6083   2.666   0.669  13.475  0.1372  0.8179 -0.7499
  404TMC3    C3 6084   2.561   0.729  13.410 -0.3327 -0.0478 -0.0145
  404TMC3    C4 6085   2.798   0.747  13.285 -0.0849 -0.2289  0.0728
  404TMC3    C5 6086   2.694   0.799  13.229  0.0883  0.2977  0.2230
  404TMC3    C6 6087   2.570   0.787  13.287  0.6128  0.2091  0.1899
  404TMC3     C 6088   2.899   0.594  13.442 -0.2841  0.1880 -0.0257
  404TMC3     O 6089   2.889   0.546  13.554 -0.5547  0.4634  0.4828
  404TMC3     H 6090   2.665   0.636  13.579 -0.5478 -2.6399 -1.8606
  404TMC3    H1 6091   2.894   0.755  13.234 -1.0173 -0.3067 -1.6740
  404TMC3    H2 6092   2.487   0.852  13.261 -1.2197 -2.8814 -1.6305
  404TMC3    C7 6093   2.717   0.871  13.110  0.5886  0.8938  1.1050
  404TMC3    C8 6094   2.424   0.720  13.459  0.6739  0.9125  0.6364
  404TMC3    O1 6095   2.824   0.922  13.090  0.2998 -0.1895 -0.1324
  404TMC3    O2 6096   2.336   0.771  13.390  0.0183  0.5136  0.6753
  405MPD2     C 6097   3.154   1.984  15.029  0.2261 -0.3398  0.9794
  405MPD2    C1 6098   3.175   1.895  14.926 -0.5743 -0.1835 -0.4748
  405MPD2    C2 6099   3.096   1.891  14.814  0.2002  0.2636 -0.2234
  405MPD2    C3 6100   2.991   1.976  14.807  0.0907 -0.2928  0.2527
  405MPD2    C4 6101   2.976   2.079  14.908  0.7372 -0.3896  0.2200
  405MPD2    C5 6102   3.058   2.077  15.016 -0.0440  0.1697 -0.2230
  405MPD2     H 6103   3.108   1.820  14.734 -3.3017 -0.5279 -0.0350
  405MPD2    H1 6104   2.889   2.143  14.914  1.3263  0.3814  0.5652
  405MPD2    H2 6105   3.209   1.987  15.122 -0.2846  0.6509  1.2451
  405MPD2    H3 6106   3.044   2.147  15.097 -0.6614  1.3238 -1.3349
  405MPD2     N 6107   2.914   1.971  14.694  0.6642  0.1722  0.0764
  405MPD2    H5 6108   2.941   1.913  14.615 -3.0960 -3.0532  1.1548
  405MPD2    N1 6109   3.277   1.795  14.917 -0.9608  0.1154 -0.1357
  405MPD2    H7 6110   3.284   1.738  14.834 -0.1019  0.2701 -0.1775
  406TMC3    C1 6111   2.564   1.961  14.392  0.6770  0.0756 -0.5317
  406TMC3    C2 6112   2.604   1.837  14.350 -0.0492  0.0129  0.4520
  406TMC3    C3 6113   2.703   1.784  14.421 -0.1173  0.9476  0.5108
  406TMC3    C4 6114   2.617   2.024  14.501  0.0755  0.0719  0.2132
  406TMC3    C5 6115   2.715   1.955  14.572  0.1056  0.5219 -0.1094
  406TMC3    C6 6116   2.763   1.834  14.535  0.4950  0.5658  0.3439
  406TMC3     C 6117   2.431   2.015  14.356 -0.9682  0.0149 -0.0245
  406TMC3     O 6118   2.407   2.135  14.359  0.3537 -0.4431  0.4525
  406TMC3     H 6119   2.568   1.793  14.258 -0.4411  1.1592  0.0660
  406TMC3    H1 6120   2.585   2.126  14.523  0.2964  0.3728 -0.8733
  406TMC3    H2 6121   2.811   1.772  14.609  0.3326 -1.4241 -1.2156
  406TMC3    C7 6122   2.789   2.024  14.681 -1.0463  0.4602  0.6343
  406TMC3    C8 6123   2.755   1.655  14.378  0.7438  0.6312 -0.5575
  406TMC3    O1 6124   2.710   2.071  14.762  0.0441  0.1642  0.3166
  406TMC3    O2 6125   2.675   1.576  14.325  0.1679 -0.2283 -0.4676
  407MPD2     C 6126   1.100   3.647   9.606  0.1743  0.2084  0.1003
  407MPD2    C1 6127   1.235   3.643   9.615 -0.1874 -0.3977  0.0237
  407MPD2    C2 6128   1.300   3.707   9.715 -0.5289  0.5541  0.5783
  407MPD2    C3 6129   1.223   3.772   9.811 -0.5573  0.6949  0.6281
  407MPD2    C4 6130   1.094   3.797   9.788  1.2654 -0.5513 -0.1767
  407MPD2    C5 6131   1.028   3.734   9.684  0.4165 -0.4099  0.2911
  407MPD2     H 6132   1.406   3.699   9.733 -0.8594 -2.1989  1.2928
  407MPD2    H1 6133   1.049   3.869   9.855  3.3182  0.9610 -0.4251
  407MPD2    H2 6134   1.039   3.608   9.525 -0.7854  2.0196 -0.0506
  407MPD2    H3 6135   0.922   3.754   9.669  0.5794  1.6855  1.9171
  407MPD2     N 6136   1.290   3.840   9.913 -0.2046  0.1808  1.1925
  407MPD2    H5 6137   1.241   3.911   9.966 -0.7337  0.4633  0.3316
  407MPD2    N1 6138   1.321   3.569   9.532  0.1587  0.2350  0.4975
  407MPD2    H7 6139   1.420   3.570   9.554  0.4480 -0.7846 -0.7473
  408TMC3    C1 6140   1.407   3.473   9.350  0.3252  0.0420  0.1783
  408TMC3    C2 6141   1.464   3.352   9.341  0.1008  0.0377 -0.1030
  408TMC3    C3 6142   1.598   3.342   9.315  0.7198 -0.5498  0.0554
  408TMC3    C4 6143   1.471   3.594   9.322 -0.3152 -1.1504  0.3077
  408TMC3    C5 6144   1.605   3.583   9.302  0.2554  0.0440 -0.0992
  408TMC3    C6 6145   1.669   3.464   9.292  0.7404  0.4188 -0.2540
  408TMC3     C 6146   1.290   3.492   9.434 -0.3249  0.5008  0.3773
  408TMC3     O 6147   1.190   3.443   9.383  0.0389  0.1601 -0.2125
  408TMC3     H 6148   1.408   3.267   9.375 -1.5959  1.3264  0.3187
  408TMC3    H1 6149   1.423   3.691   9.316  2.0964 -0.0950 -1.9178
  408TMC3    H2 6150   1.774   3.471   9.266  0.8441  2.8127  0.7939
  408TMC3    C7 6151   1.694   3.692   9.338 -0.7144  0.4310 -0.4186
  408TMC3    C8 6152   1.656   3.222   9.367  0.7360 -0.0953 -0.6811
  408TMC3    O1 6153   1.800   3.664   9.384 -0.2966  0.8631  0.4305
  408TMC3    O2 6154   1.576   3.132   9.388  0.4282  0.7592  0.2770
  409MPD2     C 6155   0.244   3.522  16.889 -0.6991  0.3587  0.2538
  409MPD2    C1 6156   0.374   3.534  16.939 -0.6766  0.4593 -0.2332
  409MPD2    C2 6157   0.440   3.657  16.927  0.0422  0.1687  0.5896
  409MPD2    C3 6158   0.379   3.765  16.867  0.3615  0.0605  0.1249
  409MPD2    C4 6159   0.256   3.752  16.810 -0.0289 -0.0510 -1.5403
  409MPD2    C5 6160   0.185   3.628  16.824  0.0155 -0.1183  0.7427
  409MPD2     H 6161   0.546   3.660  16.950  0.4267 -0.5240 -1.1064
  409MPD2    H1 6162   0.203   3.827  16.753  0.0732  1.4156  0.2933
  409MPD2    H2 6163   0.197   3.426  16.873 -0.3619  0.2509 -0.0902
  409MPD2    H3 6164   0.091   3.618  16.771  0.8254 -3.0044 -0.1199
  409MPD2     N 6165   0.441   3.894  16.848  0.6921 -0.0119  0.0479
  409MPD2    H5 6166   0.380   3.955  16.795 -0.1068 -1.4840 -0.7254
  409MPD2    N1 6167   0.445   3.430  17.000 -0.1742 -0.2767 -0.3376
  409MPD2    H7 6168   0.540   3.446  17.033  0.3498 -0.1162 -1.9158
  410TMC3    C1 6169   0.617   4.062  16.836  0.0782 -0.4722  0.3339
  410TMC3    C2 6170   0.729   4.113  16.893  0.2213 -0.0722 -0.4392
  410TMC3    C3 6171   0.772   4.231  16.834  0.0699  0.5023  0.4854
  410TMC3    C4 6172   0.538   4.125  16.738 -0.3964  0.5613 -0.0690
  410TMC3    C5 6173   0.582   4.249  16.693 -0.9135  0.0099 -0.4342
  410TMC3    C6 6174   0.702   4.303  16.735  0.3241  0.4635 -0.3520
  410TMC3     C 6175   0.568   3.933  16.884  0.0509 -0.3096 -0.2661
  410TMC3     O 6176   0.648   3.876  16.965  0.2886 -0.3615 -0.3660
  410TMC3     H 6177   0.777   4.070  16.980  1.1931  0.8553 -0.5190
  410TMC3    H1 6178   0.454   4.072  16.693 -0.5673  0.0305  0.8693
  410TMC3    H2 6179   0.733   4.404  16.713 -1.7037  1.0885 -0.3755
  410TMC3    C7 6180   0.523   4.289  16.561  0.6554 -0.3896  0.2047
  410TMC3    C8 6181   0.912   4.257  16.849  0.4349  1.0216  0.7413
  410TMC3    O1 6182   0.417   4.228  16.524  0.4008 -0.1313 -0.3832
  410TMC3    O2 6183   0.951   4.373  16.847  0.5474  0.3331 -0.2412
  411MPD2     C 6184   0.389   4.640  14.689  0.2612  0.2731  0.5354
  411MPD2    C1 6185   0.255   4.635  14.710 -0.4166 -0.2770 -0.1683
  411MPD2    C2 6186   0.189   4.524  14.656  0.0565 -0.3492  0.5521
  411MPD2    C3 6187   0.263   4.435  14.570  0.1736  0.5465  0.0557
  411MPD2    C4 6188   0.397   4.446  14.554  0.0385 -0.2150  0.2109
  411MPD2    C5 6189   0.456   4.560  14.603  0.1708 -0.0008 -0.2866
  411MPD2     H 6190   0.081   4.527  14.651  0.0633  0.5346  0.9647
  411MPD2    H1 6191   0.441   4.377  14.482 -0.8733  0.9678 -1.4972
  411MPD2    H2 6192   0.439   4.723  14.737  0.4737  0.7620 -0.5307
  411MPD2    H3 6193   0.561   4.577  14.585  0.3318  0.6406  1.3449
  411MPD2     N 6194   0.206   4.337  14.496  0.1075 -0.0355 -0.0037
  411MPD2    H5 6195   0.255   4.316  14.410 -0.0972 -0.8427  0.0763
  411MPD2    N1 6196   0.180   4.726  14.799  0.1724  0.0003  0.2642
  411MPD2    H7 6197   0.079   4.725  14.791  0.3707 -0.1861 -2.3659
  412TMC3    C1 6198   0.030   4.223  14.381  0.2307  0.5130 -0.5424
  412TMC3    C2 6199   4.679   4.120  14.389 -0.2616  0.4300 -0.1007
  412TMC3    C3 6200   4.658   4.039  14.277 -0.2219 -0.2378  0.0293
  412TMC3    C4 6201   0.096   4.251  14.264  0.9350  0.5409  0.4401
  412TMC3    C5 6202   0.077   4.175  14.156  0.3482  0.7827 -0.3215
  412TMC3    C6 6203   4.723   4.074  14.159  0.4684 -0.2875 -0.2015
  412TMC3     C 6204   0.077   4.287  14.505 -0.4011  0.5152  0.7027
  412TMC3     O 6205   4.735   4.295  14.596 -0.1966 -0.4108  0.0453
  412TMC3     H 6206   4.649   4.085  14.487  3.8305 -1.3644  0.5172
  412TMC3    H1 6207   0.151   4.344  14.256 -1.1697  1.7870  0.3722
  412TMC3    H2 6208   4.722   4.004  14.076  2.0023  0.5600 -0.9350
  412TMC3    C7 6209   0.073   4.242  14.027 -1.0911 -0.2431  0.6348
  412TMC3    C8 6210   4.516   4.015  14.258  0.3104 -0.3026  0.1011
  412TMC3    O1 6211   4.712   4.204  13.966 -0.5889 -0.0005 -0.1561
  412TMC3    O2 6212   4.444   3.990  14.354  0.1786  0.0804 -0.1607
  413MPD2     C 6213   2.144   2.695  15.775 -0.7714  0.4954  0.2283
  413MPD2    C1 6214   2.096   2.665  15.655 -0.2459 -0.2612  0.3741
  413MPD2    C2 6215   2.180   2.617  15.554  0.1986  0.5119  0.1312
  413MPD2    C3 6216   2.316   2.608  15.576 -0.4919 -0.1715  0.4788
  413MPD2    C4 6217   2.366   2.639  15.702 -0.0033  0.5155  0.1810
  413MPD2    C5 6218   2.273   2.672  15.802  0.2444 -0.1424  0.6042
  413MPD2     H 6219   2.151   2.578  15.457  0.7535  1.1167 -0.2817
  413MPD2    H1 6220   2.466   2.624  15.739  0.2606  0.9654 -0.3390
  413MPD2    H2 6221   2.072   2.719  15.853 -0.9060 -0.3664  0.3683
  413MPD2    H3 6222   2.311   2.693  15.901 -0.8600 -0.7890  1.1685
  413MPD2     N 6223   2.394   2.568  15.465 -0.0799  0.6354  0.0910
  413MPD2    H5 6224   2.343   2.551  15.379  0.0935  1.2828 -0.1422
  413MPD2    N1 6225   1.959   2.658  15.638 -0.2817 -0.2511 -0.1696
  413MPD2    H7 6226   1.899   2.679  15.717 -1.1460  0.6772 -1.0702
  414TMC3    C1 6227   2.581   2.496  15.348  0.5786  0.4270 -1.1374
  414TMC3    C2 6228   2.667   2.396  15.360  0.2228 -0.0031 -0.1051
  414TMC3    C3 6229   2.695   2.325  15.246  0.3376 -0.2582  0.9789
  414TMC3    C4 6230   2.539   2.547  15.229  0.1909 -0.1286 -0.2045
  414TMC3    C5 6231   2.579   2.481  15.114 -0.3766  0.9774  1.1302
  414TMC3    C6 6232   2.652   2.369  15.120 -0.3303 -1.0367  0.8452
  414TMC3     C 6233   2.521   2.529  15.475 -0.1149  0.5804  0.0546
  414TMC3     O 6234   2.573   2.499  15.576 -0.0144 -0.8378  0.9229
  414TMC3     H 6235   2.701   2.361  15.457 -0.4771 -0.2149  0.0637
  414TMC3    H1 6236   2.484   2.641  15.232  1.0623  0.4236 -1.4627
  414TMC3    H2 6237   2.677   2.317  15.029  2.5640  1.5784  0.1510
  414TMC3    C7 6238   2.487   2.507  15.001 -0.3245  0.0261  0.1563
  414TMC3    C8 6239   2.767   2.199  15.253 -0.2921 -1.0188  0.0745
  414TMC3    O1 6240   2.380   2.562  15.031 -0.6467 -0.8607  0.2672
  414TMC3    O2 6241   2.776   2.137  15.147 -0.0533 -0.2429 -0.2238
  415TMC3    C1 6242   3.353   0.737  10.624  0.4336  0.0058  0.1238
  415TMC3    C2 6243   3.339   0.874  10.622  0.4218  0.3188 -0.2526
  415TMC3    C3 6244   3.378   0.945  10.504  0.0315  0.2117 -0.2221
  415TMC3    C4 6245   3.401   0.660  10.525  0.5216 -0.6807 -0.1820
  415TMC3    C5 6246   3.428   0.734  10.410 -0.0548 -0.3780  0.4426
  415TMC3    C6 6247   3.417   0.872  10.396  0.1911  0.1419 -0.5307
  415TMC3     C 6248   3.309   0.662  10.746  0.7908  0.2125 -0.5105
  415TMC3     O 6249   3.264   0.550  10.726 -0.0179 -0.5608  0.4771
  415TMC3     H 6250   3.300   0.923  10.710  0.4471  0.8714 -0.5482
  415TMC3    H1 6251   3.419   0.553  10.530  0.5459 -0.6708 -0.0393
  415TMC3    H2 6252   3.459   0.922  10.309 -2.7842  2.3579 -0.6740
  415TMC3    C7 6253   3.443   0.662  10.280  0.6312 -0.6814 -0.1973
  415TMC3    C8 6254   3.343   1.081  10.493  0.0778 -0.2450  0.2280
  415TMC3    O1 6255   3.485   0.725  10.182 -0.2459  0.3183 -0.4087
  415TMC3    O2 6256   3.255   1.126  10.566 -0.1401 -0.1458  0.0995
  416MPD2     C 6257   0.272   0.167  11.142 -0.1267 -0.4271  0.1417
  416MPD2    C1 6258   0.222   0.046  11.190 -0.3103  0.0688  1.1310
  416MPD2    C2 6259   0.294   4.661  11.180 -0.5330 -0.4545  0.4355
  416MPD2    C3 6260   0.419   4.659  11.135 -0.2629 -0.5351  0.2241
  416MPD2    C4 6261   0.471   0.048  11.080  0.2608 -0.4381  0.4320
  416MPD2    C5 6262   0.397   0.167  11.089 -0.5404  0.4951  0.1145
  416MPD2     H 6263   0.245   4.568  11.203 -1.7226  0.5159  1.8053
  416MPD2    H1 6264   0.558   0.047  11.016 -1.9187 -1.0521 -2.5312
  416MPD2    H2 6265   0.215   0.259  11.146  1.5963  0.6288  0.6232
  416MPD2    H3 6266   0.427   0.266  11.056 -0.4239 -0.6344 -3.2360
  416MPD2     N 6267   0.499   4.544  11.128  0.2098 -0.2421  0.5672
  416MPD2    H5 6268   0.577   4.565  11.067  0.2655  0.0320  0.7311
  416MPD2    N1 6269   0.089   0.044  11.224 -0.9777  0.0037  0.5372
  416MPD2    H7 6270   0.039   0.125  11.190 -0.3277  0.1522 -0.0643
  417TMC3    C1 6271   4.613   4.682  11.288 -0.0246 -0.5776  0.0795
  417TMC3    C2 6272   4.548   4.591  11.360 -1.3966 -0.0736 -0.0648
  417TMC3    C3 6273   4.410   4.596  11.354  0.0425  0.0655 -0.5363
  417TMC3    C4 6274   4.553   0.025  11.192  0.1732  0.4754  1.0702
  417TMC3    C5 6275   4.418   0.011  11.180  0.1925  0.6805  0.1543
  417TMC3    C6 6276   4.342   4.677  11.267 -0.0091  0.1170  0.2312
  417TMC3     C 6277   0.024   4.673  11.291 -0.2396  0.3959 -0.0984
  417TMC3     O 6278   0.081   4.598  11.366 -0.0646  0.0325 -0.2658
  417TMC3     H 6279   4.597   4.540  11.442  2.0631  1.5964 -1.0931
  417TMC3    H1 6280   4.609   0.071  11.111 -0.8207 -0.3020 -0.0589
  417TMC3    H2 6281   4.234   4.672  11.254 -0.0723 -0.1616  0.8219
  417TMC3    C7 6282   4.355   0.095  11.077  0.6352  0.1776  0.4301
  417TMC3    C8 6283   4.340   4.534  11.458  0.8980  0.1536  0.7992
  417TMC3    O1 6284   4.404   0.074  10.968  0.1032 -0.0585  0.3522
  417TMC3    O2 6285   4.236   4.588  11.494  0.1836  0.1286 -0.4365
  418TMC3    C1 6286   3.142   1.712   0.279  0.2757  0.1765  0.2975
  418TMC3    C2 6287   3.016   1.723   0.234  0.8588 -1.0968  0.1705
  418TMC3    C3 6288   2.915   1.666   0.306  0.1147  0.5916  0.1538
  418TMC3    C4 6289   3.180   1.649   0.397 -0.2110 -0.2127 -0.3407
  418TMC3    C5 6290   3.073   1.603   0.471 -1.0510  0.0048 -0.3328
  418TMC3    C6 6291   2.942   1.608   0.425  0.4756 -0.8170  0.0865
  418TMC3     C 6292   3.242   1.722   0.170  0.0911 -0.2214 -0.0834
  418TMC3     O 6293   3.226   1.816   0.094  0.0748  0.4305  0.4441
  418TMC3     H 6294   2.995   1.771   0.138  4.2905  0.5600  0.2183
  418TMC3    H1 6295   3.283   1.633   0.427 -0.2968  0.5464  0.3624
  418TMC3    H2 6296   2.867   1.568   0.493 -0.7329  1.2053 -0.0785
  418TMC3    C7 6297   3.097   1.525   0.592 -0.9741 -0.1085 -1.0515
  418TMC3    C8 6298   2.802   1.628   0.227  0.0517  0.8914 -0.6998
  418TMC3    O1 6299   3.034   1.425   0.611  0.4667  0.5865  0.2436
  418TMC3    O2 6300   2.768   1.701   0.131  0.1590  0.3544 -0.4341
  419MPD2     C 6301   1.367   4.411  12.397  0.0192  1.2602 -0.5403
  419MPD2    C1 6302   1.367   4.544  12.422 -1.0903  0.3535  0.3722
  419MPD2    C2 6303   1.399   4.587  12.552 -0.5892  0.1735 -0.7320
  419MPD2    C3 6304   1.438   4.498  12.646  0.2859 -0.2523  0.1792
  419MPD2    C4 6305   1.437   4.362  12.621 -0.3384  0.1832 -0.4164
  419MPD2    C5 6306   1.394   4.323  12.497  0.3911 -0.1695  0.1566
  419MPD2     H 6307   1.408   4.694  12.563  0.4617 -0.0157  0.2786
  419MPD2    H1 6308   1.474   4.295  12.698  0.5818 -0.1618 -1.1546
  419MPD2    H2 6309   1.339   4.373  12.299  0.2949  1.4321 -0.6853
  419MPD2    H3 6310   1.403   4.223  12.456  1.9795 -0.2386  0.6856
  419MPD2     N 6311   1.465   4.553  12.774 -0.0478 -0.5766 -0.1945
  419MPD2    H5 6312   1.450   4.653  12.776  2.5735 -0.2042  0.7400
  419MPD2    N1 6313   1.333   4.643  12.325 -0.1402 -0.1470  0.2813
  419MPD2    H7 6314   1.337   0.000  12.363 -0.6334  1.0688 -2.6954
  420TMC3    C1 6315   1.508   4.570  13.003 -0.4717 -0.3602 -0.4444
  420TMC3    C2 6316   1.428   4.670  13.009 -0.4725  0.7712  0.3344
  420TMC3    C3 6317   1.478   0.037  13.077 -0.9172  0.7373  0.1886
  420TMC3    C4 6318   1.622   4.555  13.075  0.1938  0.1012  0.4177
  420TMC3    C5 6319   1.657   4.656  13.163 -0.3884 -0.8621  0.2290
  420TMC3    C6 6320   1.585   0.036  13.165 -0.7534  0.6396  0.0531
  420TMC3     C 6321   1.493   4.481  12.892  0.2548 -0.1393 -0.0069
  420TMC3     O 6322   1.489   4.360  12.923 -0.2498  0.0700  0.1064
  420TMC3     H 6323   1.350   4.680  12.935  0.3714  1.3083 -0.4880
  420TMC3    H1 6324   1.683   4.465  13.077 -0.5807 -0.4101  0.8885
  420TMC3    H2 6325   1.588   0.119  13.235  0.0809  0.7641 -0.1308
  420TMC3    C7 6326   1.762   4.632  13.260 -0.2764 -0.4382 -0.1133
  420TMC3    C8 6327   1.403   0.159  13.064  0.1207  0.7315 -0.1862
  420TMC3    O1 6328   1.792   4.518  13.290  0.1616 -0.2573  0.4434
  420TMC3    O2 6329   1.284   0.146  13.031  0.3640 -0.3232 -0.3993
  421TMC3    C1 6330   3.542   0.360  13.743 -0.2828  0.2483  0.5103
  421TMC3    C2 6331   3.512   0.480  13.808 -0.1476  0.6575 -0.1530
  421TMC3    C3 6332   3.538   0.484  13.936 -0.2737 -0.3464 -0.0190
  421TMC3    C4 6333   3.611   0.258  13.802 -0.0386 -0.9888  0.0629
  421TMC3    C5 6334   3.636   0.270  13.936 -0.0561  0.0173 -0.2050
  421TMC3    C6 6335   3.595   0.381  14.000  0.2435  0.1386  0.7841
  421TMC3     C 6336   3.479   0.335  13.612  1.3886 -0.1056 -0.3662
  421TMC3     O 6337   3.519   0.242  13.546 -0.0877 -0.0644  0.1053
  421TMC3     H 6338   3.483   0.564  13.746 -1.0732  1.3275  1.1999
  421TMC3    H1 6339   3.644   0.173  13.744 -2.6438 -1.5878 -0.5603
  421TMC3    H2 6340   3.639   0.398  14.098 -0.4610  2.3027  0.7259
  421TMC3    C7 6341   3.769   0.232  13.982  0.5208 -0.4498 -0.5309
  421TMC3    C8 6342   3.573   0.611  14.003 -0.4214 -1.1810  0.2606
  421TMC3    O1 6343   3.844   0.323  14.018  0.3870 -0.4503 -0.1089
  421TMC3    O2 6344   3.669   0.609  14.075  0.0104 -0.4447 -0.3445
  422TMC3    C1 6345   1.039   2.941  12.111 -0.2840  0.0883 -0.4387
  422TMC3    C2 6346   1.014   3.001  12.233 -0.2293  0.2859 -0.7085
  422TMC3    C3 6347   0.885   2.999  12.286 -0.0902  0.7747  0.0722
  422TMC3    C4 6348   0.939   2.867  12.047  0.2214 -0.2586 -0.9231
  422TMC3    C5 6349   0.811   2.865  12.100  0.1024 -0.4735  0.0760
  422TMC3    C6 6350   0.775   2.932  12.217 -0.5056 -0.4555 -0.0790
  422TMC3     C 6351   1.175   2.893  12.094 -0.8000  0.1242  0.2690
  422TMC3     O 6352   1.243   2.894  12.195  0.3455 -0.3933 -0.5031
  422TMC3     H 6353   1.099   3.024  12.296  1.6197 -2.4639 -2.2479
  422TMC3    H1 6354   0.968   2.796  11.971 -0.6045 -2.2912  0.6546
  422TMC3    H2 6355   0.677   2.932  12.262  0.0915 -0.6105  1.2399
  422TMC3    C7 6356   0.704   2.806  12.032 -0.5340  0.0905 -0.0476
  422TMC3    C8 6357   0.863   3.046  12.419  0.0344  0.4938 -0.5949
  422TMC3    O1 6358   0.701   2.823  11.911  0.2893 -0.1031 -0.2659
  422TMC3    O2 6359   0.925   3.143  12.457  0.2473  0.2081  0.8341
  423MPD2     C 6360   1.954   3.570   0.423 -0.7128 -0.5018  0.2496
  423MPD2    C1 6361   2.004   3.439   0.457  0.1383 -0.8569  0.5297
  423MPD2    C2 6362   1.998   3.340   0.360  0.0254  0.5027 -0.0617
  423MPD2    C3 6363   1.957   3.373   0.231  0.1567  0.6286 -0.1480
  423MPD2    C4 6364   1.914   3.500   0.201 -0.3384  0.5069 -0.3586
  423MPD2    C5 6365   1.903   3.595   0.299 -0.4723 -0.1016  0.1141
  423MPD2     H 6366   2.019   3.240   0.398 -0.4667  0.8749  1.2022
  423MPD2    H1 6367   1.875   3.519   0.102 -3.2831 -2.5187  0.1816
  423MPD2    H2 6368   1.948   3.658   0.487 -1.3838 -0.1978 -0.2212
  423MPD2    H3 6369   1.891   3.699   0.272  1.3641 -0.2445 -1.2719
  423MPD2     N 6370   1.955   3.279   0.122  0.3759 -0.1079 -0.1067
  423MPD2    H5 6371   1.913   3.307   0.034  3.8918  1.4019 -1.2772
  423MPD2    N1 6372   2.056   3.412   0.588 -0.5460  1.1210 -0.3303
  423MPD2    H7 6373   2.104   3.323   0.601 -0.7267  0.9496 -0.8209
  424TMC3    C1 6374   2.090   3.439   0.817 -0.7484  0.0583 -0.2085
  424TMC3    C2 6375   2.214   3.380   0.823 -0.2265 -0.1191 -0.2326
  424TMC3    C3 6376   2.253   3.354   0.952  0.0796  1.1335  0.7360
  424TMC3    C4 6377   2.013   3.486   0.922  0.0359  0.5911  0.1410
  424TMC3    C5 6378   2.062   3.454   1.049 -0.4484 -0.1586 -0.7704
  424TMC3    C6 6379   2.184   3.395   1.062  0.1109  0.9429  0.4319
  424TMC3     C 6380   2.053   3.500   0.694  0.2842 -0.2368  0.2210
  424TMC3     O 6381   1.986   3.604   0.710  0.2150  0.1244  0.8866
  424TMC3     H 6382   2.266   3.344   0.735  0.9968 -0.3136  0.5641
  424TMC3    H1 6383   1.912   3.522   0.905 -0.4158 -0.4509  0.6359
  424TMC3    H2 6384   2.208   3.366   1.164 -0.8319 -2.5006 -0.3314
  424TMC3    C7 6385   1.973   3.457   1.166 -0.8390 -0.0918 -0.2134
  424TMC3    C8 6386   2.385   3.288   0.969 -0.3032 -0.3879 -0.1517
  424TMC3    O1 6387   2.025   3.477   1.274 -0.6077 -0.4772 -0.1541
  424TMC3    O2 6388   2.431   3.246   0.864 -0.1189  0.0117 -0.2636
  425MPD2     C 6389   1.194   2.704  17.164 -0.6973  0.5333 -0.6224
  425MPD2    C1 6390   1.145   2.583  17.216  0.6301 -0.1311  0.1534
  425MPD2    C2 6391   1.016   2.582  17.268  0.1175 -0.1849 -0.4077
  425MPD2    C3 6392   0.942   2.700  17.278 -0.3074 -0.0334  0.1438
  425MPD2    C4 6393   0.997   2.814  17.237  1.1436 -0.2977  0.5518
  425MPD2    C5 6394   1.124   2.818  17.184  0.0545 -0.2510 -0.3860
  425MPD2     H 6395   0.975   2.489  17.305  0.1733 -0.3713 -0.8080
  425MPD2    H1 6396   0.950   2.911  17.249 -0.8962 -1.2796  0.4412
  425MPD2    H2 6397   1.290   2.719  17.115 -0.0515 -1.2065  0.1174
  425MPD2    H3 6398   1.166   2.912  17.153  0.8442 -0.6375 -0.4827
  425MPD2     N 6399   0.811   2.700  17.339  0.4144 -0.5150  1.1374
  425MPD2    H5 6400   0.781   2.613  17.382  0.6160  1.0782  4.5203
  425MPD2    N1 6401   1.210   2.455  17.187 -0.5178 -0.0679 -0.1204
  425MPD2    H7 6402   1.160   2.368  17.201  1.9404 -1.8425 -2.1975
  426TMC3    C1 6403   1.346   2.309  17.071  0.2787 -0.7154  0.1320
  426TMC3    C2 6404   1.372   2.295  16.941 -0.3139  0.5516 -0.8729
  426TMC3    C3 6405   1.364   2.177  16.881  0.2206  0.3942 -0.9459
  426TMC3    C4 6406   1.323   2.209  17.152 -0.2451  0.0649 -0.0514
  426TMC3    C5 6407   1.324   2.084  17.094  0.2711 -0.3628  0.0139
  426TMC3    C6 6408   1.338   2.068  16.963  0.9058 -0.6553  0.1214
  426TMC3     C 6409   1.324   2.438  17.114  0.0798 -0.0081  0.4241
  426TMC3     O 6410   1.401   2.523  17.075 -0.3362  0.3673 -0.2444
  426TMC3     H 6411   1.392   2.378  16.874 -1.7793 -0.3868 -2.4675
  426TMC3    H1 6412   1.301   2.229  17.256 -0.6139 -1.2049  0.1210
  426TMC3    H2 6413   1.329   1.972  16.914 -0.4553 -0.2958 -0.3537
  426TMC3    C7 6414   1.296   1.967  17.171  0.5208 -0.5408 -0.8654
  426TMC3    C8 6415   1.396   2.155  16.739  0.1084  0.1746 -0.6387
  426TMC3    O1 6416   1.335   1.862  17.121  0.0746 -0.7206 -0.3561
  426TMC3    O2 6417   1.426   2.042  16.701 -0.1495  0.0589 -0.5675
  427MPD2     C 6418   4.219   4.432  14.765 -0.7819 -0.7929 -0.5241
  427MPD2    C1 6419   4.169   4.388  14.882  0.7932  0.6138  0.0767
  427MPD2    C2 6420   4.032   4.376  14.895 -0.3596 -0.6918 -0.5310
  427MPD2    C3 6421   3.948   4.433  14.798  0.6507 -0.0710 -0.0730
  427MPD2    C4 6422   4.001   4.493  14.682  0.0140 -0.4668  0.8293
  427MPD2    C5 6423   4.137   4.485  14.664  0.0273 -0.3091  0.4831
  427MPD2     H 6424   3.988   4.345  14.989  2.1990 -2.2949  0.1274
  427MPD2    H1 6425   3.934   4.542  14.612  1.5159  1.6671  0.8815
  427MPD2    H2 6426   4.321   4.401  14.747 -0.7914 -0.5498 -0.9936
  427MPD2    H3 6427   4.185   4.519  14.573 -1.0324 -0.1431 -0.0238
  427MPD2     N 6428   3.815   4.457  14.815  0.1077 -0.3542 -0.0382
  427MPD2    H5 6429   3.785   4.527  14.748 -0.3157 -0.6946 -0.2081
  427MPD2    N1 6430   4.251   4.335  14.981 -0.2526 -0.9589  0.4805
  427MPD2    H7 6431   4.201   4.289  15.057 -1.1456  0.1372  0.5720
  428TMC3    C1 6432   4.450   4.286  15.102 -0.6333  0.4584  0.8579
  428TMC3    C2 6433   4.393   4.190  15.181 -0.1031  0.1052 -0.8471
  428TMC3    C3 6434   4.460   4.133  15.283 -0.1181  0.0558 -0.6934
  428TMC3    C4 6435   4.581   4.315  15.125 -0.1897  0.2349 -0.1905
  428TMC3    C5 6436   4.646   4.250  15.226  0.1690  0.7283 -0.3020
  428TMC3    C6 6437   4.591   4.155  15.308  1.1654  0.4256 -0.0660
  428TMC3     C 6438   4.385   4.355  14.989 -0.1055 -0.5396 -0.2020
  428TMC3     O 6439   4.451   4.428  14.916 -0.1181  0.3553 -0.1437
  428TMC3     H 6440   4.291   4.156  15.165  0.1741 -0.8508 -0.5446
  428TMC3    H1 6441   4.621   4.395  15.065  1.2413 -2.8203 -3.2998
  428TMC3    H2 6442   4.644   4.098  15.384  0.6127 -1.4563 -1.1103
  428TMC3    C7 6443   0.047   4.285  15.260 -0.4327 -0.4639 -0.0053
  428TMC3    C8 6444   4.388   4.050  15.378  0.1451 -0.6395  0.5119
  428TMC3    O1 6445   0.107   4.228  15.349  0.1526  0.4134 -0.2056
  428TMC3    O2 6446   4.298   3.975  15.337  0.5551 -0.2533 -0.1232
  429MPD2     C 6447   0.821   4.595  17.702  0.1725  0.3985  0.8908
  429MPD2    C1 6448   0.916   4.560  17.610  0.2797  0.1825  0.5010
  429MPD2    C2 6449   0.987   4.653  17.533 -0.1743 -0.3539  0.6169
  429MPD2    C3 6450   0.943   0.045  17.541 -0.1520  0.3349  0.9866
  429MPD2    C4 6451   0.848   0.089  17.631  0.4988 -0.2382  0.3436
  429MPD2    C5 6452   0.789   4.731  17.710 -0.3003 -0.4497  0.0910
  429MPD2     H 6453   1.064   4.626  17.462  0.2930  0.5587  0.7765
  429MPD2    H1 6454   0.823   0.193  17.651  2.3844  0.6218 -1.8199
  429MPD2    H2 6455   0.775   4.526   0.028 -0.1386 -0.5405 -0.2478
  429MPD2    H3 6456   0.713   0.035   0.033  0.7664  0.1464  0.9318
  429MPD2     N 6457   0.992   0.132  17.437 -0.4958  0.6202  0.2400
  429MPD2    H5 6458   1.075   0.100  17.387  1.1897  1.7622  2.2923
  429MPD2    N1 6459   0.944   4.422  17.590 -0.2948 -0.3024  0.2274
  429MPD2    H7 6460   1.021   4.388  17.534  1.1595  0.3818  1.8240
  430TMC3    C1 6461   0.998   0.320  17.288 -0.0320  0.5892 -0.4229
  430TMC3    C2 6462   0.929   0.426  17.233  0.0781  0.0089  0.1457
  430TMC3    C3 6463   0.956   0.470  17.106  0.1713 -0.5616  0.3628
  430TMC3    C4 6464   1.102   0.260  17.220  0.6877 -0.0672  0.0201
  430TMC3    C5 6465   1.134   0.322  17.101 -0.4249  0.9310  0.1921
  430TMC3    C6 6466   1.067   0.427  17.040  0.0965 -0.2787 -0.1668
  430TMC3     C 6467   0.928   0.249  17.396 -0.2495  0.6531  0.3814
  430TMC3     O 6468   0.821   0.292  17.437  0.3592 -0.2468 -0.1630
  430TMC3     H 6469   0.852   0.476  17.291 -0.2818  0.9540 -1.1299
  430TMC3    H1 6470   1.161   0.175  17.252  1.0894  0.0331 -0.4505
  430TMC3    H2 6471   1.095   0.478  16.949 -0.7202 -0.1553 -0.3446
  430TMC3    C7 6472   1.212   0.238  17.009  0.5159 -0.5262 -0.0909
  430TMC3    C8 6473   0.867   0.557  17.035 -0.3221 -0.4052 -0.9330
  430TMC3    O1 6474   1.228   0.121  17.039  0.0022  0.2383  0.5959
  430TMC3    O2 6475   0.789   0.618  17.102 -0.1043  0.0951  0.1353
  431MPD2     C 6476   1.583   0.691  12.504 -0.2801  0.4470 -0.4725
  431MPD2    C1 6477   1.654   0.630  12.402 -0.0678 -0.1141  0.0305
  431MPD2    C2 6478   1.600   0.540  12.314  0.7739 -0.2522  0.0321
  431MPD2    C3 6479   1.468   0.500  12.331  0.4231  0.3334 -0.2637
  431MPD2    C4 6480   1.392   0.560  12.425  0.4215  0.6552 -0.3246
  431MPD2    C5 6481   1.453   0.651  12.510  0.2436  0.2073  0.0835
  431MPD2     H 6482   1.662   0.499  12.234  0.3448 -0.9407  0.0507
  431MPD2    H1 6483   1.287   0.534  12.432  0.9386 -0.8848  1.7621
  431MPD2    H2 6484   1.628   0.756  12.579 -0.6104 -1.4519  1.3832
  431MPD2    H3 6485   1.387   0.700  12.580  0.7752  0.0446  0.7009
  431MPD2     N 6486   1.413   0.397  12.251 -0.5844  0.3015  0.3846
  431MPD2    H5 6487   1.322   0.361  12.277 -0.3084  1.1259  2.4940
  431MPD2    N1 6488   1.796   0.643  12.390 -0.1690 -0.5533  0.4616
  431MPD2    H7 6489   1.839   0.586  12.317  1.3096  1.9593 -0.6628
  432TMC3    C1 6490   1.395   0.224  12.086  0.1246 -0.0462  0.7243
  432TMC3    C2 6491   1.434   0.189  11.961 -0.1840  0.3841  0.0327
  432TMC3    C3 6492   1.419   0.061  11.911 -0.4565  0.3611 -0.0990
  432TMC3    C4 6493   1.345   0.125  12.163 -0.3226  0.4423  0.7794
  432TMC3    C5 6494   1.321   4.733  12.106  0.4204 -0.4218  0.0657
  432TMC3    C6 6495   1.361   4.702  11.982  0.3999 -0.5925  0.5979
  432TMC3     C 6496   1.466   0.347  12.131 -0.4733  0.0744  0.2287
  432TMC3     O 6497   1.554   0.391  12.059  0.5090 -0.0290  0.3963
  432TMC3     H 6498   1.490   0.253  11.894 -0.0825  0.6877  0.4072
  432TMC3    H1 6499   1.315   0.140  12.266 -2.8832 -1.0372  0.2403
  432TMC3    H2 6500   1.331   4.606  11.942  1.4777 -1.8756  2.8679
  432TMC3    C7 6501   1.307   4.616  12.192 -0.0591  1.2536 -0.5432
  432TMC3    C8 6502   1.500   0.027  11.797  0.9072  0.2527 -0.2600
  432TMC3    O1 6503   1.291   4.512  12.129 -0.1617  0.9477 -0.1264
  432TMC3    O2 6504   1.502   0.114  11.709  0.4907  0.0326 -0.5215
  433MPD2     C 6505   1.332   3.825  10.879 -0.2871  0.0182  0.1821
  433MPD2    C1 6506   1.314   3.691  10.906  0.1163  0.1511  0.0322
  433MPD2    C2 6507   1.349   3.647  11.027 -0.2756  0.3858 -0.0399
  433MPD2    C3 6508   1.362   3.741  11.127 -0.7578 -0.0130  0.1200
  433MPD2    C4 6509   1.356   3.875  11.105 -0.4924 -0.4546 -0.0867
  433MPD2    C5 6510   1.349   3.921  10.976  0.1960 -0.4060 -0.4220
  433MPD2     H 6511   1.354   3.541  11.051  1.3277  0.1858 -1.2661
  433MPD2    H1 6512   1.376   3.953  11.176 -0.5680  0.4202 -1.0203
  433MPD2    H2 6513   1.340   3.864  10.778  0.5103 -0.9559 -0.1387
  433MPD2    H3 6514   1.350   4.028  10.955 -1.2033 -0.4670 -0.8379
  433MPD2     N 6515   1.389   3.691  11.251  1.1087  0.3809 -0.1541
  433MPD2    H5 6516   1.406   3.591  11.246  2.3732  0.5464  0.8725
  433MPD2    N1 6517   1.296   3.603  10.795  0.0039 -0.2590  0.2369
  433MPD2    H7 6518   1.318   3.642  10.704  1.9831 -0.7224  0.5195
  434TMC3    C1 6519   1.344   3.395  10.698 -0.1842  0.2889 -0.3293
  434TMC3    C2 6520   1.409   3.280  10.737 -0.0170 -0.0854  0.0591
  434TMC3    C3 6521   1.483   3.217  10.647 -0.1940 -0.0003 -0.6862
  434TMC3    C4 6522   1.373   3.457  10.577  0.3936  0.2993  0.4172
  434TMC3    C5 6523   1.443   3.382  10.482  0.1547  0.2829  0.2137
  434TMC3    C6 6524   1.500   3.266  10.517 -0.2140 -0.1082 -0.2412
  434TMC3     C 6525   1.284   3.468  10.807  0.3481  0.5320  0.1723
  434TMC3     O 6526   1.252   3.405  10.908 -0.1382 -0.0716 -0.4167
  434TMC3     H 6527   1.392   3.238  10.836  2.8538  0.2160  0.6797
  434TMC3    H1 6528   1.318   3.547  10.552  1.1823  0.7166  0.1766
  434TMC3    H2 6529   1.544   3.205  10.439  0.1630  1.5306 -1.3296
  434TMC3    C7 6530   1.367   3.382  10.355 -0.4581 -0.8260 -0.0333
  434TMC3    C8 6531   1.587   3.139  10.709  0.3279  0.0160  0.3779
  434TMC3    O1 6532   1.369   3.271  10.309 -0.1186  0.0394  0.3108
  434TMC3    O2 6533   1.601   3.157  10.829 -0.3086 -0.3743  0.1477
  435MPD2     C 6534   2.669   3.228  15.482  0.6088 -0.0129 -0.1186
  435MPD2    C1 6535   2.592   3.216  15.601 -0.1094 -0.4599  0.3926
  435MPD2    C2 6536   2.662   3.195  15.716  0.0277 -0.2845 -0.5371
  435MPD2    C3 6537   2.793   3.158  15.715  0.1308 -0.1135 -0.2274
  435MPD2    C4 6538   2.863   3.168  15.598  0.3938  0.1379  0.4271
  435MPD2    C5 6539   2.802   3.194  15.483  0.2336  0.1759 -0.3766
  435MPD2     H 6540   2.611   3.184  15.811 -2.7885 -1.0482 -2.1267
  435MPD2    H1 6541   2.970   3.151  15.592 -0.0562 -2.8876  1.2563
  435MPD2    H2 6542   2.612   3.245  15.390 -3.4781 -0.3495  2.3584
  435MPD2    H3 6543   2.869   3.193  15.399  0.5749 -1.6290 -0.0984
  435MPD2     N 6544   2.857   3.106  15.835 -0.1676 -0.2150  0.0803
  435MPD2    H5 6545   2.803   3.120  15.920 -0.7168 -1.1631 -0.1140
  435MPD2    N1 6546   2.453   3.227  15.602  0.4060  0.0076 -0.3802
  435MPD2    H7 6547   2.411   3.227  15.695  1.2969  1.3146  0.0179
  436TMC3    C1 6548   2.092   3.120  15.713  0.5774 -0.4220  0.3116
  436TMC3    C2 6549   2.207   3.176  15.670 -0.4990  0.0150  0.2575
  436TMC3    C3 6550   2.238   3.157  15.539 -0.1765 -0.1154 -0.0620
  436TMC3    C4 6551   2.016   3.038  15.631  0.1932  0.1660 -0.2215
  436TMC3    C5 6552   2.053   3.026  15.504 -0.0409 -0.1502 -0.6390
  436TMC3    C6 6553   2.166   3.088  15.457  0.0722  0.4224  0.1404
  436TMC3     C 6554   2.031   3.175  15.835 -0.4260  0.6570 -1.0264
  436TMC3     O 6555   2.076   3.283  15.870  1.0246  0.3159 -0.2472
  436TMC3     H 6556   2.255   3.239  15.743  0.4838 -2.2598  1.5971
  436TMC3    H1 6557   1.924   2.991  15.664  0.0201 -0.6147 -1.8745
  436TMC3    H2 6558   2.187   3.093  15.351  2.5483  0.3196  0.6400
  436TMC3    C7 6559   1.967   2.956  15.414  0.1432 -0.4932 -0.8356
  436TMC3    C8 6560   2.366   3.206  15.498  0.6030  0.3965 -0.1682
  436TMC3    O1 6561   1.849   2.950  15.449 -0.4062  0.2030  0.4712
  436TMC3    O2 6562   2.392   3.183  15.381  0.0965 -0.1843  0.1077
  437TMC3    C1 6563   1.430   1.433  12.214  1.1905  0.9500 -0.2597
  437TMC3    C2 6564   1.411   1.533  12.130 -0.6979  1.1783 -0.2743
  437TMC3    C3 6565   1.500   1.545  12.023 -0.7450 -0.2251 -0.0048
  437TMC3    C4 6566   1.532   1.342  12.204 -0.5741  0.1200  0.4230
  437TMC3    C5 6567   1.609   1.353  12.091 -0.3560  0.8737 -0.4020
  437TMC3    C6 6568   1.598   1.455  11.999  0.1717  0.2389  0.2151
  437TMC3     C 6569   1.330   1.418  12.324  0.1692 -0.1363  0.4038
  437TMC3     O 6570   1.231   1.492  12.315 -0.1979 -0.0835  0.7178
  437TMC3     H 6571   1.332   1.606  12.142  0.5762  3.1395 -3.7203
  437TMC3    H1 6572   1.527   1.242  12.245 -1.4814  1.1409  2.7578
  437TMC3    H2 6573   1.662   1.466  11.912  1.0295 -1.0100  0.6880
  437TMC3    C7 6574   1.735   1.277  12.086  0.1083  0.1937  0.5073
  437TMC3    C8 6575   1.461   1.648  11.922  0.4332  0.2942  0.1134
  437TMC3    O1 6576   1.788   1.276  11.977  0.0626 -0.4553 -0.1658
  437TMC3    O2 6577   1.350   1.692  11.934  0.0101  0.2578  0.1027
  438MPD2     C 6578   3.501   1.394  16.817 -0.5392  0.0949  0.4180
  438MPD2    C1 6579   3.590   1.304  16.867 -0.2822  0.3327  0.8323
  438MPD2    C2 6580   3.575   1.251  16.994  0.6692  0.0540 -0.1823
  438MPD2    C3 6581   3.477   1.300  17.081 -0.0676 -0.6238  0.5749
  438MPD2    C4 6582   3.392   1.388  17.027  0.2534  0.3726  0.2169
  438MPD2    C5 6583   3.398   1.435  16.895  0.1154  0.2616  0.0507
  438MPD2     H 6584   3.645   1.178  17.034  3.1947  2.2374 -0.6460
  438MPD2    H1 6585   3.307   1.427  17.082 -0.4038 -1.1230  0.2640
  438MPD2    H2 6586   3.512   1.447  16.724 -1.2010 -0.6140 -0.0675
  438MPD2    H3 6587   3.328   1.508  16.857 -1.3441 -0.3381  1.5695
  438MPD2     N 6588   3.459   1.262  17.215 -0.0836 -0.2959 -0.7288
  438MPD2    H5 6589   3.399   1.327  17.266  0.2784  0.1501 -0.8680
  438MPD2    N1 6590   3.685   1.247  16.780  0.2047 -0.0314 -0.5777
  438MPD2    H7 6591   3.764   1.197  16.819  0.5845  0.2639 -0.9690
  439TMC3    C1 6592   3.751   1.131  16.572 -0.2806  0.4410  0.7988
  439TMC3    C2 6593   3.786   1.143  16.439  0.0719  0.6602  0.4692
  439TMC3    C3 6594   3.899   1.069  16.389 -0.0270  0.3295  0.0508
  439TMC3    C4 6595   3.807   1.039  16.653 -0.2970  0.7896  0.5378
  439TMC3    C5 6596   3.910   0.962  16.600 -0.1461  0.0338 -0.0578
  439TMC3    C6 6597   3.965   0.984  16.477 -0.1285  0.4665 -0.2322
  439TMC3     C 6598   3.667   1.239  16.636  0.1827  0.7353  0.1620
  439TMC3     O 6599   3.589   1.308  16.569 -0.1812  0.2731 -0.3978
  439TMC3     H 6600   3.737   1.222  16.383  1.8849  0.8645 -0.8151
  439TMC3    H1 6601   3.775   1.030  16.756 -0.1999  0.3039  0.5273
  439TMC3    H2 6602   4.041   0.919  16.436 -0.5930 -1.0697  1.3595
  439TMC3    C7 6603   3.987   0.878  16.688  0.0706 -0.0626 -0.0277
  439TMC3    C8 6604   3.879   0.999  16.260  0.2082  0.6249 -0.2272
  439TMC3    O1 6605   4.109   0.892  16.698  0.0707 -0.0942 -0.4720
  439TMC3    O2 6606   3.981   0.947  16.217  0.2375 -0.7882  0.2577
  440MPD2     C 6607   2.455   1.575  14.628 -0.1695  0.6651  0.6835
  440MPD2    C1 6608   2.501   1.644  14.736  0.2779 -0.4702  0.9481
  440MPD2    C2 6609   2.622   1.599  14.792 -0.0957 -0.0490  0.1572
  440MPD2    C3 6610   2.689   1.482  14.747 -0.2494 -0.1175  0.3771
  440MPD2    C4 6611   2.624   1.402  14.653  0.4313  0.6075  0.1068
  440MPD2    C5 6612   2.502   1.455  14.596 -0.1696 -0.8682 -0.0916
  440MPD2     H 6613   2.671   1.660  14.868 -0.5065 -0.2682  0.5980
  440MPD2    H1 6614   2.665   1.307  14.620 -0.9348  0.0294  0.0539
  440MPD2    H2 6615   2.370   1.614  14.574 -0.6935 -0.6418  0.5618
  440MPD2    H3 6616   2.446   1.398  14.523 -3.8081  0.6575  1.5279
  440MPD2     N 6617   2.805   1.438  14.812 -0.4500 -0.5083  0.3049
  440MPD2    H5 6618   2.823   1.339  14.824 -0.6448 -0.8248 -2.1281
  440MPD2    N1 6619   2.442   1.766  14.789  0.2858 -0.0386 -0.0013
  440MPD2    H7 6620   2.485   1.804  14.872 -0.8183 -0.9831  1.0129
  441TMC3    C1 6621   2.954   1.472  14.990 -0.1554  0.4823 -0.9058
  441TMC3    C2 6622   3.023   1.560  15.062  0.6419  0.1942 -0.0907
  441TMC3    C3 6623   3.067   1.525  15.185 -0.4261  1.0234  0.6315
  441TMC3    C4 6624   2.929   1.341  15.032  0.1559 -0.3321 -0.2096
  441TMC3    C5 6625   2.964   1.315  15.159 -0.3572  0.7207 -0.3996
  441TMC3    C6 6626   3.027   1.403  15.238  0.1198  0.5413  0.1060
  441TMC3     C 6627   2.895   1.522  14.868  0.2499  0.3741  0.0800
  441TMC3     O 6628   2.902   1.638  14.835 -0.3178 -0.1727  0.1156
  441TMC3     H 6629   3.051   1.656  15.019 -1.1413 -0.0139 -1.7224
  441TMC3    H1 6630   2.871   1.266  14.978 -1.9255  0.5638  0.7774
  441TMC3    H2 6631   3.070   1.372  15.333  0.2343  0.2705 -0.0347
  441TMC3    C7 6632   2.922   1.194  15.222  0.5158  0.0514 -0.9468
  441TMC3    C8 6633   3.099   1.631  15.285 -0.3355  0.2283 -0.5961
  441TMC3    O1 6634   2.886   1.098  15.153 -0.0329 -0.1482 -0.0544
  441TMC3    O2 6635   3.159   1.586  15.382  0.0307 -0.1101  0.2816
  442MPD2     C 6636   1.030   2.434  16.559 -0.0788 -0.1085 -0.1681
  442MPD2    C1 6637   0.959   2.376  16.661 -0.3947 -0.3124 -0.1181
  442MPD2    C2 6638   0.894   2.257  16.634 -0.2438  0.5125  0.0210
  442MPD2    C3 6639   0.913   2.192  16.511 -0.3597 -0.5676 -0.0551
  442MPD2    C4 6640   0.985   2.256  16.409  0.2491 -0.5765  0.1508
  442MPD2    C5 6641   1.047   2.378  16.435 -0.0977  0.3766  0.4455
  442MPD2     H 6642   0.849   2.206  16.718 -0.4149 -1.5993 -1.3650
  442MPD2    H1 6643   1.017   2.212  16.315  2.1731  0.7641  0.1715
  442MPD2    H2 6644   1.091   2.523  16.572  0.2578 -0.4315  0.4516
  442MPD2    H3 6645   1.110   2.427  16.361 -2.1789 -0.8856 -2.1757
  442MPD2     N 6646   0.865   2.065  16.474  0.0379  0.1599 -0.6079
  442MPD2    H5 6647   0.898   2.028  16.385  0.2858  0.9785 -0.8577
  442MPD2    N1 6648   0.943   2.436  16.787  0.0076 -0.0503  0.2414
  442MPD2    H7 6649   0.860   2.409  16.839 -0.3017  2.3704  1.0052
  443TMC3    C1 6650   0.974   2.632  16.912  0.0903 -0.1827 -0.1483
  443TMC3    C2 6651   0.998   2.749  16.851 -0.0015  0.0950 -0.0719
  443TMC3    C3 6652   0.888   2.831  16.833  0.1034  0.9909  0.0859
  443TMC3    C4 6653   0.851   2.599  16.966 -0.5662  0.4703 -0.3102
  443TMC3    C5 6654   0.747   2.690  16.954  0.6099 -0.2704  0.4924
  443TMC3    C6 6655   0.759   2.806  16.879 -0.0246  0.1807  0.6688
  443TMC3     C 6656   1.034   2.529  16.834 -0.1633  1.0681  0.2717
  443TMC3     O 6657   1.145   2.552  16.791  0.3596 -0.0557  0.0878
  443TMC3     H 6658   1.086   2.761  16.788  1.5978 -2.0047  1.7999
  443TMC3    H1 6659   0.831   2.505  17.015  2.7822  0.7170  1.5490
  443TMC3    H2 6660   0.681   2.876  16.852  0.7619  1.1773  0.9622
  443TMC3    C7 6661   0.616   2.666  17.011 -0.1350  0.1088  0.4916
  443TMC3    C8 6662   0.887   2.878  16.701  0.9020  0.1748 -0.0147
  443TMC3    O1 6663   0.602   2.559  17.067  0.0893 -0.0121 -0.9210
  443TMC3    O2 6664   0.987   2.937  16.663 -0.0876 -0.0258 -0.0475
  444MPD2     C 6665   0.856   1.726  17.041 -0.3809  0.4047 -0.3458
  444MPD2    C1 6666   0.779   1.613  17.042  0.4283  0.5821 -0.3015
  444MPD2    C2 6667   0.818   1.501  16.967  0.7769 -0.3022 -0.2810
  444MPD2    C3 6668   0.939   1.490  16.913 -0.7595 -0.6171  0.6209
  444MPD2    C4 6669   1.020   1.602  16.922  0.9849  1.0719  0.6856
  444MPD2    C5 6670   0.969   1.720  16.973  0.0387 -0.4445 -0.0433
  444MPD2     H 6671   0.742   1.426  16.947  0.9452 -0.7961  0.9539
  444MPD2    H1 6672   1.118   1.613  16.876  0.6747  0.2277 -0.1734
  444MPD2    H2 6673   0.844   1.820  17.093 -1.2073 -0.1947  0.5281
  444MPD2    H3 6674   1.028   1.809  16.988 -1.8620  0.9322 -0.7488
  444MPD2     N 6675   0.982   1.377  16.834 -0.3993 -0.2358 -0.1202
  444MPD2    H5 6676   0.916   1.301  16.828 -2.6595  1.5623  1.7575
  444MPD2    N1 6677   0.641   1.609  17.084 -0.0028  0.2241  0.4624
  444MPD2    H7 6678   0.585   1.527  17.065  2.2646 -0.6772 -2.2256
  445TMC3    C1 6679   1.106   1.251  16.682 -0.3474 -0.0061  0.2142
  445TMC3    C2 6680   0.986   1.205  16.637  0.0925 -1.0229 -0.2263
  445TMC3    C3 6681   0.982   1.088  16.566  0.1236 -0.8886 -1.0816
  445TMC3    C4 6682   1.223   1.184  16.658  0.0406  0.6216 -0.0887
  445TMC3    C5 6683   1.218   1.072  16.585  0.8263  0.3420  0.4549
  445TMC3    C6 6684   1.097   1.020  16.539 -0.4115  0.1411  0.4501
  445TMC3     C 6685   1.103   1.359  16.777 -0.2475 -0.0864  0.5738
  445TMC3     O 6686   1.213   1.406  16.803  0.2065  0.4208  0.3693
  445TMC3     H 6687   0.893   1.258  16.655 -0.2085 -0.7998 -2.4498
  445TMC3    H1 6688   1.320   1.217  16.692  0.8957  0.7461 -2.6492
  445TMC3    H2 6689   1.094   0.941  16.464  0.0508  0.0265  0.5552
  445TMC3    C7 6690   1.347   1.003  16.556  0.7396  0.2982 -0.1068
  445TMC3    C8 6691   0.859   1.020  16.532  0.1922 -0.3492 -0.2142
  445TMC3    O1 6692   1.451   1.069  16.568  0.2967 -0.0032 -0.2801
  445TMC3    O2 6693   0.859   0.914  16.473  0.2804  0.1139 -0.0545
  446MPD2     C 6694   1.150   3.016  11.268  0.1353  0.6486  0.5842
  446MPD2    C1 6695   1.207   2.971  11.145  0.1162  0.1055  0.4676
  446MPD2    C2 6696   1.314   3.043  11.094  0.4481 -0.1444  0.1839
  446MPD2    C3 6697   1.371   3.155  11.155  0.1610  0.5623  0.1222
  446MPD2    C4 6698   1.304   3.195  11.273 -0.2791 -0.0832  0.3355
  446MPD2    C5 6699   1.200   3.131  11.325 -0.2958 -0.0794  0.3545
  446MPD2     H 6700   1.369   3.000  11.011 -0.5048 -2.0123  0.5069
  446MPD2    H1 6701   1.343   3.280  11.329 -1.1230  0.8360 -0.4552
  446MPD2    H2 6702   1.067   2.975  11.324  1.4626 -1.4317  1.0150
  446MPD2    H3 6703   1.161   3.161  11.421 -2.0399 -2.4253  0.3953
  446MPD2     N 6704   1.487   3.208  11.107  0.0992 -0.6008  0.2219
  446MPD2    H5 6705   1.520   3.172  11.018 -0.3725 -1.0379  0.2290
  446MPD2    N1 6706   1.156   2.869  11.066  0.1647 -0.2288  0.1202
  446MPD2    H7 6707   1.199   2.857  10.975  0.8195  0.3868  0.3522
  447TMC3    C1 6708   1.667   3.333  11.066 -0.3774  0.8943  0.0387
  447TMC3    C2 6709   1.665   3.427  10.976 -0.5103 -0.7900  0.1024
  447TMC3    C3 6710   1.779   3.432  10.894  0.5728 -0.5003 -0.0335
  447TMC3    C4 6711   1.765   3.237  11.081 -0.8289 -0.1651 -0.1619
  447TMC3    C5 6712   1.871   3.239  10.996 -0.2668 -0.2879 -0.0822
  447TMC3    C6 6713   1.883   3.344  10.903  0.0590  0.0082 -0.7346
  447TMC3     C 6714   1.542   3.326  11.142  0.3542 -0.3139  0.6799
  447TMC3     O 6715   1.493   3.419  11.199  0.0371 -0.8242 -0.3327
  447TMC3     H 6716   1.585   3.497  10.952 -0.4099 -0.5324  0.5222
  447TMC3    H1 6717   1.755   3.171  11.166  2.6189  0.8173  1.0273
  447TMC3    H2 6718   1.963   3.327  10.832 -0.0960  0.4908 -1.0261
  447TMC3    C7 6719   1.993   3.158  11.022  0.0353  0.3782 -0.8814
  447TMC3    C8 6720   1.782   3.534  10.790  0.0830  0.1422  0.1939
  447TMC3    O1 6721   2.087   3.149  10.939  0.0760  0.0775 -0.2227
  447TMC3    O2 6722   1.682   3.599  10.763 -0.5900 -0.1587  0.3574
  448TMC3    C1 6723   3.736   2.881  16.959 -0.6338 -0.3728 -0.6499
  448TMC3    C2 6724   3.670   2.779  16.895 -0.7611 -0.0345 -0.9296
  448TMC3    C3 6725   3.638   2.676  16.977 -0.2756 -1.1789  0.5153
  448TMC3    C4 6726   3.775   2.878  17.089 -0.5030 -0.2156  0.0090
  448TMC3    C5 6727   3.748   2.767  17.166  0.3651 -0.0221  0.4201
  448TMC3    C6 6728   3.683   2.660  17.107 -0.0090  0.0520 -0.3306
  448TMC3     C 6729   3.717   3.016  16.906 -0.8848  0.4016  0.2885
  448TMC3     O 6730   3.714   3.108  16.984 -0.0971 -0.0545  0.8698
  448TMC3     H 6731   3.624   2.789  16.797 -1.3913 -1.0856 -0.7519
  448TMC3    H1 6732   3.816   2.966  17.139 -0.8398 -1.1188  1.8598
  448TMC3    H2 6733   3.673   2.567  17.161  2.2183  1.0806  1.8195
  448TMC3    C7 6734   3.819   2.743  17.283  0.1971 -0.1580 -0.2735
  448TMC3    C8 6735   3.588   2.554  16.915  0.0026  0.3702  0.0286
  448TMC3    O1 6736   3.914   2.817  17.290  0.6754  0.2518 -0.2978
  448TMC3    O2 6737   3.598   2.449  16.976  0.2449  0.0367  0.1587
  449MPD2     C 6738   0.681   0.877  13.861  0.3737 -0.2738  0.2980
  449MPD2    C1 6739   0.564   0.929  13.801  0.0729 -0.1538  0.3614
  449MPD2    C2 6740   0.442   0.907  13.856  0.3316 -0.1233  0.1810
  449MPD2    C3 6741   0.424   0.813  13.956  0.1522 -0.3362 -0.4505
  449MPD2    C4 6742   0.536   0.764  14.025  0.2885 -0.8155 -0.5275
  449MPD2    C5 6743   0.665   0.796  13.974 -0.3023 -0.2368  0.9331
  449MPD2     H 6744   0.352   0.954  13.818 -1.3426 -1.7061  2.2339
  449MPD2    H1 6745   0.525   0.698  14.110  1.3029 -0.5174 -0.1597
  449MPD2    H2 6746   0.783   0.899  13.833 -0.1959  0.8959 -0.8625
  449MPD2    H3 6747   0.750   0.756  14.028 -1.2368 -2.4299  0.7672
  449MPD2     N 6748   0.290   0.792  13.986  0.1058 -0.3375 -0.7677
  449MPD2    H5 6749   0.228   0.836  13.919 -0.4066 -0.5724 -0.4466
  449MPD2    N1 6750   0.577   1.020  13.696 -0.6288  0.8095  0.2703
  449MPD2    H7 6751   0.496   1.064  13.652 -1.5855  0.5663  1.7914
  450TMC3    C1 6752   0.655   1.127  13.510 -0.3117  0.1624 -0.2036
  450TMC3    C2 6753   0.729   1.247  13.510  0.3206  0.3997  0.3934
  450TMC3    C3 6754   0.666   1.375  13.508 -0.0191  0.3097 -0.2549
  450TMC3    C4 6755   0.525   1.134  13.469  0.5589 -0.2111  0.0235
  450TMC3    C5 6756   0.461   1.259  13.470 -0.7615 -0.2397 -0.1363
  450TMC3    C6 6757   0.528   1.380  13.501  0.2693  0.0006  0.9880
  450TMC3     C 6758   0.688   1.049  13.623 -0.3355 -0.2121 -0.0476
  450TMC3     O 6759   0.810   1.037  13.646 -0.1585 -0.5367 -0.6359
  450TMC3     H 6760   0.830   1.243  13.548  0.6620  2.4790 -0.2977
  450TMC3    H1 6761   0.481   1.050  13.417  0.7716 -0.2646 -0.0702
  450TMC3    H2 6762   0.482   1.476  13.521  0.0708 -0.2274  1.6380
  450TMC3    C7 6763   0.335   1.238  13.543 -0.1503  0.4392  0.0950
  450TMC3    C8 6764   0.746   1.496  13.486 -0.2592  0.7242  0.5331
  450TMC3    O1 6765   0.325   1.132  13.602  0.2164 -0.2231 -0.6206
  450TMC3    O2 6766   0.716   1.602  13.536  0.3444 -0.7108  0.1483
  451MPD2     C 6767   2.124   0.165   0.625 -0.2601 -0.5904 -0.9645
  451MPD2    C1 6768   1.998   0.117   0.594 -0.1127  0.3031 -0.3626
  451MPD2    C2 6769   1.987   4.720   0.561 -0.0997  0.2840 -0.5802
  451MPD2    C3 6770   2.098   4.643   0.527  0.3930 -0.3879 -0.2858
  451MPD2    C4 6771   2.219   4.697   0.551 -0.1961  0.2769 -0.1327
  451MPD2    C5 6772   2.232   0.085   0.612 -0.2023  0.2798  0.2150
  451MPD2     H 6773   1.889   4.676   0.546 -0.3434  0.5082  0.3183
  451MPD2    H1 6774   2.307   4.645   0.515 -1.1455 -0.8947 -0.8004
  451MPD2    H2 6775   2.142   0.270   0.643 -1.0684 -0.3347 -1.6946
  451MPD2    H3 6776   2.327   0.133   0.634  0.6950 -0.2462 -2.5775
  451MPD2     N 6777   2.081   4.514   0.467  0.3662  0.3834  0.8225
  451MPD2    H5 6778   2.166   4.491   0.415  0.0890  0.4398  0.3483
  451MPD2    N1 6779   1.894   0.205   0.617  0.1265 -0.2982 -0.2541
  451MPD2    H7 6780   1.917   0.302   0.631 -0.5104 -0.4338  1.7097
  452TMC3    C1 6781   1.981   4.321   0.387 -0.6116 -0.2946  0.1960
  452TMC3    C2 6782   1.905   4.211   0.417  0.3882  0.2499  0.4371
  452TMC3    C3 6783   1.897   4.111   0.329 -0.0882 -0.3100  0.2321
  452TMC3    C4 6784   2.045   4.328   0.264  0.2658  0.0873  0.0138
  452TMC3    C5 6785   2.028   4.230   0.175 -1.2447  0.0975  0.0483
  452TMC3    C6 6786   1.953   4.117   0.205  0.0296  0.2175  0.2737
  452TMC3     C 6787   1.968   4.437   0.469  0.0633 -0.1798 -0.2042
  452TMC3     O 6788   1.872   4.453   0.544  0.0514  0.1911  0.2411
  452TMC3     H 6789   1.856   4.191   0.512 -1.7992 -0.2915 -0.8142
  452TMC3    H1 6790   2.102   4.418   0.241 -0.4777  0.7496  0.7464
  452TMC3    H2 6791   1.947   4.039   0.131  2.3197  0.4096 -0.0994
  452TMC3    C7 6792   2.073   4.262   0.033 -0.0735  1.1524 -0.1271
  452TMC3    C8 6793   1.795   4.004   0.337  0.4580  0.2287  0.2476
  452TMC3    O1 6794   2.163   4.348   0.022  0.4086  0.3996 -0.1988
  452TMC3    O2 6795   1.785   3.927   0.242  0.0627  0.0497 -0.2347
  453TMC3    C1 6796   2.957   1.855  11.729  0.5859 -0.4391 -0.5319
  453TMC3    C2 6797   2.926   1.743  11.664  0.2538  0.1079  0.0206
  453TMC3    C3 6798   2.897   1.759  11.530  0.5883  0.3292 -0.1222
  453TMC3    C4 6799   2.951   1.974  11.665  0.1643  0.0372  0.0990
  453TMC3    C5 6800   2.935   1.985  11.522 -0.1643 -0.5907  0.1354
  453TMC3    C6 6801   2.913   1.870  11.457  0.7885  0.0419 -0.1181
  453TMC3     C 6802   3.023   1.846  11.858  0.0473  0.0852  0.1361
  453TMC3     O 6803   3.111   1.929  11.885 -0.4823 -0.3056  0.6841
  453TMC3     H 6804   2.928   1.644  11.709 -1.3604  0.9251  1.8319
  453TMC3    H1 6805   2.982   2.054  11.732  1.3888 -0.2408 -0.1469
  453TMC3    H2 6806   2.893   1.868  11.350 -1.5125 -0.3131  0.3281
  453TMC3    C7 6807   3.018   2.083  11.449 -0.3866  0.2384 -0.5916
  453TMC3    C8 6808   2.824   1.647  11.468  0.2386  0.8416 -0.4144
  453TMC3    O1 6809   3.075   2.040  11.349  0.4441 -0.5624  0.0497
  453TMC3    O2 6810   2.853   1.629  11.348 -0.9492  0.0801  0.0354
  454MPD2     C 6811   1.682   1.112  16.131 -0.1650  0.3881  1.0426
  454MPD2    C1 6812   1.614   1.213  16.062  1.7068  0.6531  0.0398
  454MPD2    C2 6813   1.578   1.329  16.125  0.2081  0.2495 -0.6796
  454MPD2    C3 6814   1.618   1.349  16.256 -0.2306  0.1886 -0.6492
  454MPD2    C4 6815   1.687   1.254  16.324 -0.3013 -0.8546 -0.0664
  454MPD2    C5 6816   1.719   1.133  16.262 -0.1805 -0.7601 -0.1997
  454MPD2     H 6817   1.509   1.394  16.072  0.5844  1.4001  0.2529
  454MPD2    H1 6818   1.699   1.259  16.431  0.5702  0.6907 -0.2282
  454MPD2    H2 6819   1.721   1.026  16.078 -0.1024  0.8268  0.3859
  454MPD2    H3 6820   1.779   1.061  16.316  1.6076  1.5389  0.8680
  454MPD2     N 6821   1.574   1.468  16.322 -0.2059 -0.1608 -0.2520
  454MPD2    H5 6822   1.592   1.471  16.422 -0.1597 -0.0663 -0.2634
  454MPD2    N1 6823   1.545   1.189  15.942  0.3123  0.2756  0.2657
  454MPD2    H7 6824   1.478   1.261  15.914  1.5206  1.3830  0.2483
  455TMC3    C1 6825   1.401   1.618  16.346  0.1539  0.7054 -0.4594
  455TMC3    C2 6826   1.360   1.733  16.290  0.3012 -0.0486  0.0645
  455TMC3    C3 6827   1.226   1.758  16.278  0.9557 -0.3033  0.1773
  455TMC3    C4 6828   1.311   1.517  16.380  0.6950 -0.4405 -0.3500
  455TMC3    C5 6829   1.178   1.543  16.364  0.0534  0.6019 -0.0718
  455TMC3    C6 6830   1.134   1.665  16.321  0.2052 -0.1299 -0.0456
  455TMC3     C 6831   1.506   1.572  16.261  0.6370 -0.3293 -0.2067
  455TMC3     O 6832   1.491   1.595  16.143 -0.0760  0.2346 -0.0786
  455TMC3     H 6833   1.432   1.801  16.246 -0.5371  1.0640  0.4257
  455TMC3    H1 6834   1.344   1.427  16.431 -3.3897 -2.2052 -0.8397
  455TMC3    H2 6835   1.031   1.680  16.290 -0.5153 -2.2379  1.3325
  455TMC3    C7 6836   1.102   1.425  16.323 -0.2429  0.0734  0.8797
  455TMC3    C8 6837   1.189   1.884  16.332  0.3311  0.2890  0.1931
  455TMC3    O1 6838   0.981   1.426  16.325  0.8289  0.2186  0.1115
  455TMC3    O2 6839   1.136   1.876  16.441  0.1555 -0.3935 -0.5144
  456MPD2     C 6840   3.924   1.338  16.146 -0.0722 -0.2850 -0.1142
  456MPD2    C1 6841   4.009   1.389  16.244  0.5437  0.2143 -0.5405
  456MPD2    C2 6842   3.959   1.483  16.339  0.2878  0.3764  0.0453
  456MPD2    C3 6843   3.828   1.533  16.329 -0.5614 -0.8228 -0.7016
  456MPD2    C4 6844   3.747   1.483  16.230  0.4485  0.4443 -0.7338
  456MPD2    C5 6845   3.794   1.392  16.137 -0.2694  0.0139  0.1940
  456MPD2     H 6846   4.022   1.531  16.413 -0.9723  2.0878 -0.0053
  456MPD2    H1 6847   3.640   1.499  16.221  0.7088  2.4476 -0.3527
  456MPD2    H2 6848   3.950   1.274  16.063 -1.4357 -1.5530  0.4441
  456MPD2    H3 6849   3.738   1.357  16.052  0.5075 -1.1598  0.1723
  456MPD2     N 6850   3.783   1.624  16.429 -0.2407 -0.3105  0.1782
  456MPD2    H5 6851   3.844   1.636  16.510  1.9898  2.8839 -1.9813
  456MPD2    N1 6852   4.146   1.344  16.242  0.4212  0.2138 -0.5474
  456MPD2    H7 6853   4.181   1.280  16.172 -0.1044 -1.0029  0.2984
  457TMC3    C1 6854   3.639   1.752  16.557  0.1456  0.5117  0.1784
  457TMC3    C2 6855   3.572   1.869  16.564  0.8478 -0.3390 -0.9584
  457TMC3    C3 6856   3.539   1.917  16.692  0.0248  0.3356 -1.1724
  457TMC3    C4 6857   3.673   1.682  16.669 -0.6939 -0.0111  0.2521
  457TMC3    C5 6858   3.641   1.734  16.793 -0.1028 -0.5233  0.6327
  457TMC3    C6 6859   3.566   1.851  16.810 -0.1087 -0.0395  0.3151
  457TMC3     C 6860   3.655   1.687  16.434  0.0319  0.0038  0.3216
  457TMC3     O 6861   3.559   1.690  16.357  0.4538 -0.0234  0.0363
  457TMC3     H 6862   3.539   1.924  16.476  0.1634 -0.3548 -0.7183
  457TMC3    H1 6863   3.725   1.587  16.662 -1.0113 -0.0268 -1.8966
  457TMC3    H2 6864   3.529   1.893  16.903  2.5505  2.3527  0.3245
  457TMC3    C7 6865   3.716   1.682  16.906 -0.5939  0.9024  0.0345
  457TMC3    C8 6866   3.529   2.055  16.714 -0.3415  0.2779  0.4594
  457TMC3    O1 6867   3.798   1.595  16.878 -0.0604 -0.3014  0.0350
  457TMC3    O2 6868   3.578   2.108  16.811  0.4962 -0.2062  0.0344
  458MPD2     C 6869   2.154   1.091  12.310 -0.2918  0.7967  0.0922
  458MPD2    C1 6870   2.068   1.122  12.408 -0.0171  0.8674 -0.2917
  458MPD2    C2 6871   1.936   1.128  12.376  0.9589 -0.2402  0.2425
  458MPD2    C3 6872   1.903   1.164  12.244 -0.2615  0.0925 -0.7153
  458MPD2    C4 6873   1.993   1.141  12.140 -0.0198  0.0156  0.0162
  458MPD2    C5 6874   2.108   1.090  12.179 -0.1972 -0.0384  0.4737
  458MPD2     H 6875   1.857   1.134  12.451  1.4559  0.6097  0.7108
  458MPD2    H1 6876   1.975   1.153  12.034  1.1989 -1.5997 -0.3625
  458MPD2    H2 6877   2.253   1.054  12.337 -0.7841  0.3411  1.2438
  458MPD2    H3 6878   2.182   1.064  12.105 -0.1518 -1.2302  0.9413
  458MPD2     N 6879   1.778   1.230  12.210  0.3976 -0.2322  0.3902
  458MPD2    H5 6880   1.727   1.261  12.293 -0.0878 -1.9432  0.7384
  458MPD2    N1 6881   2.109   1.111  12.543  0.4356 -0.3274 -0.5520
  458MPD2    H7 6882   2.210   1.110  12.558  0.4681  2.5824 -0.4679
  459TMC3    C1 6883   2.110   1.111  12.779  0.6624  0.0208  0.2515
  459TMC3    C2 6884   2.205   1.201  12.789  0.6443  0.2200 -0.0752
  459TMC3    C3 6885   2.287   1.190  12.895 -0.4512 -0.1251 -0.2338
  459TMC3    C4 6886   2.093   0.994  12.850 -0.6471 -0.1542 -0.4393
  459TMC3    C5 6887   2.192   0.983  12.944 -0.2027  0.1961 -0.2419
  459TMC3    C6 6888   2.288   1.076  12.966  0.2474 -0.3738 -0.7171
  459TMC3     C 6889   2.032   1.131  12.653 -0.7376 -0.3021 -0.4722
  459TMC3     O 6890   1.914   1.157  12.670 -0.4700 -0.0160  0.0176
  459TMC3     H 6891   2.223   1.282  12.719  0.6746 -0.0064 -0.3289
  459TMC3    H1 6892   2.053   0.905  12.803 -0.8604 -0.3908  0.1926
  459TMC3    H2 6893   2.364   1.052  13.040  1.1474 -0.9426 -1.8219
  459TMC3    C7 6894   2.222   0.855  13.004  1.0181 -0.0349  0.4462
  459TMC3    C8 6895   2.408   1.270  12.876  0.3671 -0.2398  0.3833
  459TMC3    O1 6896   2.333   0.844  13.050 -0.1865 -0.2782 -0.4626
  459TMC3    O2 6897   2.415   1.359  12.791  0.5102 -0.1587  0.1155
  460MPD2     C 6898   2.064   3.691  10.611 -0.3125  0.3578  0.0463
  460MPD2    C1 6899   1.937   3.663  10.638  0.6569 -0.4443 -0.0816
  460MPD2    C2 6900   1.846   3.706  10.540 -0.6120 -0.0581  0.3081
  460MPD2    C3 6901   1.881   3.780  10.429 -0.8139  0.4402  0.6845
  460MPD2    C4 6902   2.015   3.822  10.428  0.4980 -0.8153 -0.3504
  460MPD2    C5 6903   2.105   3.780  10.517  0.3026 -0.4462 -0.2185
  460MPD2     H 6904   1.744   3.670  10.532 -0.1298 -1.7472  1.6833
  460MPD2    H1 6905   2.060   3.894  10.360 -1.9942  0.6581 -0.4349
  460MPD2    H2 6906   2.136   3.656  10.684  0.4908  2.1550  0.1026
  460MPD2    H3 6907   2.207   3.815  10.504  0.2283 -1.0580 -2.5114
  460MPD2     N 6908   1.782   3.808  10.334 -0.5052  0.3139  0.3296
  460MPD2    H5 6909   1.688   3.774  10.355  0.3201 -1.4247  1.1846
  460MPD2    N1 6910   1.908   3.572  10.750  0.7395 -0.3415 -0.5302
  460MPD2    H7 6911   1.991   3.537  10.794 -0.3660 -2.4012 -0.0891
  461TMC3    C1 6912   1.681   3.931  10.154  0.4327  0.3654 -0.3320
  461TMC3    C2 6913   1.592   3.844  10.101  0.2707  0.1219  0.2007
  461TMC3    C3 6914   1.479   3.899  10.042  0.5757 -0.4304  0.3035
  461TMC3    C4 6915   1.662   4.067  10.131 -0.2156  0.0812  0.2747
  461TMC3    C5 6916   1.553   4.109  10.071 -0.1370 -0.3243  0.4113
  461TMC3    C6 6917   1.448   4.030  10.026  0.2643 -0.4809  0.5712
  461TMC3     C 6918   1.806   3.889  10.222  0.5622  0.6677 -0.5882
  461TMC3     O 6919   1.904   3.959  10.200  0.3925 -0.1239  0.3392
  461TMC3     H 6920   1.607   3.737  10.107  2.3981  0.7016  4.6917
  461TMC3    H1 6921   1.744   4.128  10.167 -0.2919  0.4869 -0.2425
  461TMC3    H2 6922   1.364   4.067   9.969  0.0192 -0.8446  0.7008
  461TMC3    C7 6923   1.533   4.256  10.047  0.2902  0.6549  0.5208
  461TMC3    C8 6924   1.409   3.799   9.967  0.4865 -1.1597  0.4254
  461TMC3    O1 6925   1.419   4.289  10.015 -0.4743  0.3307 -0.5059
  461TMC3    O2 6926   1.473   3.696   9.953  0.1833  0.7198 -0.3215
  462TMC3    C1 6927   1.226   4.668   0.156 -0.2342 -0.4447 -0.7053
  462TMC3    C2 6928   1.342   4.638   0.082 -0.0640 -0.0309 -0.2825
  462TMC3    C3 6929   1.365   4.505   0.055 -0.4875  0.5749 -0.4866
  462TMC3    C4 6930   1.142   4.577   0.218  0.4651  0.1066 -0.1219
  462TMC3    C5 6931   1.178   4.449   0.200  0.4285 -1.3191 -0.1813
  462TMC3    C6 6932   1.290   4.417   0.128  0.1733 -0.3078  0.1108
  462TMC3     C 6933   1.155   0.057   0.144  0.2627 -0.3554 -0.5813
  462TMC3     O 6934   1.069   0.091   0.219 -0.5129  0.6331  0.5769
  462TMC3     H 6935   1.414   4.707   0.039 -0.6867  0.4735 -0.5252
  462TMC3    H1 6936   1.062   4.608   0.285  1.2286 -0.1398  0.9027
  462TMC3    H2 6937   1.309   4.313   0.102 -1.8754 -0.5350 -0.4749
  462TMC3    C7 6938   1.079   4.344   0.222 -0.8164 -0.4331  0.2311
  462TMC3    C8 6939   1.361   4.490  17.658 -0.0958 -0.5606  0.3647
  462TMC3    O1 6940   1.118   4.236   0.181 -0.2260  0.0932  0.1631
  462TMC3    O2 6941   1.332   4.587  17.589 -0.2133  0.4894  0.4388
  463MPD2     C 6942   2.700   2.297   1.355 -0.0459 -0.1586  0.4648
  463MPD2    C1 6943   2.664   2.420   1.304  0.5466 -0.0172 -0.4377
  463MPD2    C2 6944   2.751   2.526   1.311 -0.0092  0.9066 -0.1133
  463MPD2    C3 6945   2.877   2.510   1.376 -0.2523  0.1132  0.3258
  463MPD2    C4 6946   2.905   2.395   1.441  0.1552 -0.0788 -0.5098
  463MPD2    C5 6947   2.814   2.297   1.439 -0.4094  0.4838  1.0213
  463MPD2     H 6948   2.729   2.615   1.253 -1.6988 -0.2934 -1.3121
  463MPD2    H1 6949   2.999   2.373   1.491 -0.1690  1.8900  0.9551
  463MPD2    H2 6950   2.647   2.202   1.356  1.0860 -0.8350 -1.4355
  463MPD2    H3 6951   2.849   2.205   1.483 -0.2461  0.1084  0.1221
  463MPD2     N 6952   2.990   2.598   1.377 -0.1619  0.1732 -0.6171
  463MPD2    H5 6953   3.073   2.562   1.422  0.6872  2.3449 -0.4617
  463MPD2    N1 6954   2.543   2.433   1.235  0.0608 -0.0036  0.7639
  463MPD2    H7 6955   2.516   2.531   1.226 -1.0427 -0.4949 -1.1573
  464TMC3    C1 6956   2.328   2.372   1.156 -0.2192  0.6135  0.5248
  464TMC3    C2 6957   2.290   2.500   1.180 -0.2322  0.3437  0.4661
  464TMC3    C3 6958   2.181   2.556   1.116 -0.0915 -0.1554 -0.4171
  464TMC3    C4 6959   2.258   2.295   1.069 -0.0862 -0.3455 -0.5446
  464TMC3    C5 6960   2.150   2.354   0.999  0.1425 -0.1789  0.2160
  464TMC3    C6 6961   2.107   2.481   1.026 -0.3291  0.0737  0.2747
  464TMC3     C 6962   2.460   2.328   1.200  0.4959  0.0102  0.3829
  464TMC3     O 6963   2.479   2.209   1.181 -0.2020 -0.3353  0.1576
  464TMC3     H 6964   2.322   2.540   1.276  0.7474  0.3740  0.1252
  464TMC3    H1 6965   2.274   2.189   1.056 -0.9293 -0.3499 -1.5105
  464TMC3    H2 6966   2.028   2.530   0.971 -0.0578 -1.2994 -1.3429
  464TMC3    C7 6967   2.056   2.269   0.921  0.2881  0.6634  1.2540
  464TMC3    C8 6968   2.126   2.675   1.176  0.4115 -0.1924  0.0012
  464TMC3    O1 6969   2.095   2.164   0.871  0.4853  0.1931 -0.2157
  464TMC3    O2 6970   2.010   2.706   1.156 -0.0222 -0.0671 -0.1544
  465MPD2     C 6971   3.257   1.404  16.550  0.4619 -0.2425 -0.1931
  465MPD2    C1 6972   3.125   1.362  16.567 -0.3575 -0.3513 -0.4731
  465MPD2    C2 6973   3.027   1.425  16.501  0.1316  0.6651  0.0248
  465MPD2    C3 6974   3.051   1.512  16.397  1.1514 -0.2445 -0.1915
  465MPD2    C4 6975   3.178   1.558  16.382  1.3168 -0.5837  0.1614
  465MPD2    C5 6976   3.276   1.496  16.451  0.1489  0.0055 -0.5528
  465MPD2     H 6977   2.926   1.390  16.516  0.2351  0.8671  1.1704
  465MPD2    H1 6978   3.206   1.638  16.314  1.4318  0.5336  1.5081
  465MPD2    H2 6979   3.340   1.366  16.608  0.4184 -0.0774 -0.0221
  465MPD2    H3 6980   3.380   1.523  16.434  0.6849 -2.6634 -1.4242
  465MPD2     N 6981   2.941   1.569  16.332 -0.3020 -0.0169 -0.1739
  465MPD2    H5 6982   2.851   1.549  16.374 -0.3810  2.3540  0.7910
  465MPD2    N1 6983   3.086   1.280  16.674 -0.2716 -0.7397 -0.4645
  465MPD2    H7 6984   2.989   1.291  16.702 -0.3279  1.8680 -1.6715
  466TMC3    C1 6985   2.584   1.698  16.299 -0.1241  0.1747  0.1571
  466TMC3    C2 6986   2.584   1.833  16.287 -1.0404 -0.2031 -0.5371
  466TMC3    C3 6987   2.689   1.892  16.215 -0.3526  0.9447 -0.7758
  466TMC3    C4 6988   2.691   1.621  16.251  0.1625  0.3746  0.2897
  466TMC3    C5 6989   2.802   1.687  16.190 -0.1732 -0.8492  0.0887
  466TMC3    C6 6990   2.802   1.820  16.170 -0.2446  0.0052 -0.0237
  466TMC3     C 6991   2.523   1.652  16.419 -0.5585  0.2177  0.2201
  466TMC3     O 6992   2.583   1.576  16.492  0.1370 -0.2195  0.1007
  466TMC3     H 6993   2.494   1.888  16.312 -0.7308 -1.0637  2.4712
  466TMC3    H1 6994   2.701   1.520  16.288  0.5233  0.5365  0.6311
  466TMC3    H2 6995   2.882   1.869  16.116  0.3730  1.1617  1.9370
  466TMC3    C7 6996   2.939   1.649  16.222  0.5985  0.6272 -0.2816
  466TMC3    C8 6997   2.696   2.036  16.212 -0.2729  0.2548 -0.1368
  466TMC3    O1 6998   3.027   1.689  16.152  0.2645 -0.1282 -0.5462
  466TMC3    O2 6999   2.760   2.088  16.120  0.1177 -0.1695 -0.1855
  467TMC3    C1 7000   4.167   0.230  13.557  0.4451 -0.5309  0.3123
  467TMC3    C2 7001   4.140   0.287  13.435  0.0685  0.4638 -0.1250
  467TMC3    C3 7002   4.106   0.205  13.327  0.4350 -0.1080 -1.1077
  467TMC3    C4 7003   4.155   0.093  13.576 -0.2459 -1.1745  0.3327
  467TMC3    C5 7004   4.109   0.020  13.464 -0.4286  0.0310  0.6066
  467TMC3    C6 7005   4.075   0.072  13.339 -0.0493 -1.1465  0.4113
  467TMC3     C 7006   4.279   0.289  13.634  0.1276  0.1681 -0.1235
  467TMC3     O 7007   4.353   0.209  13.689  0.2659  0.1513 -0.3084
  467TMC3     H 7008   4.176   0.387  13.414 -0.7574  0.5611 -1.0768
  467TMC3    H1 7009   4.186   0.046  13.669 -1.9099 -0.0643  1.4252
  467TMC3    H2 7010   4.046   0.015  13.252  1.3068 -2.2208  0.6769
  467TMC3    C7 7011   4.065   4.623  13.479 -0.1511 -0.0243 -0.2396
  467TMC3    C8 7012   4.188   0.246  13.214  0.6192 -0.2441 -0.0500
  467TMC3    O1 7013   4.105   4.541  13.396  0.3059 -0.6253 -0.7436
  467TMC3    O2 7014   4.172   0.181  13.114 -0.1596  0.1298  0.0981
  468MPD2     C 7015   3.275   3.569  10.967  0.0505 -0.2810  0.5104
  468MPD2    C1 7016   3.384   3.536  11.049 -0.0901  0.3567  0.7683
  468MPD2    C2 7017   3.445   3.420  11.017  0.1163  0.0016  0.0006
  468MPD2    C3 7018   3.391   3.339  10.921  0.1213  0.1030  0.0079
  468MPD2    C4 7019   3.269   3.363  10.867 -0.0087 -0.1197 -1.3480
  468MPD2    C5 7020   3.218   3.486  10.886 -0.4156  0.1819 -0.0638
  468MPD2     H 7021   3.533   3.393  11.075  0.5464  0.4109 -0.4718
  468MPD2    H1 7022   3.219   3.288  10.807  0.2111 -1.8010  0.5460
  468MPD2    H2 7023   3.224   3.664  10.968 -2.7602 -1.7777  1.0970
  468MPD2    H3 7024   3.124   3.518  10.844 -0.8598 -1.3022 -0.2081
  468MPD2     N 7025   3.450   3.210  10.890 -0.1011  0.3533 -0.3572
  468MPD2    H5 7026   3.390   3.155  10.828  1.5694 -0.8913 -0.8631
  468MPD2    N1 7027   3.443   3.624  11.145  0.2274  0.0098 -0.5739
  468MPD2    H7 7028   3.537   3.609  11.181  0.4334 -0.8971 -1.5080
  469TMC3    C1 7029   3.418   3.789  11.320  0.7302  0.3403 -0.5579
  469TMC3    C2 7030   3.550   3.784  11.347 -0.5118  0.0562 -0.0695
  469TMC3    C3 7031   3.596   3.832  11.467 -0.6933 -0.0600  0.2287
  469TMC3    C4 7032   3.331   3.850  11.407 -0.1129 -0.3983 -0.0747
  469TMC3    C5 7033   3.383   3.906  11.517 -0.2387  0.9133 -0.4042
  469TMC3    C6 7034   3.512   3.893  11.562  0.6105 -0.8829  0.4422
  469TMC3     C 7035   3.360   3.721  11.205 -0.4984 -0.0175 -0.9388
  469TMC3     O 7036   3.239   3.743  11.188  0.7389 -0.5841 -0.6248
  469TMC3     H 7037   3.619   3.742  11.274  0.3156 -0.6501  1.1139
  469TMC3    H1 7038   3.223   3.851  11.398 -0.0494 -1.5838 -0.8372
  469TMC3    H2 7039   3.551   3.945  11.649  0.7006 -2.7699  1.5195
  469TMC3    C7 7040   3.285   3.987  11.577 -0.1644 -0.4424  0.4551
  469TMC3    C8 7041   3.742   3.832  11.485 -0.3547  0.5013  0.2814
  469TMC3    O1 7042   3.178   4.011  11.522  0.1340  0.4149 -0.4153
  469TMC3    O2 7043   3.806   3.800  11.386  0.2039 -0.1817  0.2254
  470TMC3    C1 7044   0.508   4.123   0.657 -0.1750  0.0573  0.1496
  470TMC3    C2 7045   0.460   4.247   0.616  0.1173 -0.4025 -0.6711
  470TMC3    C3 7046   0.520   4.355   0.682  0.0033 -0.2310  0.3461
  470TMC3    C4 7047   0.611   4.108   0.740  0.8671  0.0811  0.2969
  470TMC3    C5 7048   0.657   4.216   0.808  0.0156 -0.5362 -0.1911
  470TMC3    C6 7049   0.622   4.343   0.773 -0.4958 -0.5185  0.3084
  470TMC3     C 7050   0.449   4.007   0.590  0.0719  0.2098  0.3640
  470TMC3     O 7051   0.377   4.030   0.496  0.4940 -0.4099  0.0041
  470TMC3     H 7052   0.369   4.261   0.558  1.1813 -0.7240 -2.4242
  470TMC3    H1 7053   0.654   4.016   0.778  0.5057 -0.8997 -1.6892
  470TMC3    H2 7054   0.651   4.428   0.834 -1.4735  1.3282 -1.8063
  470TMC3    C7 7055   0.727   4.196   0.932  0.3010 -0.1671 -0.2703
  470TMC3    C8 7056   0.482   4.483   0.637  0.2654 -0.0776 -0.2525
  470TMC3    O1 7057   0.823   4.119   0.943  0.1416 -0.1929  0.2722
  470TMC3    O2 7058   0.570   4.559   0.666 -0.3780  0.0091 -0.0029
  471MPD2     C 7059   0.651   0.678  16.596 -1.2541  0.4157  0.0371
  471MPD2    C1 7060   0.694   0.550  16.586  0.5201 -0.2435 -0.6739
  471MPD2    C2 7061   0.762   0.495  16.690  0.5304  0.8060  0.1362
  471MPD2    C3 7062   0.770   0.569  16.807 -0.4560  0.0528  0.3384
  471MPD2    C4 7063   0.710   0.689  16.820 -0.3364  0.5537  0.5810
  471MPD2    C5 7064   0.657   0.746  16.711 -0.3155 -0.0930  0.2365
  471MPD2     H 7065   0.798   0.395  16.669 -1.5239  0.1906 -0.4129
  471MPD2    H1 7066   0.714   0.738  16.916  0.5811  0.1136  0.7732
  471MPD2    H2 7067   0.589   0.715  16.515 -1.4320  1.3341  0.6041
  471MPD2    H3 7068   0.625   0.849  16.713  0.1036  0.0211  0.8140
  471MPD2     N 7069   0.846   0.508  16.907  0.2767  0.1782  0.6979
  471MPD2    H5 7070   0.895   0.424  16.879  1.4177  0.5340  1.5903
  471MPD2    N1 7071   0.672   0.468  16.472  0.3846  0.2032 -0.1712
  471MPD2    H7 7072   0.697   0.372  16.494  2.8258  0.6960 -0.8309
  472TMC3    C1 7073   0.625   0.398  16.251 -0.1659  0.2829 -0.0784
  472TMC3    C2 7074   0.527   0.396  16.159  0.7669  0.2842 -0.2270
  472TMC3    C3 7075   0.542   0.315  16.051  0.1226  0.0479  0.4511
  472TMC3    C4 7076   0.718   0.300  16.262  0.3328  0.3726  0.1824
  472TMC3    C5 7077   0.723   0.212  16.158 -0.4987 -0.3579 -0.8653
  472TMC3    C6 7078   0.636   0.220  16.052 -0.1017 -0.1118 -0.0425
  472TMC3     C 7079   0.623   0.509  16.348  0.5100  0.1967 -0.4612
  472TMC3     O 7080   0.589   0.620  16.295 -0.0347  0.2707  0.0913
  472TMC3     H 7081   0.454   0.476  16.154 -1.1655 -1.5635 -1.9073
  472TMC3    H1 7082   0.797   0.301  16.337  0.2354 -0.7868  0.2859
  472TMC3    H2 7083   0.652   0.155  15.967  0.2589  2.1636 -1.7196
  472TMC3    C7 7084   0.735   0.077  16.216 -0.8307 -0.3144  0.2830
  472TMC3    C8 7085   0.424   0.273  15.977  0.0196  0.3819  0.0377
  472TMC3    O1 7086   0.788   0.063  16.327 -0.0936  0.4103  0.2413
  472TMC3    O2 7087   0.441   0.224  15.863  0.2501 -0.1592  0.0921
  473MPD2     C 7088   0.804   2.385  13.392  0.0876  0.3566  0.0547
  473MPD2    C1 7089   0.761   2.506  13.355  0.1472  0.3715 -0.1204
  473MPD2    C2 7090   0.755   2.602  13.457 -1.0102  0.7467  0.2817
  473MPD2    C3 7091   0.778   2.570  13.590 -0.1799  0.7737 -0.4603
  473MPD2    C4 7092   0.809   2.441  13.629 -0.6489 -0.0042 -0.1283
  473MPD2    C5 7093   0.831   2.355  13.523 -0.1685 -0.2705  0.5958
  473MPD2     H 7094   0.722   2.700  13.425 -1.0305 -0.2707 -2.7240
  473MPD2    H1 7095   0.848   2.409  13.725 -1.8177 -0.5861  0.1555
  473MPD2    H2 7096   0.819   2.309  13.315  0.5379 -0.3843  0.8716
  473MPD2    H3 7097   0.884   2.266  13.556  3.3517  2.2312  1.7809
  473MPD2     N 7098   0.782   2.664  13.690 -0.0479  0.5635  0.6712
  473MPD2    H5 7099   0.799   2.625  13.782 -0.0345  0.6013  0.6845
  473MPD2    N1 7100   0.725   2.544  13.224  0.5371  0.0721 -0.3570
  473MPD2    H7 7101   0.692   2.640  13.221 -0.9822 -0.5137 -2.2260
  474TMC3    C1 7102   0.741   2.882  13.789  0.3830  0.2918  0.3206
  474TMC3    C2 7103   0.738   3.017  13.770  0.1637 -0.7508  0.1166
  474TMC3    C3 7104   0.684   3.105  13.863  0.3371 -0.6736 -0.0055
  474TMC3    C4 7105   0.695   2.833  13.908 -0.2113  0.5900 -0.2543
  474TMC3    C5 7106   0.650   2.923  14.002 -0.0396  0.2433 -0.5001
  474TMC3    C6 7107   0.640   3.061  13.987  0.1506 -0.4514 -0.0964
  474TMC3     C 7108   0.773   2.798  13.672  0.4147  0.2078 -0.3924
  474TMC3     O 7109   0.787   2.863  13.572  0.8200  0.1491  0.1325
  474TMC3     H 7110   0.783   3.062  13.682  0.4968 -2.8240 -0.7769
  474TMC3    H1 7111   0.716   2.728  13.930 -1.8529  0.6228  1.4022
  474TMC3    H2 7112   0.583   3.123  14.055 -1.9643 -1.0922 -1.2521
  474TMC3    C7 7113   0.612   2.871  14.132  0.4110 -0.4871  0.3010
  474TMC3    C8 7114   0.649   3.239  13.819 -0.3379 -0.0495 -0.0791
  474TMC3    O1 7115   0.589   2.753  14.138 -0.1458 -0.6143 -0.0471
  474TMC3    O2 7116   0.633   3.263  13.699 -0.3218 -0.1933  0.0221
  475MPD2     C 7117   4.573   1.162  10.293  0.1511 -0.0929 -0.0223
  475MPD2    C1 7118   4.571   1.256  10.392  0.6169  0.7345  0.1624
  475MPD2    C2 7119   4.451   1.299  10.445  0.0413 -0.3621  0.4121
  475MPD2    C3 7120   4.337   1.234  10.419  0.1701 -0.6531 -0.2036
  475MPD2    C4 7121   4.340   1.131  10.327 -0.7476 -0.5331  0.5416
  475MPD2    C5 7122   4.458   1.097  10.264 -0.2076 -0.5786 -0.4944
  475MPD2     H 7123   4.459   1.380  10.517  0.6351  0.4523 -0.5648
  475MPD2    H1 7124   4.251   1.078  10.297  1.0245 -2.5123 -1.2646
  475MPD2    H2 7125   4.669   1.142  10.247 -1.7158 -0.9654 -3.5590
  475MPD2    H3 7126   4.468   1.033  10.178  0.4752 -0.3512 -0.5904
  475MPD2     N 7127   4.223   1.294  10.474 -0.1125  0.2264 -0.2322
  475MPD2    H5 7128   4.229   1.376  10.533 -2.8512 -0.3756  0.8883
  475MPD2    N1 7129   4.683   1.332  10.432  0.3002  0.0968 -0.1737
  475MPD2    H7 7130   4.658   1.398  10.505  1.9562 -1.3101  1.6719
  476TMC3    C1 7131   0.130   1.467  10.419 -0.3845 -0.5646 -0.3834
  476TMC3    C2 7132   0.163   1.558  10.316  0.2526 -0.4974 -0.4808
  476TMC3    C3 7133   0.115   1.690  10.323  0.0274  0.8909 -0.2251
  476TMC3    C4 7134   0.079   1.513  10.537  0.5718  0.3857  0.8747
  476TMC3    C5 7135   0.053   1.644  10.551  0.1015  0.6809  0.4255
  476TMC3    C6 7136   0.073   1.735  10.445 -0.0940 -0.0951 -0.7013
  476TMC3     C 7137   0.060   1.362  10.361  0.0517  0.4271  0.1529
  476TMC3     O 7138   0.077   1.334  10.240 -0.4844  0.1359 -0.8114
  476TMC3     H 7139   0.185   1.522  10.216  0.5050  0.6515 -0.8328
  476TMC3    H1 7140   0.057   1.446  10.619  0.0622 -0.3026  0.1717
  476TMC3    H2 7141   0.019   1.829  10.455 -1.4700 -1.2645  2.6945
  476TMC3    C7 7142   4.667   1.664  10.640  0.4753  0.7159 -0.1662
  476TMC3    C8 7143   0.008   1.720  10.233 -0.3664  0.2914  0.0443
  476TMC3    O1 7144   4.590   1.573  10.655 -0.1880  0.1027  0.0987
  476TMC3    O2 7145   4.711   1.837  10.233 -0.2930  0.2234 -0.1592
  477MPD2     C 7146   2.316   2.615  11.739 -0.9681  0.9081 -1.1328
  477MPD2    C1 7147   2.262   2.547  11.633 -0.8942  0.1152 -0.5734
  477MPD2    C2 7148   2.227   2.411  11.647  0.5570 -0.2760  0.0120
  477MPD2    C3 7149   2.233   2.357  11.779  0.1973  0.0824 -0.0535
  477MPD2    C4 7150   2.278   2.432  11.886  0.1656  0.4452  0.0698
  477MPD2    C5 7151   2.315   2.562  11.865 -0.0843 -0.8143  0.2318
  477MPD2     H 7152   2.191   2.357  11.560  0.3421  1.5486 -1.0423
  477MPD2    H1 7153   2.292   2.395  11.987 -0.1636 -1.0109 -0.4287
  477MPD2    H2 7154   2.354   2.712  11.709 -0.9961  1.6497  1.2643
  477MPD2    H3 7155   2.340   2.632  11.944 -1.5843 -2.4280  2.1163
  477MPD2     N 7156   2.196   2.224  11.794 -0.2191 -0.3456  0.2592
  477MPD2    H5 7157   2.169   2.178  11.708 -0.0579 -0.1014  0.0786
  477MPD2    N1 7158   2.241   2.616  11.509 -0.0901 -0.0505  0.0183
  477MPD2    H7 7159   2.233   2.717  11.514  1.4315  0.1425 -1.6565
  478TMC3    C1 7160   2.107   2.660  11.327  0.6664 -0.2966 -0.2322
  478TMC3    C2 7161   2.035   2.756  11.398  0.9941  0.0459  0.0076
  478TMC3    C3 7162   1.917   2.808  11.342  0.2299  0.0624 -0.5250
  478TMC3    C4 7163   2.056   2.610  11.207 -0.4274  0.1810 -0.1717
  478TMC3    C5 7164   1.943   2.672  11.157  0.2005 -0.4431  0.2976
  478TMC3    C6 7165   1.870   2.770  11.225 -0.2748 -0.7974 -0.0710
  478TMC3     C 7166   2.182   2.556  11.403  0.3729 -0.0552  0.6053
  478TMC3     O 7167   2.210   2.452  11.346 -0.2357 -0.1497  0.0054
  478TMC3     H 7168   2.084   2.794  11.487  0.5235 -2.3181  1.2853
  478TMC3    H1 7169   2.112   2.535  11.153 -0.2969  0.1210  0.0482
  478TMC3    H2 7170   1.773   2.802  11.188  1.0413  0.9809 -2.0249
  478TMC3    C7 7171   1.931   2.676  11.013  0.2583 -0.7958 -0.8750
  478TMC3    C8 7172   1.829   2.891  11.415 -0.4236  0.0019  1.0804
  478TMC3    O1 7173   1.981   2.588  10.951 -0.2284  0.0812  0.1594
  478TMC3    O2 7174   1.742   2.957  11.353 -0.0044 -0.1009  0.4860
  479MPD2     C 7175   0.234   4.578  15.154 -1.0566 -0.4817 -0.0650
  479MPD2    C1 7176   0.198   4.479  15.237 -0.8033  0.0065  0.1369
  479MPD2    C2 7177   0.261   4.466  15.360  0.0391 -0.1096  0.4987
  479MPD2    C3 7178   0.332   4.576  15.405 -0.2935 -0.1565  0.1254
  479MPD2    C4 7179   0.370   4.673  15.312  0.3529  0.2476 -0.6549
  479MPD2    C5 7180   0.326   4.671  15.183  0.2668 -0.4307  0.3285
  479MPD2     H 7181   0.255   4.377  15.422  1.9434 -1.4393 -1.2360
  479MPD2    H1 7182   0.427   0.023  15.343 -0.8399  1.1793 -1.0618
  479MPD2    H2 7183   0.193   4.593  15.055 -2.4333 -0.2116  0.5411
  479MPD2    H3 7184   0.357   0.007  15.109  1.2291 -0.8835  0.2876
  479MPD2     N 7185   0.379   4.597  15.538 -0.3286  0.3373  0.0726
  479MPD2    H5 7186   0.438   4.679  15.552  1.9253 -1.3216  0.2680
  479MPD2    N1 7187   0.095   4.395  15.193 -0.2257 -0.1443 -0.8762
  479MPD2    H7 7188   0.046   4.416  15.107  1.3036  1.0919 -1.4395
  480TMC3    C1 7189   0.158   4.245  15.766  0.4060  0.2787 -0.0135
  480TMC3    C2 7190   0.033   4.278  15.714  0.0934  0.3198  0.0407
  480TMC3    C3 7191   0.022   4.393  15.640 -0.3427 -0.7267  0.1140
  480TMC3    C4 7192   0.272   4.319  15.745  0.7525  0.2078 -0.6444
  480TMC3    C5 7193   0.254   4.424  15.659  0.6357 -0.8177 -0.0930
  480TMC3    C6 7194   0.127   4.476  15.625 -0.1780 -0.1198 -0.0555
  480TMC3     C 7195   0.178   4.129  15.859 -0.1809 -0.3067 -0.3314
  480TMC3     O 7196   0.286   4.071  15.867  0.2469  0.2355  0.0635
  480TMC3     H 7197   4.682   4.217  15.732  0.0833 -0.0876 -1.4585
  480TMC3    H1 7198   0.368   4.289  15.786 -0.1827 -0.5081  1.0168
  480TMC3    H2 7199   0.124   4.562  15.559  2.4708 -1.8630 -2.4634
  480TMC3    C7 7200   0.361   4.514  15.650 -0.5290 -0.6883  0.0958
  480TMC3    C8 7201   4.633   4.425  15.571 -0.1298 -0.4527  0.2368
  480TMC3    O1 7202   0.426   4.519  15.752  0.4342  0.3573  0.3837
  480TMC3    O2 7203   4.553   4.332  15.566 -0.0590  0.7338 -0.4088
  481MPD2     C 7204   2.258   4.298  14.427  0.3010 -0.4227  0.2709
  481MPD2    C1 7205   2.125   4.275  14.393  0.6393 -1.0088 -0.1741
  481MPD2    C2 7206   2.051   4.219  14.496 -0.3725 -0.7482 -0.0514
  481MPD2    C3 7207   2.096   4.186  14.623  0.6380  0.3490 -0.1572
  481MPD2    C4 7208   2.227   4.191  14.645 -0.3464  0.3155  0.4323
  481MPD2    C5 7209   2.307   4.259  14.553 -0.4011 -0.2050  0.3063
  481MPD2     H 7210   1.945   4.206  14.479 -0.1355  0.0128 -2.1949
  481MPD2    H1 7211   2.270   4.154  14.737 -0.9779  1.6022  1.2411
  481MPD2    H2 7212   2.328   4.350  14.363 -0.0883  1.4866  1.3583
  481MPD2    H3 7213   2.412   4.272  14.578 -0.7934  0.3945  1.6279
  481MPD2     N 7214   2.003   4.136  14.723 -0.4551 -0.2533 -0.1056
  481MPD2    H5 7215   2.055   4.107  14.806 -0.6348  0.0412  0.1083
  481MPD2    N1 7216   2.079   4.315  14.260 -0.3255  0.0265  0.1238
  481MPD2    H7 7217   2.142   4.359  14.194  0.8222 -0.8342  0.6501
  482TMC3    C1 7218   1.908   4.351  14.094  0.3389  0.3749 -0.0670
  482TMC3    C2 7219   1.803   4.282  14.040  0.1430  0.4565  0.3330
  482TMC3    C3 7220   1.771   4.323  13.919 -0.0459  0.6497 -0.3199
  482TMC3    C4 7221   1.975   4.463  14.042  0.6615  0.1241 -0.7947
  482TMC3    C5 7222   1.920   4.507  13.927  0.5706  0.5097 -0.2014
  482TMC3    C6 7223   1.823   4.436  13.862 -0.3867  0.3429 -0.0215
  482TMC3     C 7224   1.945   4.302  14.225 -0.0671  0.1196 -0.1047
  482TMC3     O 7225   1.853   4.252  14.290  0.2631 -0.3705  0.5567
  482TMC3     H 7226   1.769   4.189  14.085 -2.0208  0.1743 -1.9177
  482TMC3    H1 7227   2.042   4.526  14.099 -0.8201  1.9639 -1.0855
  482TMC3    H2 7228   1.790   4.472  13.765 -2.1270  1.1394  0.8782
  482TMC3    C7 7229   1.993   4.615  13.859 -0.2877 -0.7199 -0.4538
  482TMC3    C8 7230   1.723   4.228  13.822  0.2134  0.2117  0.1046
  482TMC3    O1 7231   2.013   4.713  13.926  0.4078  0.5243  0.0110
  482TMC3    O2 7232   1.723   4.114  13.865  0.6835  0.2386  0.0943
  483TMC3    C1 7233   0.321   3.124   1.235  0.8231 -0.4673  0.2532
  483TMC3    C2 7234   0.448   3.172   1.220  0.6113  0.0189  0.2226
  483TMC3    C3 7235   0.528   3.108   1.131  0.0964  0.4405  0.5851
  483TMC3    C4 7236   0.268   3.024   1.160  0.0663  0.2872  0.2861
  483TMC3    C5 7237   0.351   2.966   1.074 -0.1444 -0.4113 -0.2861
  483TMC3    C6 7238   0.481   3.007   1.063  0.3659  0.5322  0.1931
  483TMC3     C 7239   0.236   3.193   1.329 -0.8179  0.2430  0.1990
  483TMC3     O 7240   0.289   3.265   1.414 -0.1039 -0.3245  0.2973
  483TMC3     H 7241   0.474   3.266   1.268  2.2871 -1.3850  2.0369
  483TMC3    H1 7242   0.167   2.991   1.177  0.3319 -1.5369 -1.7679
  483TMC3    H2 7243   0.555   2.959   1.001 -0.8967 -0.5343 -0.4936
  483TMC3    C7 7244   0.294   2.886   0.965 -0.4036  0.7974  0.4086
  483TMC3    C8 7245   0.578   3.197   1.031 -0.0582  0.1018 -0.5565
  483TMC3    O1 7246   0.186   2.839   0.990  0.0646  0.0862  0.3302
  483TMC3    O2 7247   0.559   3.162   0.917  0.2702 -0.1711 -0.1296
  484MPD2     C 7248   2.647   1.373  13.136 -0.1514 -0.5041 -1.0524
  484MPD2    C1 7249   2.608   1.325  13.011 -0.4495  0.5519 -0.1357
  484MPD2    C2 7250   2.689   1.360  12.897  0.1404  0.1295  0.5183
  484MPD2    C3 7251   2.812   1.419  12.917  0.0767  0.3378 -0.4834
  484MPD2    C4 7252   2.852   1.457  13.048  0.6367 -0.5065  0.7928
  484MPD2    C5 7253   2.772   1.429  13.153  0.3509  0.2795  0.4607
  484MPD2     H 7254   2.652   1.319  12.804 -0.1648  1.4572  0.0634
  484MPD2    H1 7255   2.940   1.516  13.071 -1.6896  2.9877  0.5638
  484MPD2    H2 7256   2.594   1.346  13.227 -0.1333  2.3444 -0.1809
  484MPD2    H3 7257   2.806   1.463  13.249  1.0835 -0.7837  0.5692
  484MPD2     N 7258   2.905   1.444  12.810 -0.1380 -0.1724 -0.4422
  484MPD2    H5 7259   3.003   1.449  12.838  0.1397 -0.1139 -1.4448
  484MPD2    N1 7260   2.489   1.254  12.993 -0.2092 -0.2360 -0.3866
  484MPD2    H7 7261   2.442   1.223  13.077  4.5717 -2.8609  1.3644
  485TMC3    C1 7262   3.010   1.445  12.597 -0.6351 -0.0850  0.8904
  485TMC3    C2 7263   3.119   1.464  12.679  0.1323 -0.3951 -0.0118
  485TMC3    C3 7264   3.233   1.398  12.641  0.0046  0.2550  0.9314
  485TMC3    C4 7265   3.018   1.367  12.485 -0.4814 -0.1945 -0.7158
  485TMC3    C5 7266   3.136   1.295  12.458  0.3504  0.6659  1.2312
  485TMC3    C6 7267   3.243   1.309  12.540 -0.9684 -0.7589 -0.0510
  485TMC3     C 7268   2.887   1.426  12.678  0.3830  0.0832  0.6071
  485TMC3     O 7269   2.788   1.403  12.611  0.1299 -0.0228  0.5012
  485TMC3     H 7270   3.125   1.556  12.735 -2.4452 -0.5414  0.4880
  485TMC3    H1 7271   2.926   1.353  12.429  0.7438  1.0027 -3.0150
  485TMC3    H2 7272   3.335   1.253  12.525 -1.6765 -1.6781 -0.9927
  485TMC3    C7 7273   3.185   1.307  12.322 -0.0562 -0.5973  0.4701
  485TMC3    C8 7274   3.355   1.465  12.660  0.7651 -0.4881 -0.4432
  485TMC3    O1 7275   3.305   1.300  12.312 -0.0076  0.1838 -0.4132
  485TMC3    O2 7276   3.373   1.528  12.764  0.0416 -0.2087  0.6782
  486MPD2     C 7277   0.587   0.380  13.092  0.6744  0.4736 -0.1912
  486MPD2    C1 7278   0.492   0.332  13.006 -0.0554  0.1149  0.4839
  486MPD2    C2 7279   0.417   0.426  12.942 -0.0034 -0.1169 -0.7998
  486MPD2    C3 7280   0.441   0.568  12.959 -0.5982 -0.8202  0.0356
  486MPD2    C4 7281   0.532   0.611  13.053 -0.0633  0.3491 -0.2248
  486MPD2    C5 7282   0.606   0.514  13.119  0.2439 -0.9093  0.0395
  486MPD2     H 7283   0.334   0.388  12.884 -0.1933 -0.5078 -0.2641
  486MPD2    H1 7284   0.555   0.716  13.069 -2.1954  1.0395 -1.5805
  486MPD2    H2 7285   0.651   0.308  13.141  0.7153 -0.5924 -1.8163
  486MPD2    H3 7286   0.680   0.550  13.190 -0.1272  1.9014 -1.0370
  486MPD2     N 7287   0.378   0.659  12.872  0.3312  0.0245 -0.5824
  486MPD2    H5 7288   0.325   0.612  12.800 -1.7490  0.0710  0.9230
  486MPD2    N1 7289   0.475   0.192  12.994 -0.8251 -0.0968 -0.1115
  486MPD2    H7 7290   0.526   0.136  13.061 -1.1432  1.3140  1.3150
  487TMC3    C1 7291   0.429   4.720  12.887 -0.0902  0.0133  0.6749
  487TMC3    C2 7292   0.395   4.646  12.776  0.2689  0.4946  0.4079
  487TMC3    C3 7293   0.399   4.509  12.787 -0.7686 -0.0979 -0.2685
  487TMC3    C4 7294   0.427   4.663  13.016  0.2606 -0.2720 -0.5924
  487TMC3    C5 7295   0.409   4.527  13.028 -0.0072  0.5400 -0.2029
  487TMC3    C6 7296   0.409   4.454  12.914  1.0637 -0.3737 -0.5569
  487TMC3     C 7297   0.418   0.132  12.881 -0.0515 -0.0367 -0.2002
  487TMC3     O 7298   0.369   0.181  12.780  0.5997 -0.1505  0.2429
  487TMC3     H 7299   0.374   4.691  12.680 -0.6781 -1.1550 -0.1540
  487TMC3    H1 7300   0.425   4.728  13.102  2.5435  0.3300 -0.9793
  487TMC3    H2 7301   0.430   4.348  12.920  1.0970 -0.3016  0.6928
  487TMC3    C7 7302   0.316   4.482  13.127 -0.3243  0.9914  0.1553
  487TMC3    C8 7303   0.332   4.429  12.686 -0.4210  0.1451  0.1497
  487TMC3    O1 7304   0.261   4.575  13.192 -0.1717 -0.1817  0.2446
  487TMC3    O2 7305   0.378   4.421  12.571  0.1670 -0.2568 -0.2478
  488MPD2     C 7306   0.260   1.782  16.574 -0.8317 -0.6378 -0.7392
  488MPD2    C1 7307   0.290   1.912  16.572 -0.2806 -0.2616  0.1242
  488MPD2    C2 7308   0.226   1.991  16.666  0.0464 -0.1713 -0.2220
  488MPD2    C3 7309   0.130   1.945  16.757 -0.9157 -0.3370 -0.1469
  488MPD2    C4 7310   0.107   1.807  16.756  0.4094 -0.6380 -0.1402
  488MPD2    C5 7311   0.167   1.729  16.660 -0.2280 -1.0579 -0.1974
  488MPD2     H 7312   0.250   2.097  16.671  3.0788 -0.8828  0.0701
  488MPD2    H1 7313   0.032   1.750  16.810 -1.2533  1.6263 -0.0430
  488MPD2    H2 7314   0.309   1.713  16.507  1.5581  2.2969 -2.0381
  488MPD2    H3 7315   0.146   1.623  16.661 -0.5193 -1.0053 -0.9737
  488MPD2     N 7316   0.083   2.035  16.854 -0.3546 -0.0813 -0.2935
  488MPD2    H5 7317   0.115   2.131  16.854 -2.1907  0.5178  0.1491
  488MPD2    N1 7318   0.382   1.979  16.480 -0.2307  0.0492 -0.6116
  488MPD2    H7 7319   0.387   2.080  16.486  1.0976 -0.0281 -0.4785
  489TMC3    C1 7320   4.697   2.133  17.024 -0.5673  0.5827  0.0815
  489TMC3    C2 7321   0.056   2.233  17.013  0.1306 -0.0496  0.0722
  489TMC3    C3 7322   0.028   2.349  17.081  0.1272 -0.0606 -0.8054
  489TMC3    C4 7323   4.583   2.140  17.096 -0.4144  0.0447 -0.2476
  489TMC3    C5 7324   4.552   2.268  17.139 -0.9875 -0.3436  0.5141
  489TMC3    C6 7325   4.643   2.367  17.131 -0.2148  0.1636 -0.8398
  489TMC3     C 7326   4.720   2.010  16.941 -0.6276  0.2481 -0.6678
  489TMC3     O 7327   4.669   1.902  16.979 -0.0525  0.1448 -0.4355
  489TMC3     H 7328   0.155   2.224  16.969  0.3383 -0.3508  0.6005
  489TMC3    H1 7329   4.510   2.063  17.074 -1.6117  0.7721  1.1757
  489TMC3    H2 7330   4.610   2.459  17.179  0.0741 -0.4804  0.6016
  489TMC3    C7 7331   4.428   2.287  17.213 -0.5213 -0.1693  0.0903
  489TMC3    C8 7332   0.122   2.465  17.065 -0.7046 -0.2538  0.2440
  489TMC3    O1 7333   4.361   2.390  17.212  0.2610  0.0918  0.0022
  489TMC3    O2 7334   0.214   2.447  16.990  0.0459 -0.4009 -0.2021
  490MPD2     C 7335   1.026   1.154  17.089  0.8833  0.3062  0.5617
  490MPD2    C1 7336   0.959   1.148  17.211 -0.0081 -0.4056  0.5324
  490MPD2    C2 7337   1.000   1.223  17.318 -0.6816  0.3795 -0.3202
  490MPD2    C3 7338   1.125   1.287  17.307  0.6538 -0.3216 -0.3851
  490MPD2    C4 7339   1.191   1.288  17.186 -0.0312 -0.2263  0.3678
  490MPD2    C5 7340   1.140   1.230  17.075  0.3730 -0.2969 -0.1015
  490MPD2     H 7341   0.949   1.233  17.413  1.1457 -1.8814  0.9047
  490MPD2    H1 7342   1.279   1.350  17.169  1.0729 -1.6696  0.8381
  490MPD2    H2 7343   0.990   1.108  16.998  1.1134  1.2746 -0.0139
  490MPD2    H3 7344   1.191   1.242  16.980  1.5490 -0.3864  0.5249
  490MPD2     N 7345   1.183   1.351  17.418 -0.0456  0.9832  0.1289
  490MPD2    H5 7346   1.266   1.408  17.404  2.1599 -2.4123 -0.4695
  490MPD2    N1 7347   0.838   1.074  17.224  0.3009  0.1722 -0.3047
  490MPD2    H7 7348   0.799   1.073  17.318  1.2995  0.0576  0.1087
  491TMC3    C1 7349   0.668   0.911  17.191 -0.5295 -0.0099 -0.0543
  491TMC3    C2 7350   0.666   0.891  17.330 -0.3030 -0.9634  0.2809
  491TMC3    C3 7351   0.594   0.787  17.383  0.2506 -0.3240 -0.2850
  491TMC3    C4 7352   0.574   0.848  17.116  1.0014  0.8858  0.6801
  491TMC3    C5 7353   0.495   0.753  17.177  0.3493  0.2937 -0.4272
  491TMC3    C6 7354   0.508   0.717  17.306  1.0838  0.6119 -0.1546
  491TMC3     C 7355   0.777   0.989  17.131 -0.1430  0.6432 -0.0868
  491TMC3     O 7356   0.797   0.981  17.013  0.0797 -0.3410  0.3096
  491TMC3     H 7357   0.747   0.929  17.392  0.8551 -1.0162 -1.2002
  491TMC3    H1 7358   0.577   0.858  17.008 -1.3888  2.8113  0.7803
  491TMC3    H2 7359   0.450   0.640  17.356  0.3571  1.3665  0.1550
  491TMC3    C7 7360   0.407   0.669  17.098  0.6257 -0.7844  0.6770
  491TMC3    C8 7361   0.610   0.762  17.528  0.1104  0.3371  0.4583
  491TMC3    O1 7362   0.359   0.571  17.153 -0.2267  0.1010 -0.2507
  491TMC3    O2 7363   0.638   0.865  17.591 -0.0105 -0.4375  0.3768
  492MPD2     C 7364   1.326   1.494  11.375  0.4744  0.3542  0.4917
  492MPD2    C1 7365   1.233   1.442  11.288  0.1582  0.1679 -0.0246
  492MPD2    C2 7366   1.152   1.342  11.344  0.4740  0.8429 -0.3049
  492MPD2    C3 7367   1.153   1.304  11.479 -0.3713  0.3425  0.3001
  492MPD2    C4 7368   1.239   1.369  11.567 -0.0458 -0.3182  0.1135
  492MPD2    C5 7369   1.324   1.459  11.510 -0.0424 -0.2548 -0.3350
  492MPD2     H 7370   1.077   1.306  11.275 -1.7568 -0.5386  2.8606
  492MPD2    H1 7371   1.233   1.357  11.675 -1.3832 -1.2267 -0.0499
  492MPD2    H2 7372   1.388   1.578  11.347  1.4337  0.3310  2.4864
  492MPD2    H3 7373   1.382   1.524  11.575 -0.8692  1.4238 -1.2732
  492MPD2     N 7374   1.056   1.222  11.541  0.0667 -0.4919 -0.1539
  492MPD2    H5 7375   1.068   1.211  11.641 -0.5539 -1.8773 -0.2367
  492MPD2    N1 7376   1.223   1.493  11.157  0.8370  0.2217  0.2007
  492MPD2    H7 7377   1.283   1.571  11.133  0.5157  0.0270 -1.2216
  493TMC3    C1 7378   1.157   1.516  10.925  0.4584  0.2983 -0.6394
  493TMC3    C2 7379   1.204   1.646  10.921  0.0295 -0.5678 -0.2180
  493TMC3    C3 7380   1.216   1.715  10.806 -0.4729 -0.2789  0.0311
  493TMC3    C4 7381   1.136   1.452  10.812 -0.1452  0.8743  1.0464
  493TMC3    C5 7382   1.135   1.531  10.697  0.3378  1.0439 -0.4416
  493TMC3    C6 7383   1.183   1.656  10.686  0.0958  0.2699  0.2489
  493TMC3     C 7384   1.142   1.444  11.050 -0.4210  0.0837 -0.3170
  493TMC3     O 7385   1.059   1.352  11.049  0.1588 -0.3604  0.3106
  493TMC3     H 7386   1.230   1.694  11.015 -0.7898 -0.1176 -0.2230
  493TMC3    H1 7387   1.076   1.361  10.811 -1.7872  1.9835 -1.4795
  493TMC3    H2 7388   1.187   1.716  10.596 -0.9952  0.8648  0.5980
  493TMC3    C7 7389   1.110   1.463  10.576  1.1314 -0.3477 -0.2464
  493TMC3    C8 7390   1.281   1.848  10.810  0.6751 -0.2964 -0.4823
  493TMC3    O1 7391   1.054   1.532  10.488  0.1544  0.1619  0.3811
  493TMC3    O2 7392   1.298   1.894  10.923  0.2007 -0.1344  0.3244
  494TMC3    C1 7393   1.300   2.874   0.625  0.0556 -0.1386 -0.6944
  494TMC3    C2 7394   1.314   2.749   0.602 -0.3168 -0.2687 -0.3597
  494TMC3    C3 7395   1.317   2.712   0.473 -0.5378  0.0022 -0.2334
  494TMC3    C4 7396   1.317   2.973   0.530  0.3373 -0.0066 -1.1496
  494TMC3    C5 7397   1.326   2.925   0.402  0.1759 -0.3710 -0.3259
  494TMC3    C6 7398   1.316   2.795   0.368  0.2524 -0.2831 -0.2779
  494TMC3     C 7399   1.288   2.908   0.761 -0.3469 -0.1380  0.2158
  494TMC3     O 7400   1.348   3.008   0.800 -0.0774 -0.0006 -0.2569
  494TMC3     H 7401   1.335   2.678   0.681 -2.9811 -1.6074 -0.8425
  494TMC3    H1 7402   1.292   3.074   0.561  1.2740 -0.5080  1.2300
  494TMC3    H2 7403   1.341   2.761   0.268 -0.5926 -0.8495 -0.2936
  494TMC3    C7 7404   1.332   3.012   0.287 -0.1942  0.4856 -0.3915
  494TMC3    C8 7405   1.369   2.579   0.448  0.2277  0.0220  0.1496
  494TMC3    O1 7406   1.293   2.959   0.185 -0.4733 -0.2653 -0.9385
  494TMC3    O2 7407   1.416   2.528   0.548 -0.0895 -0.1252 -0.7411
  495TMC3    C1 7408   0.107   0.196  14.841 -0.4423  0.4592 -0.1040
  495TMC3    C2 7409   0.041   0.190  14.721 -0.1176 -0.7107  0.3931
  495TMC3    C3 7410   4.637   0.165  14.723  0.1249 -0.5200 -0.2029
  495TMC3    C4 7411   0.039   0.188  14.958 -0.1679 -0.3373 -0.2997
  495TMC3    C5 7412   4.638   0.171  14.955  0.0361 -0.3525  0.1602
  495TMC3    C6 7413   4.565   0.156  14.835  0.9020 -0.6161 -0.0550
  495TMC3     C 7414   0.226   0.114  14.831  0.0005  0.1502 -0.0970
  495TMC3     O 7415   0.335   0.167  14.818  0.2189 -0.3487  0.5154
  495TMC3     H 7416   0.103   0.187  14.633 -3.2722  0.3320 -1.8730
  495TMC3    H1 7417   0.100   0.187  15.047  0.2302 -1.1033 -0.5836
  495TMC3    H2 7418   4.459   0.131  14.840  0.6553 -0.0365 -2.5324
  495TMC3    C7 7419   4.593   0.137  15.091 -0.2850  0.3055  0.1553
  495TMC3    C8 7420   4.597   0.068  14.620  0.3483 -0.1643 -0.0262
  495TMC3    O1 7421   4.656   0.175  15.187 -0.6524 -0.7110  0.3729
  495TMC3    O2 7422   4.490   0.015  14.638 -0.1536 -0.1594 -0.0936
  496MPD2     C 7423   2.685   4.486  14.701 -0.4730 -0.4161  0.4511
  496MPD2    C1 7424   2.670   4.535  14.829 -0.1385 -0.6537 -0.2608
  496MPD2    C2 7425   2.546   4.583  14.867  0.0180  0.5749 -0.2618
  496MPD2    C3 7426   2.443   4.617  14.784 -0.1682  0.3410 -0.3001
  496MPD2    C4 7427   2.463   4.569  14.651 -0.3414 -0.3494  0.0584
  496MPD2    C5 7428   2.588   4.512  14.617 -0.6457  0.0364 -0.0187
  496MPD2     H 7429   2.528   4.607  14.972 -0.6988 -2.2842  0.2537
  496MPD2    H1 7430   2.381   4.576  14.580 -1.4045  0.9314  1.3912
  496MPD2    H2 7431   2.783   4.456  14.666 -0.4124  0.4730 -0.1363
  496MPD2    H3 7432   2.607   4.476  14.517  1.0225 -0.2871  0.4170
  496MPD2     N 7433   2.336   4.688  14.841  0.7998  0.2075 -0.3741
  496MPD2    H5 7434   2.338   4.690  14.943 -1.5505  0.4372 -0.3176
  496MPD2    N1 7435   2.787   4.533  14.913 -0.1712 -0.2257 -0.0667
  496MPD2    H7 7436   2.880   4.502  14.886  0.3650  0.0377  1.4526
  497TMC3    C1 7437   2.123   0.067  14.829 -0.5736 -0.0215 -0.2122
  497TMC3    C2 7438   2.037   0.144  14.742 -1.2971  0.3296 -0.4730
  497TMC3    C3 7439   1.903   0.133  14.768 -0.6969 -0.8002  0.0914
  497TMC3    C4 7440   2.065   0.002  14.939  0.2820 -0.8235 -0.3580
  497TMC3    C5 7441   1.938   0.018  14.965  0.4568  0.1979 -0.5804
  497TMC3    C6 7442   1.851   0.066  14.868  0.1098 -0.0488  0.2283
  497TMC3     C 7443   2.242   0.017  14.762  0.0585 -0.1985 -0.3972
  497TMC3     O 7444   2.261   0.045  14.643  0.2004  0.9773  0.5008
  497TMC3     H 7445   2.074   0.203  14.659  1.1265 -1.7153 -0.8254
  497TMC3    H1 7446   2.133   4.691  15.009 -0.6672 -0.5947  0.7235
  497TMC3    H2 7447   1.746   0.076  14.892 -0.4427 -1.1089 -1.7112
  497TMC3    C7 7448   1.879   0.006  15.100 -0.3187  0.8978  0.5381
  497TMC3    C8 7449   1.810   0.176  14.663  0.0893  0.5832 -0.0972
  497TMC3    O1 7450   1.759   0.029  15.109 -0.4027  0.1078 -0.2145
  497TMC3    O2 7451   1.848   0.274  14.599  0.4506 -0.1665  0.3049
  498MPD2     C 7452   3.419   1.555  10.278 -0.4097  0.2335 -0.7394
  498MPD2    C1 7453   3.502   1.465  10.217  0.2136  0.7548  0.1235
  498MPD2    C2 7454   3.509   1.338  10.267 -0.6978  0.4819 -0.7364
  498MPD2    C3 7455   3.421   1.289  10.364  0.1783  0.5524  0.1754
  498MPD2    C4 7456   3.338   1.386  10.420  0.1142 -0.4279 -0.0066
  498MPD2    C5 7457   3.335   1.515  10.373  0.6536 -0.4121 -1.2262
  498MPD2     H 7458   3.564   1.262  10.213  0.0188  0.5481 -0.0980
  498MPD2    H1 7459   3.263   1.360  10.494 -0.3908  0.1148 -0.3230
  498MPD2    H2 7460   3.424   1.661  10.258  0.2658  0.4472  0.5580
  498MPD2    H3 7461   3.258   1.583  10.407 -1.5857 -2.5451 -2.0070
  498MPD2     N 7462   3.418   1.149  10.392  0.2074  0.8587 -0.2253
  498MPD2    H5 7463   3.499   1.101  10.355 -0.1161 -0.1603  0.3529
  498MPD2    N1 7464   3.579   1.501  10.102  0.2303  0.3775 -0.6147
  498MPD2    H7 7465   3.631   1.423  10.062  2.2641  2.3346 -1.7714
  499TMC3    C1 7466   3.638   1.618   9.903 -0.4644 -0.1883  0.4283
  499TMC3    C2 7467   3.746   1.526   9.891  0.4198  0.2658  0.7362
  499TMC3    C3 7468   3.842   1.551   9.796  0.2408 -0.3451 -0.0974
  499TMC3    C4 7469   3.626   1.730   9.824  0.9227 -0.6532  0.4788
  499TMC3    C5 7470   3.726   1.734   9.724 -0.5516 -0.0145 -0.0349
  499TMC3    C6 7471   3.831   1.654   9.707  0.1524  0.3339 -0.3882
  499TMC3     C 7472   3.573   1.620  10.034 -0.2359  0.2569 -0.2366
  499TMC3     O 7473   3.509   1.719  10.062 -0.0142  0.6012  0.3729
  499TMC3     H 7474   3.765   1.441   9.955  1.8437 -0.9541 -1.3019
  499TMC3    H1 7475   3.561   1.815   9.840 -1.1178 -1.8929 -1.3773
  499TMC3    H2 7476   3.892   1.671   9.619  1.9271 -2.1915  0.3622
  499TMC3    C7 7477   3.729   1.856   9.640 -0.1949  0.6751  0.4543
  499TMC3    C8 7478   3.956   1.456   9.799  0.0636 -0.0223  0.0727
  499TMC3    O1 7479   3.842   1.889   9.603  0.1376  0.2423 -0.4878
  499TMC3    O2 7480   3.929   1.339   9.832 -0.4889 -0.1182  0.4923
  500MPD2     C 7481   0.549   2.790   9.630 -0.0459 -0.9322 -0.2259
  500MPD2    C1 7482   0.558   2.733   9.761  1.1109 -1.1225 -0.3749
  500MPD2    C2 7483   0.473   2.629   9.789 -0.5902 -0.3067  0.1487
  500MPD2    C3 7484   0.381   2.582   9.693 -0.2039  0.4992  0.6225
  500MPD2    C4 7485   0.369   2.643   9.571  0.2130 -0.4177  0.1027
  500MPD2    C5 7486   0.461   2.736   9.540  0.4476  0.1939 -0.1389
  500MPD2     H 7487   0.483   2.591   9.890 -2.5115  0.8957  0.7925
  500MPD2    H1 7488   0.283   2.625   9.507  0.9404  1.7952 -1.5047
  500MPD2    H2 7489   0.622   2.857   9.587  0.1279 -1.6406 -1.0427
  500MPD2    H3 7490   0.461   2.779   9.440 -1.6285 -3.8933 -1.8925
  500MPD2     N 7491   0.281   2.481   9.732  1.0720 -0.0203 -0.3849
  500MPD2    H5 7492   0.231   2.450   9.649  0.6162 -0.5488  0.0849
  500MPD2    N1 7493   0.656   2.782   9.853 -0.4028 -0.2084  0.1860
  500MPD2    H7 7494   0.651   2.733   9.942 -2.6601  0.2187  0.2921
  501TMC3    C1 7495   0.807   2.919   9.972 -0.2644 -0.2413 -0.1380
  501TMC3    C2 7496   0.823   3.050  10.000 -0.4085 -0.0431 -0.5495
  501TMC3    C3 7497   0.825   3.085  10.128 -0.8756 -0.5134 -0.3993
  501TMC3    C4 7498   0.829   2.814  10.059  0.0091  0.1463  0.1256
  501TMC3    C5 7499   0.850   2.859  10.186 -0.1420  0.5641  0.6708
  501TMC3    C6 7500   0.830   2.988  10.224  0.2642  0.2046  1.0092
  501TMC3     C 7501   0.753   2.882   9.840  0.7440 -0.3391  0.4348
  501TMC3     O 7502   0.760   2.957   9.742  0.7928  0.0642 -0.5912
  501TMC3     H 7503   0.823   3.124   9.921 -0.0099 -1.0723 -1.4999
  501TMC3    H1 7504   0.856   2.714  10.028  0.6041  0.4318 -0.2756
  501TMC3    H2 7505   0.829   3.014  10.329 -0.1619 -1.9945  1.5479
  501TMC3    C7 7506   0.944   2.788  10.266  0.5554 -0.0748 -0.3354
  501TMC3    C8 7507   0.922   3.195  10.158 -0.1823 -0.4466 -0.1116
  501TMC3    O1 7508   0.945   2.666  10.269 -0.0086 -0.0478 -0.4653
  501TMC3    O2 7509   0.997   3.161  10.245 -0.6085  0.0594  0.3939
  502TMC3    C1 7510   4.714   0.725  15.239 -0.6957  0.5512  0.4343
  502TMC3    C2 7511   0.044   0.819  15.165 -0.7599 -0.5306 -0.4037
  502TMC3    C3 7512   0.037   0.819  15.027  0.4270 -0.2599  0.3400
  502TMC3    C4 7513   4.645   0.623  15.177 -0.2353  0.3442 -0.4337
  502TMC3    C5 7514   4.653   0.621  15.040 -0.4942  0.6212  0.4109
  502TMC3    C6 7515   4.721   0.712  14.959  0.4552  0.4505 -0.1388
  502TMC3     C 7516   4.727   0.740  15.378 -0.1798 -0.0873  0.3611
  502TMC3     O 7517   0.085   0.805  15.415  0.3033  0.2931 -0.0756
  502TMC3     H 7518   0.080   0.904  15.222 -1.5607 -1.7590  1.9270
  502TMC3    H1 7519   4.608   0.540  15.235  0.8250  0.6888  0.7461
  502TMC3    H2 7520   4.724   0.695  14.852  0.3774  1.0684 -0.2346
  502TMC3    C7 7521   4.563   0.542  14.965 -0.1119  0.0978 -0.2113
  502TMC3    C8 7522   0.104   0.930  14.959 -0.1361 -0.4539  0.4985
  502TMC3    O1 7523   4.608   0.506  14.856  0.0787 -0.6773  0.4557
  502TMC3    O2 7524   0.141   1.028  15.014  0.2449 -0.1023 -0.0937
  503MPD2     C 7525   1.891   1.525  16.834  0.3724 -0.8028 -0.1484
  503MPD2    C1 7526   1.885   1.573  16.959 -0.3813 -0.0673  0.6758
  503MPD2    C2 7527   1.889   1.484  17.060 -0.1922  0.3806 -0.5681
  503MPD2    C3 7528   1.906   1.346  17.045 -0.1598  0.1123 -0.3522
  503MPD2    C4 7529   1.915   1.298  16.917  0.5455 -0.6857 -0.3932
  503MPD2    C5 7530   1.898   1.392  16.817 -0.0578 -0.2803 -0.7519
  503MPD2     H 7531   1.870   1.519  17.161  0.2664  0.5832 -0.5496
  503MPD2    H1 7532   1.909   1.195  16.884  0.3011 -1.1089  1.0017
  503MPD2    H2 7533   1.876   1.587  16.747 -2.6661 -0.3257  0.6948
  503MPD2    H3 7534   1.903   1.355  16.715 -2.3481 -1.0685 -0.5718
  503MPD2     N 7535   1.920   1.258  17.159 -0.8096  0.4630 -0.5417
  503MPD2    H5 7536   1.923   1.300  17.251 -0.6644 -0.4919 -0.1123
  503MPD2    N1 7537   1.856   1.706  16.988  0.6208 -0.2898 -0.0864
  503MPD2    H7 7538   1.878   1.738  17.081  1.7198 -0.9857 -0.1079
  504TMC3    C1 7539   1.988   1.066  17.287  0.1741 -0.0134 -0.6511
  504TMC3    C2 7540   1.973   1.145  17.397 -0.5061  0.0852  0.1589
  504TMC3    C3 7541   2.049   1.111  17.506  0.8877  0.1195 -0.6800
  504TMC3    C4 7542   2.092   0.972  17.280 -0.1421 -0.5458  0.6413
  504TMC3    C5 7543   2.180   0.958  17.391 -0.8682 -0.1050  0.0963
  504TMC3    C6 7544   2.151   1.023  17.507  1.0379 -0.0656  0.2917
  504TMC3     C 7545   1.953   1.125  17.152  0.1601 -0.1453 -0.4466
  504TMC3     O 7546   1.952   1.044  17.061  0.2209  0.3789 -0.2853
  504TMC3     H 7547   1.896   1.221  17.405 -0.2619  0.4996 -1.3603
  504TMC3    H1 7548   2.116   0.930  17.183  1.5420  1.9437 -0.0066
  504TMC3    H2 7549   2.222   1.015  17.589  0.6970  0.6666  0.6600
  504TMC3    C7 7550   2.306   0.890  17.364  0.1993  0.0233  0.4411
  504TMC3    C8 7551   2.019   1.191  17.621 -0.1016 -0.5939 -0.4062
  504TMC3    O1 7552   2.304   0.831  17.253  0.2443 -0.9191  0.3315
  504TMC3    O2 7553   1.950   1.291  17.602 -0.3025  0.1884 -0.0814
  505MPD2     C 7554   2.566   0.270  10.471  0.0499 -0.7661  0.1197
  505MPD2    C1 7555   2.638   0.162  10.507 -0.3161  0.1279  0.0785
  505MPD2    C2 7556   2.665   0.142  10.643  0.1777 -0.4045 -0.3295
  505MPD2    C3 7557   2.604   0.227  10.736  0.3195  0.0402 -0.6663
  505MPD2    C4 7558   2.524   0.335  10.703 -0.1847  0.6856 -0.3933
  505MPD2    C5 7559   2.509   0.353  10.566  0.7965 -0.4269 -0.1882
  505MPD2     H 7560   2.734   0.063  10.667 -2.4615 -2.9184 -1.0788
  505MPD2    H1 7561   2.467   0.395  10.773  2.6396  0.7278  1.8648
  505MPD2    H2 7562   2.534   0.285  10.368 -2.0345  0.6261  0.9675
  505MPD2    H3 7563   2.443   0.432  10.531 -0.6085 -1.0173  1.1339
  505MPD2     N 7564   2.634   0.184  10.864 -0.2847 -0.0382  0.3005
  505MPD2    H5 7565   2.684   0.096  10.871 -1.0644 -0.6212 -1.5037
  505MPD2    N1 7566   2.688   0.089  10.398  0.1887  0.3729 -0.0192
  505MPD2    H7 7567   2.673   0.122  10.304  3.3100 -1.1236 -1.0336
  506TMC3    C1 7568   2.815   4.652  10.301 -0.6401  0.2123 -0.0042
  506TMC3    C2 7569   2.893   0.001  10.233 -1.2848  0.6449  0.0994
  506TMC3    C3 7570   3.002   4.691  10.170  0.3339  0.0650 -0.0827
  506TMC3    C4 7571   2.842   4.518  10.318  0.0692 -0.1763  0.2322
  506TMC3    C5 7572   2.962   4.474  10.267  0.3721 -0.9167  0.4347
  506TMC3    C6 7573   3.034   4.556  10.178 -0.0836  0.3811  0.2772
  506TMC3     C 7574   2.737   4.693  10.413  0.4806  0.0480 -0.3143
  506TMC3     O 7575   2.734   4.616  10.509 -0.0254  0.3633 -0.0110
  506TMC3     H 7576   2.870   0.107  10.222  0.8163  1.1038  0.2227
  506TMC3    H1 7577   2.775   4.445  10.362 -0.6867 -0.2249 -1.0273
  506TMC3    H2 7578   3.121   4.516  10.127  1.0421  1.4545  1.3582
  506TMC3    C7 7579   3.044   4.444  10.382 -0.7045 -0.2545 -0.4869
  506TMC3    C8 7580   3.099   0.042  10.106  0.9730 -0.1760 -0.0543
  506TMC3    O1 7581   3.168   4.432  10.359 -0.2879  0.0816  0.0518
  506TMC3    O2 7582   3.149   4.733  10.007  0.5380 -0.0589 -0.0573
  507TMC3    C1 7583   3.350   1.402  15.039 -0.0609 -0.0956  0.0676
  507TMC3    C2 7584   3.346   1.370  14.904 -0.4078  0.8462 -0.4496
  507TMC3    C3 7585   3.382   1.469  14.816 -0.3329  0.6804  0.1977
  507TMC3    C4 7586   3.391   1.521  15.083 -0.0925 -0.4577 -0.2081
  507TMC3    C5 7587   3.415   1.625  14.995  0.8327 -0.5968 -0.5646
  507TMC3    C6 7588   3.436   1.590  14.863  0.0781 -0.1878  0.1571
  507TMC3     C 7589   3.366   1.294  15.140 -0.5027  0.0773 -0.1481
  507TMC3     O 7590   3.427   1.329  15.238 -0.0669 -0.0478 -0.6178
  507TMC3     H 7591   3.323   1.268  14.874  2.9441 -1.3356  4.2921
  507TMC3    H1 7592   3.401   1.545  15.188 -1.2545 -1.7206  0.1887
  507TMC3    H2 7593   3.459   1.665  14.788 -1.0738 -0.1497 -0.1580
  507TMC3    C7 7594   3.346   1.750  15.027  0.0798  0.2217  0.0765
  507TMC3    C8 7595   3.295   1.494  14.708  0.5434  0.3660 -0.3948
  507TMC3    O1 7596   3.341   1.777  15.148  0.4665 -0.4044 -0.1002
  507TMC3    O2 7597   3.300   1.601  14.654  0.2587  0.2363  0.4114
  508MPD2     C 7598   3.789   3.367  16.018 -0.0450  0.3180 -0.9331
  508MPD2    C1 7599   3.850   3.479  16.067  0.5209  0.5790  0.3621
  508MPD2    C2 7600   3.822   3.596  16.001  0.2626  0.1289  0.0053
  508MPD2    C3 7601   3.718   3.608  15.907 -0.9296 -0.1168 -0.6186
  508MPD2    C4 7602   3.653   3.494  15.867 -0.3533  0.4354 -0.0852
  508MPD2    C5 7603   3.696   3.373  15.919  0.2842 -0.4500 -0.1348
  508MPD2     H 7604   3.882   3.679  16.036  2.4563 -1.4473 -0.0161
  508MPD2    H1 7605   3.570   3.482  15.798 -1.8417 -0.7572  1.9150
  508MPD2    H2 7606   3.808   3.270  16.063 -1.8306 -0.2071 -1.2883
  508MPD2    H3 7607   3.638   3.285  15.893 -1.7512  0.6554  0.6688
  508MPD2     N 7608   3.704   3.737  15.843  0.0800  0.0605  0.2131
  508MPD2    H5 7609   3.782   3.801  15.851  0.1000  0.4709 -2.9968
  508MPD2    N1 7610   3.921   3.481  16.191 -0.2283 -0.1438 -0.3324
  508MPD2    H7 7611   3.953   3.568  16.233 -0.5501 -1.3479  2.4195
  509TMC3    C1 7612   3.502   4.121  15.739  0.2914 -0.2720  0.2463
  509TMC3    C2 7613   3.624   4.187  15.752 -0.0267 -0.0481  0.1918
  509TMC3    C3 7614   3.735   4.104  15.745 -0.2049 -0.2007 -0.0923
  509TMC3    C4 7615   3.490   3.985  15.731 -0.1939  1.1521 -0.2080
  509TMC3    C5 7616   3.604   3.912  15.717 -0.0258  0.2489  0.8083
  509TMC3    C6 7617   3.730   3.973  15.715  0.2917 -0.0723  0.0637
  509TMC3     C 7618   3.401   4.203  15.685  0.0401  0.2790 -0.8142
  509TMC3     O 7619   3.284   4.163  15.702  0.6659  0.4055  0.3961
  509TMC3     H 7620   3.625   4.286  15.797  0.4623 -0.4613  1.1058
  509TMC3    H1 7621   3.391   3.944  15.715 -0.4250  1.5929  0.0882
  509TMC3    H2 7622   3.821   3.916  15.702 -0.1978 -1.2266  1.6837
  509TMC3    C7 7623   3.596   3.781  15.768 -0.0490 -0.6444  0.1051
  509TMC3    C8 7624   3.838   4.118  15.841  0.5163  0.3064 -0.2945
  509TMC3    O1 7625   3.481   3.732  15.756 -0.2638 -0.5668  0.1356
  509TMC3    O2 7626   3.865   4.020  15.905  0.0572 -0.2754  0.6932
  510MPD2     C 7627   1.299   0.468  14.538 -0.0385 -0.1947 -0.3076
  510MPD2    C1 7628   1.385   0.437  14.642 -0.0494 -0.1725  0.0293
  510MPD2    C2 7629   1.518   0.467  14.635 -0.6318  0.4902 -0.1427
  510MPD2    C3 7630   1.570   0.540  14.532  0.9303  0.1095  0.8601
  510MPD2    C4 7631   1.477   0.585  14.444  0.6033  0.4491  0.5103
  510MPD2    C5 7632   1.345   0.550  14.442  0.1952  0.5508 -0.3877
  510MPD2     H 7633   1.586   0.420  14.705  0.2334  0.1083 -1.2398
  510MPD2    H1 7634   1.509   0.638  14.355  0.2102  2.8549  1.8188
  510MPD2    H2 7635   1.193   0.447  14.550 -0.1508  0.8706  0.5601
  510MPD2    H3 7636   1.270   0.586  14.372 -1.4365  0.9308  1.5305
  510MPD2     N 7637   1.709   0.562  14.516 -0.1007 -0.7046  0.2099
  510MPD2    H5 7638   1.768   0.502  14.573 -0.9082 -0.3972  1.3685
  510MPD2    N1 7639   1.327   0.359  14.750  0.2178 -0.8469 -0.0895
  510MPD2    H7 7640   1.238   0.318  14.723 -1.2649  0.1701  3.2896
  511TMC3    C1 7641   1.284   0.259  14.955  0.7328  0.2887 -0.3427
  511TMC3    C2 7642   1.239   0.300  15.081 -0.0202  0.0608 -0.2652
  511TMC3    C3 7643   1.151   0.216  15.141 -0.2812 -0.0397  0.2956
  511TMC3    C4 7644   1.249   0.144  14.893  0.1700 -0.0483 -0.1752
  511TMC3    C5 7645   1.166   0.053  14.964  0.4427  0.1871 -0.0369
  511TMC3    C6 7646   1.120   0.098  15.086 -0.1090 -0.0568 -0.0378
  511TMC3     C 7647   1.370   0.348  14.875 -0.6725 -0.7208  0.0808
  511TMC3     O 7648   1.440   0.426  14.942 -0.0611  0.1060 -0.4472
  511TMC3     H 7649   1.262   0.394  15.129 -0.2962  0.2005 -0.4083
  511TMC3    H1 7650   1.289   0.115  14.797 -0.2534 -2.9019  0.5026
  511TMC3    H2 7651   1.037   0.045  15.132 -0.3044  3.3021  3.4027
  511TMC3    C7 7652   1.106   4.678  14.897 -0.0654  0.1582  0.5354
  511TMC3    C8 7653   1.072   0.283  15.251  0.5133 -0.7810 -0.1732
  511TMC3    O1 7654   1.128   4.678  14.778 -0.3703  0.3168  0.3036
  511TMC3    O2 7655   1.062   0.405  15.233 -0.4048 -0.0358 -0.0599
  512TMC3    C1 7656   0.559   4.669  13.410 -0.3820  0.4757  0.0023
  512TMC3    C2 7657   0.694   4.667  13.417  0.1251  0.2548  0.1420
  512TMC3    C3 7658   0.758   4.547  13.433 -0.7229 -0.1691  0.1352
  512TMC3    C4 7659   0.483   4.554  13.420  0.5869 -0.2154 -0.1882
  512TMC3    C5 7660   0.559   4.433  13.433 -0.3184 -0.0803  0.1084
  512TMC3    C6 7661   0.699   4.425  13.457 -0.1383  0.3773 -0.4194
  512TMC3     C 7662   0.490   0.064  13.417  1.4148  0.4211  0.3489
  512TMC3     O 7663   0.563   0.159  13.448  0.1613 -0.2617  0.5341
  512TMC3     H 7664   0.749   0.024  13.413 -0.1834  0.3129 -2.7230
  512TMC3    H1 7665   0.375   4.546  13.420  0.4743  1.5029  1.3455
  512TMC3    H2 7666   0.749   4.329  13.452  2.0243  1.4268  1.6584
  512TMC3    C7 7667   0.478   4.310  13.411  0.1178  0.0544  0.4095
  512TMC3    C8 7668   0.908   4.536  13.439 -0.0550 -0.0333 -0.1175
  512TMC3    O1 7669   0.358   4.325  13.434 -0.2326 -0.0127  0.4825
  512TMC3    O2 7670   0.954   4.426  13.454  0.1380  0.2909  0.0266
  513MPD2     C 7671   2.034   4.202  13.604 -0.0518  0.7562  0.2028
  513MPD2    C1 7672   2.097   4.311  13.551  0.0051 -0.0342 -1.0466
  513MPD2    C2 7673   2.190   4.377  13.628  0.3376 -0.1583  0.0559
  513MPD2    C3 7674   2.211   4.344  13.762 -0.5700 -0.0508 -0.3592
  513MPD2    C4 7675   2.150   4.226  13.817 -0.2966  0.6223  0.4843
  513MPD2    C5 7676   2.062   4.161  13.735 -0.4523 -0.5986 -0.4452
  513MPD2     H 7677   2.246   4.463  13.592  0.2579 -0.6082 -1.1510
  513MPD2    H1 7678   2.168   4.184  13.915  0.7149 -2.6634 -1.0936
  513MPD2    H2 7679   1.960   4.148  13.547  0.8878  0.2553 -0.5499
  513MPD2    H3 7680   2.009   4.072  13.767  1.9180 -1.4099  1.2455
  513MPD2     N 7681   2.303   4.421  13.834  0.2446  0.1521 -0.4972
  513MPD2    H5 7682   2.338   4.492  13.771  1.1656  0.1289 -0.0090
  513MPD2    N1 7683   2.079   4.334  13.416  0.2682  0.0825 -0.0631
  513MPD2    H7 7684   2.012   4.274  13.368 -0.7032 -0.6407  2.1858
  514TMC3    C1 7685   2.119   4.420  13.198  0.2063 -0.5030 -0.4560
  514TMC3    C2 7686   2.127   4.294  13.152 -0.3753  0.5856 -0.2293
  514TMC3    C3 7687   2.220   4.269  13.056 -0.2014 -0.6815 -0.2347
  514TMC3    C4 7688   2.196   4.518  13.135 -0.4097  0.4146 -0.1233
  514TMC3    C5 7689   2.297   4.479  13.050  0.0635  0.2011  0.7794
  514TMC3    C6 7690   2.301   4.354  12.991  0.3569 -0.1840 -0.5300
  514TMC3     C 7691   2.126   4.443  13.346 -0.1834 -0.1267  0.6244
  514TMC3     O 7692   2.204   4.532  13.376  0.1328 -0.2411 -0.4209
  514TMC3     H 7693   2.075   4.212  13.199  1.6171 -0.8771 -0.5858
  514TMC3    H1 7694   2.201   4.620  13.171 -1.1780  0.4917 -0.2440
  514TMC3    H2 7695   2.390   4.331  12.933 -0.2963 -1.3617 -1.0550
  514TMC3    C7 7696   2.430   4.543  13.069  0.8274 -0.0038  0.2177
  514TMC3    C8 7697   2.165   4.168  12.965  0.0779  0.6026 -0.7323
  514TMC3    O1 7698   2.520   4.511  12.990  0.3084 -0.0761  0.0312
  514TMC3    O2 7699   2.123   4.064  13.013 -0.2319 -0.6734 -0.6074
  515MPD2     C 7700   0.501   1.211  14.753  0.3241 -0.0654 -0.3264
  515MPD2    C1 7701   0.585   1.269  14.656 -0.5382  0.0533  0.3909
  515MPD2    C2 7702   0.666   1.374  14.697  0.4054  0.6297 -0.6372
  515MPD2    C3 7703   0.652   1.435  14.821  0.8175  0.5306 -0.5434
  515MPD2    C4 7704   0.563   1.388  14.909  0.2467 -0.5735 -0.0502
  515MPD2    C5 7705   0.494   1.278  14.872 -0.8365 -0.6103 -1.0006
  515MPD2     H 7706   0.757   1.391  14.640  0.2627  1.6750 -0.5535
  515MPD2    H1 7707   0.544   1.439  15.003 -0.0231 -2.0134  0.6786
  515MPD2    H2 7708   0.440   1.122  14.749  0.5730 -0.2696  0.5761
  515MPD2    H3 7709   0.428   1.248  14.952  1.8490  0.3332  1.5474
  515MPD2     N 7710   0.727   1.550  14.866 -0.2623  0.1336  0.2199
  515MPD2    H5 7711   0.703   1.588  14.958 -0.8395  3.7065 -1.4023
  515MPD2    N1 7712   0.597   1.197  14.538 -0.0926  0.0131 -0.4944
  515MPD2    H7 7713   0.547   1.109  14.536  1.2707 -0.8032  0.7729
  516TMC3    C1 7714   0.639   1.145  14.325  0.3720  0.3116 -0.1046
  516TMC3    C2 7715   0.552   1.182  14.226 -0.4408 -0.1541  0.0088
  516TMC3    C3 7716   0.442   1.101  14.199  0.8948 -0.3434  0.3813
  516TMC3    C4 7717   0.626   1.020  14.377  0.3207 -0.1547  0.2941
  516TMC3    C5 7718   0.515   0.941  14.354 -0.7002 -0.4414 -0.4759
  516TMC3    C6 7719   0.419   0.982  14.260  0.5792 -0.2794  0.5860
  516TMC3     C 7720   0.656   1.248  14.422 -0.0436 -0.3077 -0.1641
  516TMC3     O 7721   0.685   1.365  14.386  0.2793 -0.2748  0.5509
  516TMC3     H 7722   0.550   1.282  14.185  0.3032 -0.2649 -0.3051
  516TMC3    H1 7723   0.704   0.981  14.442 -1.2856 -0.4876  2.0162
  516TMC3    H2 7724   0.323   0.932  14.253  0.6030 -0.0205 -1.6988
  516TMC3    C7 7725   0.473   0.876  14.478  0.3894  0.1732 -0.0375
  516TMC3    C8 7726   0.327   1.179  14.147 -0.1024  0.0782  0.1924
  516TMC3    O1 7727   0.523   0.924  14.579  0.2511 -0.1266 -0.6423
  516TMC3    O2 7728   0.220   1.134  14.177 -0.0558  0.5901 -0.1108
  517MPD2     C 7729   0.155   3.158  17.678  0.2979  0.1554 -0.9551
  517MPD2    C1 7730   0.293   3.141  17.682  0.3105 -0.7080  0.2976
  517MPD2    C2 7731   0.380   3.230   0.010  0.7219 -0.0873  0.1744
  517MPD2    C3 7732   0.327   3.336   0.083  0.2243  0.4779 -0.3296
  517MPD2    C4 7733   0.189   3.362   0.071 -0.3788  0.3626 -0.3346
  517MPD2    C5 7734   0.108   3.270   0.002  0.4239  0.1889 -0.2471
  517MPD2     H 7735   0.487   3.212   0.002  0.6563 -0.5107  0.2766
  517MPD2    H1 7736   0.129   3.445   0.109 -0.5828  0.3288 -0.5875
  517MPD2    H2 7737   0.080   3.088  17.643 -0.4223 -0.0840  1.0818
  517MPD2    H3 7738   0.003   3.297   0.003  0.8415  1.7975  0.9783
  517MPD2     N 7739   0.408   3.428   0.152 -0.2317  0.1719 -0.1123
  517MPD2    H5 7740   0.361   3.509   0.192 -0.2038  2.0608 -3.8804
  517MPD2    N1 7741   0.362   3.026  17.637  0.1066 -0.7053 -0.3202
  517MPD2    H7 7742   0.455   3.012  17.676  0.2383  1.4742  0.1421
  518TMC3    C1 7743   0.397   2.824  17.516 -0.2066  0.2455 -0.0677
  518TMC3    C2 7744   0.346   2.702  17.506  0.2143 -0.7407 -0.8890
  518TMC3    C3 7745   0.427   2.613  17.436 -0.0110  0.0305  0.3382
  518TMC3    C4 7746   0.521   2.865  17.469 -0.4333 -0.5118 -0.7258
  518TMC3    C5 7747   0.597   2.775  17.405  0.1035 -0.3051 -0.1590
  518TMC3    C6 7748   0.555   2.643  17.391  0.1755 -0.1881  0.7001
  518TMC3     C 7749   0.306   2.924  17.567 -0.2131 -1.0943  0.2656
  518TMC3     O 7750   0.192   2.895  17.539 -0.2347 -0.4672  0.6011
  518TMC3     H 7751   0.251   2.680  17.554 -0.7966  2.5834 -1.3247
  518TMC3    H1 7752   0.556   2.966  17.484  1.8708 -1.2985 -0.8062
  518TMC3    H2 7753   0.607   2.573  17.327  0.0261 -1.5572  2.0863
  518TMC3    C7 7754   0.723   2.806  17.351  0.7327  0.6616 -0.7800
  518TMC3    C8 7755   0.376   2.481  17.414 -0.1458  0.2720  0.2953
  518TMC3    O1 7756   0.736   2.926  17.338  0.1758  0.7027 -0.4490
  518TMC3    O2 7757   0.460   2.407  17.367 -0.4169 -0.1816 -0.1589
  519MPD2     C 7758   2.135   0.949  14.301 -0.1241  0.1319 -0.4148
  519MPD2    C1 7759   2.054   0.956  14.189 -0.5009 -0.2323  0.0113
  519MPD2    C2 7760   2.111   0.963  14.064  0.9187 -0.1381  0.0862
  519MPD2    C3 7761   2.250   0.967  14.040  0.3228  0.6339  0.0003
  519MPD2    C4 7762   2.325   0.954  14.152 -0.2191 -0.0703 -0.1979
  519MPD2    C5 7763   2.272   0.941  14.274 -0.2765 -0.0725  0.6634
  519MPD2     H 7764   2.042   0.975  13.981 -1.1954 -3.0421  1.4373
  519MPD2    H1 7765   2.432   0.965  14.141 -0.5053  4.3111  1.5478
  519MPD2    H2 7766   2.094   0.942  14.401  1.0943  2.3281  0.2438
  519MPD2    H3 7767   2.335   0.920  14.359  1.3700  0.2421 -0.4980
  519MPD2     N 7768   2.318   0.999  13.923  0.2041  0.8820 -0.3291
  519MPD2    H5 7769   2.418   1.007  13.938  0.3565  1.5728 -1.6622
  519MPD2    N1 7770   1.919   0.986  14.188  0.2121 -0.2701  0.3762
  519MPD2    H7 7771   1.866   0.978  14.102 -1.1124 -0.6276  1.2286
  520TMC3    C1 7772   2.355   1.040  13.702 -0.5908  0.4908 -1.2167
  520TMC3    C2 7773   2.305   1.057  13.577  0.1058 -0.1432  0.2474
  520TMC3    C3 7774   2.389   1.069  13.466  0.1144  0.0413 -0.1505
  520TMC3    C4 7775   2.489   1.046  13.724 -0.1904  0.1614 -0.3551
  520TMC3    C5 7776   2.575   1.054  13.613 -0.4357 -0.4846 -1.1679
  520TMC3    C6 7777   2.528   1.078  13.486  0.3297 -0.2974 -0.1882
  520TMC3     C 7778   2.255   1.012  13.805 -0.4835 -0.4132  0.4220
  520TMC3     O 7779   2.136   1.006  13.777  0.0976 -0.4588  0.0011
  520TMC3     H 7780   2.197   1.058  13.568  0.2034 -0.1684 -1.0043
  520TMC3    H1 7781   2.532   1.030  13.822 -0.5528 -1.7295 -0.5108
  520TMC3    H2 7782   2.590   1.106  13.402  0.0485  0.8598 -0.0052
  520TMC3    C7 7783   2.719   1.057  13.640  0.0773  0.1343  0.5934
  520TMC3    C8 7784   2.334   1.135  13.347  0.7558 -0.2438 -0.0775
  520TMC3    O1 7785   2.757   1.076  13.751  0.1893 -0.2441 -0.5325
  520TMC3    O2 7786   2.403   1.160  13.247 -0.1330 -0.0981 -0.3605
  521MPD2     C 7787   2.854   4.145  17.550  0.2775  0.4339 -0.0047
  521MPD2    C1 7788   2.809   4.090  17.434  0.0089  0.5313  0.0249
  521MPD2    C2 7789   2.881   4.104  17.319  0.1088 -0.0326  0.6199
  521MPD2    C3 7790   3.003   4.171  17.309  0.6412  0.3241 -0.0120
  521MPD2    C4 7791   3.040   4.238  17.424  0.0764 -0.0861  0.0251
  521MPD2    C5 7792   2.975   4.214  17.541  0.3932  0.5099 -0.0323
  521MPD2     H 7793   2.843   4.054  17.231 -0.8934  0.1539  0.9512
  521MPD2    H1 7794   3.131   4.298  17.423  0.4634 -0.6762 -0.4976
  521MPD2    H2 7795   2.795   4.140  17.641 -0.6524 -0.9562 -0.6998
  521MPD2    H3 7796   3.027   4.248  17.630 -2.1373 -2.0383  2.4027
  521MPD2     N 7797   3.083   4.162  17.191 -0.4001 -0.0794  0.1080
  521MPD2    H5 7798   3.039   4.117  17.111  0.4507  0.2421 -0.5313
  521MPD2    N1 7799   2.684   4.029  17.449 -0.1860  0.2515  0.3184
  521MPD2    H7 7800   2.661   4.011  17.546  0.4733  0.1617  0.4606
  522TMC3    C1 7801   3.289   4.190  17.067 -0.1680  0.0280  0.8476
  522TMC3    C2 7802   3.425   4.182  17.080  0.0889  0.0215  0.3864
  522TMC3    C3 7803   3.499   4.146  16.971 -0.8515 -0.2227  0.0537
  522TMC3    C4 7804   3.218   4.165  16.953  0.9376 -0.0937  0.4446
  522TMC3    C5 7805   3.298   4.120  16.852  0.7063  0.4458 -0.1624
  522TMC3    C6 7806   3.431   4.118  16.851 -0.2841 -0.4296 -0.3132
  522TMC3     C 7807   3.217   4.210  17.189 -0.5782 -0.5915  0.0628
  522TMC3     O 7808   3.288   4.243  17.283 -0.2087 -0.1514  0.4761
  522TMC3     H 7809   3.471   4.204  17.176 -1.0844  4.4406 -0.0502
  522TMC3    H1 7810   3.110   4.175  16.945  0.9422 -0.0955  0.3809
  522TMC3    H2 7811   3.494   4.090  16.768  0.9869 -1.2880  0.9387
  522TMC3    C7 7812   3.239   4.061  16.733 -0.0041  0.3491  0.0591
  522TMC3    C8 7813   3.643   4.124  16.991 -0.2156 -0.3682  0.6542
  522TMC3    O1 7814   3.308   3.973  16.682  0.3086  0.0925  0.5157
  522TMC3    O2 7815   3.689   4.195  17.077  0.2953 -0.3896 -0.0333
  523MPD2     C 7816   1.798   4.497   9.964  0.8456  0.7002  0.2699
  523MPD2    C1 7817   1.668   4.458  10.003 -0.0128 -0.2376 -0.2125
  523MPD2    C2 7818   1.563   4.549   9.977  0.0217  0.4023  0.3851
  523MPD2    C3 7819   1.588   4.677   9.925 -0.1018  0.1732  0.3063
  523MPD2    C4 7820   1.718   4.715   9.912  0.7732 -0.2053 -0.4488
  523MPD2    C5 7821   1.818   4.624   9.924  0.6532 -0.1248 -0.5640
  523MPD2     H 7822   1.461   4.516   9.994  0.7607 -1.5763  1.0029
  523MPD2    H1 7823   1.741   0.079   9.880 -0.6161 -0.8806 -3.5368
  523MPD2    H2 7824   1.884   4.434   9.982  0.9020  0.4663 -0.8434
  523MPD2    H3 7825   1.913   4.661   9.889  0.0617  0.7975 -1.1848
  523MPD2     N 7826   1.490   0.037   9.876 -0.0136  0.1264  0.3468
  523MPD2    H5 7827   1.540   0.112   9.830  0.2030  1.1183  2.1872
  523MPD2    N1 7828   1.654   4.323  10.051  0.1573  0.3609 -0.1303
  523MPD2    H7 7829   1.741   4.272  10.058 -1.8515 -3.1656 -0.6389
  524TMC3    C1 7830   1.280   0.142   9.824 -0.0532  0.2076  1.0822
  524TMC3    C2 7831   1.319   0.168   9.696  0.0944  0.2005 -0.3261
  524TMC3    C3 7832   1.227   0.199   9.603 -0.5115  0.0959 -0.0414
  524TMC3    C4 7833   1.143   0.157   9.849 -0.6329 -1.0991 -0.1883
  524TMC3    C5 7834   1.059   0.211   9.754 -0.2406  0.3011  0.5734
  524TMC3    C6 7835   1.091   0.218   9.623 -0.4835 -0.9339  0.1074
  524TMC3     C 7836   1.349   0.035   9.884  0.3351  0.2416  0.7612
  524TMC3     O 7837   1.284   4.672   9.917 -0.1309 -0.2880 -0.0451
  524TMC3     H 7838   1.415   0.130   9.666  0.3492  0.8163 -0.2840
  524TMC3    H1 7839   1.105   0.153   9.951  1.6583  1.0159  0.7475
  524TMC3    H2 7840   1.010   0.230   9.553 -0.7707  0.1244  0.6122
  524TMC3    C7 7841   0.910   0.202   9.786  0.1528  0.3104  0.1553
  524TMC3    C8 7842   1.272   0.241   9.475  0.0854 -0.1838 -0.1033
  524TMC3    O1 7843   0.882   0.135   9.885 -0.2997  0.1150  0.3115
  524TMC3    O2 7844   1.385   0.211   9.435  0.5631 -0.2158  0.1786
  525MPD2     C 7845   3.324   0.868  14.343  0.2111  0.6529 -0.3813
  525MPD2    C1 7846   3.454   0.837  14.385  0.2007  0.2673 -0.0392
  525MPD2    C2 7847   3.545   0.944  14.423  0.2680  0.4499 -0.2957
  525MPD2    C3 7848   3.500   1.073  14.431 -0.6430  0.3391  0.1772
  525MPD2    C4 7849   3.373   1.096  14.384  0.2417  0.1781 -0.1229
  525MPD2    C5 7850   3.291   0.998  14.332 -0.1574 -0.2610 -0.2341
  525MPD2     H 7851   3.640   0.912  14.463  0.3739  2.1469  0.7693
  525MPD2    H1 7852   3.326   1.194  14.392 -0.6066 -0.1024 -1.6311
  525MPD2    H2 7853   3.260   0.794  14.295  0.3224 -2.5799  4.4958
  525MPD2    H3 7854   3.192   1.024  14.297 -0.6602 -1.5274  0.2518
  525MPD2     N 7855   3.578   1.184  14.474 -0.2163  0.1415  0.1397
  525MPD2    H5 7856   3.526   1.271  14.477  1.3526  1.0889 -0.0126
  525MPD2    N1 7857   3.521   0.717  14.385 -0.4190  1.2588  0.2927
  525MPD2    H7 7858   3.620   0.728  14.405  0.1293 -2.2746 -0.4424
  526TMC3    C1 7859   3.535   0.479  14.417 -0.3481 -0.5859  0.5636
  526TMC3    C2 7860   3.469   0.387  14.503 -0.0182  0.2850  0.0250
  526TMC3    C3 7861   3.551   0.302  14.582  0.0385  0.1465  0.2137
  526TMC3    C4 7862   3.669   0.476  14.396 -0.9478 -0.1789 -0.0786
  526TMC3    C5 7863   3.740   0.381  14.472 -0.1301  0.2490 -0.5579
  526TMC3    C6 7864   3.682   0.292  14.558 -0.3898 -0.1070  0.1905
  526TMC3     C 7865   3.459   0.595  14.374 -0.0217  0.3439 -0.0527
  526TMC3     O 7866   3.348   0.573  14.335 -0.6759  0.2131  0.3309
  526TMC3     H 7867   3.361   0.381  14.502  0.0111 -0.0369 -2.0601
  526TMC3    H1 7868   3.711   0.523  14.308 -0.0493  1.1784  1.0754
  526TMC3    H2 7869   3.747   0.222  14.608 -0.0684  0.6249  0.7917
  526TMC3    C7 7870   3.880   0.355  14.439  1.1586  0.8375  0.4338
  526TMC3    C8 7871   3.494   0.239  14.694 -0.2434 -0.1107 -0.1271
  526TMC3    O1 7872   3.950   0.448  14.390  0.0399  0.4407  0.2101
  526TMC3    O2 7873   3.571   0.181  14.775 -0.3759  0.2024  0.6833
  527MPD2     C 7874   1.498   3.434   1.352  0.3555  0.1876 -0.3653
  527MPD2    C1 7875   1.498   3.383   1.223 -0.1645 -0.4766 -0.2467
  527MPD2    C2 7876   1.610   3.387   1.149 -0.6165 -0.2474  0.3635
  527MPD2    C3 7877   1.727   3.425   1.207  0.2180 -0.2349 -0.2630
  527MPD2    C4 7878   1.732   3.461   1.336 -0.7784 -0.6318  0.3413
  527MPD2    C5 7879   1.614   3.483   1.403  0.2649  0.6859 -0.1667
  527MPD2     H 7880   1.605   3.364   1.043  0.1728  2.0833 -0.2002
  527MPD2    H1 7881   1.811   3.520   1.380  1.7858 -1.6465 -2.8952
  527MPD2    H2 7882   1.410   3.443   1.414  0.1438  1.4352 -0.8464
  527MPD2    H3 7883   1.629   3.529   1.500 -0.8071  0.4080  0.1249
  527MPD2     N 7884   1.845   3.422   1.124  0.1631 -0.3852  0.2633
  527MPD2    H5 7885   1.825   3.402   1.027 -2.7165 -1.6480  1.1211
  527MPD2    N1 7886   1.389   3.331   1.152  0.3594  0.6711 -0.2793
  527MPD2    H7 7887   1.389   3.318   1.052  0.9833 -0.8598 -0.0828
  528TMC3    C1 7888   1.172   3.240   1.120 -0.4272  0.1220  0.2968
  528TMC3    C2 7889   1.173   3.271   0.986 -0.9230  0.1602  0.9271
  528TMC3    C3 7890   1.072   3.209   0.915 -0.3469 -0.8489  0.1036
  528TMC3    C4 7891   1.074   3.167   1.183  0.6030 -0.5287 -0.0626
  528TMC3    C5 7892   0.976   3.114   1.104  0.2482 -0.2591 -0.0994
  528TMC3    C6 7893   0.973   3.135   0.967 -0.8245  0.8131 -0.5570
  528TMC3     C 7894   1.274   3.287   1.215 -0.0705  0.5955  0.0087
  528TMC3     O 7895   1.254   3.271   1.333 -0.3358 -0.5427 -0.8189
  528TMC3     H 7896   1.257   3.323   0.942  0.0713 -1.3590  1.0214
  528TMC3    H1 7897   1.085   3.128   1.284  1.2025  0.1020  0.1194
  528TMC3    H2 7898   0.887   3.102   0.910  0.9804 -3.0737 -1.0344
  528TMC3    C7 7899   0.866   3.021   1.150 -0.2315  0.2026 -0.1801
  528TMC3    C8 7900   1.075   3.228   0.781 -0.4333  0.0556 -0.0306
  528TMC3    O1 7901   0.831   2.945   1.058  0.0316 -0.0654 -0.2681
  528TMC3    O2 7902   1.133   3.328   0.743  0.3784  0.6215 -0.3675
  529MPD2     C 7903   3.875   1.472   0.364 -0.1932  0.0656 -0.3026
  529MPD2    C1 7904   3.797   1.543   0.456  1.1871  0.2332  0.0501
  529MPD2    C2 7905   3.722   1.649   0.412  0.5528  0.2861  0.0669
  529MPD2    C3 7906   3.733   1.697   0.279  0.3012 -0.5467 -0.1447
  529MPD2    C4 7907   3.814   1.636   0.191  0.3280 -0.4230  0.2345
  529MPD2    C5 7908   3.881   1.521   0.231  0.0601  0.8843 -0.0905
  529MPD2     H 7909   3.671   1.710   0.485  0.3552  0.5590 -0.3016
  529MPD2    H1 7910   3.811   1.680   0.092 -2.0168 -2.9098 -0.8078
  529MPD2    H2 7911   3.915   1.375   0.391 -2.5501 -0.2319  2.1931
  529MPD2    H3 7912   3.942   1.472   0.156 -1.5983 -1.1715 -0.0716
  529MPD2     N 7913   3.658   1.808   0.230 -0.2519 -0.8633 -0.4466
  529MPD2    H5 7914   3.694   1.852   0.145 -3.2686 -0.8058 -1.6931
  529MPD2    N1 7915   3.799   1.509   0.597  0.2554 -0.2578  0.2808
  529MPD2    H7 7916   3.769   1.580   0.662 -1.1140 -0.8576  0.3123
  530TMC3    C1 7917   3.846   1.373   0.792 -0.1171  0.8530  0.3253
  530TMC3    C2 7918   3.885   1.484   0.855 -0.3850  0.1209 -0.0684
  530TMC3    C3 7919   3.977   1.476   0.960  0.0637 -0.1235 -0.4282
  530TMC3    C4 7920   3.904   1.254   0.830 -0.3495  0.1592 -0.1721
  530TMC3    C5 7921   3.998   1.245   0.928 -0.8452 -0.0429  0.2712
  530TMC3    C6 7922   4.033   1.358   1.005  0.0976  0.2929 -0.0144
  530TMC3     C 7923   3.832   1.384   0.647  0.3978  0.0896 -0.6019
  530TMC3     O 7924   3.838   1.281   0.591  0.2377  0.2185  0.1695
  530TMC3     H 7925   3.848   1.583   0.832 -0.4027  0.2697  0.5942
  530TMC3    H1 7926   3.853   1.163   0.801 -2.4932  1.2930 -0.0052
  530TMC3    H2 7927   4.093   1.346   1.095  2.0095  2.7245 -0.9818
  530TMC3    C7 7928   3.997   1.128   1.008 -0.1472 -0.6427 -0.0443
  530TMC3    C8 7929   4.015   1.603   1.020  0.5963  0.4517  0.1700
  530TMC3    O1 7930   4.094   1.054   1.005  0.3257 -0.4077  0.1753
  530TMC3    O2 7931   3.939   1.695   1.002 -0.0503  0.0397 -0.2678
  531MPD2     C 7932   2.770   4.645  13.441  0.5638 -0.2230  0.1347
  531MPD2    C1 7933   2.641   4.629  13.496  0.2014 -0.2059 -0.2913
  531MPD2    C2 7934   2.538   4.608  13.412  0.4668 -0.2857  0.1160
  531MPD2    C3 7935   2.555   4.601  13.276 -0.1950  0.2135 -0.0008
  531MPD2    C4 7936   2.681   4.610  13.219  0.1379  0.4638 -0.4035
  531MPD2    C5 7937   2.787   4.623  13.307 -0.0194  0.4767  0.3189
  531MPD2     H 7938   2.435   4.601  13.446  0.5521 -0.6699  0.2916
  531MPD2    H1 7939   2.704   4.613  13.113 -0.4199  0.5272 -0.5202
  531MPD2    H2 7940   2.854   4.671  13.504  1.0527 -1.8627  0.1502
  531MPD2    H3 7941   2.891   4.624  13.277 -0.2737  0.0933 -0.5655
  531MPD2     N 7942   2.438   4.579  13.200 -0.3771  0.1457  0.5239
  531MPD2    H5 7943   2.352   4.584  13.255 -0.1861  0.5621  0.7885
  531MPD2    N1 7944   2.624   4.652  13.637  0.5432  0.2354 -0.0131
  531MPD2    H7 7945   2.708   4.669  13.691  0.6987 -1.2520  0.1947
  532TMC3    C1 7946   2.523   4.648  13.855  0.1765  0.3235 -0.1801
  532TMC3    C2 7947   2.407   4.615  13.919  0.0009  0.1373 -0.1725
  532TMC3    C3 7948   2.407   4.521  14.014  0.6560  0.0760 -0.4240
  532TMC3    C4 7949   2.646   4.600  13.901 -0.4769 -0.3982  0.4902
  532TMC3    C5 7950   2.640   4.535  14.025 -0.1412 -0.6310 -0.2387
  532TMC3    C6 7951   2.523   4.497  14.088  0.8407 -0.3227 -0.0259
  532TMC3     C 7952   2.501   4.653  13.710 -0.1978 -0.5472 -0.1628
  532TMC3     O 7953   2.392   4.630  13.667 -0.2847  0.5061 -0.5438
  532TMC3     H 7954   2.314   4.656  13.881 -0.2641 -0.1806  0.1279
  532TMC3    H1 7955   2.737   4.630  13.849 -0.0194  0.1781  1.6338
  532TMC3    H2 7956   2.522   4.417  14.161  2.0439 -1.1472 -0.9138
  532TMC3    C7 7957   2.759   4.459  14.055  0.0559  0.1220 -0.3568
  532TMC3    C8 7958   2.333   4.409  13.967  0.4930 -1.1902  0.1410
  532TMC3    O1 7959   2.790   4.455  14.171  0.1103  0.0103 -0.3124
  532TMC3    O2 7960   2.299   4.329  14.055  0.2724  0.0644 -0.0664
  533TMC3    C1 7961   3.739   1.278  14.613  0.4263 -0.3357  0.4223
  533TMC3    C2 7962   3.869   1.325  14.623 -0.6541 -1.1131 -0.0977
  533TMC3    C3 7963   3.912   1.385  14.744  0.8953 -0.8353  0.7608
  533TMC3    C4 7964   3.657   1.303  14.722  0.1023  0.4473 -1.0438
  533TMC3    C5 7965   3.706   1.347  14.844  0.1072  0.0493  0.0939
  533TMC3    C6 7966   3.833   1.398  14.856 -0.1165  0.8396  0.6116
  533TMC3     C 7967   3.708   1.173  14.523  0.1130 -0.3479 -0.2611
  533TMC3     O 7968   3.794   1.091  14.500  0.5346  0.1225  0.2052
  533TMC3     H 7969   3.945   1.297  14.550  0.3580  1.8684 -0.1790
  533TMC3    H1 7970   3.553   1.274  14.715  0.1455 -0.0127  0.0893
  533TMC3    H2 7971   3.881   1.414  14.952 -0.6744 -0.9549  1.1918
  533TMC3    C7 7972   3.668   1.258  14.945 -0.3055 -0.1216 -0.1050
  533TMC3    C8 7973   4.037   1.454  14.756  0.6453  0.0732  0.6427
  533TMC3    O1 7974   3.580   1.182  14.907  0.5455 -0.0884  0.1673
  533TMC3    O2 7975   4.125   1.434  14.671 -0.8803 -0.3908  0.1283
  534MPD2     C 7976   1.827   2.187   0.743  0.0162 -0.5298 -0.0050
  534MPD2    C1 7977   1.815   2.268   0.856 -0.0462 -0.2396  0.4244
  534MPD2    C2 7978   1.689   2.298   0.902  0.2889 -0.3443  0.5677
  534MPD2    C3 7979   1.579   2.250   0.831  0.2179 -0.2061  0.5525
  534MPD2    C4 7980   1.589   2.180   0.713 -0.4623 -0.0746 -0.3846
  534MPD2    C5 7981   1.716   2.139   0.673 -1.0681  0.5121 -0.5380
  534MPD2     H 7982   1.674   2.375   0.978 -0.6914 -0.3722  0.4017
  534MPD2    H1 7983   1.498   2.135   0.673 -1.6207  0.8904  1.1574
  534MPD2    H2 7984   1.924   2.150   0.712  0.3248 -1.3316  1.9204
  534MPD2    H3 7985   1.721   2.074   0.586 -1.8853 -0.8438  0.4238
  534MPD2     N 7986   1.446   2.272   0.865 -0.1003  0.0952 -0.5637
  534MPD2    H5 7987   1.370   2.253   0.800  0.7662  0.0597 -1.5649
  534MPD2    N1 7988   1.929   2.313   0.929 -0.6710 -0.4913 -0.0119
  534MPD2    H7 7989   1.910   2.375   1.008 -1.1663 -1.7378  0.8391
  535TMC3    C1 7990   1.255   2.371   0.953 -0.1359 -0.0135  0.6549
  535TMC3    C2 7991   1.169   2.342   1.056 -0.0185 -0.2993  0.3221
  535TMC3    C3 7992   1.042   2.330   1.023  0.2189  0.4544  0.3331
  535TMC3    C4 7993   1.214   2.386   0.822 -0.5432 -0.1060 -0.1558
  535TMC3    C5 7994   1.079   2.377   0.795  0.1073  0.3645  0.5673
  535TMC3    C6 7995   0.990   2.342   0.898 -0.4059  0.2535 -0.2745
  535TMC3     C 7996   1.397   2.345   0.976 -0.5593 -0.0555  0.2107
  535TMC3     O 7997   1.455   2.367   1.084  0.3468  0.1611 -0.0482
  535TMC3     H 7998   1.200   2.308   1.154 -3.1148  1.3088  1.8525
  535TMC3    H1 7999   1.289   2.419   0.751 -0.1796 -2.4213 -0.8371
  535TMC3    H2 8000   0.882   2.351   0.893 -0.4298 -0.1049 -0.3808
  535TMC3    C7 8001   1.034   2.399   0.662  0.6360  0.4361  0.1588
  535TMC3    C8 8002   0.943   2.351   1.132 -0.1612 -0.0146  0.1795
  535TMC3    O1 8003   1.121   2.400   0.572  0.2997  0.7810 -0.5006
  535TMC3    O2 8004   0.830   2.307   1.115  0.1610 -0.1788 -0.3256
  536MPD2     C 8005   4.110   4.703  16.619 -0.0012  0.6189  0.1948
  536MPD2    C1 8006   4.221   0.043  16.582 -0.9013  0.1640  0.3756
  536MPD2    C2 8007   4.213   0.118  16.462  0.1441  0.2340  0.1785
  536MPD2    C3 8008   4.098   0.120  16.387  0.1134 -0.0570  0.5023
  536MPD2    C4 8009   3.985   0.048  16.432 -0.1173 -0.5454 -0.1192
  536MPD2    C5 8010   3.989   4.715  16.554 -0.2174 -0.7794 -0.6854
  536MPD2     H 8011   4.299   0.178  16.432 -0.0860  0.0507 -0.8425
  536MPD2    H1 8012   3.891   0.051  16.378 -0.4141 -3.0671  0.2505
  536MPD2    H2 8013   4.114   4.643  16.709 -0.2988 -0.7552 -0.7050
  536MPD2    H3 8014   3.906   4.659  16.597 -1.7244  4.0627  2.7819
  536MPD2     N 8015   4.084   0.177  16.259 -0.7495 -0.9274  0.4718
  536MPD2    H5 8016   3.987   0.182  16.228 -1.7091  0.8757  3.7430
  536MPD2    N1 8017   4.340   0.021  16.660  0.1162 -0.8097 -0.6250
  536MPD2    H7 8018   4.344   4.687  16.733  1.9234  0.2223  0.2735
  537TMC3    C1 8019   4.540   0.089  16.756 -0.5302  0.4726 -0.3332
  537TMC3    C2 8020   4.643   0.175  16.755 -0.7131  0.4564  0.5154
  537TMC3    C3 8021   4.733   0.168  16.861 -0.6633  0.0186 -0.4360
  537TMC3    C4 8022   4.521   0.005  16.860  0.0331  0.5419 -0.2945
  537TMC3    C5 8023   4.610   4.733  16.961 -1.2110  0.1387  0.3806
  537TMC3    C6 8024   4.711   0.085  16.961  1.3088 -0.9587 -0.4690
  537TMC3     C 8025   4.434   0.119  16.664 -0.2042  0.2427 -0.4622
  537TMC3     O 8026   4.434   0.224  16.602  0.4857  0.2132 -0.6897
  537TMC3     H 8027   4.656   0.242  16.671 -0.1040 -0.5899 -0.2276
  537TMC3    H1 8028   4.434   4.677  16.862  1.4965 -1.4579 -0.7364
  537TMC3    H2 8029   0.039   0.093  17.048  0.7070  0.6081 -0.1686
  537TMC3    C7 8030   4.562   4.680  17.087 -0.1563 -0.0373  0.0797
  537TMC3    C8 8031   0.113   0.259  16.872  0.0295  0.0301 -0.8154
  537TMC3    O1 8032   4.444   4.660  17.104 -0.2072  0.9117 -0.1541
  537TMC3    O2 8033   0.181   0.264  16.976 -0.3114  0.3669  0.4362
  538TMC3    C1 8034   1.811   3.817  11.068  0.2143  0.4246  0.5490
  538TMC3    C2 8035   1.946   3.815  11.064  0.1611 -0.1407  0.0619
  538TMC3    C3 8036   2.007   3.871  10.947 -0.0320  1.0706 -0.3019
  538TMC3    C4 8037   1.734   3.869  10.965  0.0873  0.3166 -0.2349
  538TMC3    C5 8038   1.792   3.911  10.851 -0.5726  0.6689  0.1813
  538TMC3    C6 8039   1.930   3.910  10.836  0.2078  0.4986  0.3076
  538TMC3     C 8040   1.750   3.816  11.198 -0.9500  0.2141 -0.5112
  538TMC3     O 8041   1.654   3.886  11.213  0.6386  0.1584 -0.0336
  538TMC3     H 8042   2.015   3.803  11.147 -1.7304  0.2724  1.7007
  538TMC3    H1 8043   1.626   3.867  10.964  0.0745  0.9085 -0.0799
  538TMC3    H2 8044   1.975   3.925  10.739  0.3862  0.4539  0.3836
  538TMC3    C7 8045   1.711   3.996  10.761  0.3485 -0.2701  0.2767
  538TMC3    C8 8046   2.147   3.827  10.929  0.5139 -0.1108 -0.2452
  538TMC3    O1 8047   1.590   3.979  10.765 -0.4269 -0.2300 -0.3160
  538TMC3    O2 8048   2.181   3.723  10.983  0.1387 -0.4151  0.2036
  539MPD2     C 8049   1.789   2.933  11.777  0.0081  0.5152  0.0533
  539MPD2    C1 8050   1.776   2.965  11.645 -0.4200 -0.2266  0.4008
  539MPD2    C2 8051   1.736   3.094  11.610  0.7222 -0.2228 -0.7817
  539MPD2    C3 8052   1.715   3.191  11.707 -0.0991 -0.1396  0.0012
  539MPD2    C4 8053   1.723   3.155  11.840  0.8855  0.6268 -0.7242
  539MPD2    C5 8054   1.760   3.030  11.872 -0.3792  0.6240  0.2523
  539MPD2     H 8055   1.728   3.124  11.506 -0.5611  0.9898 -0.3374
  539MPD2    H1 8056   1.701   3.225  11.920  2.0966  1.7867 -1.3984
  539MPD2    H2 8057   1.824   2.836  11.810 -1.7664 -0.2690 -0.3651
  539MPD2    H3 8058   1.750   2.998  11.975 -1.8879 -0.6612 -0.2914
  539MPD2     N 8059   1.651   3.316  11.690  0.1973 -0.1628  0.0783
  539MPD2    H5 8060   1.628   3.370  11.772 -2.4865  1.6099 -1.8266
  539MPD2    N1 8061   1.847   2.879  11.548  0.3831 -0.2058  0.1577
  539MPD2    H7 8062   1.903   2.804  11.586 -0.0032 -1.6526 -2.1378
  540TMC3    C1 8063   1.519   3.476  11.572 -0.5664 -0.0211  0.4757
  540TMC3    C2 8064   1.504   3.562  11.469  0.4215  0.3538  0.5472
  540TMC3    C3 8065   1.426   3.674  11.483  0.1753  0.5816 -0.3297
  540TMC3    C4 8066   1.449   3.484  11.687  0.5713 -0.3059 -0.2910
  540TMC3    C5 8067   1.372   3.597  11.704 -0.1327  0.2106  0.4794
  540TMC3    C6 8068   1.364   3.700  11.606  0.3432 -0.7216  0.3628
  540TMC3     C 8069   1.612   3.367  11.562 -0.4556 -0.1295  0.0101
  540TMC3     O 8070   1.662   3.339  11.453  0.5769  0.3026  0.2506
  540TMC3     H 8071   1.564   3.544  11.380  0.1022 -1.1060  0.6396
  540TMC3    H1 8072   1.445   3.404  11.759 -1.2003 -1.1260 -1.2788
  540TMC3    H2 8073   1.291   3.779  11.623 -1.5048 -2.3014 -0.2364
  540TMC3    C7 8074   1.287   3.619  11.817  0.0832  0.2548 -0.7420
  540TMC3    C8 8075   1.390   3.757  11.366  0.3190  0.5331 -0.6135
  540TMC3    O1 8076   1.205   3.706  11.813  0.2023  0.0787  0.3004
  540TMC3    O2 8077   1.334   3.864  11.394  0.3752 -0.0828 -0.1812
  541MPD2     C 8078   4.125   4.676  12.834  0.1613  0.3970 -0.3903
  541MPD2    C1 8079   4.124   4.556  12.772  0.3055 -0.6469 -0.2764
  541MPD2    C2 8080   4.092   4.548  12.637 -0.6482  0.2954  0.0277
  541MPD2    C3 8081   4.050   4.656  12.570  0.2735 -0.1421  0.3725
  541MPD2    C4 8082   4.054   0.044  12.632  0.2938  0.3528  0.5613
  541MPD2    C5 8083   4.090   0.052  12.762  0.1955 -0.1095 -0.7424
  541MPD2     H 8084   4.098   4.453  12.585 -0.9399  1.2624 -1.8050
  541MPD2    H1 8085   4.021   0.133  12.580  0.2562  0.1849  0.2971
  541MPD2    H2 8086   4.147   4.678  12.940 -0.7228 -1.9457 -0.1632
  541MPD2    H3 8087   4.084   0.155  12.797 -0.9380 -0.3231 -0.3362
  541MPD2     N 8088   4.003   4.657  12.439 -0.2014  0.2966  0.2775
  541MPD2    H5 8089   3.968   0.010  12.404  0.5889  0.5723  0.2030
  541MPD2    N1 8090   4.159   4.435  12.838  0.3135  0.0792  0.4288
  541MPD2    H7 8091   4.152   4.356  12.775  0.6723  1.8469 -1.8346
  542TMC3    C1 8092   3.949   4.576  12.229  0.1173 -0.0047  0.0414
  542TMC3    C2 8093   4.007   4.517  12.124  0.1429 -0.0003  0.4862
  542TMC3    C3 8094   3.936   4.508  12.008 -0.2569 -0.1699 -0.3374
  542TMC3    C4 8095   3.832   4.634  12.223 -0.1543 -1.0121  0.2645
  542TMC3    C5 8096   3.761   4.630  12.107 -0.0031 -0.1250  0.1867
  542TMC3    C6 8097   3.815   4.576  11.995  0.4847 -0.2230 -0.0405
  542TMC3     C 8098   4.014   4.546  12.359  0.1506 -0.3208  0.0897
  542TMC3     O 8099   4.076   4.441  12.368  0.5844 -0.4392 -0.2768
  542TMC3     H 8100   4.105   4.472  12.134 -0.2842 -0.4204  2.7225
  542TMC3    H1 8101   3.791   4.683  12.311  1.1574 -0.6084  0.6513
  542TMC3    H2 8102   3.763   4.585  11.901  1.4894 -0.3194 -0.6111
  542TMC3    C7 8103   3.626   4.693  12.093  0.2763  0.3253 -0.2688
  542TMC3    C8 8104   4.011   4.469  11.891 -0.2425 -0.6356 -0.2127
  542TMC3    O1 8105   3.580   4.690  11.981  0.1900 -0.2212  0.1221
  542TMC3    O2 8106   3.983   4.536  11.792  0.3194  0.0814  0.1822
  543TMC3    C1 8107   3.477   1.164  17.429 -0.7369  0.0269 -0.6109
  543TMC3    C2 8108   3.544   1.087  17.516 -0.2512  0.8822  0.2641
  543TMC3    C3 8109   3.503   1.096  17.645 -0.3518 -0.1382 -0.1624
  543TMC3    C4 8110   3.381   1.249  17.473  0.8893  0.4089 -0.0460
  543TMC3    C5 8111   3.350   1.261  17.607  0.1913  1.0396 -0.1352
  543TMC3    C6 8112   3.411   1.186  17.696 -0.0214 -0.3851 -0.0125
  543TMC3     C 8113   3.524   1.167  17.287 -0.5463 -0.1911 -0.5366
  543TMC3     O 8114   3.600   1.077  17.247  0.3688 -0.2517  0.1314
  543TMC3     H 8115   3.621   1.023  17.474 -0.9341  0.0014  0.3566
  543TMC3    H1 8116   3.346   1.329  17.407 -0.3758 -0.3868 -0.3473
  543TMC3    H2 8117   3.375   1.201   0.053  0.0296 -3.8593  0.5149
  543TMC3    C7 8118   3.230   1.337  17.653  0.7980  0.1050  0.5543
  543TMC3    C8 8119   3.567   1.004  17.734  0.0117 -0.2787 -0.1834
  543TMC3    O1 8120   3.168   1.293   0.006 -0.4336  0.0202 -0.1327
  543TMC3    O2 8121   3.659   0.940  17.686  0.1562  0.2238 -0.3973
  544MPD2     C 8122   3.583   0.770   0.444  1.0020 -0.0185 -0.6627
  544MPD2    C1 8123   3.670   0.759   0.334  0.1360 -0.0920  0.0487
  544MPD2    C2 8124   3.645   0.842   0.227  0.0790  0.1651  0.2235
  544MPD2    C3 8125   3.540   0.927   0.228  0.5344  0.4450  0.7033
  544MPD2    C4 8126   3.456   0.931   0.336 -0.2109 -0.1551  0.1905
  544MPD2    C5 8127   3.476   0.864   0.448  0.1341 -0.4491 -0.0335
  544MPD2     H 8128   3.720   0.846   0.149  1.3705 -0.5645  1.4327
  544MPD2    H1 8129   3.370   0.998   0.329  1.8251  2.3505 -0.9645
  544MPD2    H2 8130   3.614   0.718   0.534 -0.0588  0.6656  0.0862
  544MPD2    H3 8131   3.401   0.872   0.525 -0.3808 -1.9598 -0.3697
  544MPD2     N 8132   3.507   1.002   0.114  0.2345  0.1255  0.3537
  544MPD2    H5 8133   3.425   1.062   0.117  0.9351  1.1602 -1.8183
  544MPD2    N1 8134   3.787   0.680   0.352 -0.3772 -0.3322 -0.0746
  544MPD2    H7 8135   3.802   0.632   0.440  1.2237  0.8080  0.2734
  545TMC3    C1 8136   3.956   0.524   0.286 -0.1271  0.1342 -0.1217
  545TMC3    C2 8137   4.028   0.545   0.397  0.1472 -0.9828 -0.1323
  545TMC3    C3 8138   4.121   0.447   0.432  0.1861 -0.1131  0.2263
  545TMC3    C4 8139   3.971   0.416   0.203  0.4095  0.3305  0.5582
  545TMC3    C5 8140   4.054   0.313   0.250  0.3525  0.0719 -0.6698
  545TMC3    C6 8141   4.133   0.330   0.362 -0.3362  0.2082 -0.3840
  545TMC3     C 8142   3.856   0.623   0.246 -0.2763  0.1896  1.0636
  545TMC3     O 8143   3.844   0.630   0.124  0.7662 -0.6017  0.3706
  545TMC3     H 8144   4.015   0.637   0.454 -2.6691 -1.8035  0.5425
  545TMC3    H1 8145   3.912   0.396   0.114  1.4630 -1.2317  0.1870
  545TMC3    H2 8146   4.220   0.267   0.379  0.0173  0.3047 -1.8234
  545TMC3    C7 8147   4.060   0.191   0.176  0.0627  0.7504 -0.2596
  545TMC3    C8 8148   4.248   0.477   0.500 -0.1524  0.3048 -0.1431
  545TMC3    O1 8149   4.020   0.186   0.058 -0.2952  0.2993  0.3750
  545TMC3    O2 8150   4.319   0.385   0.528  0.0683  0.4113  0.2704
  546MPD2     C 8151   0.259   0.958  17.495  0.1692  0.1619  0.6375
  546MPD2    C1 8152   0.163   0.997  17.408  0.3851  0.1614  0.0947
  546MPD2    C2 8153   0.165   1.132  17.364  0.9205 -0.5255  0.3252
  546MPD2    C3 8154   0.273   1.215  17.400 -0.0025 -0.2150 -0.1821
  546MPD2    C4 8155   0.367   1.168  17.492  0.6038 -0.0594 -0.3794
  546MPD2    C5 8156   0.358   1.038  17.531  0.2250  0.5711 -0.1493
  546MPD2     H 8157   0.098   1.183  17.296  2.6514  2.0292  0.5534
  546MPD2    H1 8158   0.454   1.224  17.525  0.5868  0.0247 -0.4764
  546MPD2    H2 8159   0.265   0.855  17.531  1.1290 -1.5375 -4.3746
  546MPD2    H3 8160   0.431   1.003  17.603 -1.8264 -3.6545 -0.1180
  546MPD2     N 8161   0.292   1.350  17.350 -0.3368  0.0948  0.6874
  546MPD2    H5 8162   0.375   1.398  17.383  0.7188  0.2955 -2.2113
  546MPD2    N1 8163   0.055   0.909  17.375  0.1226  0.7782  0.2166
  546MPD2    H7 8164   0.057   0.817  17.417 -2.8544  0.1643 -1.0032
  547TMC3    C1 8165   4.583   0.830  17.306 -0.7094 -0.2787  0.3731
  547TMC3    C2 8166   4.483   0.823  17.209 -0.3652 -0.2314 -0.1350
  547TMC3    C3 8167   4.398   0.720  17.210 -0.0221 -0.1335  0.4479
  547TMC3    C4 8168   4.592   0.732  17.402 -0.1572 -0.0637 -0.1849
  547TMC3    C5 8169   4.507   0.622  17.392  0.6856  0.5044  0.1472
  547TMC3    C6 8170   4.405   0.621  17.304  0.2022  0.1177 -0.4643
  547TMC3     C 8171   4.682   0.942  17.301 -0.1660 -0.3299 -0.4228
  547TMC3     O 8172   4.657   1.035  17.228  0.1345  0.1300 -0.1514
  547TMC3     H 8173   4.488   0.894  17.127 -1.3122 -0.1152 -0.0962
  547TMC3    H1 8174   4.660   0.744  17.485  0.2669  0.1361 -0.5641
  547TMC3    H2 8175   4.338   0.537  17.292 -0.0226  0.1675  0.4710
  547TMC3    C7 8176   4.531   0.514  17.486 -0.1807 -0.1148 -0.6553
  547TMC3    C8 8177   4.293   0.719  17.111 -0.5572 -0.2755  0.6485
  547TMC3    O1 8178   4.611   0.543  17.572  0.0980 -0.7444 -0.0101
  547TMC3    O2 8179   4.320   0.799  17.022 -0.4569 -0.6783 -0.0462
  548MPD2     C 8180   4.703   2.004  11.987  0.0929 -0.4752  1.0889
  548MPD2    C1 8181   0.041   1.967  12.095  0.4647  0.1304  0.0434
  548MPD2    C2 8182   0.159   1.896  12.080  0.3679 -0.5721 -0.2984
  548MPD2    C3 8183   0.210   1.885  11.949 -0.1042 -0.0352  0.3257
  548MPD2    C4 8184   0.144   1.944  11.837  0.3212  0.0248 -0.5421
  548MPD2    C5 8185   0.015   1.985  11.856 -0.3136 -0.3495  0.6095
  548MPD2     H 8186   0.214   1.857  12.164 -0.6847  0.1297  0.7160
  548MPD2    H1 8187   0.185   1.921  11.740 -0.1519  0.2883 -0.8064
  548MPD2    H2 8188   4.605   2.050  11.999 -0.1609 -0.3256 -1.6708
  548MPD2    H3 8189   4.696   2.025  11.772 -0.9033 -0.9024  0.7356
  548MPD2     N 8190   0.334   1.820  11.946 -0.0329  0.6017 -0.2229
  548MPD2    H5 8191   0.378   1.779  12.028 -0.2055  2.9631  1.0547
  548MPD2    N1 8192   4.719   1.998  12.221 -1.3777 -0.1870 -0.1391
  548MPD2    H7 8193   4.636   2.056  12.214  0.4316  2.1521 -1.9951
  549TMC3    C1 8194   4.654   1.962  12.443 -0.0242 -0.3164 -0.4108
  549TMC3    C2 8195   4.531   1.915  12.409  0.0174  0.7606  0.5409
  549TMC3    C3 8196   4.471   1.837  12.506  0.1299  0.4988 -0.3834
  549TMC3    C4 8197   4.709   1.950  12.570 -0.5988  0.0135  0.7605
  549TMC3    C5 8198   4.643   1.870  12.658 -0.3078 -0.5314 -0.0696
  549TMC3    C6 8199   4.531   1.807  12.628 -0.0906 -0.1914  0.3723
  549TMC3     C 8200   0.019   1.944  12.338 -0.4338 -0.4342  0.1806
  549TMC3     O 8201   0.105   1.857  12.360  0.5238 -0.0955 -0.5478
  549TMC3     H 8202   4.487   1.943  12.314 -1.5604 -1.2933  0.6745
  549TMC3    H1 8203   0.068   1.993  12.599  0.1793 -0.2444 -1.4034
  549TMC3    H2 8204   4.472   1.755  12.703 -0.8400  0.3543  0.1574
  549TMC3    C7 8205   4.724   1.839  12.776  0.0021  0.1069  0.0088
  549TMC3    C8 8206   4.341   1.783  12.478  0.0548  0.3317  0.0206
  549TMC3    O1 8207   0.051   1.928  12.828 -0.0648  0.3532  0.0679
  549TMC3    O2 8208   4.272   1.731  12.568  0.5287 -0.2460  0.4029
  550TMC3    C1 8209   3.436   4.336  12.217 -0.0177 -0.2835 -0.6680
  550TMC3    C2 8210   3.461   4.356  12.352 -0.3418 -0.2861 -0.2831
  550TMC3    C3 8211   3.360   4.386  12.434  0.3155  0.1352  0.1081
  550TMC3    C4 8212   3.310   4.337  12.162 -0.0261  0.3519 -0.4442
  550TMC3    C5 8213   3.211   4.377  12.251 -0.1934  0.6800 -0.0993
  550TMC3    C6 8214   3.230   4.400  12.384  0.3431  0.3236  0.4815
  550TMC3     C 8215   3.556   4.301  12.136 -0.0173 -0.0145 -0.0128
  550TMC3     O 8216   3.660   4.278  12.192  0.0670  0.5633  0.6237
  550TMC3     H 8217   3.564   4.354  12.387 -0.3008 -0.4509 -0.4141
  550TMC3    H1 8218   3.292   4.309  12.059 -0.0214 -1.3811  0.0269
  550TMC3    H2 8219   3.151   4.432  12.451 -1.8199 -0.3648 -1.7521
  550TMC3    C7 8220   3.078   4.408  12.207  0.2181 -0.6209  0.2194
  550TMC3    C8 8221   3.379   4.426  12.571  0.0748  0.0010 -0.3476
  550TMC3    O1 8222   2.992   4.408  12.295 -0.2190  0.9122 -0.7522
  550TMC3    O2 8223   3.495   4.450  12.605  0.0106 -0.5957 -0.1700
  551TMC3    C1 8224   1.168   2.156  13.364 -0.3155  0.3837 -0.4327
  551TMC3    C2 8225   1.241   2.045  13.346 -0.2795 -0.7549 -0.0123
  551TMC3    C3 8226   1.344   2.030  13.432  0.1573 -0.3585  0.2298
  551TMC3    C4 8227   1.184   2.234  13.479 -0.1061 -0.0708  0.1510
  551TMC3    C5 8228   1.284   2.204  13.562  0.3687 -0.8630 -0.3574
  551TMC3    C6 8229   1.362   2.103  13.545 -0.6574 -0.7493 -0.0778
  551TMC3     C 8230   1.081   2.197  13.249 -0.0109 -0.6984  0.2543
  551TMC3     O 8231   1.003   2.119  13.204  0.2670  0.4960 -0.4420
  551TMC3     H 8232   1.251   1.997  13.249  1.7362 -0.3451 -0.0102
  551TMC3    H1 8233   1.106   2.309  13.494  1.0779  1.2139 -0.1243
  551TMC3    H2 8234   1.415   2.055  13.627  1.3956  1.2009 -0.2904
  551TMC3    C7 8235   1.312   2.293  13.682  0.0546  0.7540 -0.2273
  551TMC3    C8 8236   1.441   1.921  13.412 -0.0610 -0.0393 -1.4838
  551TMC3    O1 8237   1.403   2.274  13.764 -0.4436 -0.4563  0.3254
  551TMC3    O2 8238   1.396   1.809  13.392 -0.0381  0.2371 -0.0305
  552MPD2     C 8239   2.748   3.882  14.385  0.4610  1.1023  0.0631
  552MPD2    C1 8240   2.820   3.847  14.275 -0.0318  0.1546 -0.2207
  552MPD2    C2 8241   2.918   3.750  14.287  0.0994 -0.5686 -1.0089
  552MPD2    C3 8242   2.944   3.688  14.405 -0.3205 -0.0697  0.5893
  552MPD2    C4 8243   2.869   3.718  14.516 -0.5949 -0.0136 -0.2866
  552MPD2    C5 8244   2.770   3.812  14.504  0.3062 -0.3711  0.6628
  552MPD2     H 8245   2.977   3.720  14.202  1.5069  0.0002 -0.2319
  552MPD2    H1 8246   2.884   3.678  14.616 -0.1043 -1.3260 -0.8950
  552MPD2    H2 8247   2.661   3.945  14.371  0.6294  1.0125 -1.3960
  552MPD2    H3 8248   2.706   3.842  14.586 -0.8494 -0.9098 -0.0384
  552MPD2     N 8249   3.045   3.585  14.426  0.3388 -0.8498  0.8573
  552MPD2    H5 8250   3.052   3.545  14.519  0.7471  0.6528  1.4846
  552MPD2    N1 8251   2.797   3.897  14.145  0.4789 -0.1944  0.0853
  552MPD2    H7 8252   2.859   3.865  14.071 -0.3324  0.3883 -0.8556
  553TMC3    C1 8253   2.695   3.992  13.954 -0.5917  0.2369 -0.4070
  553TMC3    C2 8254   2.631   4.102  13.901  0.9610 -0.7867  0.0635
  553TMC3    C3 8255   2.574   4.090  13.777 -0.3226  0.0615 -0.3661
  553TMC3    C4 8256   2.705   3.870  13.891  0.0703 -0.5647 -0.0822
  553TMC3    C5 8257   2.638   3.865  13.767 -0.1107  0.8111  0.0818
  553TMC3    C6 8258   2.569   3.966  13.716  0.1193  0.0776  0.3833
  553TMC3     C 8259   2.710   3.989  14.103  0.3670  0.1808  0.6764
  553TMC3     O 8260   2.637   4.072  14.160  0.2847 -0.6612 -0.2590
  553TMC3     H 8261   2.638   4.197  13.954 -0.7648 -2.2026  2.8327
  553TMC3    H1 8262   2.743   3.779  13.936  0.7328 -1.0399 -1.6031
  553TMC3    H2 8263   2.536   3.957  13.614 -0.8749 -2.9922  0.9841
  553TMC3    C7 8264   2.639   3.743  13.685  0.0967  0.2745 -0.0537
  553TMC3    C8 8265   2.605   4.200  13.689  0.1184  0.2785 -0.1734
  553TMC3    O1 8266   2.532   3.697  13.655  0.1135 -0.0118 -0.4182
  553TMC3    O2 8267   2.680   4.282  13.731  0.8712 -0.4796  0.3536
  554TMC3    C1 8268   0.975   3.677  11.270  0.0618  0.0061  0.2419
  554TMC3    C2 8269   0.996   3.595  11.158 -0.0525  0.1149  0.6495
  554TMC3    C3 8270   1.002   3.657  11.036 -0.6152  0.1909  0.1948
  554TMC3    C4 8271   0.958   3.816  11.259 -1.3952  0.8005 -0.6389
  554TMC3    C5 8272   0.966   3.869  11.131 -0.7768 -1.0559  0.4824
  554TMC3    C6 8273   0.984   3.792  11.021  0.4990  0.2427  0.4093
  554TMC3     C 8274   0.975   3.622  11.405  0.4570 -0.1339  0.8229
  554TMC3     O 8275   0.984   3.697  11.497  0.3743 -0.0295  0.1568
  554TMC3     H 8276   1.013   3.488  11.168  0.8496  0.2053  0.1229
  554TMC3    H1 8277   0.950   3.881  11.345 -2.3114 -0.1451 -0.0043
  554TMC3    H2 8278   1.009   3.843  10.928  1.8116 -1.9540 -0.4400
  554TMC3    C7 8279   0.922   4.000  11.095 -0.1016 -0.0905 -0.8514
  554TMC3    C8 8280   0.971   3.580  10.915  0.3701 -0.0780  0.7427
  554TMC3    O1 8281   0.883   4.018  10.980 -0.4199  0.1059 -0.5547
  554TMC3    O2 8282   0.997   3.645  10.809  0.3500  0.0064 -0.1933
  555TMC3    C1 8283   3.746   2.492  15.221  0.4121 -0.1924  0.5426
  555TMC3    C2 8284   3.863   2.555  15.175 -0.6294 -0.5030  0.7190
  555TMC3    C3 8285   3.976   2.492  15.203 -0.6015  0.8583 -0.0641
  555TMC3    C4 8286   3.743   2.374  15.289  1.0152 -0.4638 -0.0292
  555TMC3    C5 8287   3.866   2.314  15.295 -0.4706  0.2628 -0.3543
  555TMC3    C6 8288   3.981   2.367  15.259  0.0055 -0.2721  0.5872
  555TMC3     C 8289   3.621   2.565  15.210  0.1163 -0.3346  1.3621
  555TMC3     O 8290   3.554   2.567  15.313  0.1575  0.0473 -0.3210
  555TMC3     H 8291   3.855   2.650  15.124  1.1363 -1.1611 -0.7556
  555TMC3    H1 8292   3.644   2.338  15.316  0.9940  0.5218  1.2378
  555TMC3    H2 8293   4.073   2.313  15.279  0.3529  0.6320  1.4292
  555TMC3    C7 8294   3.860   2.184  15.363  0.4015  0.2515  0.1109
  555TMC3    C8 8295   4.095   2.576  15.211  0.1310 -0.5278  0.1099
  555TMC3    O1 8296   3.771   2.161  15.443  0.0039 -0.1825 -0.2741
  555TMC3    O2 8297   4.085   2.696  15.231 -0.1909 -0.3018  0.0840
  556MPD2     C 8298   2.308   0.176  10.265 -0.0154  0.3280  0.0805
  556MPD2    C1 8299   2.305   0.090  10.379  0.4404  0.3247 -0.3805
  556MPD2    C2 8300   2.369   4.703  10.387 -0.0436 -0.4075 -0.7081
  556MPD2    C3 8301   2.421   4.663  10.266  0.3963 -0.0035 -0.2971
  556MPD2    C4 8302   2.423   0.004  10.156  0.0266  0.2614 -0.3460
  556MPD2    C5 8303   2.371   0.126  10.156  0.3087  0.1785  0.0244
  556MPD2     H 8304   2.373   4.647  10.480  1.2925  0.2464 -0.3702
  556MPD2    H1 8305   2.466   4.717  10.059  0.5320  0.6402 -0.2120
  556MPD2    H2 8306   2.251   0.268  10.261  0.3219  0.5055 -0.5329
  556MPD2    H3 8307   2.370   0.191  10.069  0.5348 -1.8041 -1.4649
  556MPD2     N 8308   2.491   4.536  10.271 -0.1919 -0.3274 -0.0334
  556MPD2    H5 8309   2.484   4.483  10.357 -2.5449 -3.2421 -2.0483
  556MPD2    N1 8310   2.247   0.133  10.502 -0.3995  0.5169 -0.1737
  556MPD2    H7 8311   2.249   0.064  10.577  0.2977 -1.2622 -1.8311
  557TMC3    C1 8312   2.595   4.344  10.196  0.2423  0.4741 -0.7347
  557TMC3    C2 8313   2.636   4.275  10.089  0.4812  0.3017  0.4795
  557TMC3    C3 8314   2.626   4.138  10.097 -0.4569 -0.9045  0.2212
  557TMC3    C4 8315   2.566   4.289  10.317 -0.3701 -0.0277 -1.0574
  557TMC3    C5 8316   2.570   4.153  10.325  0.0693  1.0324  0.2912
  557TMC3    C6 8317   2.596   4.075  10.216 -0.1079  0.6619 -0.4087
  557TMC3     C 8318   2.551   4.473  10.163 -0.3643  0.5844  0.6445
  557TMC3     O 8319   2.589   4.524  10.055  0.2125 -0.0719 -0.1781
  557TMC3     H 8320   2.652   4.329   9.996  0.0878 -2.1086 -0.9966
  557TMC3    H1 8321   2.561   4.347  10.408  1.2638  1.6342 -2.0299
  557TMC3    H2 8322   2.592   3.967  10.219  2.2485  0.5516 -0.8639
  557TMC3    C7 8323   2.517   4.085  10.447  0.2526  0.0035  0.3319
  557TMC3    C8 8324   2.590   4.077   9.970 -0.5835 -0.9760 -0.0508
  557TMC3    O1 8325   2.440   4.161  10.506 -0.1668 -0.8579  0.3695
  557TMC3    O2 8326   2.545   4.145   9.878  0.4751  0.1117  0.1188
  558TMC3    C1 8327   0.168   2.310   9.853  0.6762 -0.1651  0.2497
  558TMC3    C2 8328   0.061   2.324   9.939 -0.4958  0.0165 -0.9845
  558TMC3    C3 8329   4.680   2.266   9.903  0.3892 -0.5515  0.8739
  558TMC3    C4 8330   0.160   2.244   9.732 -0.4509  0.2789  1.3339
  558TMC3    C5 8331   0.039   2.177   9.705  0.5310 -0.1538 -0.4845
  558TMC3    C6 8332   4.664   2.202   9.784 -0.2075  0.5970 -0.3173
  558TMC3     C 8333   0.260   2.419   9.852  0.6742 -0.0784 -0.2393
  558TMC3     O 8334   0.303   2.456   9.961  0.2441  0.5073  0.0093
  558TMC3     H 8335   0.064   2.399  10.018  2.0431 -0.0920 -0.9832
  558TMC3    H1 8336   0.252   2.234   9.676  0.0370  1.5195  1.9048
  558TMC3    H2 8337   4.564   2.176   9.749 -0.0484 -0.3395 -0.0860
  558TMC3    C7 8338   0.021   2.155   9.569  0.1074  0.9576 -0.0548
  558TMC3    C8 8339   4.560   2.273   9.985  0.0088 -0.0410  0.3525
  558TMC3    O1 8340   0.111   2.107   9.503 -0.1384 -0.1158 -0.3687
  558TMC3    O2 8341   4.458   2.243   9.920 -0.2857  0.1027  0.1629
  559MPD2     C 8342   0.558   3.123  10.523 -0.1532 -0.7576  0.0774
  559MPD2    C1 8343   0.487   3.028  10.591 -0.5933 -0.4035 -0.1173
  559MPD2    C2 8344   0.561   2.920  10.641 -0.5642  0.1993 -0.0667
  559MPD2    C3 8345   0.700   2.919  10.619 -0.2308 -0.1823  0.7255
  559MPD2    C4 8346   0.763   3.020  10.561 -0.4414  0.5534  1.0122
  559MPD2    C5 8347   0.694   3.123  10.523  0.7159  0.7328 -0.0517
  559MPD2     H 8348   0.515   2.840  10.697 -1.7846 -0.6039 -2.1880
  559MPD2    H1 8349   0.870   3.036  10.559 -0.3457 -0.3135 -1.7455
  559MPD2    H2 8350   0.500   3.200  10.474  1.6075 -0.3288 -1.3471
  559MPD2    H3 8351   0.752   3.206  10.483 -1.2047  2.5100  0.8180
  559MPD2     N 8352   0.778   2.814  10.682  0.2068 -0.5867  0.0421
  559MPD2    H5 8353   0.725   2.735  10.719 -1.2373  1.1738  1.7022
  559MPD2    N1 8354   0.343   3.042  10.590  0.6407  0.1680  0.1690
  559MPD2    H7 8355   0.300   3.124  10.549  0.2913  0.2547  0.7012
  560TMC3    C1 8356   0.960   2.693  10.775 -0.7234 -0.4291 -0.8316
  560TMC3    C2 8357   0.858   2.611  10.803 -1.3047 -0.2024  0.9370
  560TMC3    C3 8358   0.840   2.569  10.933  0.6737  0.1610 -0.2807
  560TMC3    C4 8359   1.047   2.734  10.863  0.2648 -0.1056  0.7394
  560TMC3    C5 8360   1.026   2.691  10.995  0.6878  0.3504 -0.4906
  560TMC3    C6 8361   0.921   2.613  11.038  0.4686  0.7255 -0.6427
  560TMC3     C 8362   0.914   2.807  10.700 -0.0250  0.4129  0.8266
  560TMC3     O 8363   0.998   2.884  10.659 -0.1685  0.5062  0.1895
  560TMC3     H 8364   0.791   2.579  10.724 -0.8829  1.3231 -0.0461
  560TMC3    H1 8365   1.130   2.794  10.828 -0.0950  0.0432  0.1500
  560TMC3    H2 8366   0.891   2.605  11.142 -1.4533  1.0055 -1.1736
  560TMC3    C7 8367   1.061   2.781  11.102  0.9610 -0.6270  0.6734
  560TMC3    C8 8368   0.698   2.544  10.961 -0.3590 -0.5909 -0.3081
  560TMC3    O1 8369   1.011   2.769  11.215  0.5197  0.1095 -0.7388
  560TMC3    O2 8370   0.620   2.577  10.873  0.0685 -0.1199 -0.2548
  561TMC3    C1 8371   2.996   1.975  10.918 -0.0860 -0.6550  0.0863
  561TMC3    C2 8372   2.884   1.900  10.950  0.3216  0.0055 -0.1302
  561TMC3    C3 8373   2.790   1.958  11.025 -0.4218 -0.2392 -0.2913
  561TMC3    C4 8374   3.013   2.104  10.970 -0.2661 -0.3017 -0.4178
  561TMC3    C5 8375   2.914   2.158  11.039 -0.0109  0.4433  0.8292
  561TMC3    C6 8376   2.796   2.087  11.062  0.3547 -0.7525 -0.1309
  561TMC3     C 8377   3.104   1.921  10.836  0.1796  0.9609 -0.9300
  561TMC3     O 8378   3.069   1.820  10.773  0.2709  0.0094  0.2325
  561TMC3     H 8379   2.877   1.798  10.916  1.2492 -2.2122  6.2652
  561TMC3    H1 8380   3.110   2.151  10.953 -0.3707  0.1892  0.3468
  561TMC3    H2 8381   2.722   2.141  11.119  2.2238 -0.1651  1.7270
  561TMC3    C7 8382   2.931   2.277  11.118 -0.0146  0.2828  0.3752
  561TMC3    C8 8383   2.684   1.875  11.071 -1.2682  0.4404 -0.1173
  561TMC3    O1 8384   2.840   2.316  11.191  0.2107  0.3429 -0.6462
  561TMC3    O2 8385   2.670   1.783  10.992  0.1913 -0.1114  0.2369
  562TMC3    C1 8386   3.740   2.633  16.472 -0.1174  0.0993  0.7035
  562TMC3    C2 8387   3.712   2.747  16.399 -0.0508 -0.0238 -1.2718
  562TMC3    C3 8388   3.635   2.740  16.289  0.0341 -0.2148  0.0380
  562TMC3    C4 8389   3.708   2.509  16.424  0.7143  0.1570 -0.1879
  562TMC3    C5 8390   3.642   2.507  16.310  0.0065  0.4549  0.0473
  562TMC3    C6 8391   3.598   2.620  16.234  0.5658  0.0168 -0.3141
  562TMC3     C 8392   3.803   2.655  16.599 -0.3409 -0.0222  0.5907
  562TMC3     O 8393   3.827   2.768  16.630 -0.5805 -0.2212 -0.1595
  562TMC3     H 8394   3.742   2.844  16.436 -2.4221  0.0101  0.5602
  562TMC3    H1 8395   3.733   2.420  16.480 -1.0895 -0.8681 -1.0258
  562TMC3    H2 8396   3.542   2.612  16.142  2.7517  0.4192 -1.6786
  562TMC3    C7 8397   3.614   2.383  16.246 -0.4039  0.7188 -0.1292
  562TMC3    C8 8398   3.587   2.865  16.241 -0.5925  0.7879  0.1013
  562TMC3    O1 8399   3.529   2.379  16.159  0.2670  0.2181 -0.0418
  562TMC3    O2 8400   3.559   2.943  16.332 -0.6577  0.6347  0.1435
  563MPD2     C 8401   1.208   4.675  15.585 -0.3036 -0.3925  0.1120
  563MPD2    C1 8402   1.231   4.581  15.686  0.2613  0.5912  0.2882
  563MPD2    C2 8403   1.335   4.497  15.665 -0.1915 -0.4440 -0.3904
  563MPD2    C3 8404   1.431   4.508  15.558  0.0450 -0.0696  0.0117
  563MPD2    C4 8405   1.417   4.611  15.467 -0.7851 -0.5257 -0.2984
  563MPD2    C5 8406   1.304   4.683  15.475  0.0172 -0.6205 -0.4992
  563MPD2     H 8407   1.339   4.417  15.737 -2.1497  0.1721  0.4012
  563MPD2    H1 8408   1.474   4.631  15.377  0.1817 -0.0367  0.4248
  563MPD2    H2 8409   1.121   0.003  15.582  0.2292  0.3371  0.4058
  563MPD2    H3 8410   1.275   0.012  15.393 -0.3951 -0.8301 -0.5213
  563MPD2     N 8411   1.531   4.407  15.556 -0.7481  0.5797 -0.2343
  563MPD2    H5 8412   1.515   4.337  15.627  1.0021 -1.8566 -2.2082
  563MPD2    N1 8413   1.157   4.566  15.797 -0.1560 -0.0408  0.2609
  563MPD2    H7 8414   1.194   4.500  15.865 -0.1387  1.0081  1.2700
  564TMC3    C1 8415   0.953   4.543  15.922  0.6769 -0.1742  0.3405
  564TMC3    C2 8416   0.824   4.507  15.897  0.1065 -0.7529 -0.1614
  564TMC3    C3 8417   0.765   4.411  15.980  0.0860  0.3828 -0.2444
  564TMC3    C4 8418   1.030   4.500  16.031 -0.5988  0.4580 -0.2958
  564TMC3    C5 8419   0.968   4.412  16.115  0.5392  0.9461  0.4345
  564TMC3    C6 8420   0.837   4.363  16.086 -0.0562  1.0573 -0.6553
  564TMC3     C 8421   1.024   4.607  15.809 -0.4228  0.6052 -0.3225
  564TMC3     O 8422   0.960   4.669  15.724 -0.2080 -0.1331 -0.3614
  564TMC3     H 8423   0.769   4.559  15.820  0.0894 -0.3044  0.1553
  564TMC3    H1 8424   1.137   4.512  16.042 -0.4749 -0.1900 -0.8064
  564TMC3    H2 8425   0.789   4.302  16.161  1.0687  2.1211  0.9259
  564TMC3    C7 8426   1.052   4.296  16.142 -0.0453  0.1623  0.2680
  564TMC3    C8 8427   0.683   4.312  15.920  0.9277 -0.0021 -0.3823
  564TMC3    O1 8428   1.161   4.322  16.190  0.5835 -0.3319  0.0160
  564TMC3    O2 8429   0.649   4.225  15.996 -0.2318 -0.2317  0.7807
  565TMC3    C1 8430   2.377   1.928   9.635  0.1975 -0.0628  0.3346
  565TMC3    C2 8431   2.291   1.879   9.726 -0.1259  0.8756 -0.8076
  565TMC3    C3 8432   2.239   1.754   9.696 -0.2574 -0.2640  0.8217
  565TMC3    C4 8433   2.386   1.872   9.505 -0.6332  0.7037  0.2704
  565TMC3    C5 8434   2.332   1.751   9.478 -0.5284 -0.1769 -0.7908
  565TMC3    C6 8435   2.262   1.678   9.579 -0.3864  0.2852  0.4174
  565TMC3     C 8436   2.444   2.058   9.661  0.6590 -0.4101 -0.1607
  565TMC3     O 8437   2.464   2.129   9.565 -0.4064 -0.1796  0.3042
  565TMC3     H 8438   2.284   1.928   9.823 -1.5539  0.0611 -0.5043
  565TMC3    H1 8439   2.459   1.906   9.432 -0.9434 -0.1944 -0.4542
  565TMC3    H2 8440   2.187   1.612   9.537  1.4655 -0.8455 -1.1134
  565TMC3    C7 8441   2.328   1.699   9.349 -0.1204  0.4478  0.2111
  565TMC3    C8 8442   2.167   1.683   9.803 -0.9027  0.0711  0.1519
  565TMC3    O1 8443   2.318   1.579   9.340 -0.7079  0.1262  0.1349
  565TMC3    O2 8444   2.172   1.742   9.914  0.1021 -0.4087 -0.3225
  566MPD2     C 8445   3.274   1.452  14.221  0.5103 -0.7100 -0.3324
  566MPD2    C1 8446   3.260   1.582  14.258  0.3089 -0.5476  0.9149
  566MPD2    C2 8447   3.148   1.650  14.213 -0.4525  0.1455 -0.3825
  566MPD2    C3 8448   3.057   1.590  14.129 -0.2886  0.0831  0.2803
  566MPD2    C4 8449   3.083   1.461  14.081 -0.9241  0.6853 -0.3344
  566MPD2    C5 8450   3.183   1.391  14.137 -0.0312 -0.0210  0.1126
  566MPD2     H 8451   3.125   1.754  14.238 -0.4387  0.4942 -1.8452
  566MPD2    H1 8452   3.014   1.416  14.011 -0.6293  2.0049 -1.4806
  566MPD2    H2 8453   3.363   1.400  14.254  1.9062  1.4791 -0.5925
  566MPD2    H3 8454   3.203   1.291  14.103 -0.7957  0.1938 -0.9863
  566MPD2     N 8455   2.943   1.654  14.073  0.0831  0.2770  0.1412
  566MPD2    H5 8456   2.864   1.596  14.045  0.0445  1.2340 -1.6628
  566MPD2    N1 8457   3.374   1.647  14.317 -0.3665 -0.6727  0.4127
  566MPD2    H7 8458   3.455   1.597  14.351  0.3756 -0.2342 -0.7069
  567TMC3    C1 8459   3.520   1.822  14.383 -0.0124  0.5636  0.0791
  567TMC3    C2 8460   3.559   1.951  14.355 -0.2588 -0.2752 -0.1103
  567TMC3    C3 8461   3.662   2.016  14.417  0.2967 -0.1320 -0.2240
  567TMC3    C4 8462   3.591   1.752  14.483  0.3446  0.1192 -0.2685
  567TMC3    C5 8463   3.706   1.811  14.529  0.6499 -0.2662  0.1772
  567TMC3    C6 8464   3.744   1.944  14.499  0.4066 -0.0006 -0.3744
  567TMC3     C 8465   3.389   1.782  14.335  0.0013 -0.5943  0.0413
  567TMC3     O 8466   3.306   1.870  14.320 -0.0061 -0.4580  0.5063
  567TMC3     H 8467   3.491   2.002  14.288 -0.4264 -0.2769  0.0582
  567TMC3    H1 8468   3.559   1.653  14.513 -0.7963 -0.5768 -3.8094
  567TMC3    H2 8469   3.834   1.979  14.548 -0.0156  1.1272 -0.4199
  567TMC3    C7 8470   3.717   1.780  14.670  0.9126 -0.4887 -0.3909
  567TMC3    C8 8471   3.702   2.147  14.372 -0.0697 -0.4417  0.6127
  567TMC3    O1 8472   3.744   1.665  14.707  0.0866  0.0157 -0.0557
  567TMC3    O2 8473   3.613   2.216  14.325  0.4221  0.5889  0.3244
  568MPD2     C 8474   1.496   3.255  16.034 -0.3475 -0.1046 -0.3000
  568MPD2    C1 8475   1.388   3.247  16.115  0.2894 -0.2110 -0.2027
  568MPD2    C2 8476   1.274   3.330  16.102 -0.2758 -0.1206 -0.5692
  568MPD2    C3 8477   1.274   3.413  15.993 -0.7424  0.4115 -0.1032
  568MPD2    C4 8478   1.386   3.417  15.905  0.3511  0.5762 -0.5018
  568MPD2    C5 8479   1.500   3.346  15.936 -0.5178 -0.2354 -0.2395
  568MPD2     H 8480   1.192   3.318  16.172  0.8148 -4.8195 -0.0864
  568MPD2    H1 8481   1.398   3.484  15.820  0.8621 -0.4154 -1.2186
  568MPD2    H2 8482   1.585   3.192  16.039 -1.0675 -1.1682 -0.8461
  568MPD2    H3 8483   1.587   3.350  15.870  0.9895  0.6725  1.8090
  568MPD2     N 8484   1.155   3.483  15.963 -0.0186 -0.0020  0.5812
  568MPD2    H5 8485   1.082   3.487  16.034 -1.5880  0.9329 -1.0928
  568MPD2    N1 8486   1.404   3.161  16.226 -0.1627 -0.1450 -0.3025
  568MPD2    H7 8487   1.489   3.106  16.235  0.5647  1.0409  0.0979
  569TMC3    C1 8488   1.005   3.621  15.851 -0.6912 -0.0285  0.6915
  569TMC3    C2 8489   0.956   3.649  15.978 -0.4686 -0.5324 -0.3012
  569TMC3    C3 8490   0.816   3.667  15.990  0.3083 -0.2250 -0.0926
  569TMC3    C4 8491   0.917   3.597  15.747  0.2127  0.1676 -0.1016
  569TMC3    C5 8492   0.783   3.629  15.763 -0.2161 -1.1722  0.7899
  569TMC3    C6 8493   0.726   3.661  15.885  0.2067  0.5696  0.5304
  569TMC3     C 8494   1.128   3.547  15.845 -0.2825 -0.1481  0.1842
  569TMC3     O 8495   1.194   3.540  15.742  0.2050  0.6762  0.1863
  569TMC3     H 8496   1.018   3.649  16.067  0.7385 -0.9439 -1.1348
  569TMC3    H1 8497   0.955   3.577  15.648 -1.3877  1.0999 -0.9087
  569TMC3    H2 8498   0.622   3.636  15.904 -0.4487  1.9284 -1.1859
  569TMC3    C7 8499   0.742   3.725  15.664 -0.5102  0.9283 -0.5195
  569TMC3    C8 8500   0.776   3.770  16.083  0.3507 -0.6965 -0.1098
  569TMC3    O1 8501   0.785   3.711  15.552  0.0208  0.4301 -0.3503
  569TMC3    O2 8502   0.691   3.839  16.034  0.0802 -0.4265  0.1475
  570TMC3    C1 8503   0.546   2.023  16.323 -0.1061  0.3237  0.6743
  570TMC3    C2 8504   0.575   2.005  16.191  0.3190  0.1387  0.2490
  570TMC3    C3 8505   0.621   2.114  16.114  0.0004 -0.3474  0.3983
  570TMC3    C4 8506   0.562   2.143  16.382  0.4901 -0.2458  0.2738
  570TMC3    C5 8507   0.612   2.246  16.306  0.0259 -0.9335  0.3369
  570TMC3    C6 8508   0.651   2.228  16.176 -0.1599 -0.5044  0.0137
  570TMC3     C 8509   0.452   1.923  16.384 -0.3593  0.3567  0.3956
  570TMC3     O 8510   0.435   1.816  16.326  0.0269  0.2736  0.2877
  570TMC3     H 8511   0.520   1.924  16.145 -0.2380  0.3770  0.4833
  570TMC3    H1 8512   0.550   2.149  16.490 -2.2932  0.9618 -0.1190
  570TMC3    H2 8513   0.692   2.308  16.115 -0.1212 -0.1986  0.4427
  570TMC3    C7 8514   0.634   2.373  16.373 -0.8548  0.0045 -0.5231
  570TMC3    C8 8515   0.693   2.095  15.992 -0.2122  0.4784  0.4374
  570TMC3    O1 8516   0.601   2.375  16.494  0.7315  0.3575  0.5822
  570TMC3    O2 8517   0.742   2.195  15.935  0.9803  0.2864  0.2653
  571MPD2     C 8518   4.083   3.864  17.569 -0.3975 -1.1161 -0.2781
  571MPD2    C1 8519   3.968   3.926  17.533 -0.0636  0.3016 -0.9062
  571MPD2    C2 8520   3.924   4.033  17.609  0.0491  0.1452 -0.0708
  571MPD2    C3 8521   4.000   4.077  17.721  0.6560  0.1326 -0.3632
  571MPD2    C4 8522   4.115   4.008   0.016 -0.6945 -0.2621 -0.7239
  571MPD2    C5 8523   4.153   3.908  17.680  0.5627  0.5068  0.5018
  571MPD2     H 8524   3.837   4.093  17.585 -0.0785 -0.5527 -1.3189
  571MPD2    H1 8525   4.168   4.033   0.107  0.2260  0.9659 -1.5972
  571MPD2    H2 8526   4.125   3.781  17.514  1.6487 -0.1559 -0.1711
  571MPD2    H3 8527   4.234   3.842  17.710 -1.5650 -1.3679  2.1829
  571MPD2     N 8528   3.970   4.196   0.046  0.1514 -0.2541 -0.6401
  571MPD2    H5 8529   4.037   4.212   0.120  0.1992  0.5048 -0.8489
  571MPD2    N1 8530   3.901   3.878  17.418  0.9152 -0.0927  0.4652
  571MPD2    H7 8531   3.948   3.795  17.385  0.1319 -0.5601  0.5242
  572TMC3    C1 8532   3.860   4.389   0.126 -0.4648  0.0278 -0.7011
  572TMC3    C2 8533   3.886   4.343   0.252 -0.0720 -0.2235 -0.6123
  572TMC3    C3 8534   3.843   4.432   0.348 -0.2869  0.2289  0.2702
  572TMC3    C4 8535   3.818   4.514   0.090 -1.0360  0.1802  0.4265
  572TMC3    C5 8536   3.805   4.601   0.195  0.3062  0.6176  1.1442
  572TMC3    C6 8537   3.810   4.558   0.322 -0.6857  0.3450  0.0310
  572TMC3     C 8538   3.863   4.288   0.026 -0.3798  0.1655  0.5912
  572TMC3     O 8539   3.797   4.305  17.669  0.2161 -0.2891 -0.3767
  572TMC3     H 8540   3.897   4.236   0.269  2.0756 -0.1259 -1.3040
  572TMC3    H1 8541   3.804   4.552  17.733  0.8574  1.2777  0.5833
  572TMC3    H2 8542   3.764   4.611   0.404 -0.0847  0.7374  0.1125
  572TMC3    C7 8543   3.726   4.716   0.160  0.4977  0.3384 -0.3715
  572TMC3    C8 8544   3.890   4.422   0.493 -0.2315 -0.0294 -0.7441
  572TMC3    O1 8545   3.678   4.720   0.049 -0.4169 -0.2020  0.0231
  572TMC3    O2 8546   3.920   4.532   0.542 -0.0572  0.6467  0.1093
  573MPD2     C 8547   0.016   4.392   1.242  0.3461  0.1285  0.0268
  573MPD2    C1 8548   4.665   4.476   1.175 -0.0649 -0.1601  0.5808
  573MPD2    C2 8549   4.584   4.426   1.081  0.1938 -0.6551 -0.2061
  573MPD2    C3 8550   4.587   4.295   1.038 -0.1651 -0.2016 -0.2177
  573MPD2    C4 8551   4.674   4.210   1.099  0.2893  0.0254 -0.6712
  573MPD2    C5 8552   0.006   4.259   1.207 -0.2373  0.5222 -0.5169
  573MPD2     H 8553   4.506   4.489   1.039 -1.0331 -0.7490  1.9150
  573MPD2    H1 8554   4.672   4.102   1.095  1.5271  0.1723 -4.8413
  573MPD2    H2 8555   0.075   4.427   1.325 -0.8153  0.8354  0.5568
  573MPD2    H3 8556   0.060   4.185   1.265  0.5697  1.3668 -0.1729
  573MPD2     N 8557   4.505   4.236   0.938 -0.8460  0.2355  0.7012
  573MPD2    H5 8558   4.523   4.139   0.917 -3.0838 -0.3725  1.5721
  573MPD2    N1 8559   4.641   4.611   1.223 -0.0581 -0.5023  0.0903
  573MPD2    H7 8560   4.577   4.672   1.174 -0.1982 -0.3368  0.4806
  574TMC3    C1 8561   4.361   4.222   0.748  0.1313  0.0302 -0.4239
  574TMC3    C2 8562   4.322   4.280   0.634 -0.1710 -0.2529 -0.7470
  574TMC3    C3 8563   4.242   4.203   0.551 -0.1863 -0.3125  0.4280
  574TMC3    C4 8564   4.340   4.088   0.776 -0.0577  0.9320  0.0427
  574TMC3    C5 8565   4.264   4.019   0.690 -0.1345  0.4944 -0.1149
  574TMC3    C6 8566   4.213   4.076   0.580 -0.5670 -0.0246  0.0082
  574TMC3     C 8567   4.422   4.308   0.849 -0.0674  0.7950 -0.6223
  574TMC3     O 8568   4.411   4.433   0.837 -0.2038 -0.2199  0.7510
  574TMC3     H 8569   4.361   4.372   0.594  0.2193 -0.4810 -0.8878
  574TMC3    H1 8570   4.358   4.050   0.875 -0.5773  1.3730  0.3077
  574TMC3    H2 8571   4.158   4.031   0.499  0.1021 -0.6149 -0.1217
  574TMC3    C7 8572   4.263   3.874   0.702 -0.0661  0.0668 -0.6601
  574TMC3    C8 8573   4.202   4.260   0.414 -0.2412 -0.0306 -0.2523
  574TMC3    O1 8574   4.261   3.808   0.603  0.0318  0.4384 -0.4394
  574TMC3    O2 8575   4.159   4.189   0.324  0.0698  0.5259 -0.1360
  575TMC3    C1 8576   1.899   1.566  10.618  0.3534 -0.4033 -0.1957
  575TMC3    C2 8577   1.894   1.438  10.666 -0.1123  0.1547 -0.6205
  575TMC3    C3 8578   1.874   1.340  10.575 -0.2369  0.2017  0.3739
  575TMC3    C4 8579   1.895   1.598  10.486  0.7582 -0.0288 -0.3073
  575TMC3    C5 8580   1.887   1.493  10.394 -0.0968 -0.1225  0.3740
  575TMC3    C6 8581   1.867   1.364  10.436  0.2444  0.3338  0.0760
  575TMC3     C 8582   1.890   1.682  10.710 -0.5977  0.3544 -0.6326
  575TMC3     O 8583   1.922   1.789  10.666 -0.2670 -0.4423  0.9104
  575TMC3     H 8584   1.925   1.413  10.767  1.6727  1.0088 -0.9390
  575TMC3    H1 8585   1.934   1.694  10.452  1.5467 -0.2982 -0.1715
  575TMC3    H2 8586   1.851   1.282  10.368  0.4068  0.6756 -0.3819
  575TMC3    C7 8587   1.914   1.518  10.255  0.4451  0.1773 -0.4578
  575TMC3    C8 8588   1.842   1.207  10.617 -0.2534  0.2614  0.1678
  575TMC3    O1 8589   1.960   1.630  10.234 -0.1187 -0.0471 -0.7440
  575TMC3    O2 8590   1.863   1.117  10.539  0.0660 -0.1144  0.1804
  576MPD2     C 8591   2.216   1.613  12.409 -0.1877 -0.2612 -0.3664
  576MPD2    C1 8592   2.150   1.731  12.374 -0.2894  0.1143  0.2392
  576MPD2    C2 8593   2.056   1.780  12.475  0.2207 -0.1565  0.4208
  576MPD2    C3 8594   2.043   1.705  12.592 -0.1078 -0.6069  0.0792
  576MPD2    C4 8595   2.109   1.594  12.616  0.6129  0.5536 -0.3324
  576MPD2    C5 8596   2.198   1.550  12.526 -0.6291  0.5685  0.5412
  576MPD2     H 8597   1.980   1.855  12.458  1.0858  0.5605 -0.2767
  576MPD2    H1 8598   2.107   1.546  12.713  1.6332  2.1905  0.4923
  576MPD2    H2 8599   2.296   1.566  12.353  0.0376 -0.4323  0.0996
  576MPD2    H3 8600   2.254   1.461  12.551  0.3250 -0.0083 -3.6409
  576MPD2     N 8601   1.944   1.754  12.689  0.9658 -0.2211  0.1883
  576MPD2    H5 8602   1.905   1.847  12.678 -0.4042 -1.1261 -2.4055
  576MPD2    N1 8603   2.151   1.783  12.241  0.5684 -0.6087 -0.0036
  576MPD2    H7 8604   2.095   1.867  12.227  2.8289  1.4014  2.9554
  577TMC3    C1 8605   2.197   1.796  12.005 -0.3201 -0.7713 -0.3192
  577TMC3    C2 8606   2.223   1.734  11.886 -0.3165  0.0204  0.3271
  577TMC3    C3 8607   2.226   1.808  11.775 -0.6042  0.1462 -0.6581
  577TMC3    C4 8608   2.189   1.932  12.007  0.1680  0.2876 -0.0053
  577TMC3    C5 8609   2.180   2.004  11.891 -0.6732 -0.7144 -0.9861
  577TMC3    C6 8610   2.204   1.941  11.769 -0.2531  0.6318  0.1870
  577TMC3     C 8611   2.212   1.719  12.131  0.2622 -0.1357 -0.1608
  577TMC3     O 8612   2.265   1.607  12.112 -0.1933  0.2033 -0.1488
  577TMC3     H 8613   2.243   1.627  11.889 -0.3327 -0.0209 -1.2236
  577TMC3    H1 8614   2.190   1.985  12.102  1.6415 -0.6932  0.5367
  577TMC3    H2 8615   2.202   1.991  11.673  3.2820 -0.5079 -0.4821
  577TMC3    C7 8616   2.213   2.146  11.905  0.0372 -0.2951  0.6211
  577TMC3    C8 8617   2.274   1.736  11.662 -0.1231 -0.9243 -0.2262
  577TMC3    O1 8618   2.271   2.175  12.008 -0.0348 -0.4931 -0.4668
  577TMC3    O2 8619   2.235   1.619  11.657 -0.5695  0.0860  0.2107
  578MPD2     C 8620   4.258   2.629   1.617  0.4413 -0.4118 -0.5769
  578MPD2    C1 8621   4.302   2.644   1.490  0.2987 -0.0884  0.0956
  578MPD2    C2 8622   4.439   2.624   1.450  0.0547  0.2557  0.3690
  578MPD2    C3 8623   4.523   2.577   1.544 -0.9108  0.6207 -0.9205
  578MPD2    C4 8624   4.477   2.559   1.677 -0.2178  0.5540  0.2555
  578MPD2    C5 8625   4.346   2.582   1.712  0.0350  0.6680 -0.2063
  578MPD2     H 8626   4.467   2.645   1.347  4.0891  0.6882  1.5907
  578MPD2    H1 8627   4.542   2.521   1.754 -1.2834  0.7271  1.2336
  578MPD2    H2 8628   4.157   2.647   1.653  0.6977  0.8980 -0.5040
  578MPD2    H3 8629   4.310   2.563   1.813 -4.9078  3.2086 -1.4880
  578MPD2     N 8630   4.652   2.524   1.507 -0.5231 -0.1333  0.9002
  578MPD2    H5 8631   4.686   2.526   1.412  0.1856  0.4824  1.1559
  578MPD2    N1 8632   4.213   2.717   1.402 -0.8923 -0.0149  0.2945
  578MPD2    H7 8633   4.138   2.770   1.446 -0.5010  0.6757  0.1356
  579TMC3    C1 8634   0.134   2.441   1.530 -0.1493 -0.0628  0.0546
  579TMC3    C2 8635   0.249   2.454   1.601 -0.2337  0.3258 -0.2282
  579TMC3    C3 8636   0.362   2.395   1.556 -0.3229  0.0987  0.5726
  579TMC3    C4 8637   0.122   2.366   1.416 -0.4817  0.4455  0.5948
  579TMC3    C5 8638   0.240   2.306   1.370  0.1997 -1.2154 -1.0958
  579TMC3    C6 8639   0.362   2.325   1.435  0.1459  0.3242 -0.5396
  579TMC3     C 8640   0.019   2.502   1.598 -0.2397 -0.2321  0.5883
  579TMC3     O 8641   0.029   2.538   1.713 -0.4529 -0.0052  0.4498
  579TMC3     H 8642   0.249   2.511   1.693  0.8740  0.3102 -0.2208
  579TMC3    H1 8643   0.030   2.351   1.361 -0.0239  0.2772 -0.1183
  579TMC3    H2 8644   0.443   2.260   1.403  0.1013 -0.6509  1.3059
  579TMC3    C7 8645   0.249   2.226   1.247  0.1880 -0.4524 -0.0040
  579TMC3    C8 8646   0.490   2.438   1.609  0.3610 -0.0303  1.0464
  579TMC3    O1 8647   0.354   2.241   1.191  0.1504 -0.2542 -0.1099
  579TMC3    O2 8648   0.485   2.509   1.705 -0.1472  0.8615 -0.3383
  580TMC3    C1 8649   4.160   1.227  11.839 -0.4244  0.5903  0.6397
  580TMC3    C2 8650   4.200   1.193  11.715 -0.1609 -0.3718 -0.0416
  580TMC3    C3 8651   4.323   1.145  11.700  0.1364 -0.2480 -0.1671
  580TMC3    C4 8652   4.234   1.179  11.949 -0.1312  0.3532  0.0320
  580TMC3    C5 8653   4.345   1.101  11.923  0.0291  0.2176  0.0679
  580TMC3    C6 8654   4.392   1.089  11.800 -0.0867 -0.6052  0.8106
  580TMC3     C 8655   4.145   1.372  11.836 -0.2701  0.3615  0.0309
  580TMC3     O 8656   4.060   1.426  11.769  0.4216  0.1419 -0.0041
  580TMC3     H 8657   4.147   1.242  11.634  0.4200  0.2185 -0.0587
  580TMC3    H1 8658   4.195   1.196  12.049 -1.9361  1.3905 -0.8692
  580TMC3    H2 8659   4.493   1.055  11.780  0.0616 -0.6969  1.7027
  580TMC3    C7 8660   4.430   1.049  12.032 -0.0290 -0.3958  0.0234
  580TMC3    C8 8661   4.386   1.191  11.574 -0.7600 -0.1907 -0.5567
  580TMC3    O1 8662   4.437   1.110  12.138  0.2219 -0.3784  1.3751
  580TMC3    O2 8663   4.307   1.200  11.481 -0.2160 -0.3888  0.1085
  581MPD2     C 8664   1.991   0.499  14.890 -0.8201 -0.0932  0.4687
  581MPD2    C1 8665   1.870   0.504  14.951 -0.4727  0.7771 -0.1035
  581MPD2    C2 8666   1.772   0.580  14.898 -0.0320 -0.2673  0.8167
  581MPD2    C3 8667   1.799   0.670  14.797 -0.3238 -0.1498 -1.2086
  581MPD2    C4 8668   1.930   0.674  14.743  0.2651 -0.2510  0.9709
  581MPD2    C5 8669   2.021   0.587  14.792  0.1590  0.1740  0.3390
  581MPD2     H 8670   1.672   0.576  14.938 -0.1632  0.8816  0.6079
  581MPD2    H1 8671   1.955   0.753  14.673 -0.1094 -0.5879  0.4557
  581MPD2    H2 8672   2.065   0.424  14.917  0.1548  1.0175  0.8639
  581MPD2    H3 8673   2.122   0.586  14.751 -0.0126 -3.8304  0.0476
  581MPD2     N 8674   1.694   0.763  14.780 -1.0873  0.5330  0.0638
  581MPD2    H5 8675   1.604   0.743  14.822  0.1201 -0.4209  2.1988
  581MPD2    N1 8676   1.850   0.437  15.075  0.5826  0.0975 -0.3915
  581MPD2    H7 8677   1.756   0.452  15.111  0.8492  3.2894 -1.0179
  582TMC3    C1 8678   1.884   0.314  15.269  0.3186 -1.3532 -0.7412
  582TMC3    C2 8679   1.965   0.324  15.384 -0.4169 -0.4437 -0.5018
  582TMC3    C3 8680   1.907   0.325  15.508  0.2812  0.3861 -0.1679
  582TMC3    C4 8681   1.749   0.283  15.280  0.1044 -0.0791 -0.2889
  582TMC3    C5 8682   1.697   0.293  15.404  0.5299 -0.0208 -0.9586
  582TMC3    C6 8683   1.770   0.307  15.519 -0.5280  0.1696 -0.4608
  582TMC3     C 8684   1.944   0.363  15.147  0.0539 -0.5473  0.2947
  582TMC3     O 8685   2.064   0.348  15.127  0.2025  0.4088  0.0007
  582TMC3     H 8686   2.072   0.330  15.371 -0.6970 -1.2503 -3.2655
  582TMC3    H1 8687   1.685   0.274  15.193  1.7048  1.2221 -1.6153
  582TMC3    H2 8688   1.716   0.305  15.613  2.0466  0.8869  1.0618
  582TMC3    C7 8689   1.563   0.345  15.418 -0.0251 -0.8030 -0.4408
  582TMC3    C8 8690   1.981   0.370  15.631 -0.6697  0.1451  0.4541
  582TMC3    O1 8691   1.475   0.314  15.338 -0.0719 -0.4257 -0.6016
  582TMC3    O2 8692   1.918   0.361  15.736  0.2625 -0.4531 -0.0717
  583MPD2     C 8693   2.041   2.444  16.976 -0.0019 -0.1848  0.4214
  583MPD2    C1 8694   2.010   2.550  16.885 -0.0826  0.8715 -0.1851
  583MPD2    C2 8695   1.932   2.659  16.931  0.0622  0.8411  0.2671
  583MPD2    C3 8696   1.900   2.665  17.064  0.5813  0.6926 -0.3975
  583MPD2    C4 8697   1.938   2.569  17.146 -0.1899 -0.0293 -0.5890
  583MPD2    C5 8698   2.008   2.456  17.103 -0.0776  0.2039 -0.0709
  583MPD2     H 8699   1.902   2.737  16.861 -2.6926 -0.4945 -0.0332
  583MPD2    H1 8700   1.912   2.570  17.252 -2.1718  0.0510 -1.0734
  583MPD2    H2 8701   2.091   2.355  16.939 -0.6354  0.0699 -1.0324
  583MPD2    H3 8702   2.036   2.381  17.176  0.7493  0.6893  0.1150
  583MPD2     N 8703   1.820   2.774  17.106 -0.3171 -0.2505 -0.1460
  583MPD2    H5 8704   1.797   2.833  17.027 -0.8428 -0.9280 -0.4980
  583MPD2    N1 8705   2.045   2.557  16.746  0.2906  0.1707  0.0221
  583MPD2    H7 8706   2.024   2.635  16.684  1.8419 -1.1651 -2.1562
  584TMC3    C1 8707   1.719   2.933  17.261 -1.1349  0.5477  0.1208
  584TMC3    C2 8708   1.715   3.037  17.169 -0.2522  0.0708  0.2503
  584TMC3    C3 8709   1.681   3.162  17.213 -0.5933  0.0630 -0.8599
  584TMC3    C4 8710   1.688   2.959  17.395  1.2355  0.3057  0.7741
  584TMC3    C5 8711   1.645   3.082  17.430  0.1516 -0.0711  0.5001
  584TMC3    C6 8712   1.642   3.184  17.340  0.3549 -0.8318  0.0476
  584TMC3     C 8713   1.784   2.808  17.236 -0.6845  0.2648  0.0406
  584TMC3     O 8714   1.826   2.759  17.340 -0.1312  0.2688  0.5189
  584TMC3     H 8715   1.744   3.026  17.065  0.2920  0.0141  0.4022
  584TMC3    H1 8716   1.688   2.878  17.467  0.2693 -0.1688  0.2398
  584TMC3    H2 8717   1.615   3.286  17.365  1.3188 -0.4618 -0.4013
  584TMC3    C7 8718   1.590   3.093  17.567 -0.0908  0.4092 -0.3194
  584TMC3    C8 8719   1.698   3.281  17.136  0.2004  0.4079  0.5095
  584TMC3    O1 8720   1.531   2.998  17.614  0.0146 -0.1721  0.0596
  584TMC3    O2 8721   1.655   3.280  17.017  0.0397 -0.7203  0.4800
  585MPD2     C 8722   0.908   2.118   0.144  0.2149 -0.1080 -0.0047
  585MPD2    C1 8723   1.007   2.141   0.050 -0.4145  0.4928 -0.2187
  585MPD2    C2 8724   1.082   2.025   0.017 -0.3541 -0.1979  0.0636
  585MPD2    C3 8725   1.063   1.905   0.079  0.0343  0.0149 -1.1187
  585MPD2    C4 8726   0.963   1.886   0.177  0.1185  0.2478  0.1481
  585MPD2    C5 8727   0.886   1.994   0.200 -0.2471 -0.5901  0.1101
  585MPD2     H 8728   1.161   2.034  17.687 -0.9327  1.0597 -0.4126
  585MPD2    H1 8729   0.935   1.789   0.218 -0.3578  0.2672 -0.1354
  585MPD2    H2 8730   0.840   2.195   0.177  0.5780  0.0122  0.4734
  585MPD2    H3 8731   0.798   1.981   0.263 -1.7638 -1.9216 -2.3194
  585MPD2     N 8732   1.116   1.785   0.036 -0.3533  0.3258  0.3339
  585MPD2    H5 8733   1.080   1.698   0.075  0.5652 -0.2611 -0.1226
  585MPD2    N1 8734   1.010   2.272  17.731  0.1014 -0.3553 -0.0280
  585MPD2    H7 8735   0.951   2.336   0.038 -1.6064 -1.9391 -0.0637
  586TMC3    C1 8736   1.268   1.636  17.679 -0.3890  0.0854 -0.0753
  586TMC3    C2 8737   1.401   1.614  17.657  0.1579 -0.9006 -0.5545
  586TMC3    C3 8738   1.447   1.494  17.625  0.0050  0.0904  0.0083
  586TMC3    C4 8739   1.173   1.532  17.677  0.0659  0.3064 -0.0950
  586TMC3    C5 8740   1.227   1.419  17.634  0.0640 -0.7087 -0.0004
  586TMC3    C6 8741   1.358   1.396  17.616 -0.4125  0.1011 -0.8924
  586TMC3     C 8742   1.236   1.774  17.705  0.3441  0.3515  0.0523
  586TMC3     O 8743   1.322   1.864  17.682  0.1004 -0.1888 -0.4106
  586TMC3     H 8744   1.468   1.699  17.652  0.7653 -1.3328  0.2218
  586TMC3    H1 8745   1.066   1.539  17.689  0.0578 -0.0189  0.0214
  586TMC3    H2 8746   1.398   1.300  17.585 -0.5647 -0.6240  1.1574
  586TMC3    C7 8747   1.141   1.343  17.549 -0.5998 -0.0524  0.2987
  586TMC3    C8 8748   1.558   1.479  17.532 -0.0479 -0.5690 -0.6423
  586TMC3    O1 8749   1.041   1.296  17.601 -0.0896 -0.0541  0.4928
  586TMC3    O2 8750   1.597   1.363  17.515 -0.0043 -0.1029  0.2264
  587TMC3    C1 8751   3.227   4.559  16.466  0.5788 -0.2540 -0.5777
  587TMC3    C2 8752   3.282   4.677  16.427  0.2095 -0.3984  0.8666
  587TMC3    C3 8753   3.419   4.697  16.420 -0.4760 -0.6493  0.1397
  587TMC3    C4 8754   3.311   4.449  16.489  0.1720  0.3245  0.4697
  587TMC3    C5 8755   3.442   4.471  16.470 -0.2761 -0.4118  0.3875
  587TMC3    C6 8756   3.499   4.586  16.432  0.4810  0.1338  0.0703
  587TMC3     C 8757   3.083   4.543  16.494  0.4800  0.1973  0.7666
  587TMC3     O 8758   3.046   4.459  16.578 -0.1986 -0.0366 -0.3443
  587TMC3     H 8759   3.214   0.021  16.400 -0.4380 -1.4901 -0.7497
  587TMC3    H1 8760   3.275   4.352  16.523 -0.5418  0.2977 -0.3604
  587TMC3    H2 8761   3.607   4.599  16.430  0.3319  1.3857  0.3876
  587TMC3    C7 8762   3.521   4.361  16.518  0.4798 -0.8176 -0.4098
  587TMC3    C8 8763   3.485   0.090  16.442  0.2328  0.3678 -0.5332
  587TMC3    O1 8764   3.477   4.248  16.497 -0.0217 -0.2129 -0.1047
  587TMC3    O2 8765   3.609   0.087  16.444  0.2506 -1.2433  0.1650
  588TMC3    C1 8766   1.688   3.378   9.793  0.4771  0.3077  0.2604
  588TMC3    C2 8767   1.634   3.265   9.735 -0.0659 -0.4235  0.5167
  588TMC3    C3 8768   1.681   3.144   9.780  0.8094  0.1808  0.2601
  588TMC3    C4 8769   1.784   3.376   9.888  0.1129  0.1123 -0.2022
  588TMC3    C5 8770   1.833   3.256   9.923 -0.1478 -0.2576  0.0701
  588TMC3    C6 8771   1.792   3.136   9.864  0.0490 -0.4125 -0.2418
  588TMC3     C 8772   1.672   3.502   9.720  0.0237 -0.1463  0.4292
  588TMC3     O 8773   1.580   3.511   9.636  0.4166 -0.4668 -0.0546
  588TMC3     H 8774   1.548   3.270   9.669  0.6910 -0.8183 -0.5142
  588TMC3    H1 8775   1.772   3.455   9.962 -0.4632  0.6890 -0.9118
  588TMC3    H2 8776   1.842   3.045   9.893  0.1821  0.1863  1.3767
  588TMC3    C7 8777   1.953   3.258  10.005 -0.7087 -0.0290 -0.2333
  588TMC3    C8 8778   1.604   3.027   9.741  0.3379  0.5392 -0.2284
  588TMC3    O1 8779   1.973   3.165  10.076  0.1479 -0.3151 -0.0035
  588TMC3    O2 8780   1.493   3.053   9.698  0.4405 -0.1391  0.4608
  589TMC3    C1 8781   0.391   0.577   0.964  0.1833 -0.4102  0.1812
  589TMC3    C2 8782   0.506   0.602   1.034  0.5777  0.3669  0.8932
  589TMC3    C3 8783   0.612   0.527   0.998 -0.6037 -0.9745 -0.0873
  589TMC3    C4 8784   0.375   0.458   0.884 -0.6699 -0.4575  0.1256
  589TMC3    C5 8785   0.481   0.389   0.854 -0.8520  0.4760  1.1841
  589TMC3    C6 8786   0.598   0.426   0.912  0.2601  0.1512  0.1970
  589TMC3     C 8787   0.290   0.682   0.934  1.1800 -0.8270 -0.6188
  589TMC3     O 8788   0.201   0.653   0.853  0.1253 -0.1428  0.3501
  589TMC3     H 8789   0.513   0.671   1.117  0.8382  0.4815  0.7768
  589TMC3    H1 8790   0.277   0.442   0.841 -1.5699  0.3483  1.8742
  589TMC3    H2 8791   0.684   0.363   0.894  0.2621  0.6896 -1.6608
  589TMC3    C7 8792   0.465   0.259   0.795  0.3743 -0.2906 -0.2702
  589TMC3    C8 8793   0.722   0.507   1.093 -0.0706 -0.4747 -0.0165
  589TMC3    O1 8794   0.521   0.163   0.843 -0.3522  0.3581 -0.0875
  589TMC3    O2 8795   0.695   0.485   1.209 -0.6916  0.4587  0.4289
  590MPD2     C 8796   4.491   3.065  16.572  0.0184  0.2503  0.1559
  590MPD2    C1 8797   4.490   3.201  16.561  0.6575 -0.3843 -0.2840
  590MPD2    C2 8798   4.609   3.269  16.544  0.6042 -0.2651 -0.3871
  590MPD2    C3 8799   4.728   3.207  16.540 -0.6747 -0.3641  0.1093
  590MPD2    C4 8800   4.729   3.066  16.554 -0.5642 -0.0509 -0.3391
  590MPD2    C5 8801   4.609   3.000  16.575  0.1414  0.8446  0.7530
  590MPD2     H 8802   4.608   3.376  16.528  1.9528  0.0557  1.6703
  590MPD2    H1 8803   0.084   3.008  16.545  0.6138  2.1412 -2.2720
  590MPD2    H2 8804   4.392   3.021  16.562  1.9805 -4.1339  0.3490
  590MPD2    H3 8805   4.605   2.892  16.586 -0.7157  0.6398 -1.4780
  590MPD2     N 8806   0.104   3.289  16.514 -0.2356 -0.3325  0.2555
  590MPD2    H5 8807   0.100   3.390  16.516  2.0780 -0.2289 -0.4524
  590MPD2    N1 8808   4.364   3.261  16.552 -0.4117  0.1358 -0.2027
  590MPD2    H7 8809   4.292   3.192  16.532 -1.0873  0.5144  0.9471
  591TMC3    C1 8810   0.314   3.341  16.423  0.2541 -0.6173 -0.2617
  591TMC3    C2 8811   0.394   3.296  16.322  0.1223 -0.0779 -0.2129
  591TMC3    C3 8812   0.396   3.369  16.207  0.2711 -0.2345 -0.5060
  591TMC3    C4 8813   0.247   3.459  16.421 -0.0311 -0.4506  0.0908
  591TMC3    C5 8814   0.258   3.533  16.305 -0.1684  0.5749  0.3035
  591TMC3    C6 8815   0.339   3.491  16.198  0.3734 -0.3639 -0.3413
  591TMC3     C 8816   0.229   3.241  16.480  0.6081  0.4792 -0.3430
  591TMC3     O 8817   0.266   3.125  16.461 -0.3884  0.1157 -0.7479
  591TMC3     H 8818   0.448   3.204  16.342  0.5263 -0.0421 -1.1409
  591TMC3    H1 8819   0.182   3.497  16.499  0.4433  0.0718  0.2325
  591TMC3    H2 8820   0.354   3.555  16.112 -1.6455 -0.5922 -0.8662
  591TMC3    C7 8821   0.145   3.613  16.276  0.1190  0.8420 -0.9321
  591TMC3    C8 8822   0.500   3.325  16.111  0.1932 -0.9362  0.2332
  591TMC3    O1 8823   0.049   3.576  16.340 -0.0667  0.4435 -0.1566
  591TMC3    O2 8824   0.587   3.257  16.166 -0.5708  0.1117 -0.5393
  592MPD2     C 8825   0.528   1.155  10.993 -0.1640  0.7455  0.1167
  592MPD2    C1 8826   0.547   1.168  11.127  0.0367 -0.7964  0.3442
  592MPD2    C2 8827   0.502   1.058  11.203 -0.1104  0.5730 -0.2383
  592MPD2    C3 8828   0.426   0.953  11.153 -0.8841  0.3214 -0.5132
  592MPD2    C4 8829   0.418   0.940  11.012 -0.1813  0.1135 -0.7127
  592MPD2    C5 8830   0.463   1.048  10.942  0.2833 -0.2741  0.8750
  592MPD2     H 8831   0.537   1.042  11.305  2.1346  0.5443 -1.0139
  592MPD2    H1 8832   0.366   0.860  10.960 -0.3717 -0.1578 -0.1071
  592MPD2    H2 8833   0.565   1.231  10.925  0.3057  0.6871  0.3042
  592MPD2    H3 8834   0.452   1.036  10.835 -1.5972  2.9223  0.7133
  592MPD2     N 8835   0.369   0.863  11.250  0.0406 -0.0131 -0.0152
  592MPD2    H5 8836   0.385   0.896  11.345  2.3055  1.4844 -0.9171
  592MPD2    N1 8837   0.628   1.270  11.180 -0.3084  0.3427  0.5954
  592MPD2    H7 8838   0.674   1.334  11.115  2.0298 -0.2960  1.6053
  593TMC3    C1 8839   0.732   1.408  11.348  0.2030  0.1058 -0.0248
  593TMC3    C2 8840   0.747   1.432  11.484 -0.1380 -0.7906 -0.0357
  593TMC3    C3 8841   0.831   1.535  11.513 -0.0548 -0.5800 -0.5025
  593TMC3    C4 8842   0.788   1.484  11.247 -0.0293 -0.4203  0.1828
  593TMC3    C5 8843   0.863   1.587  11.287 -0.9553  0.1261 -0.1093
  593TMC3    C6 8844   0.900   1.604  11.417  0.3914 -0.1270 -0.2736
  593TMC3     C 8845   0.639   1.299  11.320  0.1001 -0.6048 -0.4869
  593TMC3     O 8846   0.598   1.240  11.420 -0.2256 -0.3318  0.0867
  593TMC3     H 8847   0.686   1.396  11.567  1.9468 -0.8651  1.4666
  593TMC3    H1 8848   0.801   1.445  11.147 -1.1139 -1.2105  0.3436
  593TMC3    H2 8849   0.968   1.685  11.439  1.7470 -1.4764  0.5552
  593TMC3    C7 8850   0.925   1.674  11.187  0.5746 -0.0740  0.0038
  593TMC3    C8 8851   0.795   1.621  11.619  1.3791  0.3538  0.2289
  593TMC3    O1 8852   1.005   1.759  11.225 -0.8165 -0.0332 -0.1271
  593TMC3    O2 8853   0.697   1.685  11.597 -0.2895  0.8648 -0.7541
  594MPD2     C 8854   3.753   3.791  14.806 -0.1915  0.1003 -0.3377
  594MPD2    C1 8855   3.727   3.789  14.674 -0.4349 -0.3778  0.7949
  594MPD2    C2 8856   3.787   3.883  14.590 -0.4492 -0.8503  0.0373
  594MPD2    C3 8857   3.886   3.962  14.647 -0.4391 -0.2051 -0.2719
  594MPD2    C4 8858   3.915   3.963  14.783  0.4390 -1.2558 -0.1114
  594MPD2    C5 8859   3.851   3.869  14.859 -0.4322 -0.2807  0.3045
  594MPD2     H 8860   3.755   3.897  14.488  3.0256 -1.5499 -1.1319
  594MPD2    H1 8861   3.992   4.022  14.832  0.4485 -0.2447 -1.3390
  594MPD2    H2 8862   3.722   3.704  14.863  2.6225 -0.9002 -0.3203
  594MPD2    H3 8863   3.881   3.854  14.962 -0.6101  0.5947  0.4822
  594MPD2     N 8864   3.947   4.059  14.556  0.5082 -0.6987 -0.9302
  594MPD2    H5 8865   3.905   4.088  14.469  1.4395 -0.8623 -1.4323
  594MPD2    N1 8866   3.622   3.697  14.628  0.3579  0.6067 -0.5626
  594MPD2    H7 8867   3.571   3.637  14.692  0.6128  1.7356  0.7033
  595TMC3    C1 8868   4.310   4.279  14.352 -0.2335  0.2119 -0.5245
  595TMC3    C2 8869   4.267   4.204  14.458 -0.2244  0.5306  0.1403
  595TMC3    C3 8870   4.128   4.185  14.469  0.4851  0.4220  1.4996
  595TMC3    C4 8871   4.219   4.333  14.264  0.3275 -0.4561  0.3969
  595TMC3    C5 8872   4.091   4.343  14.298 -0.1929  0.4503  0.4155
  595TMC3    C6 8873   4.042   4.260  14.393  0.4260  0.7915  0.5845
  595TMC3     C 8874   4.420   4.364  14.396  0.0114  0.0515  0.7222
  595TMC3     O 8875   4.435   4.378  14.519 -0.1083  0.1272  0.5524
  595TMC3     H 8876   4.331   4.155  14.531  0.7004 -2.0038 -2.3295
  595TMC3    H1 8877   4.258   4.396  14.185 -0.6609  0.9133  1.0103
  595TMC3    H2 8878   3.936   4.275  14.413  0.2211 -1.1487  0.9523
  595TMC3    C7 8879   4.032   4.476  14.302 -0.0209  0.3063 -0.2399
  595TMC3    C8 8880   4.075   4.106  14.578 -0.1066 -0.0710 -0.3104
  595TMC3    O1 8881   3.918   4.483  14.344  0.0936 -0.1872 -0.1111
  595TMC3    O2 8882   4.150   4.076  14.669 -0.4892  0.2799 -0.4790
  596MPD2     C 8883   2.895   2.303  16.841 -0.1698 -0.2263 -0.4747
  596MPD2    C1 8884   2.915   2.424  16.771  0.2954 -0.2999 -0.0099
  596MPD2    C2 8885   2.963   2.420  16.640 -0.0246  0.0346 -0.2437
  596MPD2    C3 8886   2.968   2.298  16.568  0.2228 -0.6089 -0.4682
  596MPD2    C4 8887   2.921   2.180  16.634  0.6964 -0.8221  0.8042
  596MPD2    C5 8888   2.898   2.187  16.766 -0.3969  0.5748  0.1565
  596MPD2     H 8889   2.980   2.519  16.599 -1.6014  0.1104 -0.7434
  596MPD2    H1 8890   2.921   2.088  16.577 -0.0095  0.2689 -0.9367
  596MPD2    H2 8891   2.878   2.308  16.948  0.1018 -1.1698 -0.3891
  596MPD2    H3 8892   2.885   2.094  16.821  0.2994 -0.5261 -1.5434
  596MPD2     N 8893   3.002   2.299  16.432  0.1927  0.3928 -0.0941
  596MPD2    H5 8894   2.990   2.208  16.387 -0.1176  0.0440  0.6859
  596MPD2    N1 8895   2.907   2.550  16.822 -0.2629 -0.2503 -0.1785
  596MPD2    H7 8896   2.940   2.631  16.771 -1.0525 -0.0069 -0.2956
  597TMC3    C1 8897   2.863   2.712  16.982 -0.3046 -0.0318  0.4774
  597TMC3    C2 8898   2.941   2.801  16.921  0.9608 -0.6419 -0.6026
  597TMC3    C3 8899   2.899   2.929  16.908 -0.6402 -1.2712 -0.1478
  597TMC3    C4 8900   2.737   2.749  17.018  0.3299 -0.2118 -0.4228
  597TMC3    C5 8901   2.685   2.876  17.002  0.2341 -0.0474 -0.2493
  597TMC3    C6 8902   2.779   2.968  16.952  0.0873 -0.3277  0.7225
  597TMC3     C 8903   2.873   2.573  16.950 -0.4296 -0.1136  0.0395
  597TMC3     O 8904   2.818   2.492  17.026 -0.2541 -0.1289 -0.5699
  597TMC3     H 8905   3.045   2.774  16.905  0.1992 -4.7418  1.4918
  597TMC3    H1 8906   2.675   2.680  17.074 -0.1610 -0.0871 -0.8129
  597TMC3    H2 8907   2.753   3.074  16.951 -1.1601 -0.6358 -0.4239
  597TMC3    C7 8908   2.565   2.918  17.070 -0.1762  0.2744  0.4136
  597TMC3    C8 8909   2.989   3.025  16.847 -0.1889 -0.8683 -0.4322
  597TMC3    O1 8910   2.514   2.843  17.146  0.1577  0.3061 -0.2845
  597TMC3    O2 8911   2.983   3.141  16.880  1.0163 -0.6016 -0.7180
  598TMC3    C1 8912   0.963   3.861  15.278 -0.1602 -0.5673  0.0883
  598TMC3    C2 8913   0.904   3.737  15.275  0.4546  0.1123  0.0634
  598TMC3    C3 8914   0.781   3.729  15.199 -0.3237 -0.2446 -0.2965
  598TMC3    C4 8915   0.908   3.965  15.207  0.0423 -0.5765 -0.7238
  598TMC3    C5 8916   0.798   3.951  15.130 -0.1393 -0.1941 -0.2770
  598TMC3    C6 8917   0.730   3.833  15.126 -0.2816  0.3489  0.2346
  598TMC3     C 8918   1.072   3.894  15.367 -0.0390  0.1896  0.6220
  598TMC3     O 8919   1.064   4.001  15.423  0.2521 -0.6332 -0.4512
  598TMC3     H 8920   0.919   3.669  15.358  1.1624  0.9093  0.5895
  598TMC3    H1 8921   0.965   4.058  15.212 -3.1314  1.2801  0.5580
  598TMC3    H2 8922   0.627   3.824  15.092  0.6473 -0.8241 -2.2608
  598TMC3    C7 8923   0.747   4.067  15.057 -0.3139  0.5387 -0.4519
  598TMC3    C8 8924   0.720   3.600  15.192  0.8436 -0.1548 -0.2564
  598TMC3    O1 8925   0.665   4.041  14.970 -0.0675  0.6804  0.4934
  598TMC3    O2 8926   0.615   3.594  15.127  0.1678 -0.0790 -0.5586
  599MPD2     C 8927   0.773   1.340  15.819  0.0247 -0.7071 -0.7007
  599MPD2    C1 8928   0.886   1.320  15.897  0.2515 -0.0232 -0.0193
  599MPD2    C2 8929   0.881   1.389  16.020 -0.3622 -0.4785 -0.4142
  599MPD2    C3 8930   0.769   1.466  16.049 -0.2205  1.0141 -0.5751
  599MPD2    C4 8931   0.667   1.488  15.966 -0.0947  0.3504  0.0308
  599MPD2    C5 8932   0.668   1.424  15.850 -0.2122  0.2847 -0.1705
  599MPD2     H 8933   0.970   1.392  16.081 -0.0483  1.1695 -0.9528
  599MPD2    H1 8934   0.579   1.551  15.979  0.9079  1.5538  0.9561
  599MPD2    H2 8935   0.766   1.284  15.726 -0.0597  0.1222 -1.2016
  599MPD2    H3 8936   0.589   1.435  15.776 -1.1052  2.4652  1.1257
  599MPD2     N 8937   0.784   1.531  16.180  0.0983 -0.0328 -0.2518
  599MPD2    H5 8938   0.842   1.493  16.254 -0.2082  1.9539  1.0196
  599MPD2    N1 8939   0.986   1.236  15.842  0.0688 -0.0922 -0.1856
  599MPD2    H7 8940   0.957   1.178  15.764 -2.1269  1.3877 -0.4588
  600TMC3    C1 8941   0.731   1.681  16.352 -0.0448 -0.3199 -1.0597
  600TMC3    C2 8942   0.711   1.581  16.441 -0.2897 -0.4892  0.5149
  600TMC3    C3 8943   0.710   1.616  16.569  0.2829  0.5338  0.6034
  600TMC3    C4 8944   0.762   1.810  16.380  0.3679 -0.8124 -0.3179
  600TMC3    C5 8945   0.775   1.839  16.515  0.3310  0.5053 -0.5209
  600TMC3    C6 8946   0.740   1.744  16.606  0.6834  0.2553 -0.0668
  600TMC3     C 8947   0.714   1.646  16.211 -0.6432 -0.5779  0.4674
  600TMC3     O 8948   0.679   1.737  16.141  0.4102 -0.0358 -0.0116
  600TMC3     H 8949   0.692   1.477  16.417  0.3095  0.0296 -2.2637
  600TMC3    H1 8950   0.781   1.871  16.292 -1.5512  1.4706  0.8730
  600TMC3    H2 8951   0.750   1.767  16.712  1.2632 -2.6614  0.5074
  600TMC3    C7 8952   0.797   1.977  16.558  0.1225 -0.0021 -0.9864
  600TMC3    C8 8953   0.597   1.565  16.647  0.6049  0.4693  0.4713
  600TMC3    O1 8954   0.745   1.994  16.668  0.2035  0.0445  0.0996
  600TMC3    O2 8955   0.606   1.583  16.762  0.2202  0.2280 -0.5765
  601MPD2     C 8956   3.511   0.425   0.260  0.2756  0.6093 -0.3591
  601MPD2    C1 8957   3.498   0.345   0.152  0.1412  0.1272  0.0967
  601MPD2    C2 8958   3.579   0.237   0.148  0.5888  0.3664  0.0975
  601MPD2    C3 8959   3.660   0.199   0.252  0.1939  0.5798 -0.2904
  601MPD2    C4 8960   3.669   0.284   0.358  0.1184  0.2243  0.4287
  601MPD2    C5 8961   3.590   0.392   0.367 -0.6391 -0.6974 -0.6373
  601MPD2     H 8962   3.575   0.185   0.053  0.0237  1.8883 -0.7149
  601MPD2    H1 8963   3.737   0.272   0.442  0.2661  0.0652  0.2845
  601MPD2    H2 8964   3.457   0.518   0.270  0.5912  0.6008  1.4410
  601MPD2    H3 8965   3.580   0.441   0.463 -1.2650 -0.1818 -0.9674
  601MPD2     N 8966   3.743   0.079   0.253  0.1628  0.3448  0.2524
  601MPD2    H5 8967   3.811   0.069   0.327 -0.1306 -1.9982  0.2254
  601MPD2    N1 8968   3.423   0.381   0.042 -0.0189  0.1285  0.0458
  601MPD2    H7 8969   3.435   0.327  17.701  2.0158  0.1020  0.3639
  602TMC3    C1 8970   3.248   0.479  17.669  0.5265  0.4942  0.3715
  602TMC3    C2 8971   3.118   0.513  17.671  0.8223 -0.3035  0.1126
  602TMC3    C3 8972   3.061   0.535  17.551  0.2009 -0.4856  0.2078
  602TMC3    C4 8973   3.322   0.459  17.554  0.4418  0.6065 -0.3727
  602TMC3    C5 8974   3.260   0.482  17.438  0.0354  0.9706  0.5798
  602TMC3    C6 8975   3.123   0.512  17.437  0.1081 -0.3219  0.3871
  602TMC3     C 8976   3.307   0.459   0.052  0.1933  0.0630 -0.3253
  602TMC3     O 8977   3.242   0.487   0.148  0.1598  0.3749 -0.0281
  602TMC3     H 8978   3.057   0.533   0.014 -0.6641  1.9939 -1.4597
  602TMC3    H1 8979   3.428   0.441  17.539 -0.1669 -2.7799 -0.5338
  602TMC3    H2 8980   3.075   0.540  17.344  0.8228 -1.2070 -0.2551
  602TMC3    C7 8981   3.310   0.415  17.318  0.0366 -0.4731  0.5928
  602TMC3    C8 8982   2.912   0.547  17.553  0.3960  0.5656 -0.5210
  602TMC3    O1 8983   3.427   0.427  17.281 -0.0245 -0.5483  0.3230
  602TMC3    O2 8984   2.859   0.586  17.655  0.2895 -0.0215  0.5504
  603TMC3    C1 8985   1.215   1.067  11.039  0.1020 -0.1809  0.1351
  603TMC3    C2 8986   1.234   1.063  11.177  0.1257  1.4969 -0.3792
  603TMC3    C3 8987   1.349   1.120  11.233  0.2373  0.0524  0.0289
  603TMC3    C4 8988   1.302   1.132  10.961  0.5593  0.3431  0.0579
  603TMC3    C5 8989   1.416   1.184  11.020  0.3098 -0.8942  0.0587
  603TMC3    C6 8990   1.439   1.176  11.149 -0.3434  0.0402  0.4501
  603TMC3     C 8991   1.090   1.027  10.972 -0.1822  0.7775  0.4249
  603TMC3     O 8992   1.075   1.067  10.859  0.3026 -0.0246  0.2744
  603TMC3     H 8993   1.151   1.037  11.242 -0.7208  0.9591 -1.6768
  603TMC3    H1 8994   1.283   1.144  10.854  2.3179 -2.3635 -0.5568
  603TMC3    H2 8995   1.515   1.244  11.184  0.3183 -0.2577 -0.4143
  603TMC3    C7 8996   1.476   1.294  10.948 -0.9494 -0.9880 -0.5661
  603TMC3    C8 8997   1.392   1.053  11.355 -0.0118  0.1343 -0.0939
  603TMC3    O1 8998   1.490   1.401  11.012  0.9490 -0.6942 -0.6190
  603TMC3    O2 8999   1.297   0.998  11.416  0.4608  0.0403  0.2837
  604MPD2     C 9000   1.762   3.189  16.272 -0.3667 -0.0209 -0.4972
  604MPD2    C1 9001   1.806   3.284  16.183  0.2095 -0.0723  0.1481
  604MPD2    C2 9002   1.860   3.249  16.062 -0.1099  0.1467  0.0329
  604MPD2    C3 9003   1.885   3.121  16.030  0.1436  0.5785  0.8313
  604MPD2    C4 9004   1.837   3.022  16.110 -0.1965 -0.0907  0.5110
  604MPD2    C5 9005   1.789   3.060  16.234  0.1227 -0.1038 -0.4070
  604MPD2     H 9006   1.887   3.333  15.999  2.1597 -0.1922  0.5329
  604MPD2    H1 9007   1.855   2.920  16.075  3.6014  1.0307 -0.8561
  604MPD2    H2 9008   1.707   3.201  16.365 -0.4371  1.4458 -0.7378
  604MPD2    H3 9009   1.766   2.974  16.296 -2.2906  0.4683 -0.4954
  604MPD2     N 9010   1.955   3.087  15.908 -0.2482 -0.2519 -0.8845
  604MPD2    H5 9011   1.949   2.990  15.881 -0.0612 -0.6961  0.6688
  604MPD2    N1 9012   1.789   3.426  16.199  0.0839 -0.0447  0.3437
  604MPD2    H7 9013   1.835   3.489  16.135  1.9954 -0.8512  0.9371
  605TMC3    C1 9014   1.677   3.621  16.251  0.0200  0.2959 -0.0779
  605TMC3    C2 9015   1.773   3.692  16.310 -0.1926  0.5127  0.0760
  605TMC3    C3 9016   1.746   3.817  16.351 -0.0830  0.2076  0.4552
  605TMC3    C4 9017   1.545   3.670  16.237 -0.1265  0.8496  0.1387
  605TMC3    C5 9018   1.526   3.797  16.272 -0.0874 -0.4485  0.8373
  605TMC3    C6 9019   1.624   3.871  16.335 -0.7894  1.1927  0.2157
  605TMC3     C 9020   1.688   3.478  16.274  0.2077 -0.2269  0.1117
  605TMC3     O 9021   1.603   3.430  16.351 -0.3652 -0.5022  0.4005
  605TMC3     H 9022   1.859   3.632  16.335  0.4517  2.4665  2.5604
  605TMC3    H1 9023   1.466   3.601  16.209  0.1142 -0.3301  2.3090
  605TMC3    H2 9024   1.611   3.964  16.390  2.0546  1.1209  1.0099
  605TMC3    C7 9025   1.404   3.867  16.246  0.2462  0.0892  0.4017
  605TMC3    C8 9026   1.851   3.904  16.386  0.2738 -0.0945 -0.0036
  605TMC3    O1 9027   1.352   3.927  16.338  0.2075  0.0864  0.2216
  605TMC3    O2 9028   1.860   4.006  16.320 -0.0831 -0.0268 -0.0179
  606TMC3    C1 9029   3.190   2.485  17.130  0.1385 -0.6982 -0.5105
  606TMC3    C2 9030   3.104   2.503  17.234 -0.1810  0.6005 -0.0606
  606TMC3    C3 9031   3.038   2.393  17.283 -0.0092 -0.3991  0.4043
  606TMC3    C4 9032   3.192   2.372  17.056  1.0222 -0.5264  0.1764
  606TMC3    C5 9033   3.103   2.268  17.099  0.3708 -0.0567 -0.0318
  606TMC3    C6 9034   3.028   2.283  17.213 -0.0312  0.8374  0.1861
  606TMC3     C 9035   3.232   2.607  17.065 -0.4222  0.0868 -0.5198
  606TMC3     O 9036   3.264   2.593  16.947  0.1875 -1.4532 -0.3807
  606TMC3     H 9037   3.114   2.589  17.299 -2.3911 -0.2182  1.3674
  606TMC3    H1 9038   3.255   2.367  16.968 -0.6735  3.4882 -1.2504
  606TMC3    H2 9039   2.977   2.197  17.257 -0.3862  1.9157  1.9081
  606TMC3    C7 9040   3.136   2.136  17.043  1.1470  0.5452  0.2134
  606TMC3    C8 9041   3.016   2.385  17.423 -0.1290  0.0030 -0.6160
  606TMC3    O1 9042   3.240   2.123  16.984 -0.0102 -0.1450 -0.1292
  606TMC3    O2 9043   3.076   2.469  17.492  0.1458  0.1217  0.3020
  607MPD2     C 9044   0.504   0.515  11.547 -0.0841  0.9177 -0.1718
  607MPD2    C1 9045   0.573   0.582  11.657  0.2707 -0.3123 -0.2152
  607MPD2    C2 9046   0.586   0.520  11.777 -0.6806  0.1209 -0.5414
  607MPD2    C3 9047   0.524   0.400  11.796  0.1028 -0.5507 -0.8126
  607MPD2    C4 9048   0.461   0.335  11.690  0.0962  0.5093  0.6598
  607MPD2    C5 9049   0.447   0.392  11.571 -0.4391 -0.2237  0.6495
  607MPD2     H 9050   0.632   0.565  11.864  0.5607  0.7799 -1.5323
  607MPD2    H1 9051   0.402   0.245  11.703 -3.2403  2.1839 -2.9928
  607MPD2    H2 9052   0.501   0.566  11.451  0.1973  1.9704  0.3739
  607MPD2    H3 9053   0.371   0.350  11.506 -1.0335  0.8055  0.6696
  607MPD2     N 9054   0.523   0.348  11.932  0.0671 -0.4003 -0.2621
  607MPD2    H5 9055   0.559   0.411  12.003 -0.6998 -0.2568  0.0022
  607MPD2    N1 9056   0.634   0.710  11.658  0.2974 -0.5944  0.2663
  607MPD2    H7 9057   0.688   0.727  11.742  0.3105  0.0250  0.1317
  608TMC3    C1 9058   0.717   0.911  11.598 -0.5449 -0.8839  0.7137
  608TMC3    C2 9059   0.711   0.946  11.732  0.2347  0.6834  0.3067
  608TMC3    C3 9060   0.792   1.044  11.779  0.0360 -0.4043 -0.6892
  608TMC3    C4 9061   0.803   0.968  11.511 -0.0936  0.7708  0.1851
  608TMC3    C5 9062   0.890   1.061  11.562  0.2875 -0.1037 -1.0008
  608TMC3    C6 9063   0.880   1.101  11.693 -0.1504 -0.5687 -0.1596
  608TMC3     C 9064   0.656   0.791  11.552  0.0160  0.2120  0.3799
  608TMC3     O 9065   0.607   0.797  11.442  0.2021 -0.6465 -0.3751
  608TMC3     H 9066   0.642   0.890  11.794  0.6666 -0.9659 -0.6725
  608TMC3    H1 9067   0.799   0.940  11.406  3.4138  2.3095 -0.3564
  608TMC3    H2 9068   0.941   1.182  11.730 -0.8139  0.5384 -1.4781
  608TMC3    C7 9069   0.972   1.139  11.469 -0.1526 -0.6143  0.1083
  608TMC3    C8 9070   0.814   1.063  11.918 -0.0604  0.3012 -0.5451
  608TMC3    O1 9071   0.956   1.121  11.350 -0.0151  0.0353  0.2000
  608TMC3    O2 9072   0.884   1.157  11.955 -1.0922  0.1490 -0.5139
  609TMC3    C1 9073   4.492   0.064   9.190 -0.3103  0.1274 -0.5405
  609TMC3    C2 9074   4.444   0.139   9.085  0.1147 -0.5152  0.1363
  609TMC3    C3 9075   4.530   0.168   8.983  0.6218 -0.0618 -0.0740
  609TMC3    C4 9076   4.628   0.034   9.195  0.0977  0.9040 -0.1882
  609TMC3    C5 9077   4.707   0.071   9.091 -0.6082  0.9967  0.3070
  609TMC3    C6 9078   4.667   0.150   8.985 -0.0776 -0.6605  0.1656
  609TMC3     C 9079   4.410   0.038   9.305  0.4325 -0.1510  0.2678
  609TMC3     O 9080   4.447   4.693   9.387 -0.0464 -0.3753  0.0485
  609TMC3     H 9081   4.340   0.166   9.073  0.1508 -1.1139 -1.4423
  609TMC3    H1 9082   4.676   4.720   9.277  0.3455 -0.9147 -1.4609
  609TMC3    H2 9083   4.733   0.213   8.926 -0.1540  0.3615  1.1695
  609TMC3    C7 9084   0.100   0.031   9.106 -0.3381  0.2439 -0.1371
  609TMC3    C8 9085   4.461   0.207   8.856  0.3717 -0.2079 -0.2954
  609TMC3    O1 9086   0.150   0.016   9.216 -0.3656  0.0496  0.1654
  609TMC3    O2 9087   4.343   0.180   8.854 -0.0449 -0.8147  0.0276
  610TMC3    C1 9088   0.814   0.482  12.760  0.4118 -0.1034  0.6136
  610TMC3    C2 9089   0.788   0.610  12.729  0.0832  0.2899 -0.5400
  610TMC3    C3 9090   0.813   0.714  12.808 -0.4303  0.2160  0.1569
  610TMC3    C4 9091   0.862   0.450  12.886 -0.2789  1.0331  0.2012
  610TMC3    C5 9092   0.903   0.560  12.968 -0.4380 -0.0248  0.1924
  610TMC3    C6 9093   0.892   0.691  12.921 -0.6236  0.2169  0.1452
  610TMC3     C 9094   0.740   0.380  12.677  0.5768  0.2345 -0.5237
  610TMC3     O 9095   0.673   0.420  12.583  0.2658  0.8185 -0.3705
  610TMC3     H 9096   0.740   0.634  12.635  1.2935  2.8585 -0.5244
  610TMC3    H1 9097   0.884   0.348  12.915 -0.4807  0.8438 -0.3128
  610TMC3    H2 9098   0.918   0.776  12.983 -1.7265 -0.7192  1.8843
  610TMC3    C7 9099   1.011   0.527  13.052  0.5781 -0.4474 -0.6928
  610TMC3    C8 9100   0.778   0.851  12.775 -0.7790 -0.3859 -0.1401
  610TMC3    O1 9101   1.013   0.420  13.108 -0.2661  0.4802  0.2143
  610TMC3    O2 9102   0.832   0.940  12.838 -0.3900  0.2565  0.0196
  611MPD2     C 9103   0.778   1.143   9.716 -0.3112 -0.7803 -0.0933
  611MPD2    C1 9104   0.847   1.054   9.796  0.3073  0.4010 -0.7047
  611MPD2    C2 9105   0.972   1.094   9.846 -0.2417 -0.3122  0.0458
  611MPD2    C3 9106   1.028   1.215   9.808  0.4959 -0.4169 -0.0795
  611MPD2    C4 9107   0.957   1.292   9.718  0.1990  0.3793 -0.5473
  611MPD2    C5 9108   0.830   1.262   9.678 -0.0949  0.3882 -0.1051
  611MPD2     H 9109   1.028   1.032   9.915  0.2140 -1.2857 -1.1977
  611MPD2    H1 9110   1.001   1.382   9.678  3.0325 -0.6579  0.1914
  611MPD2    H2 9111   0.685   1.110   9.672  0.1373  1.1520 -2.4602
  611MPD2    H3 9112   0.775   1.319   9.604 -0.0778  0.7983  0.1969
  611MPD2     N 9113   1.149   1.267   9.858  0.3275  0.2088 -0.0039
  611MPD2    H5 9114   1.178   1.359   9.827  1.4642 -1.0489 -2.6630
  611MPD2    N1 9115   0.782   0.940   9.846 -0.3732  0.2696 -0.3773
  611MPD2    H7 9116   0.699   0.908   9.796 -2.0375  0.7409  2.0645
  612TMC3    C1 9117   1.347   1.294   9.983  0.1031 -0.2750  0.0982
  612TMC3    C2 9118   1.398   1.336  10.102  0.0054  0.0956  0.3028
  612TMC3    C3 9119   1.506   1.416  10.110 -0.0181 -0.2541  0.7259
  612TMC3    C4 9120   1.410   1.321   9.867  0.3996 -1.5075  0.8616
  612TMC3    C5 9121   1.526   1.399   9.883 -0.1030 -0.9431 -0.2173
  612TMC3    C6 9122   1.577   1.443  10.003  0.0449 -0.0906  0.1745
  612TMC3     C 9123   1.221   1.224   9.970  0.1887 -0.2521  0.3748
  612TMC3     O 9124   1.216   1.113  10.021  0.8740  0.0779 -0.4071
  612TMC3     H 9125   1.327   1.327  10.184  0.1804  0.1423  0.4579
  612TMC3    H1 9126   1.373   1.281   9.773  1.2453 -0.0186 -0.1061
  612TMC3    H2 9127   1.664   1.506  10.019  0.7863 -0.1939 -3.4304
  612TMC3    C7 9128   1.612   1.400   9.768 -0.0414  0.5618 -0.2315
  612TMC3    C8 9129   1.547   1.475  10.234  0.0539  0.2641  0.4134
  612TMC3    O1 9130   1.588   1.316   9.682  0.3614 -0.2928 -0.2751
  612TMC3    O2 9131   1.594   1.591  10.227  0.2411 -0.1507 -0.5140
  613MPD2     C 9132   4.658   2.185  16.096 -0.4037 -0.3729 -0.4083
  613MPD2    C1 9133   4.659   2.088  15.995 -0.4014  0.9052 -0.5796
  613MPD2    C2 9134   4.560   1.985  16.009  0.2136 -0.2799  0.7214
  613MPD2    C3 9135   4.465   1.991  16.115  0.0551  0.1535 -0.3126
  613MPD2    C4 9136   4.467   2.093  16.209  0.0439  0.0317  0.2447
  613MPD2    C5 9137   4.565   2.189  16.194 -0.1216 -0.0539 -0.1954
  613MPD2     H 9138   4.558   1.912  15.929 -1.7375 -0.7895  1.2328
  613MPD2    H1 9139   4.393   2.107  16.287 -1.2006  2.5027 -1.3562
  613MPD2    H2 9140   4.721   2.272  16.086  1.3345 -1.6294 -0.5530
  613MPD2    H3 9141   4.568   2.264  16.272  0.1134  0.0844 -0.3387
  613MPD2     N 9142   4.371   1.886  16.130  0.0813 -0.2671  0.1187
  613MPD2    H5 9143   4.297   1.900  16.198 -1.6623  0.2756 -1.8767
  613MPD2    N1 9144   0.020   2.097  15.887 -0.2100  0.6090  0.0286
  613MPD2    H7 9145   0.072   2.183  15.874 -1.8138  1.7497  1.1084
  614TMC3    C1 9146   0.110   2.037  15.684 -0.2606  0.3573 -0.1266
  614TMC3    C2 9147   0.103   1.929  15.600 -0.4458 -0.7900 -0.0751
  614TMC3    C3 9148   0.067   1.942  15.469 -0.1685  0.0011  0.4437
  614TMC3    C4 9149   0.069   2.161  15.637 -0.4369 -0.2356  0.7906
  614TMC3    C5 9150   0.017   2.166  15.507 -1.1778 -0.5818  0.8038
  614TMC3    C6 9151   0.024   2.064  15.418 -0.2029  0.3873 -0.6746
  614TMC3     C 9152   0.040   1.996  15.796 -0.3221 -0.8476 -0.4378
  614TMC3     O 9153   4.718   1.890  15.774  0.1827 -0.6167 -0.7382
  614TMC3     H 9154   0.140   1.832  15.633  0.5112 -1.1208 -2.1604
  614TMC3    H1 9155   0.076   2.255  15.690  1.1109 -1.2741  2.4127
  614TMC3    H2 9156   4.729   2.074  15.314  0.4431  1.1169 -0.8021
  614TMC3    C7 9157   4.724   2.301  15.451 -0.5272 -0.3758 -0.1810
  614TMC3    C8 9158   4.718   1.836  15.417 -0.8551 -0.0003  0.3611
  614TMC3    O1 9159   0.072   2.384  15.481 -0.6526  0.3833 -0.0244
  614TMC3    O2 9160   4.690   1.832  15.297 -0.1699 -0.0144  0.4233
  615MPD2     C 9161   3.302   3.517  16.214 -0.4847  0.3231  0.3526
  615MPD2    C1 9162   3.337   3.591  16.102 -0.5024  0.2095 -0.2387
  615MPD2    C2 9163   3.270   3.577  15.992  0.8083 -0.5124  0.6714
  615MPD2    C3 9164   3.152   3.502  15.982 -1.2435 -0.0327  0.5570
  615MPD2    C4 9165   3.119   3.419  16.084  0.1859  0.2193 -0.4289
  615MPD2    C5 9166   3.205   3.419  16.197 -0.2561 -0.0145 -0.9651
  615MPD2     H 9167   3.296   3.639  15.907 -2.2869 -1.1604 -0.7832
  615MPD2    H1 9168   3.039   3.346  16.079 -1.3680  1.9058 -0.1815
  615MPD2    H2 9169   3.349   3.529  16.311  1.6151 -0.8384 -0.5130
  615MPD2    H3 9170   3.180   3.348  16.275 -0.1481  1.3236  0.2833
  615MPD2     N 9171   3.072   3.504  15.864 -0.4167  0.3159  0.2412
  615MPD2    H5 9172   3.112   3.549  15.782 -0.2034 -2.8555 -1.4146
  615MPD2    N1 9173   3.432   3.690  16.114  0.0128  0.2887 -0.2604
  615MPD2    H7 9174   3.430   3.765  16.047  0.0862 -0.9850 -1.6853
  616TMC3    C1 9175   3.619   3.813  16.209 -1.0765 -0.2418 -0.1521
  616TMC3    C2 9176   3.743   3.793  16.255 -0.1285 -0.6782 -0.4525
  616TMC3    C3 9177   3.839   3.890  16.250 -0.1367 -0.4757  0.0506
  616TMC3    C4 9178   3.573   3.932  16.155 -0.6585 -0.2222 -0.6046
  616TMC3    C5 9179   3.655   4.035  16.171 -0.7082 -0.6772  0.9845
  616TMC3    C6 9180   3.790   4.018  16.207 -0.6979  0.6208 -0.4681
  616TMC3     C 9181   3.531   3.699  16.211  0.3650 -0.4998 -1.1594
  616TMC3     O 9182   3.553   3.611  16.299  0.5375 -0.5852  0.1546
  616TMC3     H 9183   3.769   3.695  16.294  0.1678 -0.5813 -0.4059
  616TMC3    H1 9184   3.469   3.945  16.128 -0.5461  1.9632 -0.0058
  616TMC3    H2 9185   3.865   4.088  16.169  1.4518 -0.2233  2.2450
  616TMC3    C7 9186   3.615   4.165  16.111 -0.3107  0.7411  0.0702
  616TMC3    C8 9187   3.976   3.855  16.268  0.5500  0.2525 -0.1835
  616TMC3    O1 9188   3.507   4.165  16.057  0.3994 -0.4822 -0.0343
  616TMC3    O2 9189   3.991   3.735  16.258  0.1129  0.4221  0.3130
  617MPD2     C 9190   1.990   2.123  13.675  0.3715 -0.4770  0.7415
  617MPD2    C1 9191   1.993   2.125  13.811 -0.8445 -0.0398  0.8352
  617MPD2    C2 9192   1.884   2.160  13.891 -0.0394  0.9966 -0.7233
  617MPD2    C3 9193   1.760   2.187  13.824  0.1201  0.3646  0.9527
  617MPD2    C4 9194   1.758   2.191  13.683  0.3037  0.3616 -1.1418
  617MPD2    C5 9195   1.874   2.166  13.614  0.2793 -0.4258  0.0863
  617MPD2     H 9196   1.894   2.159  13.999  3.2980  1.8816 -1.0055
  617MPD2    H1 9197   1.662   2.212  13.639  0.5323  4.9473  0.5024
  617MPD2    H2 9198   2.075   2.107  13.609  0.3713 -2.3714  1.2255
  617MPD2    H3 9199   1.870   2.176  13.506  2.6190 -0.6389 -0.0128
  617MPD2     N 9200   1.641   2.197  13.894  0.0434 -0.2266  0.0605
  617MPD2    H5 9201   1.559   2.213  13.837 -1.1651 -0.7572  1.6427
  617MPD2    N1 9202   2.115   2.094  13.866 -0.1733  0.3359  0.0082
  617MPD2    H7 9203   2.183   2.057  13.800  1.5659  2.4784  0.5963
  618TMC3    C1 9204   2.276   2.094  14.026  0.7541  0.6788 -0.1341
  618TMC3    C2 9205   2.290   1.960  14.019  0.2161  0.5019 -0.7128
  618TMC3    C3 9206   2.416   1.906  14.007  0.4015  0.0938  0.5792
  618TMC3    C4 9207   2.383   2.176  14.036 -0.2807  0.8034 -0.4156
  618TMC3    C5 9208   2.507   2.119  14.019 -0.0018  0.5438  0.5745
  618TMC3    C6 9209   2.524   1.989  14.015  0.5165 -0.0033 -0.5146
  618TMC3     C 9210   2.155   2.146  13.989 -0.0651  0.2010 -0.7795
  618TMC3     O 9211   2.109   2.241  14.046  0.1018 -0.1331 -0.5014
  618TMC3     H 9212   2.206   1.896  13.993 -0.0524  0.5971 -0.0831
  618TMC3    H1 9213   2.381   2.284  14.042 -0.9578  0.7547  0.2527
  618TMC3    H2 9214   2.625   1.952  14.007 -0.1774 -1.9307 -0.3126
  618TMC3    C7 9215   2.621   2.209  14.005  0.7408  0.1888  0.2751
  618TMC3    C8 9216   2.426   1.783  13.928 -0.1743  0.4153 -0.2242
  618TMC3    O1 9217   2.619   2.294  14.097 -0.0919 -0.0132 -0.0508
  618TMC3    O2 9218   2.322   1.723  13.915 -0.0754  0.4869 -0.3325
  619MPD2     C 9219   3.219   3.646  13.365  0.1603  0.3464  0.0547
  619MPD2    C1 9220   3.114   3.724  13.327 -0.1064  0.3753  0.1123
  619MPD2    C2 9221   2.988   3.665  13.330 -0.4815 -0.1435 -0.1089
  619MPD2    C3 9222   2.967   3.537  13.385  0.2029 -1.4927 -0.0264
  619MPD2    C4 9223   3.076   3.460  13.413 -0.6901  0.8663  0.5952
  619MPD2    C5 9224   3.203   3.516  13.404 -0.0963  0.1804  0.1347
  619MPD2     H 9225   2.905   3.729  13.300 -2.9293 -4.1186 -1.8936
  619MPD2    H1 9226   3.069   3.363  13.462 -1.0553 -0.1141 -1.4060
  619MPD2    H2 9227   3.322   3.680  13.371  0.0271  1.1131 -2.0122
  619MPD2    H3 9228   3.290   3.459  13.433 -0.5687 -1.0813 -0.9517
  619MPD2     N 9229   2.840   3.471  13.398 -0.0783  0.2057  0.2018
  619MPD2    H5 9230   2.838   3.377  13.437  1.9285  1.0917  2.4465
  619MPD2    N1 9231   3.131   3.860  13.296 -0.1560  0.1068 -0.3602
  619MPD2    H7 9232   3.055   3.906  13.247  1.4658  3.0354 -0.1630
  620TMC3    C1 9233   3.217   4.075  13.318 -0.1084 -0.4302 -0.4679
  620TMC3    C2 9234   3.152   4.126  13.212  0.6140  0.1351  0.0940
  620TMC3    C3 9235   3.118   4.261  13.207 -0.3520  0.2182  0.5688
  620TMC3    C4 9236   3.264   4.152  13.419  0.1153  0.1492  0.0527
  620TMC3    C5 9237   3.224   4.288  13.418 -0.8940 -0.5017 -0.4079
  620TMC3    C6 9238   3.154   4.337  13.313  0.5710 -0.6516 -0.5829
  620TMC3     C 9239   3.241   3.933  13.335  0.7818 -0.4373 -0.3796
  620TMC3     O 9240   3.329   3.902  13.421  0.3152 -0.1001 -0.0493
  620TMC3     H 9241   3.113   4.061  13.134 -0.4457  0.6135  0.2251
  620TMC3    H1 9242   3.311   4.104  13.504  2.3292  2.7894  0.2925
  620TMC3    H2 9243   3.138   4.445  13.309  0.9556 -0.4718  2.8726
  620TMC3    C7 9244   3.146   4.330  13.535 -0.0266  0.4557 -0.0324
  620TMC3    C8 9245   2.978   4.284  13.169  0.5019 -0.4270 -0.3396
  620TMC3    O1 9246   3.048   4.401  13.514  0.1954 -0.1428  0.2507
  620TMC3    O2 9247   2.937   4.212  13.076 -0.0076  0.0667  0.5682
  621MPD2     C 9248   4.219   3.629  10.410  0.0614  0.1369 -0.4434
  621MPD2    C1 9249   4.280   3.601  10.292 -0.0720  0.6501 -0.5326
  621MPD2    C2 9250   4.360   3.695  10.230 -0.0625 -0.6023 -0.2226
  621MPD2    C3 9251   4.356   3.825  10.278 -0.5566 -0.3185 -0.3081
  621MPD2    C4 9252   4.293   3.848  10.398  0.5022  0.3100  0.7706
  621MPD2    C5 9253   4.221   3.752  10.460  0.2484  0.6414 -0.2700
  621MPD2     H 9254   4.419   3.674  10.141 -1.6576 -0.3132 -1.3510
  621MPD2    H1 9255   4.278   3.946  10.441 -1.1417  0.1124  0.6521
  621MPD2    H2 9256   4.164   3.554  10.465  1.2638 -0.1802  0.3178
  621MPD2    H3 9257   4.168   3.773  10.552 -0.4983 -1.2290 -0.2679
  621MPD2     N 9258   4.426   3.930  10.208  0.0640 -0.1270 -0.2802
  621MPD2    H5 9259   4.474   3.908  10.121 -1.6727  2.4882 -1.8711
  621MPD2    N1 9260   4.280   3.476  10.228  0.5765 -0.6315  0.9630
  621MPD2    H7 9261   4.333   3.460  10.143  0.0659 -2.1225  0.9170
  622TMC3    C1 9262   4.220   3.251  10.193 -0.1300  0.0958 -0.2467
  622TMC3    C2 9263   4.171   3.144  10.260 -0.2476  0.2202  0.0105
  622TMC3    C3 9264   4.088   3.056  10.193  0.4072 -0.1263 -0.2221
  622TMC3    C4 9265   4.192   3.279  10.060  0.2437 -0.4174 -0.4657
  622TMC3    C5 9266   4.112   3.188   9.996  0.5079 -0.2379  0.3347
  622TMC3    C6 9267   4.069   3.069  10.059 -0.4364  0.2019  0.3892
  622TMC3     C 9268   4.233   3.360  10.284  0.4290 -0.5087  0.9218
  622TMC3     O 9269   4.193   3.336  10.398  0.1809 -0.2290  0.0774
  622TMC3     H 9270   4.210   3.116  10.357  2.2572  2.2464 -0.4034
  622TMC3    H1 9271   4.254   3.346  10.001 -0.4868 -0.6220 -1.4647
  622TMC3    H2 9272   3.993   3.006  10.014  0.7293  0.5591 -2.0646
  622TMC3    C7 9273   4.091   3.190   9.856  0.7138  0.2420  0.1479
  622TMC3    C8 9274   3.963   3.033  10.258 -0.8386  0.0534 -0.2917
  622TMC3    O1 9275   4.025   3.097   9.807  0.3246 -0.2264 -0.2155
  622TMC3    O2 9276   3.874   2.972  10.199  0.5397  0.2687  0.0791
  623MPD2     C 9277   2.388   4.463  15.561 -0.1501  0.4117  0.2455
  623MPD2    C1 9278   2.282   4.418  15.632  0.3156  0.0821  0.4736
  623MPD2    C2 9279   2.299   4.406  15.769 -0.5447 -0.7431 -0.1544
  623MPD2    C3 9280   2.416   4.428  15.837  0.7003 -0.3058 -0.1379
  623MPD2    C4 9281   2.527   4.478  15.762  0.0751 -0.3073 -1.0351
  623MPD2    C5 9282   2.502   4.499  15.628 -0.1203  0.2029  0.4303
  623MPD2     H 9283   2.220   4.351  15.820 -1.6185  0.5012 -0.4710
  623MPD2    H1 9284   2.622   4.507  15.805  0.3194 -0.9167 -1.1639
  623MPD2    H2 9285   2.362   4.488  15.458  0.0917 -1.9915 -0.3941
  623MPD2    H3 9286   2.578   4.549  15.570 -0.1359 -0.3842 -0.1043
  623MPD2     N 9287   2.425   4.397  15.978  0.1274 -0.6263 -0.2671
  623MPD2    H5 9288   2.344   4.349  16.017 -1.1684  1.3684 -0.4923
  623MPD2    N1 9289   2.161   4.390  15.562  0.2821  0.3027 -0.1049
  623MPD2    H7 9290   2.171   4.357  15.467 -0.3055  1.0654 -0.4281
  624TMC3    C1 9291   2.594   4.370  16.409 -0.3889 -0.4168  0.2417
  624TMC3    C2 9292   2.474   4.336  16.465  0.0249 -1.0595  0.6472
  624TMC3    C3 9293   2.361   4.339  16.380 -0.3398  0.5080 -0.7421
  624TMC3    C4 9294   2.609   4.400  16.278  1.0771  0.0164  0.1089
  624TMC3    C5 9295   2.494   4.404  16.202  0.0218 -0.0674 -0.1996
  624TMC3    C6 9296   2.374   4.379  16.248 -0.3359  0.4794  0.7002
  624TMC3     C 9297   2.692   4.288  16.474 -0.1690 -0.3129  0.0944
  624TMC3     O 9298   2.675   4.262  16.597  0.7261 -0.5684  0.5907
  624TMC3     H 9299   2.468   4.338  16.573  0.0746  0.3988  0.6201
  624TMC3    H1 9300   2.709   4.420  16.240  1.4580 -0.4282  0.8728
  624TMC3    H2 9301   2.290   4.358  16.183 -0.3814 -3.2648  1.9199
  624TMC3    C7 9302   2.523   4.434  16.065  0.0122  0.3130 -0.8004
  624TMC3    C8 9303   2.251   4.251  16.416 -0.4198 -0.2797  0.4636
  624TMC3    O1 9304   2.636   4.478  16.044  0.1139 -0.4368 -0.1028
  624TMC3    O2 9305   2.151   4.246  16.343  0.6585  0.4567 -0.1858
  625MPD2     C 9306   2.673   0.640   0.980 -0.2369  0.0541  0.1106
  625MPD2    C1 9307   2.713   0.758   0.924  0.0657 -0.2207  0.5318
  625MPD2    C2 9308   2.836   0.808   0.964 -0.4281 -0.4287  0.5077
  625MPD2    C3 9309   2.917   0.748   1.051  0.3231 -0.3580 -0.1052
  625MPD2    C4 9310   2.883   0.622   1.100 -0.4666  0.2306  0.1847
  625MPD2    C5 9311   2.758   0.579   1.067  0.1486 -0.2531 -0.0601
  625MPD2     H 9312   2.869   0.899   0.916  0.8628 -0.2686  1.7086
  625MPD2    H1 9313   2.938   0.562   1.172 -3.0004 -2.6813 -0.3543
  625MPD2    H2 9314   2.583   0.591   0.948  0.6244 -2.0706  0.9303
  625MPD2    H3 9315   2.734   0.478   1.100 -0.6534 -0.7085 -2.0116
  625MPD2     N 9316   3.035   0.816   1.089  0.0023 -0.2591 -0.2883
  625MPD2    H5 9317   3.056   0.898   1.033 -0.7000 -0.1431 -0.3830
  625MPD2    N1 9318   2.634   0.846   0.846 -0.5374 -0.7209 -0.2153
  625MPD2    H7 9319   2.674   0.939   0.833  0.6439 -1.5286 -2.3318
  626TMC3    C1 9320   2.454   0.960   0.770  0.4656  0.1444 -0.1696
  626TMC3    C2 9321   2.380   0.960   0.663  0.4802  0.2487 -0.4658
  626TMC3    C3 9322   2.341   1.083   0.613 -0.2548 -0.3487 -0.3659
  626TMC3    C4 9323   2.489   1.064   0.842 -0.1128 -0.9070 -0.0539
  626TMC3    C5 9324   2.435   1.181   0.800 -0.5818 -0.1236 -0.7587
  626TMC3    C6 9325   2.374   1.197   0.680  0.7563  0.3133 -0.3245
  626TMC3     C 9326   2.508   0.828   0.805 -0.5107 -0.6180  0.5715
  626TMC3     O 9327   2.432   0.732   0.812  0.2867  0.1619 -0.1034
  626TMC3     H 9328   2.372   0.864   0.611  3.6849 -1.3335  1.9173
  626TMC3    H1 9329   2.528   1.048   0.942  1.2644 -0.5687 -0.5350
  626TMC3    H2 9330   2.365   1.298   0.642  1.7399 -0.8722 -3.6521
  626TMC3    C7 9331   2.461   1.295   0.885  0.2512  1.2087 -0.2743
  626TMC3    C8 9332   2.252   1.076   0.495 -0.6060  0.5504  0.5725
  626TMC3    O1 9333   2.546   1.275   0.974 -0.0357 -0.0511  0.2846
  626TMC3    O2 9334   2.240   0.964   0.439  0.0387 -0.1267  0.2785
  627MPD2     C 9335   1.103   0.915  14.274 -0.3285  0.3769  0.1240
  627MPD2    C1 9336   1.133   0.874  14.406 -0.0115 -0.0610 -0.2056
  627MPD2    C2 9337   1.041   0.792  14.467 -0.8684  0.0171 -0.0152
  627MPD2    C3 9338   0.923   0.755  14.409 -0.2107 -0.2002 -0.0489
  627MPD2    C4 9339   0.892   0.807  14.283  0.0138  0.2873  0.5633
  627MPD2    C5 9340   0.988   0.879  14.211  0.6807 -0.6615 -0.6101
  627MPD2     H 9341   1.064   0.749  14.564  2.1260  1.3797 -0.1399
  627MPD2    H1 9342   0.796   0.807  14.233  1.5975 -2.4924 -2.4018
  627MPD2    H2 9343   1.173   0.975  14.216 -1.7515  0.0572 -1.9448
  627MPD2    H3 9344   0.974   0.917  14.111  1.2343  1.1911  0.0286
  627MPD2     N 9345   0.829   0.689  14.487  0.3234 -0.1827  0.5943
  627MPD2    H5 9346   0.865   0.664  14.578 -1.1327 -0.9390  0.9624
  627MPD2    N1 9347   1.246   0.912  14.482  0.5031 -0.2501  0.2112
  627MPD2    H7 9348   1.250   0.871  14.575  2.3568 -0.0528  0.2146
  628TMC3    C1 9349   1.444   1.032  14.534  0.4930  0.1741  0.4421
  628TMC3    C2 9350   1.493   0.925  14.608 -0.0391  0.2353  0.0190
  628TMC3    C3 9351   1.588   0.961  14.701 -0.3034 -0.0973  0.4809
  628TMC3    C4 9352   1.471   1.163  14.551  0.4823 -0.2332 -0.2951
  628TMC3    C5 9353   1.558   1.190  14.645 -1.0798  0.1060  0.1273
  628TMC3    C6 9354   1.610   1.093  14.728  0.0340  0.6584 -0.1925
  628TMC3     C 9355   1.337   1.006  14.437  0.4024 -0.0019 -0.1733
  628TMC3     O 9356   1.341   1.066  14.330  0.0795  0.5657  0.1210
  628TMC3     H 9357   1.477   0.824  14.572 -0.2832 -0.1357  1.1649
  628TMC3    H1 9358   1.428   1.239  14.487  0.1146 -0.8898 -0.8225
  628TMC3    H2 9359   1.692   1.122  14.792  0.6697 -1.8188  0.1059
  628TMC3    C7 9360   1.582   1.328  14.682  0.3140 -0.0386  0.0784
  628TMC3    C8 9361   1.712   0.877  14.708  0.0931  0.1158  0.1371
  628TMC3    O1 9362   1.630   1.348  14.789  0.3845 -0.0262  0.2142
  628TMC3    O2 9363   1.814   0.928  14.672  0.0612 -0.0810  0.5426
  629MPD2     C 9364   4.454   3.937  16.447 -0.0026 -0.5663  0.1792
  629MPD2    C1 9365   4.389   4.056  16.438  0.1118  0.4384 -0.5935
  629MPD2    C2 9366   4.261   4.067  16.393  0.1408  0.1752  0.5944
  629MPD2    C3 9367   4.191   3.950  16.366 -0.5788 -0.1574 -0.5209
  629MPD2    C4 9368   4.248   3.830  16.388 -0.5356 -0.2000  0.2355
  629MPD2    C5 9369   4.377   3.823  16.436  0.7287 -0.7016  0.3082
  629MPD2     H 9370   4.211   4.161  16.378 -0.1996 -0.2571 -0.9480
  629MPD2    H1 9371   4.211   3.735  16.349  0.6790 -1.3450  1.8844
  629MPD2    H2 9372   4.558   3.928  16.476  0.7039 -0.6139 -2.3783
  629MPD2    H3 9373   4.418   3.724  16.455 -0.4347 -1.3711 -0.7270
  629MPD2     N 9374   4.063   3.960  16.302 -0.9706 -0.0051 -0.0018
  629MPD2    H5 9375   4.035   4.056  16.284  1.2853  0.5162 -0.7659
  629MPD2    N1 9376   4.471   4.175  16.476  0.3033 -0.7270 -0.5141
  629MPD2    H7 9377   4.566   4.159  16.506  0.8818 -0.7457 -2.3967
  630TMC3    C1 9378   4.550   4.394  16.497  0.3408  0.2095  0.1889
  630TMC3    C2 9379   4.579   4.504  16.415 -0.2371  0.3985  0.3249
  630TMC3    C3 9380   4.662   4.600  16.467 -0.3089 -0.3380 -0.8726
  630TMC3    C4 9381   4.631   4.359  16.604  0.3633  0.5343  0.3574
  630TMC3    C5 9382   4.708   4.459  16.654 -0.1759  0.3049 -0.5285
  630TMC3    C6 9383   4.716   4.581  16.592  0.7386 -0.2973 -0.3248
  630TMC3     C 9384   4.444   4.308  16.452 -0.2043  0.2279  0.8034
  630TMC3     O 9385   4.345   4.358  16.395  0.4464 -0.0246 -0.1424
  630TMC3     H 9386   4.519   4.502  16.324 -0.0893  0.2625  0.2291
  630TMC3    H1 9387   4.591   4.282  16.669 -1.1227  0.6136 -0.4847
  630TMC3    H2 9388   0.053   4.656  16.618  0.9500 -0.4043 -0.6185
  630TMC3    C7 9389   0.079   4.416  16.750 -0.0624 -0.1406 -0.6481
  630TMC3    C8 9390   0.002   4.685  16.382 -0.3811 -0.0771 -0.1507
  630TMC3    O1 9391   0.048   4.328  16.830 -0.1411  0.2038  0.1845
  630TMC3    O2 9392   0.068   0.037  16.430 -0.5170 -0.0967  0.1594
  631MPD2     C 9393   2.674   4.191  15.556 -0.4153 -0.1743  0.5043
  631MPD2    C1 9394   2.746   4.141  15.450  0.3095  0.6813 -0.3243
  631MPD2    C2 9395   2.732   4.001  15.413  0.5213  0.4119 -0.0288
  631MPD2    C3 9396   2.662   3.920  15.500 -0.2684  0.7121  0.2464
  631MPD2    C4 9397   2.589   3.977  15.606  0.2406  0.5130 -0.1720
  631MPD2    C5 9398   2.606   4.109  15.642  0.3335  0.1321  0.6136
  631MPD2     H 9399   2.779   3.959  15.326  0.5035  0.6710 -0.1630
  631MPD2    H1 9400   2.530   3.915  15.673 -1.3128 -1.1590 -3.0883
  631MPD2    H2 9401   2.674   4.297  15.578 -0.7275  0.2692 -1.6555
  631MPD2    H3 9402   2.548   4.147  15.726 -1.1339 -0.2643 -0.2177
  631MPD2     N 9403   2.680   3.776  15.486  0.1676 -0.2196  0.7006
  631MPD2    H5 9404   2.737   3.751  15.406 -0.2802 -0.4731  0.4599
  631MPD2    N1 9405   2.818   4.227  15.363 -0.0637 -0.0489  0.0320
  631MPD2    H7 9406   2.812   4.326  15.386  0.6830  0.3055 -1.2551
  632TMC3    C1 9407   2.965   4.310  15.205 -0.1321 -0.5530  0.5886
  632TMC3    C2 9408   2.888   4.424  15.204  0.4461 -0.5390  0.0731
  632TMC3    C3 9409   2.912   4.515  15.113  0.2202 -0.0759 -0.3081
  632TMC3    C4 9410   3.072   4.297  15.120  0.0571  0.5120  0.2961
  632TMC3    C5 9411   3.105   4.401  15.035 -0.8182 -0.5307 -0.1716
  632TMC3    C6 9412   3.019   4.511  15.030 -0.4274 -0.3223 -0.0650
  632TMC3     C 9413   2.916   4.194  15.276  0.5559 -0.2341  0.1953
  632TMC3     O 9414   2.970   4.083  15.257 -0.3742 -0.2917 -0.1749
  632TMC3     H 9415   2.792   4.432  15.254 -0.5276 -1.2748 -1.6854
  632TMC3    H1 9416   3.122   4.202  15.112  0.3004  0.5622  1.1929
  632TMC3    H2 9417   3.042   4.593  14.963  1.8543 -2.0342 -1.3803
  632TMC3    C7 9418   3.153   4.367  14.903  0.0037  0.2468  0.4176
  632TMC3    C8 9419   2.788   4.554  15.048  0.1357 -0.3574  0.1721
  632TMC3    O1 9420   3.098   4.426  14.811  0.1056 -0.3998  0.1975
  632TMC3    O2 9421   2.696   4.595  15.116  0.1295  0.1564  0.5440
  633MPD2     C 9422   2.408   2.264  17.429 -0.5872  0.2076 -0.8081
  633MPD2    C1 9423   2.379   2.223  17.301 -0.4527  0.7660  0.0170
  633MPD2    C2 9424   2.377   2.086  17.275  0.5516 -0.0242 -0.4070
  633MPD2    C3 9425   2.427   1.994  17.363  0.6129 -0.0147 -0.1535
  633MPD2    C4 9426   2.471   2.039  17.483 -0.4785  0.9231  0.4027
  633MPD2    C5 9427   2.450   2.167  17.514  0.1851  0.8225 -0.1398
  633MPD2     H 9428   2.359   2.049  17.175 -2.3810  0.5434 -0.0892
  633MPD2    H1 9429   2.514   1.974  17.558 -1.2020  1.2615  1.1118
  633MPD2    H2 9430   2.402   2.368  17.460 -0.9237  0.0374 -0.2958
  633MPD2    H3 9431   2.477   2.213  17.608 -1.8199 -3.4412  2.5269
  633MPD2     N 9432   2.445   1.862  17.318 -0.5536  0.1496 -0.0038
  633MPD2    H5 9433   2.416   1.840  17.223 -2.0524 -0.8920  0.7004
  633MPD2    N1 9434   2.343   2.308  17.193 -0.3547 -0.0147  0.4168
  633MPD2    H7 9435   2.325   2.265  17.103 -0.2068 -1.7395  1.2118
  634TMC3    C1 9436   2.368   2.493  17.058 -0.3806 -0.1282 -0.7779
  634TMC3    C2 9437   2.446   2.421  16.972  0.4991  0.3772 -0.2600
  634TMC3    C3 9438   2.465   2.468  16.848  0.2920  0.7938 -0.2232
  634TMC3    C4 9439   2.307   2.615  17.033  0.1998  1.2745 -0.0861
  634TMC3    C5 9440   2.333   2.658  16.905  0.3792 -0.9531 -0.3994
  634TMC3    C6 9441   2.411   2.586  16.810  0.1120  0.0940  0.4267
  634TMC3     C 9442   2.339   2.442  17.194 -0.2199  0.3278  0.4880
  634TMC3     O 9443   2.332   2.522  17.287 -0.2352  0.0438 -0.2585
  634TMC3     H 9444   2.500   2.338  17.015  1.3289  0.6999 -0.6772
  634TMC3    H1 9445   2.254   2.679  17.103  0.4818  1.0885  0.2998
  634TMC3    H2 9446   2.458   2.644  16.732  1.2701 -0.7251  0.5197
  634TMC3    C7 9447   2.292   2.785  16.852  0.2687 -0.2661 -0.1200
  634TMC3    C8 9448   2.502   2.381  16.745  0.2294  0.3948 -0.0363
  634TMC3    O1 9449   2.360   2.829  16.760 -0.5193  0.3508 -0.6235
  634TMC3    O2 9450   2.472   2.262  16.749  0.1249  0.1289  0.2909
  635TMC3    C1 9451   3.726   3.850  17.260  0.4771  0.2298  1.3395
  635TMC3    C2 9452   3.796   3.766  17.177  0.1112 -0.3256  0.2497
  635TMC3    C3 9453   3.715   3.690  17.096  0.0467 -0.4025  0.3961
  635TMC3    C4 9454   3.587   3.871  17.253 -0.2599 -0.2525  0.3066
  635TMC3    C5 9455   3.512   3.800  17.167  0.5830 -0.1414  0.1284
  635TMC3    C6 9456   3.576   3.701  17.095  0.0160  0.0843 -0.4798
  635TMC3     C 9457   3.795   3.933  17.362 -0.0736 -0.0641 -0.0397
  635TMC3     O 9458   3.723   4.027  17.398  0.5804 -0.6138  0.7933
  635TMC3     H 9459   3.904   3.776  17.174  0.3363 -3.0917 -0.5885
  635TMC3    H1 9460   3.537   3.943  17.318 -0.9484 -0.2992 -0.1761
  635TMC3    H2 9461   3.520   3.642  17.024 -0.7040  0.0642  0.0975
  635TMC3    C7 9462   3.368   3.809  17.176  0.2734  0.2373 -0.2351
  635TMC3    C8 9463   3.779   3.585  17.014 -0.1361 -0.6274  0.7137
  635TMC3    O1 9464   3.323   3.852  17.280  0.1239  0.4454  0.6938
  635TMC3    O2 9465   3.702   3.518  16.943 -0.5045  0.2467 -1.2507
  636MPD2     C 9466   3.551   2.106  16.211 -0.2624  0.1445  0.5586
  636MPD2    C1 9467   3.680   2.153  16.240  0.5212  0.0195  0.3168
  636MPD2    C2 9468   3.788   2.069  16.209 -0.0738 -0.7420  0.9124
  636MPD2    C3 9469   3.769   1.950  16.147  0.2421  0.6033 -0.2268
  636MPD2    C4 9470   3.640   1.906  16.117  0.1028  0.1026  0.3030
  636MPD2    C5 9471   3.535   1.983  16.148 -0.0938  0.1591  0.6940
  636MPD2     H 9472   3.892   2.091  16.227 -0.3913  2.2208 -0.8700
  636MPD2    H1 9473   3.623   1.807  16.076 -2.7041  0.8845 -0.4409
  636MPD2    H2 9474   3.462   2.165  16.228 -0.1583  0.7309 -0.9515
  636MPD2    H3 9475   3.432   1.956  16.124  0.4279 -0.1561 -1.2464
  636MPD2     N 9476   3.885   1.875  16.113 -0.2070  0.2552 -0.0169
  636MPD2    H5 9477   3.975   1.907  16.149 -0.7152  0.9666  0.6250
  636MPD2    N1 9478   3.704   2.283  16.282 -0.3611 -0.4822  0.4658
  636MPD2    H7 9479   3.788   2.291  16.337 -0.1031 -0.1907  0.0344
  637TMC3    C1 9480   4.015   1.711  16.017  0.3707 -0.5049  0.2661
  637TMC3    C2 9481   4.131   1.758  16.089  0.3527 -0.1040 -0.1249
  637TMC3    C3 9482   4.250   1.691  16.064  1.0468  0.0231  0.4858
  637TMC3    C4 9483   4.026   1.603  15.937  0.0912  0.4903 -0.4337
  637TMC3    C5 9484   4.142   1.539  15.922 -0.4654  0.1971  0.4702
  637TMC3    C6 9485   4.253   1.571  15.997  0.2689  0.4693  0.1596
  637TMC3     C 9486   3.884   1.766  16.036  0.2934 -0.3439 -0.2629
  637TMC3     O 9487   3.793   1.710  15.975  0.4693 -0.6541  0.2004
  637TMC3     H 9488   4.134   1.860  16.124  0.5269 -0.0377 -0.3378
  637TMC3    H1 9489   3.935   1.571  15.888 -0.2332 -0.3375  0.6993
  637TMC3    H2 9490   4.347   1.518  15.991 -0.2790 -0.3482 -1.0836
  637TMC3    C7 9491   4.182   1.527  15.782  0.1244  0.0305  0.0286
  637TMC3    C8 9492   4.376   1.761  16.065 -0.2456 -0.2844  0.4380
  637TMC3    O1 9493   4.090   1.499  15.707 -0.0573  0.2274  0.0375
  637TMC3    O2 9494   4.457   1.718  15.990  0.3970 -0.2008  0.3564
  638MPD2     C 9495   3.751   1.199  15.302 -0.1091  0.1374 -0.7507
  638MPD2    C1 9496   3.713   1.173  15.168 -0.6035  0.1121  0.8863
  638MPD2    C2 9497   3.674   1.040  15.141  0.3600  0.0546  0.2975
  638MPD2    C3 9498   3.683   0.940  15.234 -0.0063  0.0612 -0.3381
  638MPD2    C4 9499   3.721   0.971  15.363  0.2661  0.6694  0.2984
  638MPD2    C5 9500   3.752   1.099  15.394  0.1754 -0.3163 -0.3417
  638MPD2     H 9501   3.638   1.000  15.048  0.4630  1.2886 -0.2658
  638MPD2    H1 9502   3.719   0.897  15.443  1.4214  0.3335  0.0165
  638MPD2    H2 9503   3.797   1.294  15.325 -0.1084 -0.2294  0.7499
  638MPD2    H3 9504   3.783   1.116  15.496 -0.8039 -1.4580  0.1445
  638MPD2     N 9505   3.645   0.817  15.177  0.1156 -0.3609 -0.2840
  638MPD2    H5 9506   3.618   0.812  15.080 -0.4751 -1.5753 -0.0678
  638MPD2    N1 9507   3.717   1.273  15.074 -0.0361  0.1780 -0.5395
  638MPD2    H7 9508   3.742   1.367  15.103  0.0024  0.3950 -1.2635
  639TMC3    C1 9509   3.598   0.602  15.141  0.7799 -0.6657 -0.1445
  639TMC3    C2 9510   3.510   0.639  15.048  0.7186  0.1426  1.5845
  639TMC3    C3 9511   3.520   0.582  14.924  0.1366  0.6977  0.5651
  639TMC3    C4 9512   3.712   0.539  15.099  0.9792 -0.2120  0.4481
  639TMC3    C5 9513   3.727   0.491  14.971  0.2476  0.0390  0.8559
  639TMC3    C6 9514   3.621   0.502  14.885 -0.2736  0.8618  0.1270
  639TMC3     C 9515   3.634   0.700  15.243 -0.2888  0.6358 -1.1004
  639TMC3     O 9516   3.684   0.660  15.349 -0.4569  0.6211 -0.3352
  639TMC3     H 9517   3.422   0.692  15.081 -0.0262  0.7551 -1.3806
  639TMC3    H1 9518   3.787   0.520  15.174  0.2836  1.0352  1.4633
  639TMC3    H2 9519   3.631   0.460  14.785  0.3384 -1.0156  0.9870
  639TMC3    C7 9520   3.836   0.404  14.938 -0.3887  0.0441  0.9164
  639TMC3    C8 9521   3.410   0.593  14.829  0.0722  0.4187  0.1133
  639TMC3    O1 9522   3.826   0.325  14.849 -0.5054 -0.0931  0.5386
  639TMC3    O2 9523   3.444   0.572  14.712  0.1944 -0.3067  0.6328
  640MPD2     C 9524   4.411   0.459  10.093  0.4473  0.0483  0.3556
  640MPD2    C1 9525   4.420   0.542   9.985 -0.1066 -0.4059 -1.1358
  640MPD2    C2 9526   4.349   0.661   9.981 -0.4034 -0.9100  0.0072
  640MPD2    C3 9527   4.264   0.693  10.090  0.2541  1.0736 -0.1940
  640MPD2    C4 9528   4.268   0.609  10.198  0.7098 -0.1561 -0.2359
  640MPD2    C5 9529   4.351   0.503  10.210 -0.0903 -0.3926  0.1048
  640MPD2     H 9530   4.354   0.724   9.893  0.5103 -2.2490 -0.9011
  640MPD2    H1 9531   4.215   0.652  10.283 -0.8611 -3.0877  0.2441
  640MPD2    H2 9532   4.452   0.359  10.086 -0.0002 -0.3210  2.8894
  640MPD2    H3 9533   4.351   0.443  10.300 -2.1400  0.7309  0.8459
  640MPD2     N 9534   4.180   0.804  10.098  0.3017  0.6565  0.6703
  640MPD2    H5 9535   4.116   0.806  10.176 -3.4372 -0.3642 -2.3837
  640MPD2    N1 9536   4.497   0.490   9.882 -0.2396 -0.2516 -0.5178
  640MPD2    H7 9537   4.551   0.406   9.901 -0.0297  0.0004 -0.0002
  641TMC3    C1 9538   4.566   0.453   9.659  0.2843  0.0699  0.1314
  641TMC3    C2 9539   4.642   0.342   9.696 -0.8051 -0.1740 -0.3873
  641TMC3    C3 9540   4.709   0.270   9.595 -0.4919 -0.8986 -0.4998
  641TMC3    C4 9541   4.555   0.495   9.535  0.2523  0.1519 -0.8038
  641TMC3    C5 9542   4.624   0.427   9.440  0.1694 -0.3341  0.7993
  641TMC3    C6 9543   4.687   0.305   9.465 -0.3918  0.0276  0.1037
  641TMC3     C 9544   4.516   0.550   9.761 -0.5508  0.9470 -0.2086
  641TMC3     O 9545   4.477   0.657   9.712  0.1997 -0.4367  0.1930
  641TMC3     H 9546   4.672   0.330   9.799 -1.4936 -0.5613 -0.2393
  641TMC3    H1 9547   4.516   0.594   9.515  0.4912  0.7892  1.9360
  641TMC3    H2 9548   0.000   0.245   9.390 -1.3462 -0.7376  0.0866
  641TMC3    C7 9549   4.625   0.477   9.309 -0.5986  0.0350 -0.4429
  641TMC3    C8 9550   0.060   0.159   9.617 -0.2237  0.2732 -0.7101
  641TMC3    O1 9551   4.524   0.541   9.279 -0.1130 -0.1524  0.0614
  641TMC3    O2 9552   0.111   0.104   9.518 -0.3413 -0.1765  0.2472
  642TMC3    C1 9553   0.524   1.708  11.860 -0.7966 -0.9331 -0.6137
  642TMC3    C2 9554   0.620   1.728  11.964  0.6159  0.6433  0.0522
  642TMC3    C3 9555   0.685   1.620  12.005  0.3208  0.3256  0.2041
  642TMC3    C4 9556   0.496   1.587  11.803 -0.2483 -0.0273  0.4551
  642TMC3    C5 9557   0.562   1.474  11.855  0.5302  0.3144 -0.4358
  642TMC3    C6 9558   0.664   1.490  11.953 -0.8682 -0.1112  0.3054
  642TMC3     C 9559   0.414   1.798  11.835 -0.1312 -0.9181 -0.2888
  642TMC3     O 9560   0.379   1.827  11.724 -0.2605  0.4830  0.3847
  642TMC3     H 9561   0.614   1.818  12.025  1.0437  0.8587 -0.2293
  642TMC3    H1 9562   0.433   1.572  11.716  0.9806  1.5758 -0.7074
  642TMC3    H2 9563   0.723   1.408  11.993 -0.6127  0.7198  1.6272
  642TMC3    C7 9564   0.497   1.348  11.830  0.0268  0.5951 -0.3258
  642TMC3    C8 9565   0.802   1.628  12.099  0.2417  0.0965  0.7460
  642TMC3    O1 9566   0.459   1.337  11.713  0.1343  0.0219  0.0497
  642TMC3    O2 9567   0.867   1.529  12.140 -0.0161  0.4562  0.2686
  643TMC3    C1 9568   4.520   0.692   0.271 -0.8990  0.1503 -0.5325
  643TMC3    C2 9569   4.392   0.713   0.230  0.2681 -0.2928  0.9889
  643TMC3    C3 9570   4.334   0.603   0.170  0.2892  0.0653 -0.2459
  643TMC3    C4 9571   4.587   0.573   0.275  0.3847  0.5162 -0.0090
  643TMC3    C5 9572   4.527   0.467   0.215  0.2697 -0.4353  0.0582
  643TMC3    C6 9573   4.392   0.481   0.177 -0.0594 -1.1462 -0.8436
  643TMC3     C 9574   4.574   0.816   0.321  0.5006  0.0877  0.4013
  643TMC3     O 9575   4.534   0.915   0.269  0.5819  0.6588 -0.2231
  643TMC3     H 9576   4.346   0.811   0.242 -1.0467 -0.5070 -2.2484
  643TMC3    H1 9577   4.692   0.557   0.296 -0.3147 -2.4565  1.2401
  643TMC3    H2 9578   4.339   0.395   0.139 -2.0984 -0.4743  0.4473
  643TMC3    C7 9579   4.578   0.329   0.241  0.5835  0.2009  0.2418
  643TMC3    C8 9580   4.252   0.629   0.058 -0.3189  0.0134 -0.0455
  643TMC3    O1 9581   4.634   0.311   0.348 -0.5570  0.5493  0.1517
  643TMC3    O2 9582   4.171   0.542   0.028  0.1860 -0.4000 -0.1379
  644MPD2     C 9583   0.053   1.218   9.200  0.2773  0.3355  0.0350
  644MPD2    C1 9584   4.728   1.107   9.253 -0.6392  0.4411  0.3382
  644MPD2    C2 9585   4.595   1.111   9.286 -0.3617  0.0255  0.1978
  644MPD2    C3 9586   4.517   1.226   9.260  0.3617  0.8407 -0.0134
  644MPD2    C4 9587   4.581   1.341   9.214 -0.4914  0.2866 -0.5619
  644MPD2    C5 9588   4.713   1.335   9.179 -0.5056 -0.0700 -0.4731
  644MPD2     H 9589   4.547   1.021   9.320  0.8834  0.6089  3.5050
  644MPD2    H1 9590   4.530   1.435   9.193 -0.2655 -0.2187 -3.3167
  644MPD2    H2 9591   0.158   1.217   9.176  0.1581  0.5432 -0.4893
  644MPD2    H3 9592   0.013   1.412   9.112 -1.2484  0.0509 -0.7354
  644MPD2     N 9593   4.374   1.214   9.281 -0.6571 -0.2403  0.5618
  644MPD2    H5 9594   4.335   1.131   9.324 -1.2901  0.0714  0.5894
  644MPD2    N1 9595   0.074   0.996   9.264 -0.2064  0.3473  0.1297
  644MPD2    H7 9596   0.165   1.000   9.221  0.8117 -0.1441  2.2554
  645TMC3    C1 9597   4.159   1.275   9.329  0.5922 -0.1302  0.3492
  645TMC3    C2 9598   4.059   1.371   9.320  0.5267  0.2013  0.2890
  645TMC3    C3 9599   3.941   1.345   9.381 -0.4765  0.1715  0.8290
  645TMC3    C4 9600   4.138   1.154   9.393  0.5390 -0.3098 -0.1288
  645TMC3    C5 9601   4.012   1.132   9.453 -0.1429 -0.0706  0.4991
  645TMC3    C6 9602   3.913   1.233   9.454  0.0617 -0.5057 -0.1994
  645TMC3     C 9603   4.285   1.323   9.281 -0.7612 -0.1562  0.3425
  645TMC3     O 9604   4.302   1.440   9.254  0.9988  0.1659 -0.2287
  645TMC3     H 9605   4.075   1.456   9.255 -1.6881  0.1525 -0.2966
  645TMC3    H1 9606   4.215   1.081   9.413  0.7232  0.3057  1.4460
  645TMC3    H2 9607   3.818   1.223   9.504  0.2745  1.2679  0.5531
  645TMC3    C7 9608   4.010   1.029   9.560  0.2437 -0.0030  0.1044
  645TMC3    C8 9609   3.832   1.437   9.385  0.0889  0.3018 -0.1413
  645TMC3    O1 9610   4.114   0.969   9.589 -0.0489 -0.2075  0.2323
  645TMC3    O2 9611   3.876   1.552   9.384  0.2168 -0.2739  0.3420
  646MPD2     C 9612   3.605   4.710  14.363  1.0876 -0.1573  0.8261
  646MPD2    C1 9613   3.481   4.713  14.437 -0.1070 -0.2358  1.0598
  646MPD2    C2 9614   3.367   0.054  14.399  0.2454  0.2360  0.3705
  646MPD2    C3 9615   3.384   0.130  14.286 -0.2539  0.7189  0.2265
  646MPD2    C4 9616   3.495   0.115  14.199  0.2181  0.3844 -0.5490
  646MPD2    C5 9617   3.608   0.037  14.243  0.0482  0.5868  0.1999
  646MPD2     H 9618   3.277   0.065  14.457 -0.8340  0.3839 -1.3468
  646MPD2    H1 9619   3.504   0.164  14.103 -0.2186  0.2198 -0.6777
  646MPD2    H2 9620   3.701   4.668  14.391  1.5604  0.2985 -0.1087
  646MPD2    H3 9621   3.697   0.048  14.181  1.1784 -0.5669  1.6393
  646MPD2     N 9622   3.279   0.217  14.253 -0.0687  0.3009  0.1224
  646MPD2    H5 9623   3.210   0.248  14.322  1.1354  1.8189  0.6278
  646MPD2    N1 9624   3.490   4.631  14.550  1.1617 -0.1662 -0.0493
  646MPD2    H7 9625   3.576   4.581  14.570  0.8565 -1.0691 -0.9958
  647TMC3    C1 9626   3.438   4.582  14.777 -0.6314  0.5930  0.1685
  647TMC3    C2 9627   3.381   4.646  14.884 -0.4045  0.1606  0.9252
  647TMC3    C3 9628   3.444   4.630  15.008 -0.1842  0.2170  0.2299
  647TMC3    C4 9629   3.555   4.515  14.784 -0.2997  0.1516 -0.0661
  647TMC3    C5 9630   3.607   4.494  14.906  0.3392  0.0396  0.1876
  647TMC3    C6 9631   3.556   4.554  15.022 -0.6025  0.3241  0.7075
  647TMC3     C 9632   3.388   4.625  14.646 -0.1709  0.5557 -0.3262
  647TMC3     O 9633   3.282   4.684  14.648 -0.0301  0.3953  0.6015
  647TMC3     H 9634   3.308   4.724  14.869 -0.6552 -1.3148 -5.4570
  647TMC3    H1 9635   3.590   4.457  14.699 -4.2136  0.0542 -1.5774
  647TMC3    H2 9636   3.607   4.545  15.118 -3.4325 -0.1734  2.1545
  647TMC3    C7 9637   3.737   4.429  14.920  0.2046  0.6134  0.6529
  647TMC3    C8 9638   3.362   4.658  15.128  0.1413  1.0195  0.9109
  647TMC3    O1 9639   3.765   4.387  15.030  0.2022 -0.0724  0.2867
  647TMC3    O2 9640   3.246   4.694  15.116  0.2610 -0.1811  0.0609
  648TMC3    C1 9641   3.043   2.376  16.208  0.2428  0.6555  0.0001
  648TMC3    C2 9642   3.057   2.243  16.173  0.4817  0.2189  0.8087
  648TMC3    C3 9643   3.017   2.211  16.043 -0.4222  0.7139  0.3754
  648TMC3    C4 9644   2.997   2.471  16.127  0.3620 -0.3815 -1.0002
  648TMC3    C5 9645   2.965   2.436  15.996  0.2876 -0.0541  0.5327
  648TMC3    C6 9646   2.970   2.307  15.953 -0.3690  0.4529 -0.3092
  648TMC3     C 9647   3.028   2.407  16.349 -0.5169  0.0263  0.7577
  648TMC3     O 9648   3.049   2.521  16.392  0.5205 -0.1462 -0.0267
  648TMC3     H 9649   3.111   2.173  16.236  1.8639  0.8707  0.3476
  648TMC3    H1 9650   2.985   2.568  16.174 -1.8331 -1.7670  1.3187
  648TMC3    H2 9651   2.952   2.278  15.850  1.4412  0.1062 -0.5389
  648TMC3    C7 9652   2.903   2.532  15.917 -0.3723  0.9698 -0.4285
  648TMC3    C8 9653   3.068   2.083  15.984  0.0724 -0.0282  0.0938
  648TMC3    O1 9654   2.894   2.503  15.798 -0.4150 -0.5438 -0.4715
  648TMC3    O2 9655   3.177   2.054  16.032 -0.0843  0.1795 -0.5975
  649TMC3    C1 9656   2.158   3.670  12.459 -0.2081  0.4740 -0.5225
  649TMC3    C2 9657   2.260   3.733  12.514 -0.4304  0.7076 -0.2020
  649TMC3    C3 9658   2.305   3.692  12.634  0.7549  0.1036  0.5327
  649TMC3    C4 9659   2.076   3.581  12.527 -0.2976 -0.6819 -0.2410
  649TMC3    C5 9660   2.116   3.545  12.652 -0.6792 -0.5802  0.2798
  649TMC3    C6 9661   2.238   3.594  12.703  0.0682  0.8434 -0.4221
  649TMC3     C 9662   2.098   3.716  12.339 -0.0193 -0.0769  0.2518
  649TMC3     O 9663   1.988   3.675  12.299 -0.2772 -0.3355  0.5283
  649TMC3     H 9664   2.321   3.805  12.462 -2.8397  1.9046 -1.3894
  649TMC3    H1 9665   1.991   3.536  12.478 -0.8277 -0.4053  0.4252
  649TMC3    H2 9666   2.271   3.571  12.803  0.3279 -1.6963 -1.1047
  649TMC3    C7 9667   2.015   3.514  12.744 -0.3874 -0.4578  0.0082
  649TMC3    C8 9668   2.397   3.767  12.716 -0.1472  0.3315  0.2675
  649TMC3    O1 9669   2.018   3.586  12.842  0.1606  0.7553  0.0156
  649TMC3    O2 9670   2.452   3.712  12.809 -0.1758  0.0241 -0.2359
  650TMC3    C1 9671   0.280   0.865  12.792  0.0127  0.2806  0.6982
  650TMC3    C2 9672   0.288   1.000  12.780 -0.2081  0.5388  0.1175
  650TMC3    C3 9673   0.202   1.061  12.693  0.0377 -0.0256 -0.4367
  650TMC3    C4 9674   0.209   0.784  12.705 -0.0312  0.1703  0.3858
  650TMC3    C5 9675   0.123   0.852  12.616 -0.0085 -0.5136 -0.3570
  650TMC3    C6 9676   0.119   0.990  12.611  1.0595  0.5384 -0.3461
  650TMC3     C 9677   0.377   0.799  12.882  0.0528  0.1194 -0.7918
  650TMC3     O 9678   0.426   0.874  12.967  0.1530  0.2396  0.2984
  650TMC3     H 9679   0.329   1.048  12.868  0.5265 -3.1961  1.8215
  650TMC3    H1 9680   0.237   0.679  12.696 -0.3694  0.2838 -2.0325
  650TMC3    H2 9681   0.059   1.034  12.532 -0.7216 -1.2755  0.0076
  650TMC3    C7 9682   0.097   0.777  12.491  0.0054 -0.0988 -1.0243
  650TMC3    C8 9683   0.159   1.202  12.715 -0.3969  0.1560 -0.0197
  650TMC3    O1 9684   0.167   0.680  12.471  0.0830 -0.0475 -0.0306
  650TMC3    O2 9685   0.063   1.242  12.650  0.2845 -0.1286  0.0433
  651MPD2     C 9686   4.031   2.822  10.481 -0.3591  0.0126  0.5545
  651MPD2    C1 9687   4.043   2.893  10.604  0.3399  0.7882 -0.9647
  651MPD2    C2 9688   4.163   2.951  10.630 -0.0435  0.1526  0.2611
  651MPD2    C3 9689   4.277   2.922  10.560 -0.3819 -0.3555 -0.6041
  651MPD2    C4 9690   4.263   2.840  10.450  0.2731  0.3970 -0.1395
  651MPD2    C5 9691   4.145   2.795  10.413  0.4431  0.0531  0.1430
  651MPD2     H 9692   4.170   3.019  10.714  0.4871 -0.1994  0.5047
  651MPD2    H1 9693   4.346   2.819  10.384  2.2773 -1.1147  2.8909
  651MPD2    H2 9694   3.937   2.789  10.439  1.1360 -1.1838 -1.8254
  651MPD2    H3 9695   4.146   2.755  10.312  0.2957  0.3337  0.0286
  651MPD2     N 9696   4.397   2.964  10.613 -0.1528 -0.2152  0.5543
  651MPD2    H5 9697   4.395   3.035  10.686 -1.8267 -0.8501  1.1250
  651MPD2    N1 9698   3.930   2.900  10.693 -0.7725 -0.0559  0.6816
  651MPD2    H7 9699   3.929   2.953  10.779 -1.9764  1.4980 -0.3094
  652TMC3    C1 9700   0.121   3.003  10.627 -0.2319 -0.2868 -0.7342
  652TMC3    C2 9701   0.017   2.919  10.610  0.3955  0.5036 -0.2945
  652TMC3    C3 9702   4.627   2.980  10.635  0.1544  0.0355 -0.0400
  652TMC3    C4 9703   0.105   3.135  10.662 -0.9027  0.8782  0.5616
  652TMC3    C5 9704   4.719   3.192  10.678  0.1443 -0.3687 -0.3372
  652TMC3    C6 9705   4.607   3.111  10.686 -0.4348 -0.4971  0.8756
  652TMC3     C 9706   0.258   2.944  10.636  0.1179  0.3547  0.2821
  652TMC3     O 9707   0.261   2.821  10.627  0.5489 -0.6266 -0.1318
  652TMC3     H 9708   0.039   2.814  10.591 -0.6336  0.1307  0.6066
  652TMC3    H1 9709   0.194   3.192  10.687  0.3417 -0.1885 -1.5093
  652TMC3    H2 9710   4.507   3.153  10.695 -0.6908 -0.5118 -1.8699
  652TMC3    C7 9711   4.718   3.319  10.748  0.0606 -0.6520  0.9930
  652TMC3    C8 9712   4.518   2.921  10.568 -0.8118  1.2605  0.7532
  652TMC3    O1 9713   4.644   3.338  10.844  0.2139 -1.2625  0.2943
  652TMC3    O2 9714   4.549   2.840  10.479 -0.7311 -0.1955  0.0283
  653MPD2     C 9715   2.085   2.439  17.619  0.3724 -0.5776  0.3202
  653MPD2    C1 9716   1.980   2.500  17.552  0.1503 -0.0460  0.0480
  653MPD2    C2 9717   1.903   2.422  17.465  0.4454  0.0458  0.1456
  653MPD2    C3 9718   1.949   2.295  17.427  0.7428 -0.5906  0.4247
  653MPD2    C4 9719   2.063   2.242  17.483 -1.0445  0.0093  0.4692
  653MPD2    C5 9720   2.124   2.309  17.585  0.6671  0.2270  0.8617
  653MPD2     H 9721   1.817   2.468  17.418 -0.8726  0.7904  3.2362
  653MPD2    H1 9722   2.100   2.149  17.440 -1.3612  0.0970  0.0046
  653MPD2    H2 9723   2.145   2.495  17.689 -0.6531  0.8788  0.0206
  653MPD2    H3 9724   2.212   2.265  17.632 -0.0187  0.4238  2.3231
  653MPD2     N 9725   1.867   2.224  17.331  0.0051  0.4835  0.5554
  653MPD2    H5 9726   1.772   2.250  17.309 -0.1757 -1.2164 -0.7190
  653MPD2    N1 9727   1.953   2.638  17.562 -0.3527 -0.3839  0.3477
  653MPD2    H7 9728   1.906   2.676  17.481 -0.4971  2.0801  1.5844
  654TMC3    C1 9729   1.811   2.083  17.151 -0.6250  1.1603  0.5519
  654TMC3    C2 9730   1.773   2.186  17.069  0.2238  0.6218  0.1323
  654TMC3    C3 9731   1.737   2.153  16.939 -0.1789  0.3192 -0.1239
  654TMC3    C4 9732   1.814   1.956  17.101  0.0584  0.0903 -0.2547
  654TMC3    C5 9733   1.771   1.926  16.976  0.0487 -0.3019 -0.2103
  654TMC3    C6 9734   1.724   2.026  16.892  0.1430  0.8039  0.8220
  654TMC3     C 9735   1.906   2.115  17.257  0.7615  0.1032  0.4281
  654TMC3     O 9736   2.002   2.039  17.255 -0.1863 -0.3636 -1.1390
  654TMC3     H 9737   1.785   2.288  17.102 -0.1598  0.5489  0.5021
  654TMC3    H1 9738   1.837   1.868  17.161  0.5166  0.2380 -0.2195
  654TMC3    H2 9739   1.675   2.005  16.799 -0.5445  2.0869  0.8898
  654TMC3    C7 9740   1.801   1.801  16.907  0.7132 -0.4186 -0.4278
  654TMC3    C8 9741   1.721   2.262  16.850 -0.9269  0.3741 -0.4575
  654TMC3    O1 9742   1.753   1.785  16.799 -0.4995 -0.0662  0.2575
  654TMC3    O2 9743   1.683   2.364  16.902 -0.2808 -0.2911 -0.3333
  655MPD2     C 9744   3.313   2.421  15.931  0.1596  0.2526  0.3754
  655MPD2    C1 9745   3.273   2.525  15.858  0.0898  0.2207  0.1365
  655MPD2    C2 9746   3.258   2.510  15.721  0.0429  0.3619 -0.0199
  655MPD2    C3 9747   3.293   2.389  15.658 -0.1073  0.6272 -0.2455
  655MPD2    C4 9748   3.344   2.290  15.738 -0.3142 -0.2983 -0.4038
  655MPD2    C5 9749   3.365   2.307  15.868  0.8779  0.2771 -0.6805
  655MPD2     H 9750   3.230   2.596  15.661  1.2388  1.5947  1.2068
  655MPD2    H1 9751   3.381   2.195  15.699  0.9353  0.3548 -0.8290
  655MPD2    H2 9752   3.338   2.412  16.036 -0.9824  2.3010  0.8133
  655MPD2    H3 9753   3.397   2.219  15.922 -0.9597  0.2333  0.3586
  655MPD2     N 9754   3.284   2.369  15.516  0.6419  0.5028 -0.5594
  655MPD2    H5 9755   3.321   2.285  15.471  0.9758 -0.1142  0.8709
  655MPD2    N1 9756   3.249   2.650  15.912 -0.4255 -0.2358 -0.1876
  655MPD2    H7 9757   3.237   2.723  15.842  1.9027 -0.8993 -1.2999
  656TMC3    C1 9758   3.162   2.804  16.053  0.6951  0.5078 -0.2544
  656TMC3    C2 9759   3.089   2.809  16.168 -0.2601 -0.2494  0.6528
  656TMC3    C3 9760   2.995   2.906  16.172  0.2854  0.3507 -0.0902
  656TMC3    C4 9761   3.127   2.883  15.940 -0.0156 -0.2310  0.3754
  656TMC3    C5 9762   3.018   2.965  15.955  1.0808  0.5663  0.1708
  656TMC3    C6 9763   2.951   2.984  16.068 -0.5071 -0.4445  0.7492
  656TMC3     C 9764   3.251   2.692  16.038  0.6066 -0.0280  0.2549
  656TMC3     O 9765   3.274   2.624  16.136 -0.3739  0.1611  0.5032
  656TMC3     H 9766   3.101   2.748  16.257  2.4252  0.7568  0.9876
  656TMC3    H1 9767   3.190   2.874  15.852  0.1885  0.0497  0.4915
  656TMC3    H2 9768   2.861   3.044  16.076  1.3702  2.4090  0.3489
  656TMC3    C7 9769   2.977   3.029  15.835  1.2731 -0.1687  0.7740
  656TMC3    C8 9770   2.886   2.872  16.260 -0.2058 -0.3424  0.6797
  656TMC3    O1 9771   3.029   2.974  15.733  0.5469 -0.2772  0.2138
  656TMC3    O2 9772   2.868   2.753  16.277 -0.1306 -0.0010 -0.8006
  657TMC3    C1 9773   2.297   1.951  14.804 -0.3288 -0.2683 -0.2428
  657TMC3    C2 9774   2.336   1.975  14.931  0.0581 -0.7821  0.9007
  657TMC3    C3 9775   2.309   2.100  14.979 -0.0907 -0.6472 -0.2849
  657TMC3    C4 9776   2.233   2.046  14.729 -0.5448 -0.0914  0.2814
  657TMC3    C5 9777   2.215   2.170  14.784 -0.1184  0.3278  0.0540
  657TMC3    C6 9778   2.252   2.203  14.914  0.0325  0.7056 -0.0996
  657TMC3     C 9779   2.328   1.827  14.739  0.7531  0.2059 -0.4244
  657TMC3     O 9780   2.264   1.803  14.640  0.2143  0.3220  0.0114
  657TMC3     H 9781   2.395   1.895  14.975  1.8667  0.4663  0.7088
  657TMC3    H1 9782   2.210   2.024  14.625  1.5073  1.4203 -0.4914
  657TMC3    H2 9783   2.252   2.307  14.944  0.0105  0.3431  1.1304
  657TMC3    C7 9784   2.162   2.268  14.702 -0.2311  0.1519  0.2720
  657TMC3    C8 9785   2.352   2.134  15.117 -0.4111 -0.4952 -0.6745
  657TMC3    O1 9786   2.210   2.280  14.588  0.3702 -0.6094 -0.2150
  657TMC3    O2 9787   2.308   2.236  15.165 -0.6115 -0.2907  0.0803
  658MPD2     C 9788   3.604   1.927  15.155 -0.4088 -0.3864 -1.1507
  658MPD2    C1 9789   3.553   2.019  15.063  0.4097 -0.9250  0.0836
  658MPD2    C2 9790   3.573   1.999  14.926 -0.8407 -0.1405 -0.6949
  658MPD2    C3 9791   3.654   1.895  14.882 -0.4229  0.6211  0.1525
  658MPD2    C4 9792   3.709   1.804  14.971  0.2942  0.2976 -0.0034
  658MPD2    C5 9793   3.674   1.821  15.106  0.1043  0.8000 -0.1977
  658MPD2     H 9794   3.515   2.044  14.846 -0.2952  1.6011 -0.1294
  658MPD2    H1 9795   3.765   1.713  14.952  1.4036  1.0865 -0.5035
  658MPD2    H2 9796   3.596   1.936  15.263 -1.0153 -0.0179 -1.2228
  658MPD2    H3 9797   3.716   1.750  15.176 -0.3070  0.9874  0.2365
  658MPD2     N 9798   3.678   1.891  14.742 -0.4291  0.3463 -0.1615
  658MPD2    H5 9799   3.643   1.972  14.691  0.0618  0.4441 -0.3443
  658MPD2    N1 9800   3.464   2.120  15.110 -0.4319 -0.0113 -0.5547
  658MPD2    H7 9801   3.441   2.113  15.209  4.1521 -1.5639  0.3825
  659TMC3    C1 9802   3.318   2.313  15.102  0.9221  0.6318 -0.1037
  659TMC3    C2 9803   3.314   2.323  15.239  0.5422  0.1699 -0.1720
  659TMC3    C3 9804   3.220   2.406  15.299  0.9058 -0.1155  0.6590
  659TMC3    C4 9805   3.231   2.389  15.029  0.2336  0.0034 -0.1295
  659TMC3    C5 9806   3.137   2.469  15.089 -0.1669 -0.2591 -0.0704
  659TMC3    C6 9807   3.125   2.473  15.225 -0.8580 -0.1479 -0.1918
  659TMC3     C 9808   3.415   2.225  15.033  0.3441  0.7124 -0.8088
  659TMC3     O 9809   3.458   2.255  14.921 -0.1866  0.2655 -0.3194
  659TMC3     H 9810   3.394   2.286  15.302  0.9581 -0.2324 -0.9263
  659TMC3    H1 9811   3.242   2.394  14.921  0.1016  0.3229 -0.1273
  659TMC3    H2 9812   3.058   2.544  15.273  3.2821  2.6822  1.4377
  659TMC3    C7 9813   3.013   2.511  15.013  0.3124  0.4430  0.2307
  659TMC3    C8 9814   3.232   2.462  15.432 -0.2290  0.3997  0.0975
  659TMC3    O1 9815   2.946   2.599  15.061  0.5917  0.1023 -0.2858
  659TMC3    O2 9816   3.190   2.576  15.447  1.0558  0.3946 -0.2048
  660MPD2     C 9817   1.840   1.585  12.288 -0.8673 -0.1289  0.5372
  660MPD2    C1 9818   1.728   1.661  12.309  1.1071  0.1740 -0.3405
  660MPD2    C2 9819   1.641   1.628  12.412 -0.1579  0.2840  0.7024
  660MPD2    C3 9820   1.672   1.522  12.498  0.5504  0.0343 -0.0218
  660MPD2    C4 9821   1.787   1.448  12.484 -0.1373 -0.1658 -0.6772
  660MPD2    C5 9822   1.872   1.485  12.380 -0.0677 -0.4824 -0.5505
  660MPD2     H 9823   1.550   1.684  12.429  1.4249  3.3829 -0.8101
  660MPD2    H1 9824   1.819   1.366  12.547  0.2820 -0.9213 -1.8663
  660MPD2    H2 9825   1.911   1.618  12.213 -2.0938 -1.7398 -1.3039
  660MPD2    H3 9826   1.961   1.424  12.376  1.0840  1.2917 -1.9966
  660MPD2     N 9827   1.579   1.468  12.590 -0.3463  0.4686 -0.6150
  660MPD2    H5 9828   1.615   1.385  12.636 -0.2977  1.3342  0.8875
  660MPD2    N1 9829   1.701   1.762  12.217  0.4433  0.1124  0.2873
  660MPD2    H7 9830   1.759   1.753  12.134 -0.9595 -2.1581 -0.4458
  661TMC3    C1 9831   1.569   1.903  12.088 -0.0011  0.5017 -0.0245
  661TMC3    C2 9832   1.682   1.940  12.017 -0.1765 -0.0455  0.2038
  661TMC3    C3 9833   1.668   2.037  11.919 -0.3485 -0.1182 -0.0173
  661TMC3    C4 9834   1.446   1.947  12.055  0.3615 -0.2832  0.2794
  661TMC3    C5 9835   1.436   2.027  11.945 -0.9854 -0.0029 -0.0734
  661TMC3    C6 9836   1.544   2.076  11.880  0.0054 -0.3812 -0.1048
  661TMC3     C 9837   1.597   1.848  12.218  0.4588  0.0515 -0.0434
  661TMC3     O 9838   1.512   1.865  12.300  0.4613 -0.2535  0.2260
  661TMC3     H 9839   1.781   1.906  12.047  1.4121  1.0424 -3.7999
  661TMC3    H1 9840   1.354   1.912  12.101  0.8538  0.9314  2.1884
  661TMC3    H2 9841   1.524   2.134  11.790  1.1694  1.8603  1.0865
  661TMC3    C7 9842   1.305   2.057  11.897 -0.7634  0.3244  0.1936
  661TMC3    C8 9843   1.770   2.042  11.818  0.1941  0.6428  0.3390
  661TMC3    O1 9844   1.276   2.169  11.874 -0.3815  0.1024  0.0233
  661TMC3    O2 9845   1.847   1.948  11.808  0.0329  0.4789  0.3840
  662MPD2     C 9846   1.556   1.493  17.006 -0.1236 -0.5222 -0.0630
  662MPD2    C1 9847   1.560   1.389  17.092 -0.2344 -0.2677  0.4072
  662MPD2    C2 9848   1.555   1.402  17.230 -0.3967  0.5519  0.3597
  662MPD2    C3 9849   1.545   1.531  17.285  0.1952 -0.1096  0.3365
  662MPD2    C4 9850   1.549   1.637  17.195  0.0413  0.0909  0.0207
  662MPD2    C5 9851   1.547   1.619  17.058 -0.3888  0.1848 -0.0343
  662MPD2     H 9852   1.565   1.314  17.294 -1.0041 -0.5835 -1.0976
  662MPD2    H1 9853   1.522   1.734  17.235 -1.6184 -0.3597 -0.0312
  662MPD2    H2 9854   1.576   1.480  16.900 -0.3013  1.3357 -0.3277
  662MPD2    H3 9855   1.538   1.707  16.994 -0.0850 -0.9450 -1.6121
  662MPD2     N 9856   1.531   1.563  17.424  0.5676 -0.5865 -0.0122
  662MPD2    H5 9857   1.500   1.657  17.444 -0.8159 -1.2925  1.1507
  662MPD2    N1 9858   1.568   1.266  17.026 -0.3068 -0.1343  0.1883
  662MPD2    H7 9859   1.565   1.272  16.925 -1.3073  1.5505  0.3360
  663TMC3    C1 9860   1.514   1.047  16.991  0.2323 -0.1873  0.0735
  663TMC3    C2 9861   1.391   1.010  17.036 -0.2766  0.2118  0.0615
  663TMC3    C3 9862   1.329   0.904  16.973  0.8101  0.2027 -0.4136
  663TMC3    C4 9863   1.590   0.967  16.922 -0.3883  0.7081  0.3308
  663TMC3    C5 9864   1.535   0.841  16.897 -0.3923  0.2823 -0.6043
  663TMC3    C6 9865   1.403   0.812  16.912 -0.6962 -0.1066  0.6884
  663TMC3     C 9866   1.575   1.144  17.079  0.1565  0.3067  0.2062
  663TMC3     O 9867   1.572   1.116  17.201 -0.3177  0.4353 -0.5543
  663TMC3     H 9868   1.326   1.082  17.086  0.5118  1.0353 -0.0934
  663TMC3    H1 9869   1.692   0.995  16.897 -0.8550  3.0545  1.0694
  663TMC3    H2 9870   1.354   0.738  16.850 -1.0205  0.1314  0.6589
  663TMC3    C7 9871   1.609   0.750  16.822  0.1673  1.3366 -0.5124
  663TMC3    C8 9872   1.234   0.845  17.059 -0.0992 -0.2254 -0.1759
  663TMC3    O1 9873   1.701   0.783  16.752 -0.5761  0.4961 -0.1388
  663TMC3    O2 9874   1.167   0.753  17.018 -0.7460  0.2385 -0.2366
  664MPD2     C 9875   4.735   3.693  17.657 -0.3261 -0.7021  0.4821
  664MPD2    C1 9876   0.041   3.827  17.691 -0.3145 -0.3785 -0.5393
  664MPD2    C2 9877   0.016   3.876   0.077 -0.3433  0.1003 -0.4227
  664MPD2    C3 9878   4.693   3.797   0.176  0.3188 -0.0625 -0.4566
  664MPD2    C4 9879   4.651   3.670   0.142 -1.0147 -0.0867 -0.3439
  664MPD2    C5 9880   4.689   3.618   0.019  0.3954 -0.3849 -0.0644
  664MPD2     H 9881   0.058   3.971   0.108  3.0147 -1.6881  0.4771
  664MPD2    H1 9882   4.610   3.607   0.221  0.9004 -1.4416 -0.4406
  664MPD2    H2 9883   0.026   3.652  17.560  0.8259  0.3877  0.3305
  664MPD2    H3 9884   4.664   3.516  17.735 -0.2838  0.9963 -4.5718
  664MPD2     N 9885   4.684   3.850   0.309  0.0914 -0.3568  0.1657
  664MPD2    H5 9886   4.715   3.947   0.315  0.3853 -0.3502 -1.5572
  664MPD2    N1 9887   0.103   3.926  17.609 -0.0739 -0.3584  0.1830
  664MPD2    H7 9888   0.130   4.012  17.657 -0.6718  0.6944 -1.3829
  665TMC3    C1 9889   4.668   3.864   0.547 -0.5094 -0.3952  0.0812
  665TMC3    C2 9890   4.690   3.798   0.670 -0.4591  0.6615  0.0032
  665TMC3    C3 9891   4.712   3.894   0.768  0.3736  0.1790 -0.3946
  665TMC3    C4 9892   4.665   4.001   0.526  0.1460 -0.1289 -0.0585
  665TMC3    C5 9893   4.706   4.081   0.628 -0.3507  0.6980  0.3002
  665TMC3    C6 9894   4.723   4.030   0.752  0.2359  0.4717  0.7543
  665TMC3     C 9895   4.667   3.781   0.425  0.7250  0.2737  0.7237
  665TMC3     O 9896   4.672   3.662   0.443 -0.5787  0.1295  0.1591
  665TMC3     H 9897   4.641   3.703   0.690 -0.0950  0.1801 -1.3512
  665TMC3    H1 9898   4.635   4.046   0.431  2.0431 -1.8250 -1.4497
  665TMC3    H2 9899   0.008   4.096   0.835 -0.8779  1.9000 -0.1020
  665TMC3    C7 9900   4.703   4.229   0.617  0.1987 -0.5772 -0.1387
  665TMC3    C8 9901   4.659   3.868   0.900  0.3341  0.1247 -0.4177
  665TMC3    O1 9902   4.631   4.280   0.533 -0.1034 -0.0993 -0.0281
  665TMC3    O2 9903   4.588   3.950   0.950  0.1805  0.2714  0.0878
  666TMC3    C1 9904   4.474   4.150  10.166  0.3720  0.5587 -0.4937
  666TMC3    C2 9905   4.601   4.116  10.132  0.6236 -0.0838 -0.1556
  666TMC3    C3 9906   4.682   4.222  10.092 -0.2012 -0.0726 -0.3250
  666TMC3    C4 9907   4.429   4.272  10.141 -0.7130  0.4388  0.1131
  666TMC3    C5 9908   4.510   4.373  10.097  0.2361 -0.0837 -0.4864
  666TMC3    C6 9909   4.641   4.356  10.076 -0.7940 -0.1806  0.1451
  666TMC3     C 9910   4.392   4.061  10.236 -0.3374  0.5830  0.9042
  666TMC3     O 9911   4.307   4.112  10.304  0.4485 -0.0483 -0.4926
  666TMC3     H 9912   4.640   4.016  10.149  0.6409 -0.1746 -0.7201
  666TMC3    H1 9913   4.324   4.297  10.147 -0.7313  0.4779 -0.3875
  666TMC3    H2 9914   4.697   4.448  10.067 -1.0951  0.1526  1.5909
  666TMC3    C7 9915   4.439   4.494  10.052  0.2939  0.0510 -0.6826
  666TMC3    C8 9916   0.079   4.193  10.117 -0.0162  0.5155 -1.0690
  666TMC3    O1 9917   4.325   4.509  10.082  0.4395  0.1493  0.0891
  666TMC3    O2 9918   0.098   4.089  10.183 -0.0702  0.1600 -0.2044
  667MPD2     C 9919   0.271   3.957  14.517 -0.0813 -0.6182  0.0629
  667MPD2    C1 9920   0.197   3.968  14.634 -0.2973  0.1441 -0.3597
  667MPD2    C2 9921   0.077   3.900  14.647  0.4115 -0.3558  0.0131
  667MPD2    C3 9922   0.024   3.829  14.537  0.4902 -0.1414  0.1428
  667MPD2    C4 9923   0.100   3.822  14.420  0.0348 -0.5654 -0.0988
  667MPD2    C5 9924   0.221   3.886  14.416 -0.3919  0.2445  0.3252
  667MPD2     H 9925   0.021   3.913  14.739 -2.1259  2.5196 -1.9145
  667MPD2    H1 9926   0.060   3.779  14.329 -0.0696  0.1264 -0.3795
  667MPD2    H2 9927   0.369   4.003  14.511 -0.9690  1.2169 -0.2037
  667MPD2    H3 9928   0.285   3.875  14.329 -1.2533  0.8328 -0.3680
  667MPD2     N 9929   4.635   3.762  14.545 -0.4506 -0.0624  0.7638
  667MPD2    H5 9930   4.604   3.711  14.464  0.7374 -0.3566  0.4950
  667MPD2    N1 9931   0.239   4.040  14.749  0.2271 -0.1330 -0.5084
  667MPD2    H7 9932   0.169   4.036  14.822  1.9373 -1.0487  1.0864
  668TMC3    C1 9933   0.373   4.149  14.903  0.5240 -0.0965  0.3170
  668TMC3    C2 9934   0.460   4.254  14.922 -0.5124 -0.8171  0.7863
  668TMC3    C3 9935   0.474   4.293  15.048 -0.2082  0.8780  0.4122
  668TMC3    C4 9936   0.308   4.080  14.997 -0.2723  0.2830  0.7637
  668TMC3    C5 9937   0.352   4.106  15.127  0.3792  0.3599  0.2901
  668TMC3    C6 9938   0.430   4.218  15.153 -1.2310 -0.5379  0.1409
  668TMC3     C 9939   0.354   4.107  14.761  0.6193 -0.3863  0.2571
  668TMC3     O 9940   0.439   4.143  14.683 -0.0689 -0.1005  0.0851
  668TMC3     H 9941   0.494   4.309  14.834  0.3428  1.3660  2.4920
  668TMC3    H1 9942   0.252   3.989  14.978 -1.0143  1.0397 -0.6151
  668TMC3    H2 9943   0.468   4.249  15.250 -0.6740 -1.0116  0.0739
  668TMC3    C7 9944   0.371   4.003  15.238 -0.2706 -0.3756 -0.0927
  668TMC3    C8 9945   0.542   4.419  15.079  0.1730 -0.1992  0.0511
  668TMC3    O1 9946   0.448   4.040  15.326  0.7209 -0.2147 -0.1263
  668TMC3    O2 9947   0.560   4.445  15.200  0.1754  0.1613 -0.1816
  669TMC3    C1 9948   3.371   3.410  14.603  0.5723 -0.6801  0.2998
  669TMC3    C2 9949   3.257   3.435  14.529  0.4589  0.7668 -0.1315
  669TMC3    C3 9950   3.270   3.523  14.423  0.1511 -0.2038 -0.7858
  669TMC3    C4 9951   3.489   3.481  14.585 -0.5380  0.3575 -0.1396
  669TMC3    C5 9952   3.485   3.573  14.485  0.1425  0.3954  0.1790
  669TMC3    C6 9953   3.385   3.585  14.393 -0.8548 -0.4558 -0.3811
  669TMC3     C 9954   3.366   3.318  14.719 -0.1716  0.3573 -0.0838
  669TMC3     O 9955   3.258   3.315  14.780  0.1963  0.5851  0.5172
  669TMC3     H 9956   3.163   3.387  14.553  0.4752  1.2624  0.9414
  669TMC3    H1 9957   3.587   3.461  14.627  0.2632  1.5940 -1.3891
  669TMC3    H2 9958   3.393   3.662  14.317 -1.7783 -0.6889 -0.7092
  669TMC3    C7 9959   3.580   3.684  14.500  0.9157 -0.2016 -0.2697
  669TMC3    C8 9960   3.152   3.563  14.350  0.1543 -0.0958  0.3793
  669TMC3    O1 9961   3.601   3.761  14.408 -0.0689  0.1583 -0.0422
  669TMC3    O2 9962   3.157   3.597  14.234 -0.2804  0.0238  0.0293
  670MPD2     C 9963   1.807   1.814  13.885 -0.0883 -0.0287  0.2858
  670MPD2    C1 9964   1.836   1.697  13.824  0.0062  0.3514 -0.8369
  670MPD2    C2 9965   1.796   1.570  13.881 -0.2329  0.0554 -0.1912
  670MPD2    C3 9966   1.730   1.571  14.000  0.5907 -0.4157 -0.6672
  670MPD2    C4 9967   1.689   1.693  14.058  0.3788 -0.0587  0.3342
  670MPD2    C5 9968   1.729   1.814  14.001 -0.2606 -0.0762  0.2051
  670MPD2     H 9969   1.816   1.481  13.822  0.8432  0.2015 -0.0459
  670MPD2    H1 9970   1.633   1.693  14.151 -1.5110 -1.6094 -0.7934
  670MPD2    H2 9971   1.844   1.909  13.849 -0.9886  0.1953 -0.0430
  670MPD2    H3 9972   1.715   1.904  14.061  0.7808 -1.6002  2.7212
  670MPD2     N 9973   1.708   1.445  14.055  0.3723  0.0311  0.9621
  670MPD2    H5 9974   1.717   1.364  13.994  1.8866 -0.5985  2.0262
  670MPD2    N1 9975   1.924   1.712  13.715 -0.1577  0.5415 -0.4755
  670MPD2    H7 9976   1.947   1.809  13.692  0.2761  0.4524 -0.4167
  671TMC3    C1 9977   1.624   1.290  14.204  0.4212  0.0241  0.3008
  671TMC3    C2 9978   1.711   1.231  14.292  0.0265 -0.6056  0.1399
  671TMC3    C3 9979   1.726   1.098  14.265  0.7508  0.3682  0.5723
  671TMC3    C4 9980   1.544   1.222  14.117  0.3512 -0.1356  0.2197
  671TMC3    C5 9981   1.550   1.081  14.121  0.5942 -0.0535 -1.0030
  671TMC3    C6 9982   1.646   1.016  14.189  0.0863  0.4429 -0.8970
  671TMC3     C 9983   1.657   1.428  14.182  0.6279  0.2248  0.0801
  671TMC3     O 9984   1.678   1.493  14.286 -0.3090 -0.3509  0.2384
  671TMC3     H 9985   1.798   1.288  14.324 -0.1122 -1.1174  1.4104
  671TMC3    H1 9986   1.468   1.269  14.056 -0.0661  0.4303  1.1704
  671TMC3    H2 9987   1.651   0.908  14.181  0.3584  0.4946 -1.5134
  671TMC3    C7 9988   1.453   1.008  14.044  0.6591 -0.4840  0.8900
  671TMC3    C8 9989   1.865   1.061  14.286 -0.2744  0.2917 -0.3643
  671TMC3    O1 9990   1.488   0.910  13.981 -0.0878 -0.3609  0.2746
  671TMC3    O2 9991   1.923   1.113  14.384 -0.0781  0.0479 -0.4094
  672MPD2     C 9992   2.031   2.581   0.686 -0.2381 -0.5198 -0.6903
  672MPD2    C1 9993   2.123   2.482   0.651  0.5126  0.1338  0.2247
  672MPD2    C2 9994   2.248   2.490   0.706 -0.2876 -0.4942 -0.0755
  672MPD2    C3 9995   2.289   2.596   0.784 -0.3820 -0.6192  0.6080
  672MPD2    C4 9996   2.201   2.699   0.810  0.7979  0.4605 -0.0539
  672MPD2    C5 9997   2.073   2.695   0.760 -0.0796 -0.6306 -0.3527
  672MPD2     H 9998   2.319   2.408   0.695 -1.0630 -1.1158 -0.4493
  672MPD2    H1 9999   2.240   2.792   0.850 -1.2430  1.2989 -0.0436
  672MPD2    H210000   1.931   2.577   0.645 -1.1733  1.4464  1.3875
  672MPD2    H310001   2.008   2.781   0.768 -0.2830 -0.9880  1.7019
  672MPD2     N10002   2.420   2.604   0.839  0.0709  0.3607 -0.0397
  672MPD2    H510003   2.434   2.684   0.901 -0.5731  1.0190 -0.7518
  672MPD2    N110004   2.081   2.377   0.569 -0.2814 -0.3350 -0.0810
  672MPD2    H710005   1.986   2.393   0.535  0.3213  0.7165 -1.2720
  673TMC3    C110006   2.087   2.169   0.445 -0.3099  0.5233  1.0150
  673TMC3    C210007   2.158   2.051   0.440  0.3986 -1.0450 -0.5754
  673TMC3    C310008   2.087   1.945   0.390  0.1678 -0.5944 -0.3817
  673TMC3    C410009   1.960   2.181   0.402 -0.5333 -0.3728 -0.1454
  673TMC3    C510010   1.899   2.071   0.353  0.5125 -0.1641 -0.2191
  673TMC3    C610011   1.958   1.954   0.349 -0.0205  0.0221  0.0932
  673TMC3     C10012   2.153   2.276   0.516  0.5579  0.3582  0.4440
  673TMC3     O10013   2.272   2.254   0.535  0.4434  0.3657 -0.2251
  673TMC3     H10014   2.257   2.041   0.484 -0.1169 -0.5891  0.7030
  673TMC3    H110015   1.915   2.279   0.412  0.8023  0.1258  1.0821
  673TMC3    H210016   1.897   1.869   0.322  0.1501  0.5187 -1.8050
  673TMC3    C710017   1.759   2.076   0.304 -0.2093  0.3557  0.0872
  673TMC3    C810018   2.148   1.812   0.371 -0.5620  0.3228 -0.1180
  673TMC3    O110019   1.711   1.970   0.259 -0.1630 -0.2011 -0.1766
  673TMC3    O210020   2.087   1.728   0.303  0.0971  0.4579  0.0329
  674MPD2     C10021   1.800   2.306   0.013  0.4048  0.0192  0.0079
  674MPD2    C110022   1.704   2.237  17.682  0.4500 -0.1168  0.2185
  674MPD2    C210023   1.583   2.295  17.643 -0.2244 -0.1513  0.5970
  674MPD2    C310024   1.560   2.430  17.678 -0.0660  0.2308  0.4084
  674MPD2    C410025   1.662   2.497   0.003 -0.6917  0.2990  0.0190
  674MPD2    C510026   1.774   2.435   0.051 -0.3320  0.0239 -0.3356
  674MPD2     H10027   1.504   2.242  17.591 -0.7715 -0.2308  1.5064
  674MPD2    H110028   1.648   2.602   0.027 -1.7982  0.1710 -0.0734
  674MPD2    H210029   1.897   2.260   0.030  0.4188  0.1070  0.1706
  674MPD2    H310030   1.837   2.489   0.121 -2.5440  1.0595  0.8611
  674MPD2     N10031   1.437   2.489  17.644 -0.2273  0.0749 -0.3675
  674MPD2    H510032   1.362   2.426  17.615 -0.2401 -0.0724 -0.0065
  674MPD2    N110033   1.741   2.100  17.658  0.2066  0.3168  0.5914
  674MPD2    H710034   1.823   2.074  17.712  2.3787  2.0223 -1.8207
  675TMC3    C110035   1.754   1.891  17.582  0.0523 -0.2327  0.0289
  675TMC3    C210036   1.747   1.833  17.704 -0.0915  0.4987 -0.2306
  675TMC3    C310037   1.794   1.707  17.720 -0.7518  0.1858  0.0388
  675TMC3    C410038   1.837   1.840  17.482 -0.8767 -0.3794 -0.6149
  675TMC3    C510039   1.884   1.717  17.504 -0.4913  0.0147  0.0669
  675TMC3    C610040   1.863   1.647  17.617 -0.1118 -0.3672 -0.1531
  675TMC3     C10041   1.696   2.019  17.557 -0.0024  0.4100  0.1511
  675TMC3     O10042   1.632   2.052  17.461  0.2097  0.6105  0.4984
  675TMC3     H10043   1.704   1.881   0.047 -0.3259 -1.1261  0.5588
  675TMC3    H110044   1.844   1.898  17.391 -0.6743  0.6924  0.0810
  675TMC3    H210045   1.910   1.552  17.641  0.3944 -0.3480 -1.0822
  675TMC3    C710046   1.982   1.671  17.405  0.0372 -0.0353  0.3568
  675TMC3    C810047   1.743   1.624   0.085 -0.3326 -0.1176  0.6715
  675TMC3    O110048   1.977   1.715  17.291 -0.2499  0.0718 -0.4116
  675TMC3    O210049   1.735   1.501   0.066  0.2930 -0.0829 -0.6378
  676MPD2     C10050   0.092   0.804  10.780  0.0567 -0.6281 -0.1007
  676MPD2    C110051   0.011   0.711  10.847  0.0824 -0.4716  0.7083
  676MPD2    C210052   0.041   0.578  10.833 -0.7569 -0.0238  0.0271
  676MPD2    C310053   0.138   0.535  10.750 -0.6494 -0.1830 -0.0980
  676MPD2    C410054   0.200   0.622  10.670 -0.1836 -0.0340 -0.3675
  676MPD2    C510055   0.180   0.759  10.683  0.1723  0.1529  0.4116
  676MPD2     H10056   4.730   0.513  10.905 -2.8448 -0.0163 -1.3309
  676MPD2    H110057   0.281   0.595  10.603  0.2220 -0.8649  0.4547
  676MPD2    H210058   0.055   0.905  10.785  0.2718 -0.6491  1.8261
  676MPD2    H310059   0.241   0.826  10.623 -0.0793  1.1084  1.2168
  676MPD2     N10060   0.169   0.397  10.737 -0.1823 -0.1575  0.7292
  676MPD2    H510061   0.226   0.386  10.654 -0.8083  0.4792  0.2040
  676MPD2    N110062   4.651   0.757  10.936 -0.6968  0.4825 -0.0920
  676MPD2    H710063   4.653   0.856  10.957  1.4082  0.6540 -1.0962
  677TMC3    C110064   4.455   0.752  11.072  0.4220  0.3114  0.1310
  677TMC3    C210065   4.333   0.686  11.087 -0.3584  0.3142  0.6719
  677TMC3    C310066   4.266   0.705  11.207  0.1859  0.6353 -0.3654
  677TMC3    C410067   4.505   0.837  11.168 -0.0103  0.0880 -0.1639
  677TMC3    C510068   4.428   0.862  11.277 -0.0480  0.5579  0.4091
  677TMC3    C610069   4.313   0.793  11.300  0.4485  0.2407  0.3112
  677TMC3     C10070   4.540   0.684  10.977  0.1953 -0.1562  0.4461
  677TMC3     O10071   4.491   0.587  10.916  0.0906  0.4570 -0.1724
  677TMC3     H10072   4.302   0.609  11.017 -0.2060 -0.0415  0.9987
  677TMC3    H110073   4.611   0.861  11.164  0.3147 -1.2247  0.4692
  677TMC3    H210074   4.245   0.815  11.382  0.0016 -1.9521  0.5373
  677TMC3    C710075   4.493   0.913  11.396 -0.3932 -0.3656 -0.6799
  677TMC3    C810076   4.151   0.625  11.234  0.0733  0.0647 -0.2082
  677TMC3    O110077   4.452   0.876  11.503 -0.2342 -0.2737  0.2405
  677TMC3    O210078   4.064   0.624  11.148  0.0078  0.1286  0.7136
  678MPD2     C10079   1.216   0.385   1.155 -0.0600 -0.2583  0.0569
  678MPD2    C110080   1.200   0.418   1.023 -0.5934  0.6221  0.6499
  678MPD2    C210081   1.070   0.448   0.978 -0.0292  0.3545 -0.3103
  678MPD2    C310082   0.967   0.456   1.071  0.3741 -0.1653  0.2590
  678MPD2    C410083   0.988   0.432   1.206 -0.3096  0.2647  0.1188
  678MPD2    C510084   1.115   0.398   1.244 -0.7046 -0.1148  0.3975
  678MPD2     H10085   1.059   0.468   0.872 -0.9036  0.7344 -0.1442
  678MPD2    H110086   0.902   0.436   1.272  0.4965 -1.8576  1.3275
  678MPD2    H210087   1.312   0.363   1.202 -1.5722 -2.8765  1.9204
  678MPD2    H310088   1.137   0.371   1.347 -1.4622 -2.1638  0.0351
  678MPD2     N10089   0.838   0.500   1.020  0.2651  0.5075 -0.0612
  678MPD2    H510090   0.835   0.516   0.920 -1.0681 -1.2797 -0.3232
  678MPD2    N110091   1.293   0.406   0.918  0.5292 -0.5232  0.3186
  678MPD2    H710092   1.259   0.426   0.825 -2.4309 -0.9971  1.3234
  679TMC3    C110093   1.684   0.290   0.675  0.1897  0.1678 -0.5545
  679TMC3    C210094   1.577   0.268   0.765  0.0089 -0.0433 -0.5999
  679TMC3    C310095   1.508   0.369   0.810 -0.5072 -0.0526  0.0001
  679TMC3    C410096   1.700   0.413   0.614 -0.1889  0.3311  0.2561
  679TMC3    C510097   1.606   0.509   0.649 -0.3557 -0.2741  0.0531
  679TMC3    C610098   1.509   0.488   0.743  0.3665  0.7086 -0.7524
  679TMC3     C10099   1.764   0.169   0.642 -0.3710 -0.1693  0.1365
  679TMC3     O10100   1.723   0.049   0.648  0.2277  0.5682 -0.1199
  679TMC3     H10101   1.569   0.166   0.802  0.8763 -0.4562 -1.5259
  679TMC3    H110102   1.756   0.410   0.522 -0.3037  2.8709  0.0963
  679TMC3    H210103   1.441   0.566   0.773 -0.1256  0.5990 -1.5763
  679TMC3    C710104   1.613   0.642   0.596 -0.0981  0.3767  0.0372
  679TMC3    C810105   1.417   0.346   0.929  0.1086  0.6636  0.0442
  679TMC3    O110106   1.526   0.717   0.621 -0.3016 -0.0392  0.4740
  679TMC3    O210107   1.453   0.266   1.013 -0.4631  0.2649 -0.5678
  680MPD2     C10108   1.509   4.097  13.371  0.0791 -0.1782  0.3848
  680MPD2    C110109   1.538   4.014  13.481  0.3425 -0.6455 -0.3363
  680MPD2    C210110   1.588   4.068  13.600  0.6941  0.3197  0.4384
  680MPD2    C310111   1.611   4.204  13.598 -0.2232 -0.3781  0.2909
  680MPD2    C410112   1.577   4.286  13.497 -0.6072 -0.0448  0.5946
  680MPD2    C510113   1.525   4.233  13.385 -0.2180  0.0356 -0.0230
  680MPD2     H10114   1.608   4.000  13.682 -0.5581 -2.9271 -1.9178
  680MPD2    H110115   1.607   4.390  13.504 -0.5064  0.0875 -1.9387
  680MPD2    H210116   1.470   4.056  13.279  0.7385  1.2310 -0.5279
  680MPD2    H310117   1.492   4.302  13.308  0.1991  0.9318  0.6065
  680MPD2     N10118   1.677   4.279  13.702  0.1202  0.2922  0.2238
  680MPD2    H510119   1.666   4.379  13.696 -0.4659  0.2463  0.6033
  680MPD2    N110120   1.528   3.874  13.473 -0.4299 -0.1649  0.1362
  680MPD2    H710121   1.542   3.821  13.559  1.0813  2.9220  1.8068
  681TMC3    C110122   1.498   3.664  13.376  0.2718 -0.8661 -0.1337
  681TMC3    C210123   1.425   3.619  13.483  0.2459 -0.1723  0.1750
  681TMC3    C310124   1.399   3.492  13.478  0.1161 -0.8755  0.3024
  681TMC3    C410125   1.541   3.582  13.273 -0.1507  0.2443  0.5468
  681TMC3    C510126   1.506   3.452  13.282  0.4525 -0.3294 -0.4397
  681TMC3    C610127   1.427   3.406  13.380 -0.4161 -0.1965 -0.1976
  681TMC3     C10128   1.509   3.803  13.354  0.4005  0.2101  0.2321
  681TMC3     O10129   1.506   3.841  13.234 -0.1726  0.8811 -0.8398
  681TMC3     H10130   1.367   3.684  13.548 -1.2727  0.4158 -1.7894
  681TMC3    H110131   1.587   3.627  13.186  0.5565 -0.5670  0.5010
  681TMC3    H210132   1.399   3.301  13.379 -0.9094 -0.0595 -0.6999
  681TMC3    C710133   1.510   3.375  13.155 -0.1904  0.3163  0.4370
  681TMC3    C810134   1.334   3.437  13.598 -0.5277  0.6099  0.5565
  681TMC3    O110135   1.444   3.274  13.154 -0.5047  0.2756  0.5594
  681TMC3    O210136   1.265   3.339  13.585 -0.0152  0.2509 -0.3626
  682MPD2     C10137   3.773   0.820  10.380 -0.1543  0.2174 -0.3824
  682MPD2    C110138   3.791   0.697  10.443 -0.3263 -0.7053  0.2970
  682MPD2    C210139   3.767   0.689  10.576 -0.5906  0.2639 -0.3241
  682MPD2    C310140   3.729   0.801  10.653 -0.2873  0.2690  0.9070
  682MPD2    C410141   3.714   0.922  10.597 -0.6086 -0.3362 -0.1312
  682MPD2    C510142   3.740   0.927  10.463  0.3668 -0.4395  0.5660
  682MPD2     H10143   3.792   0.590  10.613 -1.2756 -1.2049 -3.7538
  682MPD2    H110144   3.673   1.012  10.641 -2.8326 -2.1094  1.3917
  682MPD2    H210145   3.785   0.832  10.273  3.5666  1.2207  0.1412
  682MPD2    H310146   3.738   1.026  10.420 -1.5590 -0.8587 -0.3311
  682MPD2     N10147   3.714   0.789  10.793  0.3322  0.3592  0.2150
  682MPD2    H510148   3.705   0.873  10.850  0.9567  0.9406 -0.5354
  682MPD2    N110149   3.820   0.580  10.366 -0.1556  0.0909  0.8240
  682MPD2    H710150   3.817   0.490  10.413  2.8933 -0.3706  0.0979
  683TMC3    C110151   3.751   0.758  11.204 -0.3893 -0.1368  0.3635
  683TMC3    C210152   3.674   0.666  11.268 -0.7742 -0.5663  0.3619
  683TMC3    C310153   3.593   0.584  11.190  0.2142 -0.2602 -0.2353
  683TMC3    C410154   3.747   0.770  11.068 -0.4837 -0.2089 -0.2704
  683TMC3    C510155   3.663   0.695  10.994  0.5178  0.4273 -0.0931
  683TMC3    C610156   3.589   0.597  11.052 -0.4083 -0.1113  0.3677
  683TMC3     C10157   3.809   0.865  11.277 -0.6364 -0.3151  0.5082
  683TMC3     O10158   3.771   0.982  11.257  1.0013 -0.2809 -0.4925
  683TMC3     H10159   3.694   0.640  11.371 -2.6240  0.5759  1.0092
  683TMC3    H110160   3.812   0.843  11.020 -0.3706 -2.1112 -3.0291
  683TMC3    H210161   3.514   0.548  10.991  0.1199 -0.7788  0.2533
  683TMC3    C710162   3.695   0.668  10.858  0.0614  0.4197 -0.2225
  683TMC3    C810163   3.493   0.500  11.253  0.1106 -0.1897 -0.7720
  683TMC3    O110164   3.674   0.555  10.818  0.1093  0.0438 -0.0522
  683TMC3    O210165   3.444   0.543  11.357 -0.8046  0.6705  0.2009
  684MPD2     C10166   1.602   4.152  16.054  0.3272  0.2184 -0.0003
  684MPD2    C110167   1.689   4.237  15.990  0.4144 -0.3980 -0.4902
  684MPD2    C210168   1.713   4.359  16.054 -0.3345  0.6674 -0.8674
  684MPD2    C310169   1.652   4.391  16.176 -0.5396 -0.0042 -0.2709
  684MPD2    C410170   1.571   4.295  16.231  0.8735  0.1072 -0.3667
  684MPD2    C510171   1.550   4.176  16.176  0.3715 -0.7274  0.1961
  684MPD2     H10172   1.767   4.441  16.006  0.8586 -0.1353 -0.8923
  684MPD2    H110173   1.510   4.323  16.316 -0.7798 -3.4663 -0.3890
  684MPD2    H210174   1.577   4.059  16.005 -2.5407  0.4010  1.1286
  684MPD2    H310175   1.474   4.113  16.221 -0.7135 -1.0170 -2.0595
  684MPD2     N10176   1.661   4.520  16.233 -0.1760  0.2391 -0.9658
  684MPD2    H510177   1.616   4.542  16.321  0.0303 -1.2687 -0.4947
  684MPD2    N110178   1.752   4.207  15.867  0.3202  0.2851 -0.3039
  684MPD2    H710179   1.817   4.278  15.835  1.4657 -0.8446 -0.4861
  685TMC3    C110180   1.779   4.141  15.649  0.2582  0.1818  0.5877
  685TMC3    C210181   1.689   4.184  15.557  0.1683  0.1424 -0.3694
  685TMC3    C310182   1.731   4.291  15.483 -0.3185  0.2373  0.3143
  685TMC3    C410183   1.907   4.183  15.652 -0.2116  0.2293 -0.4479
  685TMC3    C510184   1.953   4.278  15.563 -0.9581  0.2939 -0.2875
  685TMC3    C610185   1.859   4.340  15.483 -0.2963 -0.0279  0.1835
  685TMC3     C10186   1.717   4.114  15.777 -0.0017  0.0857  0.8841
  685TMC3     O10187   1.636   4.025  15.785 -0.5894  0.0449 -1.0340
  685TMC3     H10188   1.584   4.164  15.566 -0.1386  0.3727 -3.3184
  685TMC3    H110189   1.973   4.140  15.726  0.4998  1.6915 -0.2299
  685TMC3    H210190   1.864   4.436  15.434 -0.6119  0.5248  1.2276
  685TMC3    C710191   2.043   4.375  15.629 -0.4843  0.2630 -0.5334
  685TMC3    C810192   1.626   4.389  15.449  0.2007  0.0389  1.0823
  685TMC3    O110193   2.006   4.392  15.741 -0.0281 -0.1574  0.2410
  685TMC3    O210194   1.645   4.457  15.348  0.0508  0.0451 -0.0045
  686MPD2     C10195   3.219   3.938  15.482  0.5594  0.1674  0.0310
  686MPD2    C110196   3.110   3.883  15.542  0.8541  0.6657  0.6008
  686MPD2    C210197   3.072   3.760  15.502 -0.7642 -0.2700  0.0072
  686MPD2    C310198   3.155   3.684  15.420  1.0990  0.3722  0.5806
  686MPD2    C410199   3.282   3.738  15.383 -0.1589  0.3729 -0.5650
  686MPD2    C510200   3.312   3.870  15.407 -0.8626 -0.3334 -0.3704
  686MPD2     H10201   2.972   3.732  15.534 -0.8885  1.0397  0.7365
  686MPD2    H110202   3.346   3.673  15.324 -3.1404  0.1291 -3.5597
  686MPD2    H210203   3.229   4.043  15.505 -2.2535  0.2226  0.9173
  686MPD2    H310204   3.404   3.915  15.373 -1.7301  0.9184 -1.0826
  686MPD2     N10205   3.124   3.559  15.354 -0.5962  0.3290  0.4283
  686MPD2    H510206   3.183   3.534  15.276  2.3613  3.5315  1.6089
  686MPD2    N110207   3.048   3.954  15.644  0.1281 -0.0717 -0.4016
  686MPD2    H710208   3.096   4.040  15.664  0.7454 -0.0360 -2.0390
  687TMC3    C110209   2.929   3.501  15.484  0.4601  0.2662  0.8005
  687TMC3    C210210   2.802   3.557  15.475  0.1336  0.6240 -0.4823
  687TMC3    C310211   2.718   3.565  15.577 -1.1053  0.1998 -0.1077
  687TMC3    C410212   2.978   3.459  15.611 -0.7409 -0.3916  0.5101
  687TMC3    C510213   2.895   3.483  15.715  0.2565 -0.0932 -0.1931
  687TMC3    C610214   2.767   3.535  15.703  0.0192  0.4518 -0.8005
  687TMC3     C10215   3.006   3.480  15.362  0.0076  0.2359 -0.0097
  687TMC3     O10216   2.970   3.391  15.288 -0.1872 -0.1855  0.4037
  687TMC3     H10217   2.777   3.581  15.372  0.5538 -0.4877 -0.8453
  687TMC3    H110218   3.064   3.393  15.619 -0.0018  0.4979 -0.0301
  687TMC3    H210219   2.721   3.561  15.797  0.0252 -1.8745 -0.1638
  687TMC3    C710220   2.939   3.465  15.851  0.8106 -0.5413  0.6827
  687TMC3    C810221   2.637   3.690  15.576  0.9691 -0.5675 -0.5154
  687TMC3    O110222   2.864   3.442  15.946 -0.4028 -0.4235 -0.5240
  687TMC3    O210223   2.571   3.705  15.678  1.0010 -0.1493  0.4452
  688MPD2     C10224   2.185   3.241  17.172 -0.1835  0.4788 -0.0888
  688MPD2    C110225   2.220   3.119  17.225  0.2761  0.5621  0.0234
  688MPD2    C210226   2.330   3.046  17.181 -0.1075 -0.9053 -0.6127
  688MPD2    C310227   2.401   3.102  17.073 -0.1277 -0.1895  0.4493
  688MPD2    C410228   2.363   3.217  17.013  0.8469  0.5699  0.2550
  688MPD2    C510229   2.245   3.282  17.058 -0.8076  0.4812  0.1550
  688MPD2     H10230   2.351   2.949  17.226 -0.4346  0.0764  1.6516
  688MPD2    H110231   2.426   3.267  16.940 -0.3395  1.9068  0.1562
  688MPD2    H210232   2.096   3.292  17.206  0.0166  0.5913  0.2762
  688MPD2    H310233   2.227   3.380  17.016 -3.3737  0.8177  2.0283
  688MPD2     N10234   2.523   3.045  17.030 -0.3948  0.1960  0.0416
  688MPD2    H510235   2.561   3.093  16.949  3.9057 -1.1694  1.2456
  688MPD2    N110236   2.148   3.063  17.331  0.0793 -0.2536  0.6786
  688MPD2    H710237   2.175   2.972  17.366 -1.1686 -0.1854  1.8389
  689TMC3    C110238   2.017   3.056  17.531  0.0689  0.3130 -0.5075
  689TMC3    C210239   1.981   3.134  17.635  0.5225 -0.6998  0.2809
  689TMC3    C310240   1.955   3.070   0.007  0.0171 -0.2331  0.1186
  689TMC3    C410241   1.995   2.917  17.529 -0.2861  0.0128  0.5612
  689TMC3    C510242   1.963   2.859  17.651  0.0632  0.8215 -0.4190
  689TMC3    C610243   1.951   2.934   0.019  0.7348  0.2126  0.7288
  689TMC3     C10244   2.059   3.131  17.408  0.8397 -0.5784 -0.5595
  689TMC3     O10245   2.008   3.244  17.396 -0.5794 -0.2224 -0.5156
  689TMC3     H10246   1.978   3.241  17.615  1.5632 -0.6113  0.5670
  689TMC3    H110247   2.033   2.848  17.455 -0.1949  0.4727  0.1826
  689TMC3    H210248   1.941   2.882   0.113  0.9082 -1.2741 -0.0772
  689TMC3    C710249   1.990   2.714  17.666 -0.0732 -0.1730  0.4805
  689TMC3    C810250   1.988   3.144   0.133  0.0732 -0.4105 -0.3539
  689TMC3    O110251   2.032   2.672   0.032 -0.2916  0.0288  0.7728
  689TMC3    O210252   2.021   3.077   0.229 -0.3110 -0.1980  0.1668
  690MPD2     C10253   0.152   0.458  15.930  0.3611  0.1315  0.5736
  690MPD2    C110254   0.115   0.390  15.815  0.0976 -0.1981 -0.3460
  690MPD2    C210255   0.188   0.413  15.705  0.3476 -0.8033  0.1042
  690MPD2    C310256   0.285   0.511  15.693 -0.8768 -0.4531 -0.0957
  690MPD2    C410257   0.318   0.587  15.804 -0.0761 -0.0109 -0.6924
  690MPD2    C510258   0.253   0.550  15.920  0.4494  0.5533  0.2577
  690MPD2     H10259   0.151   0.376  15.610 -1.2556 -0.7861  0.7206
  690MPD2    H110260   0.405   0.652  15.810 -0.9060  0.9329  1.0363
  690MPD2    H210261   0.103   0.435  16.024 -3.0684  1.4961 -0.8769
  690MPD2    H310262   0.278   0.607  16.008  0.0817  0.2888  0.5320
  690MPD2     N10263   0.324   0.540  15.560  0.6471 -0.1450 -0.3913
  690MPD2    H510264   0.281   0.481  15.489  0.1681 -0.6364  0.3066
  690MPD2    N110265   0.017   0.288  15.802  0.3263 -0.1433 -0.0325
  690MPD2    H710266   0.013   0.241  15.713  0.9346 -0.9559  0.3591
  691TMC3    C110267   4.573   0.143  15.845  0.2109  0.9689  0.0922
  691TMC3    C210268   4.523   0.169  15.719  0.1748  0.0809 -0.0181
  691TMC3    C310269   4.423   0.088  15.676 -0.0433  0.4896 -0.2832
  691TMC3    C410270   4.524   0.037  15.925 -0.2277  0.4625 -0.3759
  691TMC3    C510271   4.428   4.695  15.871 -0.0201 -0.4612  0.3325
  691TMC3    C610272   4.376   4.707  15.741 -0.6694  0.0089 -0.3287
  691TMC3     C10273   4.672   0.234  15.897 -0.5573  0.3640  0.5558
  691TMC3     O10274   4.657   0.264  16.015  0.1086  0.2345  0.0958
  691TMC3     H10275   4.529   0.264  15.667  0.6508  0.9419  1.6126
  691TMC3    H110276   4.576   0.009  16.015  0.9163  0.2848 -1.0880
  691TMC3    H210277   4.323   4.636  15.678  0.0423 -0.4366 -0.4287
  691TMC3    C710278   4.392   4.573  15.952  0.7548  0.0753 -0.4381
  691TMC3    C810279   4.360   0.133  15.557  0.1203  0.2165 -0.2505
  691TMC3    O110280   4.469   4.540  16.041  0.3604 -0.1314 -0.3568
  691TMC3    O210281   4.429   0.187  15.468 -0.0909 -0.2086 -0.0943
  692TMC3    C110282   1.200   1.140  15.817  0.0992  0.6311  0.1058
  692TMC3    C210283   1.336   1.170  15.814  0.3928  0.0724  0.4715
  692TMC3    C310284   1.421   1.062  15.794  0.8874 -0.2804 -0.1157
  692TMC3    C410285   1.146   1.014  15.819  0.0609 -0.0334  0.0866
  692TMC3    C510286   1.231   0.916  15.802  0.0010 -0.0709  0.6398
  692TMC3    C610287   1.367   0.934  15.795  0.6336 -0.0239  0.5389
  692TMC3     C10288   1.119   1.243  15.881  0.5332  0.0774  0.5452
  692TMC3     O10289   1.183   1.324  15.945 -0.1547 -0.2474  0.2413
  692TMC3     H10290   1.364   1.270  15.785  0.4819  0.0859  0.6040
  692TMC3    H110291   1.039   1.000  15.829  0.0078  1.3484  1.4485
  692TMC3    H210292   1.431   0.851  15.768  1.5260  1.7883 -2.8451
  692TMC3    C710293   1.180   0.781  15.806 -0.2993  0.7537  0.6618
  692TMC3    C810294   1.536   1.067  15.877 -0.7791  0.2048  0.0597
  692TMC3    O110295   1.067   0.762  15.759 -0.0146  0.1334  0.3688
  692TMC3    O210296   1.601   0.966  15.883 -0.0271  0.0436  0.3466
  693MPD2     C10297   1.618   4.329  10.386  0.1932 -0.0602 -0.2455
  693MPD2    C110298   1.536   4.286  10.493  0.1006 -0.1748 -0.4559
  693MPD2    C210299   1.592   4.195  10.580  0.3864  0.0036  0.4333
  693MPD2    C310300   1.720   4.158  10.582  0.9893 -0.4456 -0.6209
  693MPD2    C410301   1.800   4.201  10.474  0.7469  0.7781 -0.3222
  693MPD2    C510302   1.750   4.289  10.386 -0.4138 -0.1475 -0.2417
  693MPD2     H10303   1.532   4.155  10.662  0.8597 -0.1579  0.6985
  693MPD2    H110304   1.903   4.169  10.461  0.7365  0.1031  1.2195
  693MPD2    H210305   1.591   4.411  10.320 -1.9913 -1.6014 -1.2820
  693MPD2    H310306   1.818   4.332  10.314 -1.0997 -0.6298 -1.1735
  693MPD2     N10307   1.782   4.074  10.677 -0.0985  0.0277  0.7906
  693MPD2    H510308   1.883   4.064  10.668  0.1642  1.0960  2.5832
  693MPD2    N110309   1.407   4.341  10.500 -0.0558 -0.2504  0.0511
  693MPD2    H710310   1.387   4.406  10.425  1.1396 -1.4615 -1.3100
  694TMC3    C110311   1.206   4.415  10.576  0.2397  0.3184 -1.1097
  694TMC3    C210312   1.145   4.411  10.452 -0.0520 -0.0906  0.2336
  694TMC3    C310313   1.010   4.415  10.451 -0.0546 -0.4553 -0.2084
  694TMC3    C410314   1.136   4.435  10.687 -0.0657  0.1889 -0.2218
  694TMC3    C510315   1.003   4.460  10.678  0.2988  0.6707  0.1404
  694TMC3    C610316   0.939   4.451  10.562  0.2389  1.0374  0.1452
  694TMC3     C10317   1.327   4.335  10.609 -0.5230  0.2004  0.4623
  694TMC3     O10318   1.349   4.282  10.722 -0.3776 -0.1155  0.2883
  694TMC3     H10319   1.202   4.370  10.369  0.5696 -0.3742  0.7956
  694TMC3    H110320   1.175   4.425  10.787  1.7754  1.7283 -0.7864
  694TMC3    H210321   0.831   4.452  10.555  0.1610 -1.9374  0.7146
  694TMC3    C710322   0.928   4.406  10.792  0.2835 -0.0298 -0.8553
  694TMC3    C810323   0.935   4.337  10.347  0.5224 -0.5192 -0.2817
  694TMC3    O110324   0.852   4.313  10.780 -0.0472 -0.2781  0.8641
  694TMC3    O210325   0.831   4.276  10.376 -0.4664 -0.0669  0.1036
  695MPD2     C10326   2.160   1.315  13.170 -0.2022  0.3149 -0.1904
  695MPD2    C110327   2.122   1.247  13.285 -0.0420  0.1425  0.4153
  695MPD2    C210328   1.993   1.256  13.330 -0.8582  0.3233  0.0011
  695MPD2    C310329   1.899   1.325  13.257  0.2185  0.2708  0.3534
  695MPD2    C410330   1.936   1.390  13.144  0.4003 -0.3421 -0.1692
  695MPD2    C510331   2.064   1.392  13.107 -0.4525  0.4641 -0.2009
  695MPD2     H10332   1.960   1.207  13.420 -0.3835 -0.2589 -0.1366
  695MPD2    H110333   1.868   1.453  13.087 -0.0168  0.7171  1.4843
  695MPD2    H210334   2.258   1.319  13.124  0.4378 -1.3156  1.0449
  695MPD2    H310335   2.100   1.446  13.021 -0.1110  1.1237  0.3508
  695MPD2     N10336   1.764   1.324  13.304 -0.1939 -0.2598 -0.2602
  695MPD2    H510337   1.746   1.279  13.393 -1.8089  0.6274 -0.1404
  695MPD2    N110338   2.205   1.167  13.366  0.6486  0.2188 -0.2036
  695MPD2    H710339   2.164   1.133  13.452  0.3141 -2.8549 -1.5882
  696TMC3    C110340   1.533   1.344  13.318 -0.4520 -0.2584 -0.0285
  696TMC3    C210341   1.539   1.222  13.376  0.1535 -0.3847  0.6368
  696TMC3    C310342   1.428   1.148  13.374 -0.1520  0.1142  0.7761
  696TMC3    C410343   1.417   1.412  13.287 -0.1131 -0.7674  0.3395
  696TMC3    C510344   1.303   1.334  13.280  0.2621 -0.5587 -0.6941
  696TMC3    C610345   1.315   1.204  13.319 -0.0088  0.5362  0.0826
  696TMC3     C10346   1.655   1.383  13.249  0.3212 -0.3361 -0.0937
  696TMC3     O10347   1.647   1.454  13.151  0.1377  0.1149 -0.3833
  696TMC3     H10348   1.625   1.161  13.398  0.6640  1.4316  3.6251
  696TMC3    H110349   1.418   1.518  13.265 -5.5793 -0.8227 -0.1898
  696TMC3    H210350   1.231   1.135  13.312  0.7214 -0.4008  0.5179
  696TMC3    C710351   1.196   1.382  13.372 -0.4117  0.5666 -0.1551
  696TMC3    C810352   1.418   1.105  13.515 -0.4062  0.3507  0.9657
  696TMC3    O110353   1.106   1.304  13.376  0.5280 -0.5433 -0.3197
  696TMC3    O210354   1.515   1.053  13.566 -0.1390  0.3718  0.4601
  697MPD2     C10355   1.226   2.836  15.392  0.1568 -0.0249 -1.4042
  697MPD2    C110356   1.153   2.781  15.291  0.4494 -0.3777 -0.3758
  697MPD2    C210357   1.099   2.860  15.189 -0.1214  0.5382 -1.1367
  697MPD2    C310358   1.133   2.993  15.180  0.3985  0.9152 -0.1121
  697MPD2    C410359   1.205   3.043  15.287 -0.4503 -0.2410 -0.4078
  697MPD2    C510360   1.251   2.974  15.387 -0.0744  0.5936  0.2884
  697MPD2     H10361   1.033   2.813  15.117 -0.7957 -0.5092  0.1663
  697MPD2    H110362   1.224   3.148  15.306  2.0897 -0.7154 -0.3150
  697MPD2    H210363   1.259   2.793  15.486 -1.1532  0.6855 -0.6141
  697MPD2    H310364   1.305   3.026  15.464  1.3607 -2.5226  1.3875
  697MPD2     N10365   1.078   3.076  15.082  0.0848 -0.7396  0.0529
  697MPD2    H510366   1.022   3.038  15.006  1.1125 -0.3044 -0.9249
  697MPD2    N110367   1.115   2.645  15.298  0.7469 -0.1701  0.1814
  697MPD2    H710368   1.057   2.608  15.223  1.3763  0.0135 -0.3969
  698TMC3    C110369   1.007   3.272  14.972 -0.4120  0.1230 -0.4719
  698TMC3    C210370   1.001   3.408  14.972 -0.4004 -0.2596 -0.3205
  698TMC3    C310371   0.932   3.471  14.870 -0.3849 -0.3662  0.4728
  698TMC3    C410372   0.961   3.198  14.860  0.1257 -0.0792 -0.4854
  698TMC3    C510373   0.888   3.263  14.767 -0.2921  0.3880  0.5702
  698TMC3    C610374   0.868   3.403  14.768 -0.3516  0.0423  0.3178
  698TMC3     C10375   1.083   3.215  15.087 -0.1534  0.2403 -0.1910
  698TMC3     O10376   1.137   3.293  15.167  0.1714  0.1114  0.3380
  698TMC3     H10377   1.048   3.468  15.049 -0.3579 -1.5693  0.6883
  698TMC3    H110378   0.983   3.092  14.860  0.7038  0.0422  0.9915
  698TMC3    H210379   0.798   3.446  14.697  1.9845  3.2091 -0.0722
  698TMC3    C710380   0.821   3.193  14.660 -0.2050 -0.8660  0.1057
  698TMC3    C810381   0.938   3.617  14.853 -0.8102  0.2578 -0.1596
  698TMC3    O110382   0.783   3.259  14.562 -0.0055 -0.3080  0.2150
  698TMC3    O210383   0.840   3.676  14.805  0.2294  0.4432 -0.2376
  699TMC3    C110384   1.389   1.456  12.727  0.4519 -0.1291  0.5382
  699TMC3    C210385   1.441   1.336  12.762 -0.7920  0.5589 -0.8080
  699TMC3    C310386   1.356   1.265  12.840 -0.9079 -0.2321 -0.2005
  699TMC3    C410387   1.275   1.508  12.779 -0.3721 -0.4090  0.9325
  699TMC3    C510388   1.197   1.425  12.848 -0.8587 -0.0740  0.8321
  699TMC3    C610389   1.234   1.304  12.882  0.4779  0.1935 -0.1052
  699TMC3     C10390   1.460   1.531  12.633  0.6526  0.1436 -0.0590
  699TMC3     O10391   1.411   1.633  12.595 -0.0086 -0.3091 -0.5564
  699TMC3     H10392   1.524   1.284  12.715 -1.1640 -1.9326  1.2780
  699TMC3    H110393   1.240   1.609  12.760  2.1403  0.0344 -1.3504
  699TMC3    H210394   1.171   1.243  12.945  0.1594 -0.0678 -0.6746
  699TMC3    C710395   1.086   1.459  12.926  0.2007 -0.4432  0.3686
  699TMC3    C810396   1.411   1.155  12.924 -0.9138  0.4036 -0.2700
  699TMC3    O110397   1.000   1.368  12.920 -0.2884 -0.5097  0.0278
  699TMC3    O210398   1.328   1.074  12.968 -0.0233  0.0936  0.3175
  700TMC3    C110399   0.478   3.257  17.130 -0.0521 -0.0122 -0.2561
  700TMC3    C210400   0.591   3.196  17.081  0.4195  0.3463  0.4732
  700TMC3    C310401   0.699   3.193  17.161  0.0346  0.1635 -1.0427
  700TMC3    C410402   0.467   3.322  17.248  0.5680 -0.0088  0.4938
  700TMC3    C510403   0.579   3.311  17.322 -0.6075  0.6386  0.4436
  700TMC3    C610404   0.700   3.254  17.280 -0.2755  0.7337 -0.5816
  700TMC3     C10405   0.387   3.310  17.039  0.3215 -0.0975 -0.4978
  700TMC3     O10406   0.264   3.294  17.051 -0.8227  0.2953  0.4962
  700TMC3     H10407   0.589   3.163  16.978  0.3403  1.9967 -0.0475
  700TMC3    H110408   0.377   3.375  17.276  0.3345 -0.3389  0.3750
  700TMC3    H210409   0.783   3.239  17.348 -0.7948  1.2129  0.1631
  700TMC3    C710410   0.584   3.391  17.441 -0.1469 -0.1773 -0.4886
  700TMC3    C810411   0.818   3.142  17.093  0.2032  0.5433  0.7428
  700TMC3    O110412   0.696   3.397  17.485 -0.3607 -0.2095  0.0106
  700TMC3    O210413   0.807   3.083  16.991  0.8104 -0.2430  0.1177
  701TMC3    C110414   0.585   2.203  15.629 -0.4527  0.1281 -0.1677
  701TMC3    C210415   0.613   2.157  15.503  0.1157  0.4795  0.5956
  701TMC3    C310416   0.686   2.242  15.433 -0.0442 -0.0498 -0.2899
  701TMC3    C410417   0.625   2.320  15.686  0.2220  0.7939  0.0496
  701TMC3    C510418   0.700   2.399  15.608  0.1269  0.4701 -0.5374
  701TMC3    C610419   0.733   2.363  15.479 -1.0409  0.3449 -0.0660
  701TMC3     C10420   0.496   2.125  15.717  0.2880 -0.2121 -0.1192
  701TMC3     O10421   0.413   2.189  15.781  0.4853  0.7384 -0.5944
  701TMC3     H10422   0.564   2.073  15.456  0.1882 -0.1555  1.6578
  701TMC3    H110423   0.598   2.347  15.788  0.9385 -0.4894  0.5737
  701TMC3    H210424   0.811   2.409  15.420 -2.5613  0.0983 -2.2474
  701TMC3    C710425   0.782   2.489  15.686 -0.6180  0.2044  0.1309
  701TMC3    C810426   0.723   2.212  15.296 -0.3736 -0.1350 -0.2415
  701TMC3    O110427   0.829   2.584  15.629 -0.0701 -0.1904  0.6489
  701TMC3    O210428   0.832   2.237  15.250  0.1044  0.0686  0.5748
  702MPD2     C10429   0.646   0.013  10.385 -0.7748 -0.1757 -0.2684
  702MPD2    C110430   0.542   0.099  10.402 -0.2303 -0.4187 -0.5151
  702MPD2    C210431   0.532   0.205  10.315 -0.4157 -1.0504 -0.7068
  702MPD2    C310432   0.628   0.245  10.231 -0.8565  0.6749  0.3318
  702MPD2    C410433   0.745   0.166  10.231  0.1694 -0.5642  0.0604
  702MPD2    C510434   0.746   0.042  10.295 -0.0159  0.5530 -0.2385
  702MPD2     H10435   0.453   0.277  10.332 -0.3159 -1.0400 -0.2889
  702MPD2    H110436   0.816   0.192  10.153 -0.9800  0.8342 -0.5103
  702MPD2    H210437   0.647   4.655  10.437  1.6411  0.8264  1.5413
  702MPD2    H310438   0.828   4.709  10.285  0.4799  0.8118  1.9852
  702MPD2     N10439   0.607   0.365  10.162  0.2791 -0.2835  0.4668
  702MPD2    H510440   0.520   0.413  10.180  1.2641  2.1644 -1.1693
  702MPD2    N110441   0.445   0.073  10.503 -0.2905  0.2308  0.1498
  702MPD2    H710442   0.361   0.131  10.496  2.1445  3.8118  0.7226
  703TMC3    C110443   0.659   0.573  10.063  0.1692 -0.3589  0.2622
  703TMC3    C210444   0.523   0.602  10.045  0.0779  0.2414  0.8881
  703TMC3    C310445   0.491   0.724  10.003 -0.3663  0.3801 -0.3336
  703TMC3    C410446   0.755   0.664  10.036  0.7686  0.0577  0.1320
  703TMC3    C510447   0.713   0.781   9.988 -0.8671 -0.3776 -0.7182
  703TMC3    C610448   0.587   0.819   9.975 -0.1709 -0.9269  0.6430
  703TMC3     C10449   0.708   0.448  10.110  0.1196  0.2701 -0.1409
  703TMC3     O10450   0.822   0.417  10.095 -0.4741  0.2128 -0.6717
  703TMC3     H10451   0.451   0.523  10.030  1.4947 -0.3132 -2.9656
  703TMC3    H110452   0.859   0.636  10.039  0.3368 -1.7155 -1.1446
  703TMC3    H210453   0.551   0.918   9.950  1.4974 -0.3474  0.6046
  703TMC3    C710454   0.821   0.873   9.955 -0.3939 -0.2849  0.3255
  703TMC3    C810455   0.360   0.767   9.962 -0.3286 -0.4571 -0.9564
  703TMC3    O110456   0.913   0.885  10.035  0.2245 -0.1334  0.6150
  703TMC3    O210457   0.348   0.835   9.862 -0.0233 -0.0220 -0.2329
  704TMC3    C110458   2.907   2.800  12.735  0.3549  0.2716  0.2525
  704TMC3    C210459   3.013   2.826  12.657  0.0202  0.3909  0.2837
  704TMC3    C310460   3.141   2.790  12.703  0.4312 -0.4394 -0.0624
  704TMC3    C410461   2.928   2.743  12.857 -0.3582  0.6071  0.0532
  704TMC3    C510462   3.053   2.711  12.898 -0.9645 -0.2158 -0.4353
  704TMC3    C610463   3.161   2.722  12.818 -0.3298  0.2126 -0.2860
  704TMC3     C10464   2.768   2.841  12.695 -0.0561 -0.2150 -0.3462
  704TMC3     O10465   2.684   2.784  12.761  0.2381  0.2290  0.1273
  704TMC3     H10466   3.004   2.856  12.554 -0.5822 -1.8654 -0.3176
  704TMC3    H110467   2.846   2.740  12.928 -1.5481  0.2215 -1.3319
  704TMC3    H210468   3.259   2.680  12.840 -0.8736 -1.7556 -1.5279
  704TMC3    C710469   3.059   2.635  13.017 -0.2587  0.1889  0.2805
  704TMC3    C810470   3.229   2.746  12.600  0.0615 -0.4274 -0.1267
  704TMC3    O110471   2.954   2.582  13.058  0.1059  0.0280 -0.1735
  704TMC3    O210472   3.266   2.824  12.511 -0.5353 -0.4196  0.4110
  705MPD2     C10473   1.609   0.615  16.345 -0.0884  0.4091 -0.2802
  705MPD2    C110474   1.651   0.734  16.397  0.1691 -0.1797 -0.8167
  705MPD2    C210475   1.564   0.827  16.452 -0.1897  0.1268 -0.3868
  705MPD2    C310476   1.430   0.787  16.466 -0.2452 -0.5066  0.3864
  705MPD2    C410477   1.382   0.668  16.412  0.2445 -0.5290 -0.4670
  705MPD2    C510478   1.475   0.593  16.344 -0.0408 -0.4781  0.3571
  705MPD2     H10479   1.602   0.915  16.501  1.2781 -1.5117  1.4197
  705MPD2    H110480   1.281   0.628  16.412 -0.1373  0.4394  0.7512
  705MPD2    H210481   1.674   0.539  16.304 -0.6944 -0.2830  0.0504
  705MPD2    H310482   1.441   0.503  16.293 -1.8064  0.0618  0.5805
  705MPD2     N10483   1.330   0.868  16.528  0.4842  0.8317  0.3366
  705MPD2    H510484   1.238   0.827  16.536 -0.5355  2.9699 -0.5330
  705MPD2    N110485   1.795   0.763  16.395 -1.0580 -0.0843 -0.1623
  705MPD2    H710486   1.815   0.850  16.443  3.3882  0.1588 -2.3659
  706TMC3    C110487   2.211   0.752  16.207 -0.2678  0.1413 -0.4888
  706TMC3    C210488   2.231   0.879  16.220 -0.5995 -0.5323  0.2792
  706TMC3    C310489   2.135   0.945  16.291  0.4469 -0.1478  0.1748
  706TMC3    C410490   2.115   0.677  16.274 -0.2612  1.4304  0.2718
  706TMC3    C510491   2.026   0.747  16.347  0.2708  0.0257 -0.3571
  706TMC3    C610492   2.031   0.883  16.353 -0.5657  0.3043  0.2732
  706TMC3     C10493   2.289   0.697  16.098  0.3147  0.2301  0.4844
  706TMC3     O10494   2.399   0.746  16.081  0.5505  0.3470 -0.3171
  706TMC3     H10495   2.297   0.947  16.167 -1.0815  1.4409  2.1656
  706TMC3    H110496   2.112   0.569  16.268  0.7695  1.0958  5.6453
  706TMC3    H210497   1.963   0.943  16.413 -2.3112 -2.2855  0.8639
  706TMC3    C710498   1.898   0.684  16.350 -0.1149 -0.0814  0.4682
  706TMC3    C810499   2.105   1.079  16.241  0.3329  0.3835  0.7783
  706TMC3    O110500   1.889   0.575  16.294 -0.1849  0.9713  0.0036
  706TMC3    O210501   2.090   1.100  16.121  0.2508 -0.7361 -0.0395
  707TMC3    C110502   3.812   4.664   0.906 -0.8146 -0.4523 -0.1198
  707TMC3    C210503   3.777   4.552   0.975  0.4357  0.4404 -1.1363
  707TMC3    C310504   3.676   4.472   0.924 -1.0510 -0.3916  0.1077
  707TMC3    C410505   3.761   4.696   0.782 -0.0587  0.3485  0.6662
  707TMC3    C510506   3.663   4.610   0.725 -0.3902  0.4871 -0.6284
  707TMC3    C610507   3.618   4.503   0.798  0.1502 -0.6268  0.0293
  707TMC3     C10508   3.938   4.731   0.947  0.3541  0.7674 -0.2730
  707TMC3     O10509   3.987   4.698   1.053 -0.2922 -0.2375  0.2924
  707TMC3     H10510   3.824   4.538   1.072  0.7095 -4.5942 -2.0205
  707TMC3    H110511   3.776   0.057   0.737  0.2390  0.2631  0.5753
  707TMC3    H210512   3.525   4.452   0.773 -0.9660 -0.0156  2.9730
  707TMC3    C710513   3.598   4.652   0.603 -0.6273  0.1390  0.0082
  707TMC3    C810514   3.656   4.336   0.965 -0.0506 -1.0510 -0.8404
  707TMC3    O110515   3.616   0.035   0.570  0.4304  0.0970 -0.5132
  707TMC3    O210516   3.581   4.269   0.896 -0.1263  0.2995 -0.4164
  708MPD2     C10517   0.119   4.584  13.668  0.4491 -0.3236  0.2341
  708MPD2    C110518   0.010   4.543  13.738 -0.1756 -0.3273 -0.0837
  708MPD2    C210519   0.030   4.459  13.851  0.1927  0.0768 -0.7198
  708MPD2    C310520   0.156   4.416  13.886 -0.0290  0.6626  0.0772
  708MPD2    C410521   0.263   4.455  13.812  0.2532 -0.2401 -0.8230
  708MPD2    C510522   0.242   4.531  13.700 -0.5981 -0.4292  0.4855
  708MPD2     H10523   4.679   4.428  13.907  1.1781  0.3050  0.9513
  708MPD2    H110524   0.364   4.422  13.833  0.4208  0.6210 -0.2888
  708MPD2    H210525   0.118   4.642  13.576  0.4930  1.2469  1.2237
  708MPD2    H310526   0.332   4.567  13.651 -1.8445  2.4085  0.2647
  708MPD2     N10527   0.173   4.332  13.996  0.1125  0.5217 -0.1320
  708MPD2    H510528   0.260   4.329  14.049  0.2518  0.2357 -0.3816
  708MPD2    N110529   4.615   4.589  13.710  0.0356  0.0610  0.2495
  708MPD2    H710530   4.542   4.556  13.772  1.2444  1.6181  2.4541
  709TMC3    C110531   4.433   4.641  13.583 -0.2523 -0.2981 -0.1182
  709TMC3    C210532   4.430   4.573  13.462  0.1359 -0.5057 -0.6704
  709TMC3    C310533   4.376   4.444  13.455  0.8789 -0.6340 -0.3571
  709TMC3    C410534   4.372   4.589  13.691 -0.4822 -0.6808  0.3736
  709TMC3    C510535   4.304   4.469  13.675 -0.3705 -0.1420  0.9233
  709TMC3    C610536   4.314   4.395  13.567 -0.2819 -0.4991 -0.2983
  709TMC3     C10537   4.572   4.664  13.603 -0.2179 -0.0338  0.5323
  709TMC3     O10538   4.638   4.705  13.508 -0.1083  0.1728  0.3683
  709TMC3     H10539   4.471   4.618  13.372  0.1014  1.5076  0.3106
  709TMC3    H110540   4.383   4.636  13.788 -2.0386  0.6371 -0.1076
  709TMC3    H210541   4.281   4.292  13.575  0.4005 -0.6744  0.2679
  709TMC3    C710542   4.316   4.394  13.796 -0.8534  0.5844  0.6199
  709TMC3    C810543   4.450   4.353  13.382 -1.0541 -0.7165  0.5263
  709TMC3    O110544   4.412   4.431  13.864 -0.4512  0.5871 -0.4282
  709TMC3    O210545   4.394   4.247  13.356 -0.2079 -0.1575  0.4312
  710TMC3    C110546   1.124   1.170   0.252  0.0716  0.3659  0.8693
  710TMC3    C210547   1.129   1.110   0.128  0.4733 -0.3577 -0.2879
  710TMC3    C310548   1.252   1.083   0.069 -0.3001 -0.2124 -0.3276
  710TMC3    C410549   1.243   1.189   0.318 -0.0835  0.3976 -0.0165
  710TMC3    C510550   1.362   1.161   0.257 -0.1248  0.5972 -0.7972
  710TMC3    C610551   1.370   1.101   0.135  0.2046  0.0933 -0.0375
  710TMC3     C10552   0.997   1.178   0.321 -0.3510 -0.3829 -0.1001
  710TMC3     O10553   0.909   1.108   0.272 -0.2949 -0.0443  0.2837
  710TMC3     H10554   1.037   1.113   0.071  0.1703 -2.0649  0.1225
  710TMC3    H110555   1.245   1.225   0.420  1.5070  2.1036 -0.6473
  710TMC3    H210556   1.466   1.083   0.087  1.1689  3.0683  0.8143
  710TMC3    C710557   1.455   1.097   0.343  0.2002  0.0254 -0.3767
  710TMC3    C810558   1.268   1.019  17.685  0.0972 -0.0829  0.7628
  710TMC3    O110559   1.401   1.073   0.448  0.6081  0.3397  0.0490
  710TMC3    O210560   1.372   1.049  17.634 -0.2404 -0.1144  0.2837
  711TMC3    C110561   0.892   1.702  14.899 -0.0654  0.5665  0.1073
  711TMC3    C210562   0.904   1.658  15.031 -0.1700  0.0234 -0.1086
  711TMC3    C310563   1.021   1.681  15.097 -0.1775  0.0563  0.3950
  711TMC3    C410564   0.994   1.775  14.846 -0.4890 -0.4687 -0.1992
  711TMC3    C510565   1.107   1.800  14.911 -0.3448 -0.3798 -0.5472
  711TMC3    C610566   1.120   1.761  15.045 -0.5893 -0.5154  0.0575
  711TMC3     C10567   0.835   1.604  14.806 -0.0456  0.7632  0.3393
  711TMC3     O10568   0.899   1.577  14.706 -0.4611  0.4627 -0.3689
  711TMC3     H10569   0.827   1.605  15.086  0.3051 -0.2916  0.2580
  711TMC3    H110570   0.979   1.802  14.742  0.5405 -0.0962 -0.2496
  711TMC3    H210571   1.217   1.765  15.092  0.0041 -1.6036 -1.0862
  711TMC3    C710572   1.225   1.743  14.856  0.3015 -0.7200 -0.1427
  711TMC3    C810573   1.044   1.610  15.220 -0.7904  0.3566  0.6142
  711TMC3    O110574   1.336   1.769  14.903 -0.4226 -0.0883  0.1387
  711TMC3    O210575   0.954   1.539  15.259  0.6213 -0.3312 -0.0443
  712MPD2     C10576   2.683   2.679  13.739 -1.0175 -0.8079 -0.3577
  712MPD2    C110577   2.552   2.731  13.736  0.0026 -0.1792 -0.0193
  712MPD2    C210578   2.535   2.859  13.697  0.2512  0.2409 -0.4854
  712MPD2    C310579   2.643   2.939  13.662  0.6603  0.2813  0.2080
  712MPD2    C410580   2.768   2.892  13.684  0.9707 -0.3358 -0.0158
  712MPD2    C510581   2.788   2.766  13.719  0.3298 -0.0792 -0.1043
  712MPD2     H10582   2.433   2.896  13.699  0.7050  1.3712  1.8105
  712MPD2    H110583   2.856   2.952  13.666  1.4879 -0.3297  2.5911
  712MPD2    H210584   2.717   2.582  13.773 -2.3956 -0.4891  1.9097
  712MPD2    H310585   2.886   2.724  13.738  1.0079  3.2902  3.7811
  712MPD2     N10586   2.623   3.078  13.611  0.1166  1.3059  0.5825
  712MPD2    H510587   2.707   3.132  13.594  2.9128 -2.6292  1.9068
  712MPD2    N110588   2.436   2.651  13.765  0.2358  0.6960 -0.3093
  712MPD2    H710589   2.348   2.701  13.762 -0.0802  0.1568  0.0127
  713TMC3    C110590   2.504   3.268  13.532 -0.3791  0.1629  0.0239
  713TMC3    C210591   2.621   3.336  13.504 -0.1419  0.5546  0.2299
  713TMC3    C310592   2.602   3.455  13.435 -0.5705  0.0177 -0.2853
  713TMC3    C410593   2.378   3.325  13.508  0.5490 -0.3091 -0.1603
  713TMC3    C510594   2.373   3.459  13.459  0.5013 -0.5452  0.0891
  713TMC3    C610595   2.486   3.524  13.416 -0.2756 -0.7712  0.3059
  713TMC3     C10596   2.498   3.133  13.586 -0.6697  0.4539 -0.2584
  713TMC3     O10597   2.388   3.081  13.596  0.8810  0.3954  0.2638
  713TMC3     H10598   2.717   3.308  13.545 -0.5600  0.3027  1.0341
  713TMC3    H110599   2.293   3.274  13.551  0.8925  0.0470  0.9226
  713TMC3    H210600   2.480   3.630  13.395 -1.1073 -0.4751  2.0423
  713TMC3    C710601   2.258   3.530  13.493 -0.6997 -0.5706  0.0406
  713TMC3    C810602   2.717   3.519  13.369  0.3717  0.4294  0.2043
  713TMC3    O110603   2.198   3.481  13.587  0.0035 -0.1687 -0.0369
  713TMC3    O210604   2.689   3.624  13.310  0.4145  0.3239 -0.0340
  714MPD2     C10605   4.329   1.918   1.272  0.0953  0.1823 -0.1050
  714MPD2    C110606   4.399   1.808   1.243 -0.3702 -0.0318 -0.1334
  714MPD2    C210607   4.327   1.704   1.191  0.5047  0.4958  0.2313
  714MPD2    C310608   4.197   1.713   1.151  0.0365  0.7944  0.1282
  714MPD2    C410609   4.133   1.829   1.184 -0.7230  0.1104 -0.6737
  714MPD2    C510610   4.194   1.929   1.249  0.4466  0.1482 -0.8728
  714MPD2     H10611   4.369   1.607   1.168 -0.5662 -0.5170  2.6573
  714MPD2    H110612   4.030   1.849   1.157 -0.5003  0.4462 -1.2672
  714MPD2    H210613   4.376   2.009   1.309  0.2812  1.1668 -2.7655
  714MPD2    H310614   4.145   2.024   1.268  0.5127 -0.0086  0.0420
  714MPD2     N10615   4.142   1.601   1.085  0.2395 -0.2612 -0.0624
  714MPD2    H510616   4.202   1.519   1.082  2.3997  1.2321  2.7740
  714MPD2    N110617   4.541   1.818   1.255  0.4429  0.0876  0.4263
  714MPD2    H710618   4.574   1.911   1.275  2.2592 -0.5531  0.4274
  715TMC3    C110619   0.040   1.757   1.221 -0.6089 -0.1138 -0.8103
  715TMC3    C210620   0.124   1.693   1.131 -0.3871 -0.2727 -0.5443
  715TMC3    C310621   0.257   1.708   1.155  0.8272 -0.2623 -0.2116
  715TMC3    C410622   0.081   1.835   1.327 -0.3528 -0.3677 -0.2685
  715TMC3    C510623   0.215   1.843   1.343 -0.2512 -0.4338 -0.1382
  715TMC3    C610624   0.301   1.784   1.259  0.2957 -0.4127 -0.2041
  715TMC3     C10625   4.631   1.727   1.203  0.7451 -0.2274 -0.4856
  715TMC3     O10626   4.612   1.612   1.166  0.0919 -0.3867  0.1542
  715TMC3     H10627   0.096   1.629   1.048 -1.3948 -0.4023 -0.1080
  715TMC3    H110628   0.009   1.883   1.392  0.8093 -1.9761  2.1755
  715TMC3    H210629   0.405   1.783   1.289  0.4296 -0.1498 -0.6528
  715TMC3    C710630   0.271   1.915   1.459 -0.3058 -0.6302  0.4128
  715TMC3    C810631   0.341   1.610   1.097 -0.2026 -0.0469 -0.0283
  715TMC3    O110632   0.394   1.929   1.463 -0.5401 -0.4549  0.7570
  715TMC3    O210633   0.283   1.520   1.036 -0.1534 -0.4531 -0.1832
  716MPD2     C10634   0.202   0.062   9.938  0.1011  0.4038  0.7553
  716MPD2    C110635   0.188   0.065   9.800  0.3033  0.4588  0.5976
  716MPD2    C210636   0.298   0.016   9.720  0.2906  0.5495  0.0244
  716MPD2    C310637   0.414   4.711   9.781 -0.0579  0.6182 -1.2930
  716MPD2    C410638   0.417   4.708   9.919 -0.0371  0.3778  0.5985
  716MPD2    C510639   0.315   0.007   9.998  0.2304 -0.2547  0.4106
  716MPD2     H10640   0.297   0.021   9.612 -1.6124  0.6915  0.0494
  716MPD2    H110641   0.502   4.676   9.978  0.1086  0.5061  0.4588
  716MPD2    H210642   0.123   0.089  10.007 -2.1507  0.5431 -1.9059
  716MPD2    H310643   0.323   4.718  10.103  0.8768  1.6569  0.8378
  716MPD2     N10644   0.531   4.690   9.701 -0.2417 -0.2660 -0.7479
  716MPD2    H510645   0.524   4.711   9.602  0.7981  2.0342 -0.3398
  716MPD2    N110646   0.076   0.130   9.745  0.2469  0.2513 -0.5306
  716MPD2    H710647   0.006   0.180   9.800  0.3684  1.0434 -1.0904
  717TMC3    C110648   0.737   4.634   9.620 -0.3788  0.0646 -0.1191
  717TMC3    C210649   0.713   0.001   9.536 -0.3063 -0.7323  0.5806
  717TMC3    C310650   0.713   4.710   9.399 -0.0002 -0.0040 -0.1375
  717TMC3    C410651   0.790   4.515   9.577  0.2980  0.1001 -0.1651
  717TMC3    C510652   0.828   4.502   9.444  0.6111  0.3574  0.2013
  717TMC3    C610653   0.773   4.593   9.347 -0.2681 -0.0165  0.0983
  717TMC3     C10654   0.652   4.631   9.740  0.0520 -0.5143  0.0067
  717TMC3     O10655   0.679   4.568   9.842 -0.3287 -0.5631  0.4073
  717TMC3     H10656   0.664   0.094   9.561  0.0858  0.0101 -1.4102
  717TMC3    H110657   0.803   4.433   9.647  2.5886  1.4243  0.9579
  717TMC3    H210658   0.780   4.574   9.241 -0.0050  2.0178 -0.2312
  717TMC3    C710659   0.897   4.376   9.399 -0.3711 -0.7992  0.0178
  717TMC3    C810660   0.599   0.032   9.327  0.6584 -0.1869 -0.7556
  717TMC3    O110661   0.883   4.335   9.286  0.2334 -0.2570 -0.4052
  717TMC3    O210662   0.492   0.044   9.386  0.5532  0.8627  0.5106
  718MPD2     C10663   4.026   3.296  12.809  0.3175 -0.0861 -0.1432
  718MPD2    C110664   4.126   3.204  12.836  0.0539 -0.3453  0.1174
  718MPD2    C210665   4.130   3.134  12.958  0.3695  0.4592  0.0387
  718MPD2    C310666   4.032   3.164  13.050 -0.5122 -0.2375 -0.2823
  718MPD2    C410667   3.934   3.262  13.028  0.2922  0.1252 -0.0732
  718MPD2    C510668   3.923   3.326  12.903  0.5112  0.1076  0.3612
  718MPD2     H10669   4.216   3.072  12.982 -0.1531 -0.1872  0.2546
  718MPD2    H110670   3.855   3.279  13.100  0.0699  0.1817 -0.3301
  718MPD2    H210671   4.040   3.362  12.724  3.3215 -3.1772 -2.0595
  718MPD2    H310672   3.861   3.413  12.890 -2.1416 -1.7230  0.7785
  718MPD2     N10673   4.046   3.101  13.173  0.1386  0.1799  0.1859
  718MPD2    H510674   4.135   3.054  13.183 -0.4591 -0.9111  0.3273
  718MPD2    N110675   4.210   3.172  12.725 -0.2305 -0.0798  0.1237
  718MPD2    H710676   4.206   3.241  12.650  0.0402 -0.0133  0.1685
  719TMC3    C110677   4.353   3.031  12.600 -0.1822 -0.4631  0.0838
  719TMC3    C210678   4.383   2.890  12.598  0.0083 -0.0751  0.1779
  719TMC3    C310679   4.517   2.860  12.600  0.1794 -0.1903 -0.1417
  719TMC3    C410680   4.447   3.134  12.570  0.2063  0.4058 -0.0318
  719TMC3    C510681   4.578   3.096  12.562  0.9382  0.4309 -0.1932
  719TMC3    C610682   4.608   2.961  12.574 -0.1624 -0.0472  0.2611
  719TMC3     C10683   4.262   3.044  12.708 -0.4187 -0.4836 -0.2502
  719TMC3     O10684   4.244   2.945  12.779 -0.1811  0.4787  0.0879
  719TMC3     H10685   4.310   2.810  12.604 -0.4234  0.3522  0.6504
  719TMC3    H110686   4.410   3.235  12.560 -0.5986  0.0947 -0.1537
  719TMC3    H210687   4.712   2.931  12.578 -0.0159  0.4933  0.6024
  719TMC3    C710688   4.670   3.181  12.491  0.7687 -0.2773  0.1345
  719TMC3    C810689   4.552   2.776  12.709  0.5787 -0.1941  0.3496
  719TMC3    O110690   0.001   3.119  12.409  0.1790 -0.5189  0.1723
  719TMC3    O210691   4.662   2.719  12.714  0.1815  0.0564  0.3892
  720MPD2     C10692   2.791   0.205  13.957 -0.2869  0.4907 -0.0314
  720MPD2    C110693   2.850   0.143  13.848 -0.1365 -1.0155  0.3836
  720MPD2    C210694   2.952   0.055  13.861  0.4590  0.5711 -0.3214
  720MPD2    C310695   3.001   0.032  13.993 -0.3255  0.0540 -0.3326
  720MPD2    C410696   2.950   0.100  14.099 -0.0226 -0.3737  0.0714
  720MPD2    C510697   2.848   0.186  14.082  0.5248 -0.3090  0.2336
  720MPD2     H10698   2.996   0.007  13.773  2.4494 -0.4099  1.2072
  720MPD2    H110699   2.982   0.088  14.202  1.3156 -1.6576 -0.4817
  720MPD2    H210700   2.714   0.280  13.958 -0.7322  0.0312  0.1051
  720MPD2    H310701   2.799   0.219  14.173  0.0553 -0.3823  0.0104
  720MPD2     N10702   3.113   4.689  14.004 -0.7390 -0.7002 -0.1265
  720MPD2    H510703   3.153   4.662  13.914  0.2915 -0.1358  0.1646
  720MPD2    N110704   2.807   0.173  13.720 -0.4253 -0.2594 -0.6447
  720MPD2    H710705   2.882   0.162  13.652  0.3342 -0.2962  0.1827
  721TMC3    C110706   3.291   4.562  14.105  0.6964  0.1730  0.4247
  721TMC3    C210707   3.304   4.464  14.204 -0.7019  0.0043  0.0274
  721TMC3    C310708   3.424   4.394  14.202  0.1137 -0.4220 -0.2073
  721TMC3    C410709   3.379   4.575  14.005 -0.8885 -0.3873 -0.5199
  721TMC3    C510710   3.489   4.495  14.003  0.3525  0.4770  0.6856
  721TMC3    C610711   3.508   4.399  14.098  0.4843 -0.5372 -0.3101
  721TMC3     C10712   3.172   4.648  14.122 -0.6532  0.2591 -0.2388
  721TMC3     O10713   3.135   4.653  14.237  0.0828  0.1148  0.0896
  721TMC3     H10714   3.229   4.455  14.282  0.2270 -2.4393  0.6495
  721TMC3    H110715   3.372   4.665  13.945 -2.4804 -0.0403  0.2025
  721TMC3    H210716   3.602   4.346  14.110  0.2915 -1.0532 -1.0646
  721TMC3    C710717   3.591   4.521  13.903 -0.4185 -0.0766 -0.2148
  721TMC3    C810718   3.470   4.311  14.318  0.6246  1.2438  0.1286
  721TMC3    O110719   3.620   4.642  13.882 -0.5017 -0.1838  1.2197
  721TMC3    O210720   3.582   4.259  14.312  0.0760  0.7974  0.1118
  722MPD2     C10721   1.522   3.646  12.758 -0.2756 -0.3287 -0.3863
  722MPD2    C110722   1.491   3.712  12.869 -0.5358 -0.1631 -0.2390
  722MPD2    C210723   1.368   3.682  12.933 -0.7947  0.4449 -0.0749
  722MPD2    C310724   1.285   3.580  12.880  0.3386  0.3532 -0.0766
  722MPD2    C410725   1.320   3.515  12.758  0.5043  0.3571 -0.4527
  722MPD2    C510726   1.445   3.540  12.711  0.5474 -0.0135  0.1477
  722MPD2     H10727   1.340   3.735  13.024 -1.3249  1.2862 -0.7284
  722MPD2    H110728   1.258   3.437  12.715  0.1535 -0.9883  2.4830
  722MPD2    H210729   1.617   3.656  12.705 -0.2503  0.3243 -0.2176
  722MPD2    H310730   1.481   3.472  12.634 -1.4425 -1.5478  0.5694
  722MPD2     N10731   1.158   3.557  12.951 -0.0819  0.6106  0.1593
  722MPD2    H510732   1.144   3.611  13.036 -0.9336  0.4983  0.0919
  722MPD2    N110733   1.561   3.822  12.911  0.1313  0.1144  0.0355
  722MPD2    H710734   1.533   3.848  13.005 -0.9708 -0.3975 -0.1437
  723TMC3    C110735   0.933   3.496  12.976  0.1624  0.3442 -0.5871
  723TMC3    C210736   0.854   3.387  12.984 -0.3990  0.4243 -0.2428
  723TMC3    C310737   0.729   3.404  13.027 -0.0585 -0.0056 -0.0023
  723TMC3    C410738   0.897   3.620  13.024  0.3461 -0.4114 -0.1070
  723TMC3    C510739   0.769   3.631  13.074 -0.3110 -0.3228  0.5393
  723TMC3    C610740   0.682   3.521  13.070 -0.3267 -0.0467  0.0970
  723TMC3     C10741   1.058   3.475  12.907  0.3356  0.1190 -0.3961
  723TMC3     O10742   1.058   3.397  12.811  0.1901  0.1335 -0.6400
  723TMC3     H10743   0.896   3.289  12.963  1.2008  1.3797 -1.5170
  723TMC3    H110744   0.976   3.693  13.037 -0.4459  0.6925 -1.5135
  723TMC3    H210745   0.575   3.525  13.081 -0.7416 -0.6807 -3.6888
  723TMC3    C710746   0.731   3.756  13.139  0.2697 -0.2070  0.0160
  723TMC3    C810747   0.635   3.317  12.969 -0.0846 -0.3723  0.2204
  723TMC3    O110748   0.817   3.839  13.164  0.6011  0.2086  0.3035
  723TMC3    O210749   0.528   3.297  13.020 -0.3472  0.1533 -0.5112
  724TMC3    C110750   2.258   2.419   9.844 -0.5066  0.0612  0.3696
  724TMC3    C210751   2.254   2.492   9.723  0.1394  0.0111 -1.3247
  724TMC3    C310752   2.297   2.621   9.732 -0.1302  0.9551 -0.5370
  724TMC3    C410753   2.274   2.475   9.969  0.1126  0.0497 -0.1111
  724TMC3    C510754   2.304   2.612   9.976 -0.0590  0.3965  0.4125
  724TMC3    C610755   2.316   2.683   9.859  0.6797 -0.2472 -0.5389
  724TMC3     C10756   2.188   2.290   9.853 -0.0099  0.9578 -0.1512
  724TMC3     O10757   2.186   2.231   9.962 -0.2387  0.8269 -0.1145
  724TMC3     H10758   2.261   2.442   9.627  1.4391 -0.3818 -1.0261
  724TMC3    H110759   2.299   2.406  10.049 -2.3288 -1.3467 -0.5606
  724TMC3    H210760   2.334   2.790   9.862 -0.6028 -0.0613  0.4436
  724TMC3    C710761   2.396   2.658  10.077 -0.1533 -0.7444 -1.0574
  724TMC3    C810762   2.370   2.675   9.625  0.2238  0.3421 -0.1237
  724TMC3    O110763   2.471   2.747  10.042 -0.2704 -0.3290 -0.5618
  724TMC3    O210764   2.331   2.639   9.517  0.2550  0.6784 -0.2258
  725TMC3    C110765   3.510   0.449  12.756  0.5371 -0.2468  0.6612
  725TMC3    C210766   3.381   0.500  12.742  0.1905  1.1958  0.4206
  725TMC3    C310767   3.274   0.442  12.796  0.5678  0.3294 -0.6045
  725TMC3    C410768   3.525   0.331  12.827  0.0199 -0.4059  0.9794
  725TMC3    C510769   3.413   0.277  12.888 -0.0005 -0.1356  0.3087
  725TMC3    C610770   3.284   0.321  12.867 -0.3583  0.4876 -0.2267
  725TMC3     C10771   3.625   0.546  12.748  0.1728 -0.2298 -0.7362
  725TMC3     O10772   3.621   0.668  12.758  0.0511 -0.2096 -0.1637
  725TMC3     H10773   3.376   0.606  12.720 -0.8564  0.9470 -0.5842
  725TMC3    H110774   3.620   0.280  12.833 -1.2245 -2.8480 -0.0251
  725TMC3    H210775   3.197   0.261  12.891 -1.0723  1.9878  0.9620
  725TMC3    C710776   3.410   0.134  12.860  0.3415  0.0806  0.4416
  725TMC3    C810777   3.135   0.485  12.765  0.2524 -0.6640  0.2951
  725TMC3    O110778   3.476   0.095  12.763  0.3282  0.4225  0.6940
  725TMC3    O210779   3.040   0.429  12.821  0.0085  0.4150 -0.4481
  726MPD2     C10780   1.265   2.247  10.282 -0.1503  0.6476  1.0025
  726MPD2    C110781   1.177   2.355  10.251 -0.0370 -0.0105  1.3498
  726MPD2    C210782   1.039   2.326  10.263  0.6718 -0.2301  0.5650
  726MPD2    C310783   0.993   2.210  10.318 -0.2937 -0.6635  0.7575
  726MPD2    C410784   1.078   2.114  10.365  0.0858 -1.1017  0.5217
  726MPD2    C510785   1.213   2.132  10.336 -0.4083 -0.4771  0.3980
  726MPD2     H10786   0.974   2.411  10.246 -1.2830 -2.2923 -2.2162
  726MPD2    H110787   1.043   2.021  10.408  1.9282 -2.3983 -0.7673
  726MPD2    H210788   1.372   2.251  10.268 -0.0170  1.1715  2.2564
  726MPD2    H310789   1.281   2.049  10.346  1.2096  0.6677 -1.0466
  726MPD2     N10790   0.856   2.180  10.343  0.4396 -0.1368  0.2711
  726MPD2    H510791   0.839   2.083  10.369  0.6714 -0.1593  0.3402
  726MPD2    N110792   1.222   2.485  10.205 -0.0531  0.4538  0.2032
  726MPD2    H710793   1.148   2.554  10.198  0.6495  1.2893  1.1457
  727TMC3    C110794   1.358   2.651  10.113 -0.1311  0.1596 -0.1563
  727TMC3    C210795   1.473   2.716  10.143  0.1831 -0.0259 -0.1664
  727TMC3    C310796   1.482   2.846  10.105  0.9228 -0.3209 -0.2830
  727TMC3    C410797   1.254   2.702  10.044  0.1316 -0.0826  0.5058
  727TMC3    C510798   1.267   2.833   9.998 -0.2042  0.6077 -0.2690
  727TMC3    C610799   1.385   2.905  10.017 -0.6296 -0.6129 -0.7009
  727TMC3     C10800   1.350   2.517  10.168 -0.1011 -0.8913  0.3489
  727TMC3     O10801   1.447   2.446  10.156  0.3376  0.1336 -0.4667
  727TMC3     H10802   1.552   2.664  10.197  0.3574 -0.4145 -0.7936
  727TMC3    H110803   1.166   2.646  10.017 -0.9270  2.0803 -0.5397
  727TMC3    H210804   1.391   3.007   9.980  1.1272  0.0892  1.5594
  727TMC3    C710805   1.161   2.887   9.915 -0.6812  0.2492 -0.5300
  727TMC3    C810806   1.595   2.926  10.152  0.2937 -0.5831  0.0182
  727TMC3    O110807   1.098   2.810   9.848 -0.1989 -0.3338 -0.0181
  727TMC3    O210808   1.668   2.861  10.222 -0.1854 -0.2882  0.2972
  728TMC3    C110809   0.443   0.635  15.383 -0.1543  0.0153  0.4736
  728TMC3    C210810   0.567   0.685  15.359 -0.5491 -0.1207  1.2654
  728TMC3    C310811   0.591   0.752  15.242  0.4284 -0.7901 -0.7718
  728TMC3    C410812   0.345   0.629  15.290 -0.2471 -0.1683 -0.7741
  728TMC3    C510813   0.376   0.686  15.163  0.5073 -0.0830  0.1990
  728TMC3    C610814   0.493   0.757  15.144  0.3200 -0.2217 -1.4136
  728TMC3     C10815   0.407   0.644  15.525 -0.2311  0.0782  0.7513
  728TMC3     O10816   0.456   0.736  15.593  0.0814 -0.2865 -0.3171
  728TMC3     H10817   0.644   0.662  15.432  0.2126  0.1377  0.5467
  728TMC3    H110818   0.250   0.580  15.308 -1.0787  1.7696  0.1586
  728TMC3    H210819   0.520   0.778  15.041 -0.4161  0.2186 -1.5138
  728TMC3    C710820   0.310   0.622  15.047 -0.5124 -0.2785  0.5703
  728TMC3    C810821   0.701   0.848  15.227 -0.3587 -0.4477  0.5238
  728TMC3    O110822   0.253   0.514  15.078 -0.0871  0.1964 -0.5756
  728TMC3    O210823   0.796   0.843  15.303 -0.9093 -0.8391 -0.8364
  729MPD2     C10824   2.204   1.765  16.563 -0.4944  0.2232  0.5721
  729MPD2    C110825   2.331   1.708  16.559  0.1091 -0.1201 -0.3552
  729MPD2    C210826   2.377   1.656  16.683 -1.2069 -0.1878  0.1740
  729MPD2    C310827   2.300   1.656  16.797  0.0554 -0.5500  0.0996
  729MPD2    C410828   2.173   1.709  16.789  0.2548 -0.0689  0.3847
  729MPD2    C510829   2.126   1.770  16.680 -0.0842  0.5860 -0.2948
  729MPD2     H10830   2.466   1.594  16.677 -0.5317  0.7655  0.1904
  729MPD2    H110831   2.107   1.703  16.875  1.6042  0.2723  1.4378
  729MPD2    H210832   2.162   1.797  16.468  0.9045  1.4136  0.3622
  729MPD2    H310833   2.025   1.809  16.684 -0.2281  0.3101 -1.2225
  729MPD2     N10834   2.341   1.602  16.922  0.0653  0.5166 -0.0085
  729MPD2    H510835   2.282   1.630  17.000 -2.0701 -2.0106 -0.7281
  729MPD2    N110836   2.397   1.702  16.440  0.1045  0.2313  0.1042
  729MPD2    H710837   2.348   1.738  16.358 -2.6763 -0.8422  1.3181
  730TMC3    C110838   2.513   1.550  17.086  0.4470  0.3302 -0.2259
  730TMC3    C210839   2.622   1.472  17.114  0.2648  0.6352 -0.2487
  730TMC3    C310840   2.690   1.486  17.234  0.4978 -0.2681  0.4386
  730TMC3    C410841   2.466   1.635  17.179  0.1804 -0.0897 -0.1724
  730TMC3    C510842   2.540   1.648  17.291 -0.1403 -0.1156 -0.5714
  730TMC3    C610843   2.640   1.567  17.326 -0.3547 -0.0514 -0.7525
  730TMC3     C10844   2.473   1.553  16.940  0.2707 -0.3570 -0.8835
  730TMC3     O10845   2.559   1.515  16.863 -0.4863 -0.7914  0.1168
  730TMC3     H10846   2.657   1.393  17.048 -0.8081  0.6129 -0.7792
  730TMC3    H110847   2.379   1.695  17.154  0.4142  0.1581 -0.3801
  730TMC3    H210848   2.679   1.588  17.425  0.5301 -0.1835 -1.0708
  730TMC3    C710849   2.517   1.760  17.379 -0.6034 -0.0717 -0.8165
  730TMC3    C810850   2.834   1.491  17.211 -0.1991 -0.0724 -0.4019
  730TMC3    O110851   2.578   1.767  17.484  0.4173  0.0978 -0.1368
  730TMC3    O210852   2.892   1.398  17.153  0.2573 -0.2889 -0.2380
  731MPD2     C10853   2.030   4.035  12.487  0.6954 -0.5534  0.0701
  731MPD2    C110854   2.132   4.131  12.477  1.1149  0.4305  0.1231
  731MPD2    C210855   2.187   4.178  12.597 -0.0301  0.3468 -0.5678
  731MPD2    C310856   2.137   4.134  12.723 -0.3579 -0.2184  0.2918
  731MPD2    C410857   2.042   4.034  12.728 -0.4070  0.0425 -0.1025
  731MPD2    C510858   1.995   3.979  12.606 -0.2721  0.1401  0.3162
  731MPD2     H10859   2.263   4.255  12.596 -0.0055  0.3299 -0.0886
  731MPD2    H110860   2.006   3.991  12.821  0.5762 -0.5007  0.0314
  731MPD2    H210861   1.982   3.993  12.399 -0.2290 -1.7471  1.1541
  731MPD2    H310862   1.932   3.891  12.607  0.4798 -0.3884  1.3645
  731MPD2     N10863   2.189   4.199  12.835 -0.5482  0.8817 -0.1710
  731MPD2    H510864   2.228   4.289  12.808 -0.4689  0.9638  0.2233
  731MPD2    N110865   2.166   4.180  12.344  0.3856 -0.3640  0.2878
  731MPD2    H710866   2.123   4.151  12.257  2.1370  0.7055 -0.9453
  732TMC3    C110867   2.255   4.314  12.173 -0.0712 -0.4435  0.1564
  732TMC3    C210868   2.138   4.299  12.107  0.3434  0.8436  0.4959
  732TMC3    C310869   2.141   4.323  11.975  0.0663  0.1023  0.2165
  732TMC3    C410870   2.378   4.337  12.125  0.4149  0.3466  0.1154
  732TMC3    C510871   2.385   4.340  11.987  0.1801 -0.9767 -1.0971
  732TMC3    C610872   2.267   4.349  11.914 -0.4667  0.0439 -0.0318
  732TMC3     C10873   2.257   4.281  12.316 -0.2678 -0.6465  0.3418
  732TMC3     O10874   2.340   4.338  12.392 -0.0033 -0.2207  0.0696
  732TMC3     H10875   2.047   4.277  12.164  0.3641  1.4579  0.7629
  732TMC3    H110876   2.461   4.347  12.194 -0.4986  1.8885  0.9864
  732TMC3    H210877   2.258   4.351  11.806 -1.8207  2.9393  0.1333
  732TMC3    C710878   2.501   4.403  11.927  0.0359 -0.1514  0.5559
  732TMC3    C810879   2.022   4.406  11.933 -0.2499  0.1541  0.2394
  732TMC3    O110880   2.488   4.453  11.815  0.0715  0.0112 -0.0959
  732TMC3    O210881   1.945   4.425  12.027  0.1971 -0.6528  0.1056
  733TMC3    C110882   3.906   2.813  13.496 -0.5088 -0.1303 -0.4329
  733TMC3    C210883   3.893   2.933  13.440  0.0028 -0.5775 -1.0237
  733TMC3    C310884   3.992   2.974  13.361 -0.3739  0.2314 -0.7621
  733TMC3    C410885   4.020   2.737  13.485  0.2594 -1.0004  0.3303
  733TMC3    C510886   4.111   2.789  13.401  0.2778 -0.0054  0.4515
  733TMC3    C610887   4.104   2.910  13.344  0.3694 -0.5666  0.2382
  733TMC3     C10888   3.782   2.752  13.552 -0.5499  0.1397 -0.1718
  733TMC3     O10889   3.677   2.795  13.509 -0.0968 -0.3575  0.2031
  733TMC3     H10890   3.800   2.988  13.453  0.2316  0.2076 -2.6034
  733TMC3    H110891   4.033   2.634  13.515 -1.2122 -1.3636 -0.2898
  733TMC3    H210892   4.189   2.959  13.297 -1.0413  2.4383  0.7889
  733TMC3    C710893   4.222   2.712  13.367 -1.0300 -0.2459  0.3159
  733TMC3    C810894   3.965   3.091  13.276 -0.1264  0.0455 -0.6452
  733TMC3    O110895   4.279   2.636  13.444  0.3703  0.0391 -0.6422
  733TMC3    O210896   3.868   3.157  13.298 -0.4976 -0.3464 -0.2198
  734MPD2     C10897   0.834   0.809  12.377  0.8663  0.1536 -0.5696
  734MPD2    C110898   0.757   0.744  12.281 -0.0649  0.7433 -0.3642
  734MPD2    C210899   0.737   0.799  12.161 -0.2654  0.1917 -0.0816
  734MPD2    C310900   0.789   0.917  12.116  0.5190  0.7528  0.5312
  734MPD2    C410901   0.861   0.983  12.211  0.1346  0.3498 -0.1461
  734MPD2    C510902   0.883   0.925  12.333  0.1968  0.5439 -0.4307
  734MPD2     H10903   0.685   0.746  12.082 -1.4489  0.9962  0.1560
  734MPD2    H110904   0.918   1.074  12.195  0.9082 -0.1207 -0.0490
  734MPD2    H210905   0.856   0.776  12.478 -1.6667 -0.3894 -0.1894
  734MPD2    H310906   0.946   0.979  12.402  1.0806 -0.7505 -0.2139
  734MPD2     N10907   0.777   0.951  11.984 -0.2389  1.0486 -0.1929
  734MPD2    H510908   0.726   0.888  11.922 -0.5669  0.7713  0.3629
  734MPD2    N110909   0.704   0.615  12.308  0.1143 -0.0394 -0.6012
  734MPD2    H710910   0.720   0.569  12.398 -0.2969 -0.9253 -0.9859
  735TMC3    C110911   0.580   0.409  12.250  0.1065 -0.1845  0.0742
  735TMC3    C210912   0.475   0.362  12.176 -0.7477  0.3582  0.0811
  735TMC3    C310913   0.484   0.232  12.127  0.9165 -0.1316 -0.4291
  735TMC3    C410914   0.683   0.335  12.295 -0.6275 -0.6833 -0.3527
  735TMC3    C510915   0.684   0.198  12.255 -0.7756 -0.3183 -0.0408
  735TMC3    C610916   0.587   0.152  12.169 -0.2129 -0.3211 -0.3608
  735TMC3     C10917   0.612   0.545  12.225  0.4065 -0.2815 -0.1845
  735TMC3     O10918   0.560   0.577  12.122  0.5725 -0.0723 -0.4247
  735TMC3     H10919   0.396   0.425  12.138 -1.4114 -0.6080 -0.1556
  735TMC3    H110920   0.765   0.375  12.354 -2.7423  1.3844  1.2024
  735TMC3    H210921   0.601   0.050  12.133  0.6810 -0.4631  0.3782
  735TMC3    C710922   0.819   0.173  12.201 -0.1600  0.2337 -0.3101
  735TMC3    C810923   0.480   0.230  11.982  0.1474 -0.5515  0.0989
  735TMC3    O110924   0.881   0.277  12.190  0.1220 -0.1626 -0.2213
  735TMC3    O210925   0.434   0.132  11.934  0.5036 -0.2588  0.1640
  736MPD2     C10926   0.937   4.623  12.016  0.2434  0.0398  0.2531
  736MPD2    C110927   0.927   0.021  12.048 -0.0861 -0.5461  0.5241
  736MPD2    C210928   0.993   0.115  11.975 -1.5650  0.1382  0.0632
  736MPD2    C310929   1.058   0.077  11.854  0.2061 -0.0793  0.1373
  736MPD2    C410930   1.062   4.682  11.824  0.2413  0.1655 -0.0419
  736MPD2    C510931   0.997   4.593  11.895  0.4129  0.2816  0.1638
  736MPD2     H10932   1.003   0.217  12.009  0.1653  0.1475 -0.4719
  736MPD2    H110933   1.097   4.652  11.725 -0.7923 -1.7763  0.1979
  736MPD2    H210934   0.885   4.548  12.074 -2.1397  1.5372  0.0233
  736MPD2    H310935   0.989   4.488  11.868  1.1059  0.2419  0.1261
  736MPD2     N10936   1.131   0.165  11.764  0.1690 -0.2375  0.0802
  736MPD2    H510937   1.182   0.124  11.686 -1.1797 -1.3582 -0.2192
  736MPD2    N110938   0.844   0.046  12.157 -0.0127 -0.2460 -0.5904
  736MPD2    H710939   0.785   4.711  12.199 -1.8346  1.4338 -0.2816
  737TMC3    C110940   1.239   0.358  11.701 -0.2349  0.0271 -0.0851
  737TMC3    C210941   1.318   0.460  11.745 -0.9183 -0.0239 -0.5189
  737TMC3    C310942   1.419   0.493  11.658  0.4432 -0.0937 -0.0194
  737TMC3    C410943   1.226   0.314  11.571  0.2487 -1.0204  0.6796
  737TMC3    C510944   1.323   0.355  11.489 -0.3524 -0.0878 -0.1302
  737TMC3    C610945   1.426   0.440  11.529 -0.0751 -0.8657 -0.1264
  737TMC3     C10946   1.144   0.301  11.794 -0.2194  0.1431 -0.0462
  737TMC3     O10947   1.100   0.365  11.887 -0.4871  0.2858 -0.4676
  737TMC3     H10948   1.308   0.496  11.847  0.0448 -0.8962 -0.1125
  737TMC3    H110949   1.142   0.255  11.536 -0.0877 -0.0168 -0.2079
  737TMC3    H210950   1.500   0.485  11.464 -0.7053 -1.1209 -1.0074
  737TMC3    C710951   1.315   0.321  11.350  0.7012 -0.2480  0.1692
  737TMC3    C810952   1.447   0.633  11.661 -0.1569 -0.3144  0.5347
  737TMC3    O110953   1.208   0.276  11.313  0.1347 -0.4991  0.2355
  737TMC3    O210954   1.352   0.710  11.667 -0.2822  0.4892  0.0281
  738MPD2     C10955   1.018   3.898  14.868  0.7391  0.2972 -0.4058
  738MPD2    C110956   1.100   3.789  14.883  0.0087 -0.0469  0.1322
  738MPD2    C210957   1.228   3.813  14.928 -0.2971 -0.4581  0.1356
  738MPD2    C310958   1.276   3.945  14.935 -0.0162 -0.3150  0.0564
  738MPD2    C410959   1.189   4.050  14.914 -0.2165  0.5617  0.2685
  738MPD2    C510960   1.059   4.027  14.878 -0.1248 -0.2387 -0.1103
  738MPD2     H10961   1.296   3.732  14.950  0.3475  0.6766  2.3246
  738MPD2    H110962   1.217   4.154  14.925 -0.7469  0.6864  0.4820
  738MPD2    H210963   0.915   3.886  14.837  1.4117 -1.8807 -1.8006
  738MPD2    H310964   0.997   4.112  14.852  0.7639  0.2063 -0.7539
  738MPD2     N10965   1.411   3.963  14.961  0.0929 -0.3273  0.5225
  738MPD2    H510966   1.470   3.880  14.960 -1.8066 -1.6799  0.7389
  738MPD2    N110967   1.062   3.655  14.883  0.1348  0.0911 -0.2025
  738MPD2    H710968   1.123   3.577  14.901 -0.4083  0.5652  3.5474
  739TMC3    C110969   1.621   4.039  14.974 -0.6055 -0.1464  0.6432
  739TMC3    C210970   1.685   4.038  14.848 -0.0831 -0.3321  0.0500
  739TMC3    C310971   1.817   4.060  14.839  0.0737  0.7463  0.4832
  739TMC3    C410972   1.691   4.067  15.085 -0.0594  0.5248 -0.5619
  739TMC3    C510973   1.824   4.079  15.076  0.4747  0.3380  0.2899
  739TMC3    C610974   1.890   4.070  14.958  0.2471  0.5805  0.5131
  739TMC3     C10975   1.483   4.078  14.980  0.1883  0.1445 -0.1673
  739TMC3     O10976   1.446   4.195  14.970 -0.5158 -0.3826  0.1300
  739TMC3     H10977   1.632   4.020  14.756 -0.5797 -2.2774  0.7012
  739TMC3    H110978   1.644   4.089  15.181 -1.3909 -2.1595 -0.6016
  739TMC3    H210979   1.998   4.080  14.967  0.4100 -1.3054  0.6935
  739TMC3    C710980   1.901   4.078  15.198 -0.3158 -0.2806 -0.3927
  739TMC3    C810981   1.874   4.103  14.709 -0.2305 -0.0633 -0.4126
  739TMC3    O110982   2.009   4.133  15.199  0.0430 -0.1512  0.5676
  739TMC3    O210983   1.799   4.121  14.615  0.9876 -0.4095 -0.0613
  740TMC3    C110984   1.909   0.612  14.393 -0.2390 -0.7260 -0.3985
  740TMC3    C210985   1.988   0.521  14.459  0.2386  0.6542  0.0019
  740TMC3    C310986   2.108   0.483  14.395 -0.3428  0.1796 -0.2214
  740TMC3    C410987   1.944   0.655  14.268 -0.6376 -0.4090 -0.2347
  740TMC3    C510988   2.061   0.624  14.205  0.7529  0.1298 -0.6578
  740TMC3    C610989   2.142   0.529  14.269 -0.3330  0.0480 -0.4686
  740TMC3     C10990   1.768   0.637  14.418  0.8600 -0.6684  0.6340
  740TMC3     O10991   1.710   0.723  14.355  0.3064  0.5668 -0.1479
  740TMC3     H10992   1.965   0.474  14.554  1.8048 -3.8985 -1.8789
  740TMC3    H110993   1.872   0.711  14.210 -0.2294 -0.8427 -1.1657
  740TMC3    H210994   2.235   0.498  14.223  0.1402  1.0718 -0.2015
  740TMC3    C710995   2.041   0.603  14.067 -0.8671  0.4240 -0.4689
  740TMC3    C810996   2.203   0.396  14.453  0.1821  0.2923  0.4102
  740TMC3    O110997   1.923   0.573  14.043  0.6399  0.2778  0.1276
  740TMC3    O210998   2.218   0.396  14.576 -0.0475 -0.4529  0.0358
  741TMC3    C110999   1.663   4.595  14.319 -0.1232 -0.4884 -0.2422
  741TMC3    C211000   1.557   4.510  14.325 -0.7852  0.2287 -0.2015
  741TMC3    C311001   1.559   4.413  14.419 -0.2624  0.0166  0.0383
  741TMC3    C411002   1.762   4.588  14.408  0.1300 -0.0578 -0.0632
  741TMC3    C511003   1.754   4.502  14.510 -0.3135 -0.2998  0.1567
  741TMC3    C611004   1.658   4.404  14.516  0.1302 -0.5395 -0.6240
  741TMC3     C11005   1.679   4.671  14.201 -0.7269  0.2867 -0.4869
  741TMC3     O11006   1.794   4.715  14.185 -0.1235 -0.1831 -0.3741
  741TMC3     H11007   1.483   4.524  14.247  1.4979 -2.7271 -2.8737
  741TMC3    H111008   1.832   4.670  14.418  1.7444 -1.5175  0.6714
  741TMC3    H211009   1.669   4.316  14.579  0.9030 -0.8250 -1.1645
  741TMC3    C711010   1.851   4.513  14.620  0.3605 -0.4559  0.1067
  741TMC3    C811011   1.437   4.335  14.422 -0.2163 -0.0823  0.3384
  741TMC3    O111012   1.961   4.567  14.593 -0.0949  0.5290 -0.1996
  741TMC3    O211013   1.355   4.363  14.335 -0.0141  0.2170 -0.2483
  742TMC3    C111014   1.588   2.464  15.609  0.3617 -1.0661 -0.1148
  742TMC3    C211015   1.501   2.501  15.511 -0.0584  0.4096 -0.0685
  742TMC3    C311016   1.551   2.603  15.426  0.0680 -0.1767  0.2715
  742TMC3    C411017   1.709   2.534  15.638  0.1689 -0.1134 -0.1884
  742TMC3    C511018   1.741   2.636  15.558 -0.1945 -0.9254 -0.2838
  742TMC3    C611019   1.664   2.670  15.450  0.5417 -0.1726 -0.5160
  742TMC3     C11020   1.558   2.357  15.693  0.1120  0.0561 -0.2669
  742TMC3     O11021   1.600   2.369  15.809  0.2754  0.0041 -0.3379
  742TMC3     H11022   1.422   2.442  15.466  0.0283  0.0014  0.3131
  742TMC3    H111023   1.780   2.493  15.709 -0.9791  0.2524  1.1779
  742TMC3    H211024   1.702   2.735  15.372 -0.2679 -0.2693 -0.9884
  742TMC3    C711025   1.886   2.628  15.528 -0.9324  0.0710  0.6652
  742TMC3    C811026   1.489   2.617  15.296 -0.0750  0.0110 -0.9574
  742TMC3    O111027   1.911   2.591  15.415 -0.1397  0.1242 -0.0143
  742TMC3    O211028   1.441   2.512  15.248 -0.3041  0.3621 -0.4009
  743MPD2     C11029   4.408   4.596   1.669 -0.3604  0.3662  0.2550
  743MPD2    C111030   4.492   4.494   1.632 -0.1912 -0.3442 -0.0595
  743MPD2    C211031   4.623   4.517   1.627 -0.7595  0.2164  0.4102
  743MPD2    C311032   4.673   4.643   1.659 -0.1367 -0.3963  0.1199
  743MPD2    C411033   4.594   0.003   1.703  0.0599 -0.3612  0.0927
  743MPD2    C511034   4.462   4.720   1.700 -1.3119 -0.0464 -0.2944
  743MPD2     H11035   4.694   4.446   1.587  0.9866  2.5292 -0.5557
  743MPD2    H111036   4.625   0.104   1.727 -1.5634 -0.3011  1.9904
  743MPD2    H211037   4.303   4.581   1.694  0.1614 -0.9803  1.6635
  743MPD2    H311038   4.390   0.056   1.735  2.5331  3.8578 -0.4663
  743MPD2     N11039   0.078   4.655   1.646 -0.2617  0.0736  0.4137
  743MPD2    H511040   0.129   4.571   1.619  0.4055  0.6115  0.0047
  743MPD2    N111041   4.437   4.368   1.607 -0.7443 -0.7199  0.7613
  743MPD2    H711042   4.337   4.382   1.595 -0.2077  0.7925 -1.9690
  744TMC3    C111043   4.386   4.141   1.569  0.2417  0.4885  0.3289
  744TMC3    C211044   4.253   4.166   1.557 -0.2573  0.0941 -0.4178
  744TMC3    C311045   4.168   4.067   1.504  0.5090 -0.1188  0.5395
  744TMC3    C411046   4.439   4.019   1.517 -0.2764  0.3420  0.0891
  744TMC3    C511047   4.348   3.929   1.476 -0.5393  0.9717 -0.4740
  744TMC3    C611048   4.216   3.949   1.464  0.0076 -0.1324 -0.9994
  744TMC3     C11049   4.491   4.242   1.587 -0.3781  0.8340 -0.2782
  744TMC3     O11050   4.611   4.219   1.588  0.5349  0.5350 -0.3917
  744TMC3     H11051   4.217   4.267   1.569  0.3299  0.2255  0.1791
  744TMC3    H111052   4.544   4.012   1.491 -1.1416 -4.5394 -2.1781
  744TMC3    H211053   4.147   3.879   1.418 -0.7294 -1.0191  1.4135
  744TMC3    C711054   4.393   3.863   1.360  0.0774  0.8916  0.4667
  744TMC3    C811055   4.062   4.117   1.421 -0.8826  0.4218  0.0764
  744TMC3    O111056   4.327   3.882   1.261  0.2211  0.6755 -0.0049
  744TMC3    O211057   4.066   4.239   1.395  0.1010 -0.3468  0.2086
  745TMC3    C111058   2.309   2.469  13.818 -0.1011  0.3167 -0.1342
  745TMC3    C211059   2.204   2.548  13.818  0.0178 -0.0235 -0.5455
  745TMC3    C311060   2.112   2.550  13.718 -0.2418  0.6079  0.5315
  745TMC3    C411061   2.302   2.362  13.742 -0.2803 -0.3304  0.3614
  745TMC3    C511062   2.212   2.354  13.640  0.0507  0.5249  0.2342
  745TMC3    C611063   2.109   2.449  13.620 -0.1787 -0.1414  0.2293
  745TMC3     C11064   2.437   2.527  13.809  0.1890 -0.1190  0.2030
  745TMC3     O11065   2.531   2.451  13.798 -0.1831 -0.3097 -0.0896
  745TMC3     H11066   2.212   2.645  13.867 -0.1140 -1.5327  2.4063
  745TMC3    H111067   2.386   2.294  13.756 -0.2560 -0.0505  1.5841
  745TMC3    H211068   2.046   2.449  13.532 -1.8341  1.5164  1.4046
  745TMC3    C711069   2.278   2.319  13.519 -0.1223 -0.3015  0.5633
  745TMC3    C811070   2.087   2.679  13.676  0.1686 -0.7112 -1.0197
  745TMC3    O111071   2.208   2.306  13.419 -0.4527  0.3011  0.2144
  745TMC3    O211072   2.179   2.739  13.626  0.1801 -0.0921 -0.3444
  746TMC3    C111073   0.155   0.159  10.767 -0.8166  0.5335  0.0525
  746TMC3    C211074   0.277   0.146  10.707  0.1469 -0.1571 -0.3657
  746TMC3    C311075   0.346   0.025  10.712 -0.4876 -0.2099 -0.0480
  746TMC3    C411076   0.085   0.053  10.815 -0.1779  0.1485 -0.4150
  746TMC3    C511077   0.158   4.672  10.818  0.6385  0.0327 -0.1122
  746TMC3    C611078   0.288   4.659  10.767  0.5688 -0.0814 -0.4736
  746TMC3     C11079   0.103   0.291  10.794 -0.7252  0.1657  0.0727
  746TMC3     O11080   0.015   0.287  10.876 -0.3305 -0.1690 -0.1028
  746TMC3     H11081   0.330   0.227  10.659 -1.4344  0.3119 -1.3438
  746TMC3    H111082   4.719   0.054  10.853 -0.3386  2.4853 -0.9327
  746TMC3    H211083   0.338   4.563  10.763 -0.1813 -0.5438  1.0299
  746TMC3    C711084   0.082   4.550  10.837  0.0471  0.2694  0.3557
  746TMC3    C811085   0.458   4.734  10.618 -0.1565  0.7966  0.9785
  746TMC3    O111086   4.707   4.540  10.781  0.0696 -0.6062  0.0360
  746TMC3    O211087   0.551   4.658  10.645  0.1283 -0.9668 -0.3672
  747TMC3    C111088   2.109   0.243  10.653 -0.2900 -1.1837  0.8511
  747TMC3    C211089   1.989   0.301  10.662  0.1158 -0.3217 -0.1008
  747TMC3    C311090   1.934   0.296  10.786  0.4499 -0.0168  0.1465
  747TMC3    C411091   2.182   0.187  10.757 -0.9933 -0.4944 -0.1982
  747TMC3    C511092   2.127   0.213  10.883  0.3938  0.0109  0.1192
  747TMC3    C611093   2.000   0.260  10.900 -0.2182  0.0452  0.0662
  747TMC3     C11094   2.176   0.244  10.525  0.2136  0.2139 -0.0151
  747TMC3     O11095   2.148   0.337  10.451  0.1172 -0.4455 -0.2897
  747TMC3     H11096   1.945   0.339  10.571 -3.1914  0.6223  1.9037
  747TMC3    H111097   2.281   0.148  10.734 -0.5005  0.4153  0.4138
  747TMC3    H211098   1.957   0.263  11.000 -0.8713  0.9637 -0.2427
  747TMC3    C711099   2.177   0.130  11.001  0.2945 -0.3643 -0.2042
  747TMC3    C811100   1.790   0.304  10.790 -0.2140 -0.2740  0.1810
  747TMC3    O111101   2.147   0.170  11.115  0.8370 -0.1710 -0.2616
  747TMC3    O211102   1.728   0.301  10.683  0.1980  0.5330 -0.4593
  748MPD2     C11103   4.108   0.375   1.524 -0.6753 -0.3484 -0.1284
  748MPD2    C111104   4.223   0.418   1.576 -0.1538  0.3865  0.0982
  748MPD2    C211105   4.307   0.506   1.501 -0.5059 -0.8749 -0.4371
  748MPD2    C311106   4.263   0.551   1.379  0.1207  0.2140 -0.1815
  748MPD2    C411107   4.148   0.518   1.334  0.1173  0.1500  0.4170
  748MPD2    C511108   4.071   0.433   1.404  0.2127  0.2121  0.0411
  748MPD2     H11109   4.401   0.541   1.542 -1.7474  0.9818  0.8398
  748MPD2    H111110   4.111   0.544   1.235 -2.5956 -0.1416  1.3590
  748MPD2    H211111   4.039   0.300   1.561  1.1330 -1.6799  0.5157
  748MPD2    H311112   3.978   0.399   1.361  0.1063 -1.9533  1.9946
  748MPD2     N11113   4.365   0.629   1.315 -0.0239 -0.3784  0.2336
  748MPD2    H511114   4.444   0.654   1.373  0.9928 -0.3859 -1.1633
  748MPD2    N111115   4.256   0.368   1.704  0.8069 -0.0312  0.5857
  748MPD2    H711116   4.196   0.297   1.746  0.7123 -0.0917  0.3490
  749TMC3    C111117   4.439   0.798   1.173  0.6024  0.3356  0.2325
  749TMC3    C211118   4.558   0.792   1.236  0.4064 -0.1375  0.2046
  749TMC3    C311119   4.645   0.897   1.240  0.1092  0.3134 -0.7699
  749TMC3    C411120   4.407   0.907   1.097  0.2290  0.0480  0.0398
  749TMC3    C511121   4.499   1.011   1.102  0.4529 -0.8476 -0.5720
  749TMC3    C611122   4.615   1.010   1.171 -0.8432 -0.3792 -0.1999
  749TMC3     C11123   4.339   0.698   1.201  0.4349 -0.3244 -0.1815
  749TMC3     O11124   4.234   0.707   1.140 -0.4372 -0.0816 -0.1583
  749TMC3     H11125   4.581   0.703   1.293  0.0459  0.3510  1.1155
  749TMC3    H111126   4.315   0.917   1.040 -0.3607  0.6968  1.1053
  749TMC3    H211127   4.686   1.092   1.174 -1.3963  0.0338  1.8933
  749TMC3    C711128   4.487   1.124   1.003  1.0069 -0.3092 -0.3395
  749TMC3    C811129   0.037   0.890   1.294 -0.1123  0.1538  0.1829
  749TMC3    O111130   4.543   1.227   1.035 -0.4452  0.7700 -0.1181
  749TMC3    O211131   0.075   0.990   1.356  0.1894 -0.1262  0.4117
  750MPD2     C11132   0.028   2.087  11.171  0.3579  0.4987 -0.3243
  750MPD2    C111133   4.661   1.997  11.156  0.1853 -1.0767  0.2012
  750MPD2    C211134   4.683   1.877  11.101 -0.4593  0.3664 -0.0441
  750MPD2    C311135   0.076   1.836  11.054 -0.3012 -0.1998 -0.1885
  750MPD2    C411136   0.175   1.931  11.056  0.3978 -0.1035 -0.7062
  750MPD2    C511137   0.153   2.058  11.120  0.4257  0.1467 -0.1246
  750MPD2     H11138   4.598   1.813  11.080 -1.3106  1.2292  0.7905
  750MPD2    H111139   0.273   1.920  11.010  1.6965  0.7239  1.8572
  750MPD2    H211140   0.017   2.182  11.223  2.2353 -0.0982  1.2029
  750MPD2    H311141   0.239   2.124  11.131  0.6578 -0.2539  0.4473
  750MPD2     N11142   0.102   1.716  10.996  0.2719  0.2397 -1.0039
  750MPD2    H511143   0.195   1.692  10.963  0.8153  1.4632 -0.3698
  750MPD2    N111144   4.540   2.030  11.220  0.1261  0.9860  0.4617
  750MPD2    H711145   4.545   2.121  11.263  1.8687  0.7123  0.8451
  751TMC3    C111146   0.075   1.486  10.985 -0.4194 -0.1299  0.7829
  751TMC3    C211147   0.013   1.377  11.041 -0.7510 -0.2363  0.1753
  751TMC3    C311148   0.052   1.253  11.014  0.6394  0.9692  0.1444
  751TMC3    C411149   0.177   1.466  10.892 -0.0458 -0.1899  0.9099
  751TMC3    C511150   0.221   1.333  10.868  0.2108  0.2733  0.1599
  751TMC3    C611151   0.159   1.226  10.930  0.7433 -0.1468 -0.0359
  751TMC3     C11152   0.012   1.607  11.003 -0.1752 -0.3895 -0.4879
  751TMC3     O11153   4.630   1.594  11.030 -0.3934  0.0466  0.3528
  751TMC3     H11154   4.656   1.402  11.091 -0.6991  0.7727 -0.2376
  751TMC3    H111155   0.229   1.546  10.841  0.5065 -0.9933  0.2018
  751TMC3    H211156   0.176   1.122  10.903  4.1091  0.6387 -0.8687
  751TMC3    C711157   0.275   1.304  10.739 -0.1285 -0.3355 -0.8713
  751TMC3    C811158   4.709   1.138  11.054  0.6226  0.3940 -0.5457
  751TMC3    O111159   0.360   1.371  10.680  0.2059 -0.0094 -0.2423
  751TMC3    O211160   4.731   1.028  11.005 -0.4706  0.2715 -0.8332
  752TMC3    C111161   3.087   1.130  16.847  0.0600 -0.4543  0.0373
  752TMC3    C211162   3.172   1.102  16.949  0.5346  0.3529  0.8583
  752TMC3    C311163   3.117   1.066  17.067  0.5827  0.4050  0.0650
  752TMC3    C411164   2.950   1.132  16.855  0.4085  0.2000  0.1291
  752TMC3    C511165   2.905   1.108  16.983 -0.3965  0.1339 -0.3779
  752TMC3    C611166   2.988   1.081  17.089  0.0566 -0.0083 -0.0951
  752TMC3     C11167   3.161   1.187  16.735 -0.4347 -0.3416 -0.2548
  752TMC3     O11168   3.276   1.148  16.722  0.2126  0.2434 -0.4468
  752TMC3     H11169   3.279   1.111  16.935  0.2953  1.8182 -0.0278
  752TMC3    H111170   2.892   1.150  16.765  1.7279 -3.5287 -1.4737
  752TMC3    H211171   2.940   1.053  17.182 -1.6556 -0.3552 -1.0748
  752TMC3    C711172   2.772   1.133  17.011  0.1383  0.4191 -0.0981
  752TMC3    C811173   3.196   0.985  17.159 -0.2803  0.2191  0.2137
  752TMC3    O111174   2.731   1.113  17.126  0.1643 -0.2373  0.3424
  752TMC3    O211175   3.292   0.930  17.108  0.1293  0.2258 -0.0580
  753TMC3    C111176   0.727   2.715  12.850  0.7585  0.4356  0.1965
  753TMC3    C211177   0.735   2.655  12.972  0.7795  0.1801 -0.0929
  753TMC3    C311178   0.676   2.531  12.989  0.0757 -0.2018  0.0531
  753TMC3    C411179   0.677   2.647  12.741 -0.8570  0.0340 -0.3784
  753TMC3    C511180   0.626   2.521  12.764  0.2988 -0.4535  0.6508
  753TMC3    C611181   0.613   2.461  12.889  0.7327 -1.2374 -0.4622
  753TMC3     C11182   0.831   2.808  12.826 -0.5471  0.1210 -0.5346
  753TMC3     O11183   0.897   2.793  12.721 -0.0044  0.4291  1.0050
  753TMC3     H11184   0.801   2.678  13.054 -0.6978 -0.8637  1.4019
  753TMC3    H111185   0.683   2.679  12.637  1.9758  2.3775  0.5053
  753TMC3    H211186   0.558   2.369  12.908  0.8477 -1.1680  0.2025
  753TMC3    C711187   0.571   2.462  12.651  0.0969  0.3788  0.2415
  753TMC3    C811188   0.710   2.457  13.119  0.6044  0.0561 -0.9745
  753TMC3    O111189   0.553   2.524  12.546 -0.0238 -0.5448 -0.2738
  753TMC3    O211190   0.696   2.337  13.117 -0.0602  0.0059  0.4607
  754MPD2     C11191   4.722   1.509  13.162 -0.5405  0.3114  0.6957
  754MPD2    C111192   4.725   1.372  13.132  0.0347 -0.5315  1.1179
  754MPD2    C211193   4.615   1.307  13.090  0.1927 -0.0985  0.3754
  754MPD2    C311194   4.494   1.373  13.091 -0.2101 -0.4044  0.0764
  754MPD2    C411195   4.490   1.510  13.115  0.2742  0.4134 -0.4284
  754MPD2    C511196   4.604   1.577  13.148  0.7105  0.6419 -0.6688
  754MPD2     H11197   4.627   1.204  13.057 -1.1052 -0.4029  0.8637
  754MPD2    H111198   4.395   1.563  13.121 -0.1323 -0.3282 -0.3080
  754MPD2    H211199   0.071   1.562  13.202  1.2219 -2.6729  0.8913
  754MPD2    H311200   4.596   1.681  13.178 -0.1953  0.6246 -0.8327
  754MPD2     N11201   4.365   1.305  13.072  0.2298  0.1449  0.2472
  754MPD2    H511202   4.289   1.372  13.081  0.7344  0.6012  1.0999
  754MPD2    N111203   0.114   1.317  13.155 -0.1110  0.1704 -0.6245
  754MPD2    H711204   0.182   1.393  13.155  0.6230 -0.5035  1.5419
  755MPD2     C11205   3.714   1.730  13.386  0.0012  0.9727 -0.1574
  755MPD2    C111206   3.678   1.602  13.417  0.3017 -0.0225  1.3587
  755MPD2    C211207   3.759   1.502  13.372 -0.0677 -0.9023 -0.4595
  755MPD2    C311208   3.869   1.527  13.293  0.1324 -0.5652  0.3296
  755MPD2    C411209   3.900   1.655  13.256 -1.0331  0.8189  0.0874
  755MPD2    C511210   3.822   1.757  13.305  0.1689  0.1013 -0.1116
  755MPD2     H11211   3.739   1.402  13.410  1.6249 -0.5891  1.2629
  755MPD2    H111212   3.978   1.668  13.181 -2.6538  2.0900 -1.3938
  755MPD2    H211213   3.667   1.816  13.432  1.4933  0.0828  3.0119
  755MPD2    H311214   3.856   1.855  13.276 -1.0278  0.3642 -0.6206
  755MPD2     N11215   3.949   1.417  13.248 -0.3710  0.0826 -0.3081
  755MPD2    H511216   4.029   1.431  13.188 -0.1705  1.0375  0.1747
  755MPD2    N111217   3.574   1.567  13.506  0.0399  0.1012  0.0400
  755MPD2    H711218   3.566   1.468  13.528 -0.6668  0.3020  0.6858
  756MPD2     C11219   4.682   2.166   9.289 -0.5916  0.3136  0.7461
  756MPD2    C111220   4.605   2.222   9.390 -0.6548  0.1199  0.0880
  756MPD2    C211221   4.486   2.284   9.366  0.6243  0.6283  0.1410
  756MPD2    C311222   4.443   2.308   9.239 -0.2542 -0.3394 -0.1528
  756MPD2    C411223   4.522   2.264   9.134 -0.8652 -0.2834  0.3081
  756MPD2    C511224   4.638   2.191   9.162 -0.3985 -0.2077  0.0831
  756MPD2     H11225   4.429   2.315   9.453  2.6777  0.9432  1.3747
  756MPD2    H111226   4.500   2.295   9.032 -2.7135 -2.2356  0.1284
  756MPD2    H211227   0.041   2.115   9.297  0.3509  1.7650 -1.2684
  756MPD2    H311228   4.698   2.151   9.082 -0.0566 -2.7889  1.6155
  756MPD2     N11229   4.320   2.370   9.203  0.4343  0.1886 -0.2646
  756MPD2    H511230   4.283   2.354   9.110 -1.9475  0.0752  0.6941
  756MPD2    N111231   4.645   2.202   9.521  0.0050  0.1820 -0.5926
  756MPD2    H711232   4.596   2.259   9.589 -0.7110 -0.5146 -0.5235
  757MPD2     C11233   3.457   2.070   9.510 -1.0353  0.6431  0.1527
  757MPD2    C111234   3.585   2.033   9.532 -0.2877 -0.1836  0.3928
  757MPD2    C211235   3.691   2.104   9.471 -0.3056 -0.4093 -0.0573
  757MPD2    C311236   3.665   2.206   9.391 -0.0294 -0.5275  0.1988
  757MPD2    C411237   3.533   2.238   9.374 -0.0363  0.8642  0.0871
  757MPD2    C511238   3.430   2.163   9.418 -0.4934 -0.7433  0.4018
  757MPD2     H11239   3.796   2.081   9.481 -0.0596  0.3185 -0.9362
  757MPD2    H111240   3.498   2.320   9.313  0.1761  1.4925  0.8147
  757MPD2    H211241   3.375   2.018   9.558 -1.2460  1.1020  0.2837
  757MPD2    H311242   3.328   2.196   9.399 -0.2322 -0.8218 -1.0758
  757MPD2     N11243   3.768   2.278   9.333  0.1312  0.4348 -0.6530
  757MPD2    H511244   3.863   2.262   9.367 -0.5912 -0.3029  1.0563
  757MPD2    N111245   3.605   1.912   9.611 -0.4059 -0.3472 -0.0743
  757MPD2    H711246   3.525   1.856   9.641  2.5772 -2.4857  3.8953
  758MPD2     C11247   3.576   0.666  16.028 -0.5124  0.6232  0.5042
  758MPD2    C111248   3.709   0.675  16.036 -0.1252  1.0189  0.5472
  758MPD2    C211249   3.764   0.795  16.084  0.5353 -0.0507 -0.1755
  758MPD2    C311250   3.683   0.890  16.147  0.2430 -0.6423 -1.1377
  758MPD2    C411251   3.548   0.878  16.136 -0.1567  0.8229 -0.3704
  758MPD2    C511252   3.494   0.766  16.080  0.4089 -0.5215 -0.5408
  758MPD2     H11253   3.872   0.806  16.087  0.3854  1.1397  0.5235
  758MPD2    H111254   3.486   0.958  16.177  2.5409  2.5612  0.3672
  758MPD2    H211255   3.523   0.584  15.980 -2.6015  1.5547  1.1856
  758MPD2    H311256   3.386   0.770  16.070  0.1436  0.7948  2.8360
  758MPD2     N11257   3.741   0.990  16.232 -0.1939 -0.2653  0.5947
  758MPD2    H511258   3.681   1.064  16.268 -0.3002  0.3790 -0.9057
  758MPD2    N111259   3.784   0.557  15.993 -0.5604  0.0975  0.2832
  758MPD2    H711260   3.732   0.473  15.972  0.8716 -0.6186 -0.4140
  759MPD2     C11261   3.540   4.207  10.567 -0.3562  0.0456  0.2198
  759MPD2    C111262   3.662   4.141  10.551 -1.1553 -0.0467 -0.3070
  759MPD2    C211263   3.738   4.176  10.436 -0.0298 -0.2403 -0.3715
  759MPD2    C311264   3.702   4.278  10.355 -0.0581  0.0533  0.0944
  759MPD2    C411265   3.584   4.341  10.374 -0.1581  0.0295 -0.0405
  759MPD2    C511266   3.505   4.303  10.477  0.4458  0.0283 -0.3616
  759MPD2     H11267   3.832   4.126  10.415  0.6749  1.1762 -0.5969
  759MPD2    H111268   3.554   4.417  10.303  0.4326  0.5865  0.3154
  759MPD2    H211269   3.473   4.170  10.644  1.3332 -0.7195  1.3327
  759MPD2    H311270   3.412   4.358  10.484  1.4816  1.6720  0.6215
  759MPD2     N11271   3.791   4.320  10.246 -0.6491  0.1566 -0.3116
  759MPD2    H511272   3.875   4.264  10.232  0.1128  1.4739 -1.0126
  759MPD2    N111273   3.703   4.054  10.657 -0.1910  0.1711  0.0729
  759MPD2    H711274   3.638   4.039  10.734 -0.9338  0.2657 -0.5401
  760MPD2     C11275   2.678   1.405  11.395  0.2493 -0.0403  0.1197
  760MPD2    C111276   2.722   1.431  11.523  1.2225 -0.4742 -0.5494
  760MPD2    C211277   2.725   1.334  11.614  0.5324  0.3378 -0.2599
  760MPD2    C311278   2.707   1.205  11.574  0.4483 -0.0579  0.0398
  760MPD2    C411279   2.696   1.176  11.438 -0.3395 -0.3953 -0.1729
  760MPD2    C511280   2.674   1.277  11.353  0.6894 -0.2244  0.5364
  760MPD2     H11281   2.748   1.358  11.717 -0.0897 -4.1382  0.9199
  760MPD2    H111282   2.699   1.073  11.406  0.4460 -0.3118 -0.3778
  760MPD2    H211283   2.667   1.489  11.326  0.4696 -0.3948 -0.3426
  760MPD2    H311284   2.658   1.255  11.249  1.7428  1.9437 -0.0768
  760MPD2     N11285   2.749   1.104  11.665  0.7015  0.2519  0.0324
  760MPD2    H511286   2.776   1.014  11.627 -1.6718  0.6109 -2.5107
  760MPD2    N111287   2.771   1.560  11.560 -0.0431  0.2031  0.2212
  760MPD2    H711288   2.766   1.586  11.658 -1.3647  0.7571  0.0128
  761MPD2     C11289   4.228   1.051  10.974  0.3001  0.0381  0.6962
  761MPD2    C111290   4.338   1.034  10.892  0.1196  0.9798  0.5903
  761MPD2    C211291   4.454   1.088  10.936  0.2843  0.0773 -0.4116
  761MPD2    C311292   4.468   1.136  11.067 -0.0074  0.4537 -0.0178
  761MPD2    C411293   4.354   1.168  11.143 -0.1618  0.3921  0.7739
  761MPD2    C511294   4.233   1.124  11.095  0.3305 -0.7078  0.0344
  761MPD2     H11295   4.544   1.077  10.876  0.9387  0.3591  0.5056
  761MPD2    H111296   4.355   1.211  11.243  0.8396  1.5739  0.2574
  761MPD2    H211297   4.126   1.031  10.943  0.4035 -0.7661  0.8695
  761MPD2    H311298   4.148   1.144  11.158 -0.0020  0.5275 -0.7955
  761MPD2     N11299   4.594   1.180  11.117  0.0997  0.5212  0.3770
  761MPD2    H511300   4.597   1.259  11.181  0.9484  1.3242 -0.6589
  761MPD2    N111301   4.326   0.957  10.775 -0.4068  0.4844  0.3177
  761MPD2    H711302   4.252   0.887  10.775  0.4109 -0.3519 -1.6468
  762MPD2     C11303   4.602   0.835  10.081  0.1153 -0.1461  0.2847
  762MPD2    C111304   4.660   0.751  10.173 -0.5682  0.1767 -0.6084
  762MPD2    C211305   0.057   0.720  10.172 -0.3620  0.0165 -0.0850
  762MPD2    C311306   0.136   0.768  10.065 -0.6209 -0.0575 -0.0291
  762MPD2    C411307   0.085   0.857   9.976 -0.0100  0.3836 -0.4728
  762MPD2    C511308   4.685   0.881   9.978  0.4943 -0.6517  0.4711
  762MPD2     H11309   0.101   0.660  10.251 -0.2946 -0.0039 -0.1390
  762MPD2    H111310   0.138   0.902   9.893  1.2208  0.5285  0.4048
  762MPD2    H211311   4.497   0.859  10.083 -0.4173 -2.4682  0.0729
  762MPD2    H311312   4.637   0.940   9.900  0.6447  1.0241  1.6420
  762MPD2     N11313   0.274   0.728  10.062 -0.3828  0.5207  0.3849
  762MPD2    H511314   0.305   0.670  10.140  2.3168 -0.4033 -1.3876
  762MPD2    N111315   4.580   0.708  10.282 -0.7565  0.0106  0.7681
  762MPD2    H711316   4.483   0.740  10.284 -0.8735 -0.3143  0.4169
  763MPD2     C11317   1.152   0.928  16.174  0.0754 -0.4281 -0.3973
  763MPD2    C111318   1.035   1.007  16.180 -0.3045 -0.3489 -0.8259
  763MPD2    C211319   1.043   1.136  16.227 -0.1735 -0.6325  0.3836
  763MPD2    C311320   1.165   1.197  16.252 -0.4749 -0.1171  0.5357
  763MPD2    C411321   1.277   1.116  16.233  0.1669 -0.0529  0.1221
  763MPD2    C511322   1.271   0.983  16.200 -0.8166  0.4308  0.0695
  763MPD2     H11323   0.951   1.193  16.235  0.6817  0.7080  0.7214
  763MPD2    H111324   1.377   1.157  16.244 -0.0843  0.9625 -1.4615
  763MPD2    H211325   1.166   0.832  16.125  0.5075  0.1946 -1.5070
  763MPD2    H311326   1.364   0.931  16.215 -1.0936  0.0010  0.2895
  763MPD2     N11327   1.189   1.327  16.288 -0.3587  0.0052 -1.3962
  763MPD2    H511328   1.290   1.340  16.288 -0.1976 -1.2493  1.5748
  763MPD2    N111329   0.916   0.960  16.123  0.5714 -0.5299  0.8327
  763MPD2    H711330   0.835   1.019  16.111  0.7686 -0.5276 -0.5270
  764MPD2     C11331   3.946   2.629  17.529  0.0791 -0.0246  0.2213
  764MPD2    C111332   3.824   2.605  17.491  0.2439  0.5949 -0.2487
  764MPD2    C211333   3.750   2.519  17.569  0.2975 -0.2260  0.0358
  764MPD2    C311334   3.799   2.457  17.685  0.4726 -0.4059 -0.0415
  764MPD2    C411335   3.938   2.474  17.705  0.4398  0.6743  0.2153
  764MPD2    C511336   4.010   2.568  17.630 -0.5893  0.0356  0.0181
  764MPD2     H11337   3.643   2.502  17.561  0.6023 -1.2215 -1.8598
  764MPD2    H111338   3.981   2.418   0.043 -0.9481 -1.8336 -0.7792
  764MPD2    H211339   4.004   2.692  17.463 -0.0027 -0.7465 -0.5356
  764MPD2    H311340   4.116   2.586  17.647 -1.0433  0.6911  2.1750
  764MPD2     N11341   3.720   2.376   0.021  0.3111 -0.4976 -0.4804
  764MPD2    H511342   3.625   2.373  17.731 -0.4105 -2.1223  1.6772
  764MPD2    N111343   3.761   2.659  17.373  0.1945  0.3185  0.4711
  764MPD2    H711344   3.669   2.636  17.338 -0.1048 -1.5199  2.4615
  765MPD2     C11345   3.958   0.227  15.275 -0.2224 -0.3902  0.4468
  765MPD2    C111346   3.917   0.212  15.401  0.5873  0.1205  0.3489
  765MPD2    C211347   4.004   0.168  15.500 -0.5785 -0.3520 -0.0595
  765MPD2    C311348   4.133   0.140  15.462 -0.7579 -0.1225 -0.1712
  765MPD2    C411349   4.177   0.155  15.332  0.1137  0.7275 -0.7923
  765MPD2    C511350   4.087   0.217  15.240 -0.0716 -0.1451  0.1311
  765MPD2     H11351   3.973   0.156  15.603 -0.3413 -0.1944  0.0305
  765MPD2    H111352   4.277   0.138  15.296  0.6613  1.5488  0.3535
  765MPD2    H211353   3.880   0.249  15.203  0.0843  1.6772  0.7459
  765MPD2    H311354   4.119   0.208  15.137  0.4462  1.1238  0.1809
  765MPD2     N11355   4.225   0.108  15.567 -0.5546 -0.5327 -0.4556
  765MPD2    H511356   4.187   0.065  15.652 -0.5216  0.6050  0.1326
  765MPD2    N111357   3.774   0.229  15.429 -0.0468  0.9265  0.8237
  765MPD2    H711358   3.717   0.259  15.351  1.1883 -1.8863 -1.1476
  766MPD2     C11359   3.151   0.336  15.051  0.0803 -0.2492 -0.0668
  766MPD2    C111360   3.281   0.306  15.060 -0.8405  0.0593  0.0493
  766MPD2    C211361   3.346   0.269  14.945  0.3059 -0.5751  0.1470
  766MPD2    C311362   3.282   0.283  14.824 -0.5078  0.2845  0.2397
  766MPD2    C411363   3.152   0.322  14.812  0.2078  0.3439 -0.8094
  766MPD2    C511364   3.092   0.342  14.933 -0.6862  0.0431 -0.1382
  766MPD2     H11365   3.447   0.233  14.953  0.2235 -0.7907  0.2172
  766MPD2    H111366   3.106   0.337  14.715 -1.2483 -0.1246 -0.1854
  766MPD2    H211367   3.088   0.363  15.135  0.2224  0.3042 -0.1449
  766MPD2    H311368   2.987   0.365  14.920 -0.8253 -0.6381 -0.2185
  766MPD2     N11369   3.360   0.272  14.703  0.3480  0.4926  0.4350
  766MPD2    H511370   3.309   0.304  14.621 -0.8648 -3.4976 -0.3407
  766MPD2    N111371   3.361   0.309  15.181  0.4070  0.4794 -0.2457
  766MPD2    H711372   3.452   0.264  15.186  0.5362  1.0485  2.3907
  767MPD2     C11373   3.074   0.761  14.819  0.3628  0.1933  0.6106
  767MPD2    C111374   3.182   0.684  14.779  0.0485  0.0014  0.2362
  767MPD2    C211375   3.177   0.631  14.654 -0.2801 -0.1096  0.5822
  767MPD2    C311376   3.078   0.661  14.560  0.1803 -0.0094 -0.6894
  767MPD2    C411377   2.973   0.738  14.596  0.0334 -0.1467  0.1403
  767MPD2    C511378   2.976   0.787  14.727  0.0249 -0.0626 -0.2853
  767MPD2     H11379   3.256   0.571  14.611  0.6785  1.4030  0.2243
  767MPD2    H111380   2.892   0.764  14.528 -0.7256  2.0574  1.8713
  767MPD2    H211381   3.063   0.811  14.914 -0.7514 -0.0165  0.5873
  767MPD2    H311382   2.887   0.836  14.764  0.7754  1.4958 -0.5388
  767MPD2     N11383   3.094   0.608  14.432 -0.2837 -0.2312  0.2955
  767MPD2    H511384   3.175   0.548  14.421 -0.0600  0.2747 -0.9108
  767MPD2    N111385   3.294   0.658  14.870  0.2026  0.1798  0.4153
  767MPD2    H711386   3.271   0.672  14.968  2.1051  0.5991  0.8000
  768MPD2     C11387   0.331   4.398  10.463  1.3082  0.2017  0.6023
  768MPD2    C111388   0.278   4.309  10.555  0.8419  0.8678  0.4588
  768MPD2    C211389   0.362   4.258  10.658  0.0493 -1.1845 -0.4150
  768MPD2    C311390   0.495   4.278  10.666  0.1155  0.4586 -0.2731
  768MPD2    C411391   0.542   4.361  10.571  0.3737 -0.4355 -0.2266
  768MPD2    C511392   0.468   4.420  10.473 -0.4647 -0.2270  0.6603
  768MPD2     H11393   0.318   4.192  10.731 -0.0803 -1.6956 -0.9582
  768MPD2    H111394   0.648   4.381  10.576  0.4051 -0.5840 -0.3280
  768MPD2    H211395   0.273   4.450  10.387 -1.1520 -1.0437  1.6587
  768MPD2    H311396   0.520   4.494  10.412  0.2666 -1.3307 -0.0608
  768MPD2     N11397   0.579   4.229  10.771  0.0322 -0.3350  0.1614
  768MPD2    H511398   0.668   4.271  10.794 -0.6259  1.2253 -0.1383
  768MPD2    N111399   0.138   4.287  10.565 -0.3180 -0.6869  0.0106
  768MPD2    H711400   0.106   4.223  10.637  0.0050  1.5693  2.1612
  769MPD2     C11401   0.646   1.919  14.883  0.0371 -0.5644 -0.3303
  769MPD2    C111402   0.533   1.916  14.958  0.5466  0.0393  0.0023
  769MPD2    C211403   0.531   1.989  15.072  0.1360  0.6813 -0.0444
  769MPD2    C311404   0.642   2.069  15.113 -0.2315  0.2476  0.0513
  769MPD2    C411405   0.756   2.067  15.032  0.5468  0.5552 -0.3944
  769MPD2    C511406   0.757   1.996  14.916  0.2635  0.5547  0.2007
  769MPD2     H11407   0.438   2.002  15.126  0.1617  1.0068 -0.0747
  769MPD2    H111408   0.848   2.122  15.052 -1.0124  2.3615  1.8090
  769MPD2    H211409   0.651   1.858  14.793 -2.3426  0.4590 -1.1404
  769MPD2    H311410   0.849   2.007  14.860  0.2878  0.1558  0.1606
  769MPD2     N11411   0.626   2.139  15.231  0.3855 -0.4334 -0.1595
  769MPD2    H511412   0.537   2.138  15.280 -0.0542  0.1371 -0.9497
  769MPD2    N111413   0.420   1.854  14.898 -0.7391 -0.1129 -0.0581
  769MPD2    H711414   0.426   1.825  14.800 -1.2937  2.2745 -0.8050
  770MPD2     C11415   0.131   0.984  14.597 -0.6446 -0.0213  0.1825
  770MPD2    C111416   0.126   1.018  14.726  0.0227 -0.2297  0.0887
  770MPD2    C211417   0.143   1.147  14.764 -0.2413 -0.1873  0.4213
  770MPD2    C311418   0.156   1.244  14.672 -0.0946  1.0368 -0.2462
  770MPD2    C411419   0.158   1.212  14.538 -0.4654 -0.4078  0.5071
  770MPD2    C511420   0.148   1.077  14.499  0.2779 -0.1268  0.3207
  770MPD2     H11421   0.154   1.181  14.867  1.3024  1.3450 -0.2471
  770MPD2    H111422   0.169   1.293  14.467 -1.7617 -1.4569 -0.8906
  770MPD2    H211423   0.104   0.885  14.563  0.4152  0.6941 -2.7552
  770MPD2    H311424   0.157   1.044  14.397  0.1848  0.5242  0.0983
  770MPD2     N11425   0.174   1.374  14.715 -0.2520 -0.3522 -0.0987
  770MPD2    H511426   0.189   1.391  14.814 -2.4647  0.6227  0.0726
  770MPD2    N111427   0.099   0.913  14.818  0.4358 -0.2001  0.5006
  770MPD2    H711428   0.068   0.829  14.770 -0.3490  0.9074 -0.9306
  771MPD2     C11429   1.371   0.030  13.457 -0.6185  0.0838 -0.4645
  771MPD2    C111430   1.276   0.122  13.445 -0.2606 -0.7692  0.1172
  771MPD2    C211431   1.143   0.082  13.428  0.8080 -0.6741 -0.4466
  771MPD2    C311432   1.107   4.686  13.433 -0.2104 -0.1081  0.4247
  771MPD2    C411433   1.205   4.594  13.447 -0.6715  0.3211  0.2621
  771MPD2    C511434   1.337   4.633  13.453 -0.0372 -0.2276 -0.1729
  771MPD2     H11435   1.058   0.147  13.411  0.1999 -0.7211  2.3770
  771MPD2    H111436   1.182   4.490  13.466  0.7518  0.1486  1.0467
  771MPD2    H211437   1.478   0.049  13.464 -1.0120  3.0413 -2.3121
  771MPD2    H311438   1.421   4.567  13.474  0.5130  1.6025  3.4015
  771MPD2     N11439   0.966   4.662  13.431 -0.0113 -0.3703  1.0650
  771MPD2    H511440   0.903   4.735  13.399  0.4101 -0.9471 -1.0712
  771MPD2    N111441   1.305   0.258  13.443  0.4627  0.0031 -0.5188
  771MPD2    H711442   1.223   0.318  13.442  0.9718  0.6676 -2.2543
  772MPD2     C11443   0.942   0.853  13.307 -0.4974 -0.5526  0.2496
  772MPD2    C111444   0.952   0.746  13.391  0.2174 -0.2224 -0.1331
  772MPD2    C211445   0.842   0.687  13.447 -0.1011 -0.1932 -0.3921
  772MPD2    C311446   0.708   0.728  13.422 -0.3330 -0.6759  0.4309
  772MPD2    C411447   0.693   0.818  13.325  1.3710  0.9133  0.3115
  772MPD2    C511448   0.810   0.881  13.271  0.4213  0.1636  0.5342
  772MPD2     H11449   0.854   0.607  13.519  0.6701 -1.8034 -2.3055
  772MPD2    H111450   0.603   0.861  13.284  0.1428 -0.4165  1.6371
  772MPD2    H211451   1.023   0.901  13.254 -1.1584 -2.3193 -2.3573
  772MPD2    H311452   0.794   0.954  13.193 -0.0926 -0.3027  0.1991
  772MPD2     N11453   0.593   0.665  13.479 -0.0620  0.4919  0.6716
  772MPD2    H511454   0.503   0.707  13.457  0.0432  0.0762 -0.5115
  772MPD2    N111455   1.080   0.685  13.423  0.3348 -0.2889 -0.5058
  772MPD2    H711456   1.082   0.603  13.482 -0.2601 -0.7045 -1.0628
  773MPD2     C11457   0.138   1.519  17.659  0.0793  0.5663 -0.0854
  773MPD2    C111458   0.074   1.401  17.640  0.0268 -0.0992  0.2945
  773MPD2    C211459   0.130   1.292  17.704  0.2424 -0.0846 -0.6844
  773MPD2    C311460   0.242   1.302   0.043 -0.4566 -0.3079 -0.3855
  773MPD2    C411461   0.296   1.419   0.061 -0.0412  0.2040  0.0681
  773MPD2    C511462   0.245   1.523  17.740 -0.7587 -0.7293  0.2019
  773MPD2     H11463   0.079   1.197  17.691  0.1403 -0.4468  2.5097
  773MPD2    H111464   0.376   1.440   0.130 -0.0440 -0.6041  0.3159
  773MPD2    H211465   0.101   1.615  17.625  2.5138  1.6332  0.2405
  773MPD2    H311466   0.284   1.623   0.017 -0.8038 -0.2711 -1.8918
  773MPD2     N11467   0.280   1.179   0.110 -0.3025 -0.3337  0.0369
  773MPD2    H511468   0.224   1.095   0.095 -0.6107 -0.2804  0.8946
  773MPD2    N111469   4.689   1.387  17.576  0.3909  0.1725  0.2717
  773MPD2    H711470   4.654   1.293  17.564  0.2294  0.5495 -2.2992
  774MPD2     C11471   4.371   0.371  13.018 -0.0114 -0.3487  0.6415
  774MPD2    C111472   4.384   0.386  13.156  0.3841  0.2213  0.1062
  774MPD2    C211473   4.468   0.480  13.207 -0.9598  0.0292 -0.3357
  774MPD2    C311474   4.544   0.558  13.120 -0.3188  0.5612 -0.1324
  774MPD2    C411475   4.546   0.531  12.984 -0.1652 -0.3285 -0.0467
  774MPD2    C511476   4.457   0.433  12.932  0.3857 -0.0066 -0.3423
  774MPD2     H11477   4.464   0.505  13.312  1.3024 -1.4607  0.1023
  774MPD2    H111478   4.621   0.577  12.921  0.6363 -1.0668  0.3704
  774MPD2    H211479   4.297   0.311  12.966 -0.2841  0.1596  0.4442
  774MPD2    H311480   4.446   0.400  12.829 -1.3563 -0.2511 -0.0667
  774MPD2     N11481   4.626   0.652  13.184  0.0882  0.1785  0.5272
  774MPD2    H511482   4.605   0.666  13.283  1.8113  2.6417  0.5521
  774MPD2    N111483   4.305   0.313  13.249 -0.0300 -0.1476 -0.1418
  774MPD2    H711484   4.318   0.329  13.348 -1.1154  1.2923 -0.2308
  775MPD2     C11485   0.749   1.789  15.808 -0.6707  0.7734  0.0029
  775MPD2    C111486   0.770   1.922  15.838 -0.0957  0.3144  0.4893
  775MPD2    C211487   0.862   1.999  15.762 -0.3305 -0.1678 -0.2177
  775MPD2    C311488   0.914   1.939  15.647 -0.1994 -0.4675  0.3892
  775MPD2    C411489   0.888   1.811  15.614  0.9345 -0.0437 -0.4904
  775MPD2    C511490   0.803   1.736  15.693  1.1102 -0.4642 -0.1498
  775MPD2     H11491   0.885   2.100  15.794 -0.6254 -0.3747  0.6444
  775MPD2    H111492   0.933   1.759  15.530  0.8607 -1.4227  0.3238
  775MPD2    H211493   0.691   1.719  15.866  1.2125 -1.9167 -1.3817
  775MPD2    H311494   0.779   1.632  15.674  2.8252 -0.4164 -2.5039
  775MPD2     N11495   0.987   2.020  15.557  0.6840  0.1257  0.4370
  775MPD2    H511496   1.012   1.981  15.467  0.7590 -1.2462  1.0616
  775MPD2    N111497   0.701   1.962  15.956  0.0022  0.8527 -0.2087
  775MPD2    H711498   0.660   1.884  16.007  0.2656 -0.3698 -1.8779
  776MPD2     C11499   4.285   2.631  11.672  0.2743  0.7207  0.5764
  776MPD2    C111500   4.351   2.572  11.569  0.2175 -0.4758  0.3433
  776MPD2    C211501   4.452   2.639  11.505  0.1943  0.2304 -0.1851
  776MPD2    C311502   4.486   2.768  11.543 -0.5032  0.9859 -0.5518
  776MPD2    C411503   4.416   2.833  11.646 -0.8997 -0.1157  0.2392
  776MPD2    C511504   4.319   2.763  11.710 -0.0199 -0.2638 -0.5289
  776MPD2     H11505   4.501   2.597  11.418 -2.2458 -2.9718 -0.0140
  776MPD2    H111506   4.434   2.932  11.686 -0.2817  0.1333 -0.6556
  776MPD2    H211507   4.198   2.587  11.720  1.8147 -1.4381  1.3572
  776MPD2    H311508   4.257   2.801  11.791 -1.0009 -0.1995 -1.3043
  776MPD2     N11509   4.571   2.848  11.460 -0.2727 -0.4545  0.5533
  776MPD2    H511510   4.555   2.948  11.471 -2.3411 -0.6522 -0.6646
  776MPD2    N111511   4.302   2.445  11.526  0.0169 -0.2945  0.1874
  776MPD2    H711512   4.223   2.407  11.577 -0.0753 -1.1513 -0.5983
  777MPD2     C11513   0.028   4.694   0.820 -0.0084 -0.4131  0.2787
  777MPD2    C111514   0.120   4.608   0.880 -0.0295 -0.5199  0.0664
  777MPD2    C211515   0.121   4.471   0.843  0.4378  0.7452 -0.5152
  777MPD2    C311516   0.035   4.432   0.740 -0.3504 -0.6343  0.0475
  777MPD2    C411517   4.696   4.519   0.671 -0.3253 -0.4121  0.7131
  777MPD2    C511518   4.691   4.652   0.711 -0.2745  0.3442  0.3471
  777MPD2     H11519   0.174   4.401   0.906  0.3915 -0.4807 -1.8320
  777MPD2    H111520   4.639   4.488   0.585  0.2870  1.6280 -0.4190
  777MPD2    H211521   0.015   0.061   0.850  0.5283  0.1814 -1.5693
  777MPD2    H311522   4.612   4.719   0.679  0.1363  0.2370 -0.8968
  777MPD2     N11523   0.035   4.297   0.716  0.4411  0.3001  0.4387
  777MPD2    H511524   0.105   4.242   0.765 -1.1302 -2.6841 -0.6472
  777MPD2    N111525   0.204   4.664   0.979  0.0509  0.0055 -0.4718
  777MPD2    H711526   0.194   0.026   1.002 -3.2137 -0.7223  1.2214
  778MPD2     C11527   0.644   4.696  15.080 -0.1651 -0.5094 -0.3225
  778MPD2    C111528   0.624   4.623  14.970 -0.1162  0.0870  0.1137
  778MPD2    C211529   0.674   4.675  14.852  0.1317 -0.0193  0.0862
  778MPD2    C311530   0.754   0.053  14.846 -0.6333 -0.1281  0.0767
  778MPD2    C411531   0.771   0.131  14.956  0.2163 -0.3377  0.0663
  778MPD2    C511532   0.711   0.078  15.069  0.5693 -0.4498 -0.0064
  778MPD2     H11533   0.662   4.609  14.767  3.0424  0.2000 -0.4908
  778MPD2    H111534   0.820   0.227  14.948  3.1260 -1.7675  0.9633
  778MPD2    H211535   0.598   4.675  15.176 -0.8200  2.0854 -0.0831
  778MPD2    H311536   0.724   0.137  15.159 -0.0436 -0.0980 -0.1449
  778MPD2     N11537   0.810   0.078  14.721  0.1087 -0.7102 -0.3781
  778MPD2    H511538   0.767   0.041  14.638 -2.8350  0.0622  0.8041
  778MPD2    N111539   0.566   4.493  14.968 -0.3436 -0.5075 -0.0146
  778MPD2    H711540   0.562   4.448  14.877  1.4103 -1.6181  0.4677
  779MPD2     C11541   0.539   3.521  13.809 -0.4416 -0.3359  0.1618
  779MPD2    C111542   0.602   3.464  13.911  0.6217 -0.1572 -0.3497
  779MPD2    C211543   0.627   3.546  14.023 -0.3629  0.1949 -0.4988
  779MPD2    C311544   0.581   3.675  14.024 -1.5776 -0.8156 -0.5707
  779MPD2    C411545   0.506   3.724  13.912  0.0965  0.2268  0.0055
  779MPD2    C511546   0.494   3.648  13.806 -0.5372 -0.4435  0.9069
  779MPD2     H11547   0.670   3.502  14.112 -0.1374  1.9149  0.2289
  779MPD2    H111548   0.467   3.824  13.897 -1.9595 -0.5592  0.1488
  779MPD2    H211549   0.524   3.454  13.725 -1.7103  0.5603 -0.3276
  779MPD2    H311550   0.453   3.683  13.713 -1.4560  0.5179  1.6685
  779MPD2     N11551   0.616   3.762  14.133  0.7058  0.4527  0.3041
  779MPD2    H511552   0.684   3.736  14.204 -0.5666 -1.8867  0.6502
  779MPD2    N111553   0.646   3.327  13.921 -0.0735 -0.0620 -0.7098
  779MPD2    H711554   0.683   3.302  14.012  0.5160 -1.9008 -1.4602
  780MPD2     C11555   0.782   3.498   1.057  0.5944 -0.4537  0.4861
  780MPD2    C111556   0.721   3.395   0.992  0.1662 -0.6420  0.8083
  780MPD2    C211557   0.720   3.391   0.851  0.3165 -0.2936 -0.4754
  780MPD2    C311558   0.788   3.487   0.775 -0.5509 -0.2807 -0.1232
  780MPD2    C411559   0.854   3.585   0.855  0.2404  0.2638  0.2918
  780MPD2    C511560   0.850   3.590   0.991 -0.3578 -0.2222  0.8979
  780MPD2     H11561   0.672   3.310   0.798 -1.3774  0.6091 -0.3207
  780MPD2    H111562   0.901   3.669   0.805  0.1161 -0.8518 -1.6964
  780MPD2    H211563   0.765   3.509   1.163  0.6477 -0.1960  0.4673
  780MPD2    H311564   0.899   3.674   1.037  1.1339  0.4129 -1.8686
  780MPD2     N11565   0.765   3.491   0.636  0.2447 -0.2293  0.0009
  780MPD2    H511566   0.677   3.451   0.604 -0.2670  0.4447  0.5669
  780MPD2    N111567   0.656   3.300   1.067 -0.3268  0.1568  0.0129
  780MPD2    H711568   0.670   3.301   1.168 -0.4295 -2.1557  0.0564
  781MPD2     C11569   2.099   0.589  11.825  0.2474  0.2784 -0.1881
  781MPD2    C111570   2.181   0.564  11.928 -0.0541 -0.2031 -0.0335
  781MPD2    C211571   2.277   0.467  11.908 -0.2562 -0.1738 -0.6017
  781MPD2    C311572   2.301   0.405  11.784 -0.6164  0.7348 -0.5029
  781MPD2    C411573   2.212   0.435  11.686 -0.0766 -0.4852 -0.2912
  781MPD2    C511574   2.116   0.523  11.710 -0.3895  0.2092  0.6564
  781MPD2     H11575   2.325   0.426  11.996 -3.0402  0.6471  1.2983
  781MPD2    H111576   2.211   0.400  11.584 -0.1396  0.7039 -0.7018
  781MPD2    H211577   2.017   0.660  11.829 -0.3654 -0.3977 -0.6737
  781MPD2    H311578   2.044   0.540  11.631 -1.0942 -1.3071  0.9885
  781MPD2     N11579   2.397   0.311  11.758  0.4748  0.5727 -0.0820
  781MPD2    H511580   2.404   0.278  11.662 -0.7694 -0.2932  0.1242
  781MPD2    N111581   2.152   0.619  12.055  0.0250  0.1832  0.7130
  781MPD2    H711582   2.074   0.683  12.056 -1.1998 -1.3609  3.3748
  782MPD2     C11583   0.253   1.676   9.861 -0.5943 -0.4536 -0.6640
  782MPD2    C111584   0.365   1.659   9.938  0.6002  0.4754  0.4169
  782MPD2    C211585   0.402   1.739  10.048 -0.1975 -0.3216 -0.1055
  782MPD2    C311586   0.338   1.856  10.065 -1.1729  0.3438  0.1806
  782MPD2    C411587   0.237   1.893   9.976  0.1150 -0.0292 -0.3712
  782MPD2    C511588   0.197   1.804   9.873 -0.4305  0.1286  0.2294
  782MPD2     H11589   0.484   1.703  10.110  0.7276 -1.4914 -1.9856
  782MPD2    H111590   0.170   1.978   9.982 -0.3534 -0.4415  0.3870
  782MPD2    H211591   0.225   1.609   9.781  0.4096 -0.1183 -1.3098
  782MPD2    H311592   0.114   1.826   9.808  1.6682 -0.3576 -2.6203
  782MPD2     N11593   0.378   1.933  10.174  0.5289 -0.1634 -0.2039
  782MPD2    H511594   0.437   1.884  10.240  0.6009  0.2833  0.0624
  782MPD2    N111595   0.435   1.539   9.920 -0.3357 -0.2823 -0.5652
  782MPD2    H711596   0.391   1.473   9.857 -0.5071  0.0878 -0.8335
  783MPD2     C11597   0.135   1.058  10.509  0.1841  0.1493  0.4681
  783MPD2    C111598   0.227   1.148  10.556 -0.4126 -0.1829 -0.0041
  783MPD2    C211599   0.343   1.166  10.474 -0.0814 -0.2798  0.6237
  783MPD2    C311600   0.347   1.111  10.336  0.1031  0.0739  0.0574
  783MPD2    C411601   0.249   1.022  10.303  0.4039 -0.3567 -0.2394
  783MPD2    C511602   0.147   0.996  10.387 -0.8004 -0.4432 -0.4268
  783MPD2     H11603   0.413   1.244  10.503 -1.1785  1.7377 -2.1561
  783MPD2    H111604   0.235   0.965  10.212  3.8221 -1.7532  0.1360
  783MPD2    H211605   0.052   1.033  10.574  0.1612  0.7890  0.6802
  783MPD2    H311606   0.076   0.921  10.353  0.2528 -1.7165  0.1976
  783MPD2     N11607   0.445   1.152  10.248 -0.3846 -0.0595 -0.1088
  783MPD2    H511608   0.522   1.204  10.287  0.1624 -0.3393 -0.8222
  783MPD2    N111609   0.202   1.203  10.682 -0.4383  0.1444  0.1554
  783MPD2    H711610   0.119   1.182  10.737 -1.1037 -1.3675 -1.4348
  784MPD2     C11611   2.502   1.463   0.496  0.6532 -0.3016  0.5147
  784MPD2    C111612   2.526   1.573   0.580 -0.2640  0.3492 -1.0466
  784MPD2    C211613   2.438   1.680   0.567  0.8103 -0.0359 -0.2198
  784MPD2    C311614   2.324   1.672   0.481  0.1821 -0.3899 -0.2493
  784MPD2    C411615   2.310   1.560   0.397 -0.6175 -0.5663  0.0045
  784MPD2    C511616   2.408   1.469   0.402  0.1498  0.6163 -0.2583
  784MPD2     H11617   2.456   1.769   0.625  2.0204 -2.1890  2.6971
  784MPD2    H111618   2.234   1.554   0.320 -1.8546  2.1025  1.0054
  784MPD2    H211619   2.578   1.386   0.487  0.4304 -0.6164  1.3109
  784MPD2    H311620   2.399   1.384   0.336  0.2562 -1.0365  1.8442
  784MPD2     N11621   2.250   1.794   0.464  0.9145 -0.0628  0.7314
  784MPD2    H511622   2.256   1.868   0.533 -0.2855  0.6451  0.0655
  784MPD2    N111623   2.624   1.588   0.679 -0.1393 -0.4972 -0.0389
  784MPD2    H711624   2.614   1.669   0.739  1.8184 -1.1097  1.1320
  785MPD2     C11625   3.158   4.519  10.877 -0.4161  0.8506  0.3122
  785MPD2    C111626   3.031   4.563  10.855  0.2842  0.5136  0.0455
  785MPD2    C211627   2.977   4.545  10.731  0.3337 -0.9189  0.8671
  785MPD2    C311628   3.040   4.476  10.632 -0.4547 -0.5877  0.1108
  785MPD2    C411629   3.163   4.422  10.654 -0.3941 -0.0246 -0.1223
  785MPD2    C511630   3.219   4.448  10.778 -0.4566 -0.0348 -0.0703
  785MPD2     H11631   2.885   4.590  10.696  1.8634  1.3886 -0.1385
  785MPD2    H111632   3.223   4.381  10.573 -2.6068  1.1908 -2.3611
  785MPD2    H211633   3.211   4.532  10.971  0.2200 -2.2162  0.3725
  785MPD2    H311634   3.324   4.422  10.787  0.0184  1.2454 -1.8794
  785MPD2     N11635   2.986   4.489  10.498  0.1405 -0.0814  0.2983
  785MPD2    H511636   2.892   4.528  10.497 -0.0600 -0.4666  2.7379
  785MPD2    N111637   2.979   4.633  10.968  0.5879 -0.1832  0.2672
  785MPD2    H711638   3.039   4.655  11.046  3.0756 -0.5814 -1.5265
  786MPD2     C11639   1.418   2.861  14.848  0.6496 -0.0425 -0.3648
  786MPD2    C111640   1.439   2.727  14.874 -1.2778 -0.1896  0.6547
  786MPD2    C211641   1.457   2.687  15.003  0.3836 -0.4041 -0.0424
  786MPD2    C311642   1.464   2.778  15.105  0.4922  0.2803  0.3749
  786MPD2    C411643   1.454   2.909  15.076  0.4461 -0.0976 -0.0591
  786MPD2    C511644   1.415   2.953  14.949  0.3299  0.7933 -0.0667
  786MPD2     H11645   1.479   2.585  15.032 -0.1383  0.0384  1.9326
  786MPD2    H111646   1.445   2.981  15.156  0.7549  2.4544 -2.3565
  786MPD2    H211647   1.407   2.900  14.748  0.1021 -0.4640 -0.4728
  786MPD2    H311648   1.381   3.055  14.935 -1.8832 -0.0984 -1.2592
  786MPD2     N11649   1.486   2.741  15.243  0.0661  0.0104 -0.5081
  786MPD2    H511650   1.505   2.822  15.302  0.4305 -0.5054  0.0800
  786MPD2    N111651   1.444   2.630  14.772  0.2475 -0.5332  0.4631
  786MPD2    H711652   1.475   2.541  14.811  1.1147 -0.9525 -1.2013
  787MPD2     C11653   1.815   2.147  14.859 -0.1872  0.0075 -0.2290
  787MPD2    C111654   1.782   2.126  14.730 -1.2720  0.2520  0.0550
  787MPD2    C211655   1.848   2.023  14.666  0.1700 -0.1843 -0.0768
  787MPD2    C311656   1.913   1.919  14.740  0.8678  0.3689 -0.1889
  787MPD2    C411657   1.944   1.947  14.868 -0.1579  0.4605 -0.2244
  787MPD2    C511658   1.893   2.057  14.929  0.0023  0.2255 -0.1115
  787MPD2     H11659   1.831   2.021  14.559 -0.1091  0.3604 -0.0402
  787MPD2    H111660   2.007   1.880  14.926 -1.9767 -1.3372 -0.3225
  787MPD2    H211661   1.769   2.230  14.913  1.4638  0.4440  0.5071
  787MPD2    H311662   1.923   2.073  15.032  0.7258  1.7894 -0.5590
  787MPD2     N11663   1.953   1.800  14.674  0.0850 -0.1665 -0.1856
  787MPD2    H511664   1.937   1.802  14.574 -1.3661 -1.1104  0.0281
  787MPD2    N111665   1.696   2.222  14.664  0.5895  0.2618  0.0975
  787MPD2    H711666   1.656   2.291  14.727 -0.8445  0.0444 -0.5793
  788MPD2     C11667   3.323   1.501   1.048  0.6206  0.5224 -0.0803
  788MPD2    C111668   3.264   1.397   0.983  0.4652 -0.0864  0.5902
  788MPD2    C211669   3.220   1.425   0.851  0.5747  0.2624  0.2360
  788MPD2    C311670   3.240   1.553   0.801 -0.1708  0.0134  0.0675
  788MPD2    C411671   3.295   1.654   0.877 -0.1147 -0.3496  0.0650
  788MPD2    C511672   3.333   1.628   1.006  0.1017 -0.2517 -0.1763
  788MPD2     H11673   3.178   1.345   0.793  1.9226  0.1275 -0.5432
  788MPD2    H111674   3.319   1.749   0.830 -0.1651 -1.1116 -1.4879
  788MPD2    H211675   3.360   1.483   1.148  0.0130  1.1423  0.2668
  788MPD2    H311676   3.370   1.702   1.077 -0.6706  1.5292 -1.6152
  788MPD2     N11677   3.195   1.588   0.670 -0.1677 -0.2964  0.9558
  788MPD2    H511678   3.219   1.677   0.627 -1.6521 -0.3889 -0.0621
  788MPD2    N111679   3.265   1.259   1.028 -0.0020 -0.1905 -0.8353
  788MPD2    H711680   3.224   1.185   0.972  3.4161 -0.8587 -2.4362
  789MPD2     C11681   3.533   0.340  16.615  0.1892 -0.2937 -0.7909
  789MPD2    C111682   3.415   0.297  16.570 -0.2175 -0.5321 -0.0380
  789MPD2    C211683   3.304   0.365  16.609 -0.0640  0.0965  0.0137
  789MPD2    C311684   3.316   0.471  16.694  0.3898  0.0893 -0.8776
  789MPD2    C411685   3.444   0.514  16.737 -0.2214  0.5406 -0.0079
  789MPD2    C511686   3.552   0.438  16.708 -0.3214  0.9355 -0.2333
  789MPD2     H11687   3.214   0.335  16.555 -0.6671 -1.0972  1.6777
  789MPD2    H111688   3.458   0.605  16.794 -3.3588  2.0783 -1.6825
  789MPD2    H211689   3.624   0.295  16.578 -0.6385 -0.6893 -2.3523
  789MPD2    H311690   3.654   0.457  16.737 -0.6714 -2.2458  3.1144
  789MPD2     N11691   3.210   0.547  16.738  0.1652  0.9895  0.3458
  789MPD2    H511692   3.229   0.624  16.801  0.4905  0.0338  1.4121
  789MPD2    N111693   3.393   0.192  16.477 -0.8270  0.2469  0.3604
  789MPD2    H711694   3.301   0.177  16.437 -1.9315 -2.2837  3.8496
  790MPD2     C11695   0.397   2.440  13.256  0.1351  0.7584  0.1774
  790MPD2    C111696   0.328   2.324  13.211  0.1725 -0.3468 -0.4150
  790MPD2    C211697   0.286   2.311  13.084 -0.2175 -0.2245  0.5897
  790MPD2    C311698   0.279   2.420  13.001  0.4999  0.5399 -0.5024
  790MPD2    C411699   0.326   2.539  13.041  0.5033 -0.4152 -0.2061
  790MPD2    C511700   0.392   2.546  13.166  0.7368 -0.1555  0.0498
  790MPD2     H11701   0.250   2.213  13.055 -1.7120  0.3271  0.5463
  790MPD2    H111702   0.332   2.630  12.983 -1.3782  0.1617  0.5204
  790MPD2    H211703   0.428   2.454  13.358  0.7024  0.8791 -0.0116
  790MPD2    H311704   0.437   2.640  13.195  1.4768 -0.4767 -0.0418
  790MPD2     N11705   0.211   2.402  12.879 -0.0248  0.4884  0.1028
  790MPD2    H511706   0.177   2.309  12.858 -1.5626  1.1067 -0.1246
  790MPD2    N111707   0.325   2.229  13.320  0.0415  0.1593 -0.0152
  790MPD2    H711708   0.375   2.254  13.405 -0.0180  1.1655 -0.2716
  791MPD2     C11709   4.225   2.295  12.452  0.8510  0.3342 -0.0077
  791MPD2    C111710   4.308   2.237  12.541 -0.7643 -0.3155  0.1120
  791MPD2    C211711   4.261   2.133  12.617 -0.4467  0.3063 -0.0330
  791MPD2    C311712   4.132   2.091  12.604  0.3715 -0.1953 -0.2050
  791MPD2    C411713   4.045   2.157  12.521  0.1017 -0.9820  0.3118
  791MPD2    C511714   4.093   2.259  12.446  0.4980  0.7194  0.6820
  791MPD2     H11715   4.331   2.079  12.681 -0.1195  0.8559  0.0683
  791MPD2    H111716   3.940   2.132  12.516 -0.0781  0.6047 -3.7586
  791MPD2    H211717   4.259   2.374  12.385 -0.0770  1.4973  0.8867
  791MPD2    H311718   4.026   2.310  12.378  1.0780  0.3333 -0.1759
  791MPD2     N11719   4.090   1.978  12.685  0.4002  0.0963 -0.0155
  791MPD2    H511720   4.162   1.945  12.748  2.0100  2.2635 -0.7282
  791MPD2    N111721   4.440   2.295  12.547 -0.4981 -0.1676 -0.0782
  791MPD2    H711722   4.465   2.370  12.483  2.3881 -0.4839  0.6751
  792MPD2     C11723   0.541   2.384  11.245 -0.1582  0.3875 -0.1397
  792MPD2    C111724   0.544   2.457  11.131  0.1477 -0.1170 -0.1430
  792MPD2    C211725   0.426   2.480  11.071  0.3491  0.2894  0.4510
  792MPD2    C311726   0.303   2.440  11.133  0.1153 -0.1173  0.3640
  792MPD2    C411727   0.307   2.366  11.249 -0.2245  0.3571 -0.0503
  792MPD2    C511728   0.429   2.333  11.303  0.1298  0.3043  0.6503
  792MPD2     H11729   0.423   2.532  10.976  0.5611 -0.7791 -0.1450
  792MPD2    H111730   0.219   2.332  11.301 -0.3614  1.4850  0.4598
  792MPD2    H211731   0.631   2.372  11.305  0.4077  0.2711 -1.0120
  792MPD2    H311732   0.426   2.263  11.386  1.6277 -0.0015  0.4451
  792MPD2     N11733   0.173   2.460  11.075 -0.0029 -0.3170  0.5256
  792MPD2    H511734   0.100   2.416  11.130 -0.5098 -1.1269 -0.7981
  792MPD2    N111735   0.674   2.484  11.084 -0.0087 -0.0402 -0.0980
  792MPD2    H711736   0.746   2.449  11.148 -0.4740  1.3739  1.2042
  793MPD2     C11737   4.362   2.372  10.172  0.2835 -0.1110 -0.7112
  793MPD2    C111738   4.498   2.373  10.200 -0.5878 -0.1890  0.4318
  793MPD2    C211739   4.539   2.432  10.316  0.2966 -0.1811  0.3900
  793MPD2    C311740   4.440   2.459  10.414  0.1232  0.3288 -0.5816
  793MPD2    C411741   4.306   2.452  10.385  0.1470 -0.6077  0.9287
  793MPD2    C511742   4.266   2.411  10.264 -0.0571  0.1196  0.1415
  793MPD2     H11743   4.644   2.447  10.340  0.0838  0.8727  0.6362
  793MPD2    H111744   4.234   2.494  10.454 -0.4148 -0.8506  0.4945
  793MPD2    H211745   4.317   2.350  10.076  0.5912 -1.6526 -0.5033
  793MPD2    H311746   4.164   2.422  10.229  0.3640  3.4284 -0.0524
  793MPD2     N11747   4.472   2.503  10.546 -0.0455  0.3412  0.1670
  793MPD2    H511748   4.391   2.534  10.599 -0.8688 -0.6400 -0.5126
  793MPD2    N111749   4.592   2.326  10.107 -0.6257 -0.0420 -0.6739
  793MPD2    H711750   4.689   2.321  10.136 -0.4441  0.2126 -1.2230
  794MPD2     C11751   3.906   1.733  17.375  0.5283 -0.2086 -0.1352
  794MPD2    C111752   3.964   1.683  17.259 -0.5018 -0.3160 -0.3733
  794MPD2    C211753   3.890   1.689  17.145 -0.5612  0.3438 -0.4434
  794MPD2    C311754   3.763   1.726  17.144  0.5756 -0.5857 -0.4851
  794MPD2    C411755   3.710   1.776  17.256 -0.8850 -0.3431 -0.8838
  794MPD2    C511756   3.785   1.784  17.373  0.5682 -0.3135 -0.1919
  794MPD2     H11757   3.941   1.665  17.052  1.1783 -2.6635  1.3110
  794MPD2    H111758   3.611   1.818  17.244 -1.0460 -0.5333 -0.2238
  794MPD2    H211759   3.949   1.728  17.474  0.5220 -1.0270 -0.1771
  794MPD2    H311760   3.733   1.811  17.464 -0.4825 -2.8459 -0.0315
  794MPD2     N11761   3.686   1.748  17.024  0.2006  0.1482  0.3977
  794MPD2    H511762   3.597   1.798  17.023  0.5697  0.7293 -2.1420
  794MPD2    N111763   4.091   1.617  17.264 -0.2385 -0.1663 -0.2486
  794MPD2    H711764   4.140   1.594  17.178 -0.9076 -1.2223 -0.3516
  795MPD2     C11765   1.913   3.906  13.467 -0.2102 -0.0010  0.3651
  795MPD2    C111766   1.968   3.894  13.339 -0.2170  0.0326  0.4928
  795MPD2    C211767   2.058   3.789  13.321 -0.6033 -0.1341 -0.1044
  795MPD2    C311768   2.111   3.714  13.424  0.4322 -0.4416 -0.1591
  795MPD2    C411769   2.066   3.746  13.551 -0.0658  1.1603 -0.1508
  795MPD2    C511770   1.972   3.840  13.568 -0.2813  0.0693 -0.5235
  795MPD2     H11771   2.098   3.768  13.222  1.1629 -0.0332  0.5878
  795MPD2    H111772   2.107   3.695  13.637  1.5930  1.8220 -0.5463
  795MPD2    H211773   1.835   3.979  13.485 -1.4331 -1.1317 -0.3581
  795MPD2    H311774   1.929   3.853  13.667 -2.5728 -2.1638 -1.2190
  795MPD2     N11775   2.219   3.624  13.403 -0.1348 -0.1605  0.2495
  795MPD2    H511776   2.274   3.635  13.318  1.5456 -0.0600  1.3416
  795MPD2    N111777   1.905   3.960  13.227 -0.5058 -0.5389 -0.4344
  795MPD2    H711778   1.910   3.920  13.134 -1.3815 -0.2424 -0.6031
  796MPD2     C11779   1.333   0.286  15.809 -0.5563  0.4747  0.0750
  796MPD2    C111780   1.406   0.359  15.898  0.3535 -0.1634  0.3221
  796MPD2    C211781   1.380   0.495  15.914 -0.4909  0.2481 -0.1573
  796MPD2    C311782   1.281   0.557  15.840  0.7007  0.7824 -0.5593
  796MPD2    C411783   1.213   0.480  15.745 -0.2958  0.2640  0.0381
  796MPD2    C511784   1.236   0.344  15.733  0.0541 -0.3672  0.7798
  796MPD2     H11785   1.437   0.559  15.980 -0.9796  1.1117 -0.5676
  796MPD2    H111786   1.133   0.518  15.683 -0.1785 -0.8604 -0.8060
  796MPD2    H211787   1.343   0.178  15.800 -2.5184  0.4578 -1.8941
  796MPD2    H311788   1.191   0.283  15.656  1.1031  1.6997 -1.4632
  796MPD2     N11789   1.271   0.696  15.859 -0.4518 -0.0312 -0.0235
  796MPD2    H511790   1.344   0.730  15.921  0.3452 -0.0404 -0.9538
  796MPD2    N111791   1.504   0.293  15.969 -0.2626 -0.0678  0.2242
  796MPD2    H711792   1.519   0.197  15.940 -1.3915 -0.4431  0.8922
  797MPD2     C11793   3.324   0.291  17.044  0.5266 -0.0471 -0.2063
  797MPD2    C111794   3.209   0.298  17.119  0.3603 -0.1503  0.7695
  797MPD2    C211795   3.083   0.251  17.072 -0.6667 -0.4426  0.2014
  797MPD2    C311796   3.079   0.206  16.940 -0.1276  0.0421  0.7322
  797MPD2    C411797   3.199   0.193  16.867 -0.5650  0.1343 -0.5830
  797MPD2    C511798   3.316   0.230  16.918  0.0560 -0.1464  1.2760
  797MPD2     H11799   2.999   0.272  17.138 -1.3906  0.9521 -1.1827
  797MPD2    H111800   3.196   0.148  16.768 -0.7570 -0.1002 -0.4685
  797MPD2    H211801   3.423   0.319  17.078  0.0605 -0.8389  1.8122
  797MPD2    H311802   3.409   0.205  16.867 -0.5198  0.6418 -0.1476
  797MPD2     N11803   2.959   0.174  16.869  0.0415 -0.1228  0.1857
  797MPD2    H511804   2.966   0.144  16.772 -1.1938 -0.6712  0.2734
  797MPD2    N111805   3.205   0.358  17.248  0.6426 -0.1977 -0.4422
  797MPD2    H711806   3.122   0.338  17.302  0.0272 -0.5174 -1.5030
  798MPD2     C11807   2.481   0.463  17.260  0.0557  0.2985 -0.2213
  798MPD2    C111808   2.589   0.406  17.210  0.5933 -1.0565  0.0713
  798MPD2    C211809   2.712   0.417  17.273 -0.4158  0.1335  0.6250
  798MPD2    C311810   2.727   0.492  17.387  1.1442  0.2564 -0.4563
  798MPD2    C411811   2.620   0.563  17.436  0.3134 -0.5285  0.7638
  798MPD2    C511812   2.495   0.553  17.372  0.5140 -0.1380 -0.0496
  798MPD2     H11813   2.799   0.376  17.222 -0.6521 -1.1999  1.3113
  798MPD2    H111814   2.632   0.624  17.524  0.3060 -0.8575  0.9950
  798MPD2    H211815   2.380   0.441  17.230 -0.7789  1.6824  1.5621
  798MPD2    H311816   2.411   0.597  17.425 -0.5329 -2.9113  0.5541
  798MPD2     N11817   2.859   0.489  17.439 -0.4872 -0.4561  0.7949
  798MPD2    H511818   2.913   0.413  17.400  0.7622  1.2098 -0.7189
  798MPD2    N111819   2.589   0.326  17.098 -0.0131  0.2670 -0.7572
  798MPD2    H711820   2.671   0.268  17.078  0.0286 -0.3871  1.3592
  799MPD2     C11821   1.608   1.619  14.704  0.3434 -0.3586  0.5800
  799MPD2    C111822   1.541   1.556  14.603  0.9374 -0.6969 -0.3995
  799MPD2    C211823   1.506   1.623  14.491 -0.4600  0.7625 -0.6002
  799MPD2    C311824   1.520   1.761  14.485 -0.3179 -0.3840  0.1527
  799MPD2    C411825   1.583   1.826  14.584 -0.2829  0.6052 -0.1918
  799MPD2    C511826   1.621   1.758  14.694  0.5275 -0.0526  0.0630
  799MPD2     H11827   1.453   1.573  14.411 -0.6720  3.1043 -1.9197
  799MPD2    H111828   1.605   1.932  14.583  0.3266  0.4725 -0.7747
  799MPD2    H211829   1.649   1.569  14.791  0.2390  1.4826  1.6994
  799MPD2    H311830   1.670   1.810  14.776  2.8487 -1.3684 -0.5057
  799MPD2     N11831   1.481   1.847  14.377 -0.3032 -0.2458 -0.0114
  799MPD2    H511832   1.517   1.942  14.387  1.2003 -0.5642 -2.2885
  799MPD2    N111833   1.534   1.416  14.591  0.1523 -0.1352  0.6043
  799MPD2    H711834   1.498   1.383  14.501  2.5742 -0.9571 -0.0731
  800MPD2     C11835   1.931   3.136  13.845  0.4276 -0.1035 -0.7148
  800MPD2    C111836   2.054   3.080  13.825  0.2224 -0.2865  0.2428
  800MPD2    C211837   2.070   2.948  13.781 -0.4146 -0.0032 -0.8474
  800MPD2    C311838   1.956   2.871  13.765 -0.0359  0.2941 -0.1421
  800MPD2    C411839   1.833   2.927  13.797 -0.4096  0.4936  0.5406
  800MPD2    C511840   1.817   3.055  13.827 -0.8011  0.0171 -0.1321
  800MPD2     H11841   2.173   2.919  13.764 -0.7215 -0.6183 -1.6302
  800MPD2    H111842   1.743   2.865  13.795 -0.9368  1.2806 -0.2674
  800MPD2    H211843   1.921   3.242  13.867  2.6204 -0.1364  0.4204
  800MPD2    H311844   1.719   3.092  13.853 -2.0937  0.3073 -5.4472
  800MPD2     N11845   1.973   2.732  13.731 -0.3462 -0.2198 -0.4811
  800MPD2    H511846   1.891   2.673  13.742 -0.4955  0.1499  0.3816
  800MPD2    N111847   2.176   3.148  13.844 -0.5142  0.2434  0.5673
  800MPD2    H711848   2.262   3.094  13.843 -1.3179 -1.0092 -0.3767
  801MPD2     C11849   2.388   3.803  14.262  0.7305  0.0967 -0.4530
  801MPD2    C111850   2.300   3.710  14.207 -0.0901 -0.5627 -0.9406
  801MPD2    C211851   2.169   3.709  14.246 -0.1102 -0.5187 -0.1373
  801MPD2    C311852   2.119   3.793  14.349 -0.3265 -0.8362  0.3521
  801MPD2    C411853   2.205   3.892  14.395 -0.2433 -0.2123 -0.0301
  801MPD2    C511854   2.337   3.883  14.358  0.1038  0.4887 -0.2329
  801MPD2     H11855   2.092   3.648  14.202  0.0847 -0.7863 -0.1094
  801MPD2    H111856   2.175   3.973  14.460 -0.6393 -0.2344 -0.1848
  801MPD2    H211857   2.490   3.829  14.235  0.1349  4.3626  1.4964
  801MPD2    H311858   2.404   3.963  14.387  0.5587 -0.2027  0.6438
  801MPD2     N11859   1.983   3.793  14.399  0.3089 -0.2412  0.2247
  801MPD2    H511860   1.955   3.867  14.463  1.7448 -1.2037  1.9677
  801MPD2    N111861   2.344   3.620  14.112  0.2507 -0.2511 -0.4503
  801MPD2    H711862   2.264   3.568  14.079 -0.0563  1.5662 -2.5665
  802MPD2     C11863   1.248   4.370  17.407  0.3080  0.3797 -0.4005
  802MPD2    C111864   1.336   4.306  17.495 -0.4725 -0.6645 -0.0598
  802MPD2    C211865   1.379   4.182  17.459  0.0632  0.0205  0.3597
  802MPD2    C311866   1.322   4.115  17.357 -0.2161  0.0120  0.0922
  802MPD2    C411867   1.229   4.175  17.279  0.6226 -0.1510  0.1671
  802MPD2    C511868   1.200   4.308  17.290 -0.0573  0.9594  0.4774
  802MPD2     H11869   1.461   4.128  17.504  0.2284  0.1553  0.2230
  802MPD2    H111870   1.184   4.127  17.193 -1.1709 -0.0892  1.0627
  802MPD2    H211871   1.226   4.476  17.413  2.6013  0.8257  0.1762
  802MPD2    H311872   1.135   4.356  17.218 -1.0931 -1.5808 -0.2804
  802MPD2     N11873   1.362   3.981  17.328  0.0242  0.3325 -0.4590
  802MPD2    H511874   1.442   3.944  17.378 -1.2360 -0.7239  0.7914
  802MPD2    N111875   1.379   4.360  17.618 -0.2141  0.1803 -0.2055
  802MPD2    H711876   1.418   4.292  17.682 -0.1424 -1.7028 -2.2683
  803MPD2     C11877   2.592   1.715  12.701  0.4250  0.6606  0.1459
  803MPD2    C111878   2.697   1.794  12.716 -0.2383  0.0831  0.3225
  803MPD2    C211879   2.749   1.809  12.849  0.5904  0.2849  0.3073
  803MPD2    C311880   2.681   1.768  12.963 -0.8426  0.3832 -0.2362
  803MPD2    C411881   2.576   1.687  12.936 -0.0571  0.7102  0.0751
  803MPD2    C511882   2.529   1.669  12.814 -0.1942 -0.5638  0.2873
  803MPD2     H11883   2.846   1.856  12.859 -0.1199  1.6819  0.6266
  803MPD2    H111884   2.528   1.642  13.021 -1.4291  2.2362  0.1062
  803MPD2    H211885   2.545   1.693  12.606  2.1045 -2.8239  0.1428
  803MPD2    H311886   2.446   1.600  12.803 -1.3584  1.1717 -1.8596
  803MPD2     N11887   2.722   1.794  13.094  0.1563 -0.6022  0.0670
  803MPD2    H511888   2.685   1.726  13.160 -0.1017  1.3625  1.9523
  803MPD2    N111889   2.761   1.853  12.611  0.1238  0.3593 -0.1465
  803MPD2    H711890   2.855   1.889  12.619  0.1037  0.4671 -0.3735
  804MPD2     C11891   1.852   3.476  16.980 -0.6015  0.1812 -0.6051
  804MPD2    C111892   1.862   3.455  17.121  0.7942 -0.5696  0.2234
  804MPD2    C211893   1.952   3.531  17.191  0.0368 -0.2878  0.6314
  804MPD2    C311894   2.037   3.614  17.128 -0.2768  0.9822 -0.1309
  804MPD2    C411895   2.033   3.628  16.990 -0.0769 -0.4984 -0.5527
  804MPD2    C511896   1.938   3.557  16.918  0.5043  0.3191  0.0431
  804MPD2     H11897   1.964   3.516  17.297 -1.1063  1.3158  0.9921
  804MPD2    H111898   2.105   3.691  16.938  2.2246 -0.1427  3.0093
  804MPD2    H211899   1.794   3.408  16.919  0.7782 -1.2797 -0.2989
  804MPD2    H311900   1.941   3.560  16.810 -1.9707 -1.0199 -0.0569
  804MPD2     N11901   2.130   3.670  17.219  0.2760  0.1276  0.2045
  804MPD2    H511902   2.123   3.644  17.317 -0.3841 -2.5840 -0.5476
  804MPD2    N111903   1.792   3.358  17.195  0.2492 -0.1843 -0.7805
  804MPD2    H711904   1.804   3.340  17.294  1.3592  2.5550 -0.4364
  805MPD2     C11905   1.113   1.528  15.500 -0.4616  0.2039  0.4518
  805MPD2    C111906   1.200   1.596  15.417  0.4640 -0.2696  0.6103
  805MPD2    C211907   1.331   1.605  15.460 -0.3216 -0.2207 -0.4922
  805MPD2    C311908   1.364   1.566  15.590  0.2517 -0.7757  0.3482
  805MPD2    C411909   1.274   1.512  15.676  0.1136 -0.3223 -0.5758
  805MPD2    C511910   1.146   1.498  15.630  0.4866  0.0172  0.0124
  805MPD2     H11911   1.406   1.662  15.407 -0.3583  0.0193 -0.2900
  805MPD2    H111912   1.283   1.483  15.780 -2.9164 -1.5787 -0.6475
  805MPD2    H211913   1.016   1.490  15.469 -0.1245  0.1077 -0.4828
  805MPD2    H311914   1.066   1.457  15.692 -0.5596  0.6599 -0.9080
  805MPD2     N11915   1.499   1.594  15.628 -0.3600 -0.4992 -0.3175
  805MPD2    H511916   1.555   1.654  15.569  0.1039 -0.7881 -0.1708
  805MPD2    N111917   1.170   1.630  15.278 -0.0116 -0.2404 -0.1522
  805MPD2    H711918   1.230   1.698  15.232 -0.4464  0.5288  0.4105
  806MPD2     C11919   1.576   1.544   0.560  0.1093 -0.4834 -0.1443
  806MPD2    C111920   1.654   1.656   0.555 -0.3854  0.1041  0.0779
  806MPD2    C211921   1.691   1.709   0.436 -0.4096 -0.4196  0.0332
  806MPD2    C311922   1.675   1.639   0.320 -0.1867 -0.5238 -0.3276
  806MPD2    C411923   1.616   1.512   0.332  0.0974  0.0995 -0.3242
  806MPD2    C511924   1.559   1.470   0.452  0.5544  0.1037  0.7079
  806MPD2     H11925   1.731   1.809   0.433  2.1394 -1.4248  0.1716
  806MPD2    H111926   1.622   1.441   0.250  4.2686 -2.2296  1.9721
  806MPD2    H211927   1.533   1.518   0.656  0.1731  1.1758  0.3198
  806MPD2    H311928   1.501   1.380   0.465  1.8856 -0.6780  1.2702
  806MPD2     N11929   1.722   1.695   0.194  0.3671 -0.7978  0.1171
  806MPD2    H511930   1.737   1.796   0.190  1.3106 -0.9801 -0.7758
  806MPD2    N111931   1.676   1.728   0.673 -0.5091 -0.1573 -0.4842
  806MPD2    H711932   1.644   1.693   0.763  1.5408 -0.2748  0.1823
  807MPD2     C11933   1.347   1.787   1.260  0.4030 -0.3165  0.3759
  807MPD2    C111934   1.421   1.711   1.167  0.1339  0.1926 -0.6349
  807MPD2    C211935   1.376   1.580   1.142  0.9332 -0.0445  0.2573
  807MPD2    C311936   1.263   1.526   1.203  0.6871  0.2422  0.0220
  807MPD2    C411937   1.204   1.601   1.304 -0.3375 -0.0028  0.0239
  807MPD2    C511938   1.241   1.729   1.329 -0.3846 -0.5401  0.6407
  807MPD2     H11939   1.432   1.516   1.075  0.1655 -0.6750  0.2188
  807MPD2    H111940   1.125   1.562   1.368 -1.9636  2.6005 -0.4074
  807MPD2    H211941   1.375   1.891   1.273  1.2203 -0.3876 -0.8006
  807MPD2    H311942   1.201   1.794   1.406  1.2091  1.2833 -0.0555
  807MPD2     N11943   1.230   1.390   1.174 -0.2132 -0.3839 -0.4445
  807MPD2    H511944   1.293   1.343   1.110 -0.1486 -0.3003 -0.4423
  807MPD2    N111945   1.527   1.766   1.095  0.4342  0.0767 -0.3577
  807MPD2    H711946   1.565   1.703   1.025  0.6298 -0.9665  0.6953
  808MPD2     C11947   2.845   3.873   9.668  0.5187  0.1979 -0.0591
  808MPD2    C111948   2.873   3.848   9.798  0.2127 -0.3352 -0.0749
  808MPD2    C211949   2.921   3.938   9.888  0.0404 -0.4375  0.2574
  808MPD2    C311950   2.958   4.069   9.838  0.5084 -0.1233  0.0646
  808MPD2    C411951   2.939   4.094   9.701  0.0805 -0.1647 -0.7844
  808MPD2    C511952   2.885   3.995   9.623  0.1476 -0.3995  1.1995
  808MPD2     H11953   2.942   3.914   9.992 -0.1056 -2.7503 -0.2437
  808MPD2    H111954   2.961   4.189   9.654 -0.9416 -0.4005 -1.7418
  808MPD2    H211955   2.800   3.803   9.599  0.5364 -0.6898  0.8319
  808MPD2    H311956   2.861   4.027   9.522  1.5287 -1.9775  0.3629
  808MPD2     N11957   3.032   4.162   9.913  0.1662  0.6500  0.1471
  808MPD2    H511958   3.073   4.239   9.861 -0.6116  0.1022 -1.2681
  808MPD2    N111959   2.859   3.713   9.839 -0.5872  0.1163 -0.4199
  808MPD2    H711960   2.871   3.694   9.938 -1.3350 -0.0872 -0.3741
  809MPD2     C11961   3.797   4.439   9.651 -0.0346  0.1026  0.7731
  809MPD2    C111962   3.789   4.304   9.671  0.0032 -0.2955 -0.1371
  809MPD2    C211963   3.695   4.251   9.759  0.2288 -0.1906 -0.0658
  809MPD2    C311964   3.611   4.335   9.835 -0.4913  0.5131 -0.4167
  809MPD2    C411965   3.618   4.464   9.808 -0.3455 -0.2137 -0.4320
  809MPD2    C511966   3.707   4.518   9.716  1.1059 -0.5158  0.0458
  809MPD2     H11967   3.683   4.143   9.762 -0.9114 -0.0140  1.4197
  809MPD2    H111968   3.544   4.531   9.851 -0.2842 -0.1496 -0.4248
  809MPD2    H211969   3.859   4.483   9.574 -1.2402  0.8491  0.2376
  809MPD2    H311970   3.710   4.625   9.698  0.2576 -0.4480  0.2899
  809MPD2     N11971   3.514   4.280   9.918 -0.1904 -0.3036 -0.5467
  809MPD2    H511972   3.450   4.348   9.957  0.8718 -0.1196  0.8683
  809MPD2    N111973   3.878   4.210   9.613  0.4742 -0.1405  0.1371
  809MPD2    H711974   3.867   4.111   9.633  1.4158 -0.3272 -0.2885
  810MPD2     C11975   2.144   2.254  10.655 -0.0997  0.1922  0.2348
  810MPD2    C111976   2.135   2.330  10.545 -0.1378 -0.2295  0.4833
  810MPD2    C211977   2.164   2.466  10.542 -0.3868 -0.3163 -0.3348
  810MPD2    C311978   2.189   2.530  10.667 -0.1607  0.1798 -0.5394
  810MPD2    C411979   2.205   2.454  10.777 -0.9166 -0.1367  0.6462
  810MPD2    C511980   2.184   2.314  10.776 -0.1318  0.2769  0.3133
  810MPD2     H11981   2.157   2.524  10.450  1.8798  0.8956  0.2717
  810MPD2    H111982   2.227   2.505  10.870  0.7301  1.8236 -0.8331
  810MPD2    H211983   2.122   2.149  10.640  0.6158  0.1761 -0.6379
  810MPD2    H311984   2.182   2.252  10.865 -1.4275 -1.2032 -0.7547
  810MPD2     N11985   2.217   2.664  10.672  0.0490 -0.3324  0.2088
  810MPD2    H511986   2.249   2.709  10.756  1.8193  0.2593 -0.7838
  810MPD2    N111987   2.073   2.267  10.432 -0.7679 -0.0660 -0.0725
  810MPD2    H711988   2.035   2.173  10.435  2.1923 -1.3134 -1.9197
  811MPD2     C11989   1.493   2.534   9.788  0.1660 -0.0074 -0.6706
  811MPD2    C111990   1.606   2.561   9.862  0.0281 -0.2293  0.5911
  811MPD2    C211991   1.660   2.693   9.856 -0.1527 -0.3049 -0.4278
  811MPD2    C311992   1.598   2.786   9.779 -0.5181  0.2750  0.3407
  811MPD2    C411993   1.485   2.754   9.707 -0.7588 -0.2767  0.2677
  811MPD2    C511994   1.434   2.632   9.712 -0.2545 -0.0285 -0.1596
  811MPD2     H11995   1.745   2.705   9.923  0.5491 -1.0570 -1.1882
  811MPD2    H111996   1.438   2.830   9.645 -0.7519 -0.9304 -0.5374
  811MPD2    H211997   1.438   2.441   9.797 -0.1692  0.0220 -2.3983
  811MPD2    H311998   1.336   2.606   9.673  0.2765 -0.4075 -1.2294
  811MPD2     N11999   1.662   2.910   9.791  0.1346  1.0348  0.3135
  811MPD2    H512000   1.751   2.917   9.839 -0.3297 -1.3605  1.5064
  811MPD2    N112001   1.669   2.446   9.920 -0.7931  0.0359  0.3404
  811MPD2    H712002   1.615   2.360   9.917 -2.8372  1.3019  0.5374
  812MPD2     C12003   0.521   2.260  11.807 -0.3220 -0.2514  0.2563
  812MPD2    C112004   0.635   2.321  11.842  0.3374  0.1020 -0.2564
  812MPD2    C212005   0.691   2.288  11.968 -0.0268  0.7934  0.2436
  812MPD2    C312006   0.639   2.193  12.050 -0.7655 -0.3224  0.2053
  812MPD2    C412007   0.516   2.137  12.024  0.1801  0.6228  0.9324
  812MPD2    C512008   0.462   2.169  11.901 -0.5737 -0.5053 -0.4070
  812MPD2     H12009   0.770   2.352  12.006  1.3352  0.6153 -2.2990
  812MPD2    H112010   0.449   2.078  12.085 -0.8058  0.8549  0.0694
  812MPD2    H212011   0.475   2.283  11.711 -0.6690  0.6024  0.6269
  812MPD2    H312012   0.364   2.131  11.878 -0.3297 -1.1290 -0.4201
  812MPD2     N12013   0.703   2.163  12.172  0.3877  0.2763 -0.3670
  812MPD2    H512014   0.783   2.223  12.191 -0.0729  0.9414 -0.5393
  812MPD2    N112015   0.681   2.430  11.759 -0.5550  0.9938  0.3558
  812MPD2    H712016   0.630   2.458  11.675 -0.1299  0.8251  0.0420
  813MPD2     C12017   0.172   4.171  12.607  0.3840  0.6921  0.7302
  813MPD2    C112018   0.137   4.260  12.709 -0.4648 -0.2450  0.0237
  813MPD2    C212019   0.018   4.248  12.776  0.3410 -0.1628  0.3133
  813MPD2    C312020   4.675   4.142  12.755 -0.0913  0.6005  0.4058
  813MPD2    C412021   4.709   4.042  12.661 -0.0547 -0.1119  0.4972
  813MPD2    C512022   0.085   4.063  12.584  0.4716 -0.1786 -0.2032
  813MPD2     H12023   4.719   4.330  12.838  0.8950 -2.0156  3.1177
  813MPD2    H112024   4.643   3.955  12.658  1.4317 -1.2708  1.2116
  813MPD2    H212025   0.261   4.175  12.546 -0.1949 -0.5674 -0.1862
  813MPD2    H312026   0.107   3.998  12.501  3.5032  0.0773  0.4252
  813MPD2     N12027   4.549   4.138  12.825 -0.2680 -0.0364  0.5042
  813MPD2    H512028   4.531   4.220  12.882  1.5235 -0.1917  1.2925
  813MPD2    N112029   0.212   4.382  12.739 -0.5060 -0.3559 -0.2307
  813MPD2    H712030   0.177   4.433  12.819  0.0534  0.4599 -0.5126
  814MPD2     C12031   0.383   0.852  11.953  0.1739 -0.2302 -0.0380
  814MPD2    C112032   0.363   0.923  11.831 -0.3009  0.2011  0.1455
  814MPD2    C212033   0.402   1.059  11.828 -0.7430  0.0224  0.1872
  814MPD2    C312034   0.455   1.128  11.942 -0.0293  0.2623  0.5445
  814MPD2    C412035   0.454   1.055  12.060 -0.0696 -0.3900 -0.5755
  814MPD2    C512036   0.425   0.924  12.066  0.5645 -0.1495 -0.1596
  814MPD2     H12037   0.389   1.112  11.735 -0.4921 -2.2997 -1.1605
  814MPD2    H112038   0.473   1.107  12.153 -1.2440 -0.2712 -0.4020
  814MPD2    H212039   0.364   0.749  11.979  1.1559  0.0202  1.6787
  814MPD2    H312040   0.417   0.876  12.163 -1.7494 -0.8859 -0.7092
  814MPD2     N12041   0.497   1.267  11.938  0.2610  0.5384  0.1278
  814MPD2    H512042   0.537   1.300  12.026  0.7647 -0.2582  0.1998
  814MPD2    N112043   0.307   0.864  11.715  0.0119  0.7036 -0.3054
  814MPD2    H712044   0.308   0.928  11.636  0.8074  1.5993  0.4236
  815MPD2     C12045   1.267   3.422  12.124  0.5399  0.0979  0.1360
  815MPD2    C112046   1.227   3.495  12.014  0.4170  0.0856  0.3746
  815MPD2    C212047   1.091   3.517  11.995 -0.0405 -0.1068  0.2835
  815MPD2    C312048   0.992   3.458  12.073 -0.1571 -0.1207 -0.7424
  815MPD2    C412049   1.038   3.382  12.182 -0.4802  0.0688  0.0200
  815MPD2    C512050   1.170   3.379  12.213  0.0236 -0.3139 -0.7440
  815MPD2     H12051   1.040   3.564  11.912 -1.7804 -0.2837  1.2258
  815MPD2    H112052   0.969   3.338  12.254 -1.9276  0.4480 -1.1305
  815MPD2    H212053   1.372   3.401  12.140  0.7711 -1.1667 -2.9701
  815MPD2    H312054   1.200   3.323  12.300  2.5400  0.9013 -0.8265
  815MPD2     N12055   0.859   3.472  12.029  0.3296  0.6981  0.5790
  815MPD2    H512056   0.841   3.523  11.943  0.8028 -0.4566 -0.2141
  815MPD2    N112057   1.316   3.532  11.915 -0.0481  0.2429 -0.0927
  815MPD2    H712058   1.401   3.479  11.920 -0.7492 -0.6303  2.1896
  816MPD2     C12059   1.165   3.193  17.177 -0.2085  0.6635  0.1082
  816MPD2    C112060   1.061   3.162  17.102 -0.5231  0.6675 -0.1925
  816MPD2    C212061   1.089   3.113  16.977  1.2523  0.6185  0.3717
  816MPD2    C312062   1.216   3.092  16.928  0.4980  0.1095  0.4195
  816MPD2    C412063   1.320   3.130  17.006  0.2571  0.1228  0.0615
  816MPD2    C512064   1.295   3.177  17.133  0.1591 -0.0771 -0.5888
  816MPD2     H12065   1.009   3.072  16.917  1.4215  0.6719  0.1056
  816MPD2    H112066   1.425   3.119  16.980 -0.5923 -2.8109 -2.1130
  816MPD2    H212067   1.153   3.212  17.283  1.4703 -0.2677  0.4599
  816MPD2    H312068   1.376   3.184  17.204  0.5908 -2.5548 -0.8169
  816MPD2     N12069   1.226   3.035  16.795 -0.7852 -0.9377  0.0864
  816MPD2    H512070   1.145   3.005  16.742 -0.9449  0.9051 -0.7329
  816MPD2    N112071   0.930   3.184  17.156  0.2743  0.3937 -0.2076
  816MPD2    H712072   0.927   3.229  17.247 -1.2367 -1.6523  0.7343
  817MPD2     C12073   0.614   0.255   9.832  0.0993  0.0971 -1.1334
  817MPD2    C112074   0.689   0.305   9.726  0.3630  0.0793  0.5140
  817MPD2    C212075   0.625   0.394   9.639  0.2371 -0.3920 -0.1595
  817MPD2    C312076   0.492   0.422   9.646  0.3434  0.7917 -0.8941
  817MPD2    C412077   0.424   0.371   9.751  0.1596 -0.0858  0.2577
  817MPD2    C512078   0.482   0.293   9.841  0.0827  0.2076  0.2811
  817MPD2     H12079   0.680   0.433   9.554  2.1121 -1.8718  0.3908
  817MPD2    H112080   0.319   0.382   9.778  0.0578  0.2380 -0.2918
  817MPD2    H212081   0.646   0.191   9.912 -2.9237 -0.1376 -0.1189
  817MPD2    H312082   0.427   0.253   9.925 -1.2068 -0.3174 -0.8022
  817MPD2     N12083   0.430   0.494   9.542  0.6551  0.4932  0.7255
  817MPD2    H512084   0.493   0.517   9.466  0.2600  2.4057  0.9898
  817MPD2    N112085   0.830   0.281   9.703  0.0595  0.5640 -0.2187
  817MPD2    H712086   0.877   0.323   9.624  0.7764  0.4849  0.1583
  818MPD2     C12087   4.348   0.172   9.776  0.1904  0.3553  0.3600
  818MPD2    C112088   4.323   0.144   9.906  0.0818 -0.0337 -0.0824
  818MPD2    C212089   4.376   0.033   9.972 -0.2544  0.2766 -0.6220
  818MPD2    C312090   4.446   4.679   9.897 -0.7790  0.8383 -0.3867
  818MPD2    C412091   4.480   4.714   9.765  0.8025 -0.2994 -0.5168
  818MPD2    C512092   4.427   0.087   9.707  0.6909 -0.0454 -0.3017
  818MPD2     H12093   4.341   0.005  10.071 -0.5856  0.8512 -0.5789
  818MPD2    H112094   4.536   4.656   9.693 -0.3726 -1.6906 -0.2937
  818MPD2    H212095   4.303   0.254   9.721  0.4522 -0.1361 -0.5802
  818MPD2    H312096   4.443   0.110   9.603 -0.3083 -0.0424 -0.4568
  818MPD2     N12097   4.508   4.565   9.953 -0.3036 -0.2035  0.4791
  818MPD2    H512098   4.582   4.505   9.918 -0.2473 -1.2445  2.3812
  818MPD2    N112099   4.233   0.207   9.986 -0.1124  0.4229 -0.0165
  818MPD2    H712100   4.244   0.176  10.082 -0.5212 -1.7551 -0.6738
  819MPD2     C12101   1.983   1.608  15.609 -0.6756  0.1590  0.1570
  819MPD2    C112102   1.930   1.483  15.626  0.0489  0.2547  0.3753
  819MPD2    C212103   1.992   1.398  15.718 -0.1777 -0.1896  0.0134
  819MPD2    C312104   2.089   1.450  15.804  0.4970  0.1097 -0.0903
  819MPD2    C412105   2.133   1.581  15.783 -0.0349 -0.0869 -0.0296
  819MPD2    C512106   2.088   1.655  15.680  1.0128 -0.8613 -0.5838
  819MPD2     H12107   1.950   1.304  15.750  0.1087 -0.7736 -1.3039
  819MPD2    H112108   2.226   1.615  15.828  0.7316 -1.3414 -0.6570
  819MPD2    H212109   1.937   1.664  15.529  0.5994  3.2602  1.5766
  819MPD2    H312110   2.130   1.754  15.667  0.4939 -0.5282  0.2723
  819MPD2     N12111   2.147   1.366  15.896 -0.3607  0.2614 -0.1242
  819MPD2    H512112   2.105   1.273  15.894 -0.5633  0.3560 -0.2687
  819MPD2    N112113   1.819   1.449  15.552  0.9696  0.0752  0.1262
  819MPD2    H712114   1.773   1.517  15.493 -0.0634  1.3253  2.3907
  820MPD2     C12115   1.198   1.395  14.748  0.7036 -0.5087  0.5873
  820MPD2    C112116   1.242   1.500  14.818 -0.4083 -0.5340  0.3645
  820MPD2    C212117   1.319   1.478  14.934  0.2200 -0.3543 -0.4756
  820MPD2    C312118   1.350   1.347  14.966  0.3754  0.1607 -0.5929
  820MPD2    C412119   1.308   1.239  14.899  0.1313 -0.3317 -0.6231
  820MPD2    C512120   1.235   1.264  14.782  0.4748 -0.1833  0.8348
  820MPD2     H12121   1.349   1.562  14.995 -1.3196 -0.9438  1.1034
  820MPD2    H112122   1.337   1.136  14.916  1.3093 -0.1540 -1.5327
  820MPD2    H212123   1.139   1.405  14.658  2.0834  2.0892 -0.0394
  820MPD2    H312124   1.212   1.173  14.727 -1.9575  0.9880 -0.0736
  820MPD2     N12125   1.417   1.314  15.087  0.8837  0.1083 -0.1011
  820MPD2    H512126   1.432   1.216  15.106 -1.8671 -0.4284 -0.6159
  820MPD2    N112127   1.185   1.630  14.799 -0.4183  0.0855  0.1594
  820MPD2    H712128   1.097   1.627  14.749 -0.1375  0.2691 -0.3410
  821MPD2     C12129   2.473   2.264  13.295  0.1482 -0.6357  0.1207
  821MPD2    C112130   2.503   2.310  13.424 -0.1130 -0.3348 -0.1195
  821MPD2    C212131   2.632   2.360  13.451  0.0388 -0.3725 -0.1100
  821MPD2    C312132   2.720   2.378  13.342 -0.0510 -0.4021  0.5672
  821MPD2    C412133   2.690   2.325  13.221 -0.2870 -0.0280  0.1333
  821MPD2    C512134   2.567   2.270  13.201 -0.2005 -0.2050  0.1181
  821MPD2     H12135   2.651   2.417  13.541 -1.8497  0.9108 -0.5150
  821MPD2    H112136   2.759   2.319  13.138 -1.1758 -0.6988 -0.5514
  821MPD2    H212137   2.382   2.210  13.271 -0.9785  0.4089  1.9639
  821MPD2    H312138   2.540   2.231  13.103  0.8848 -1.7069  0.4278
  821MPD2     N12139   2.843   2.435  13.362 -0.3673  0.6063 -0.3024
  821MPD2    H512140   2.894   2.469  13.281  0.9286 -0.0168  0.2521
  821MPD2    N112141   2.410   2.324  13.530  0.6638 -0.0654  0.2711
  821MPD2    H712142   2.444   2.362  13.618  0.1958 -1.6250  1.1245
  822MPD2     C12143   2.716   2.733  15.797 -0.0736 -0.4727 -0.1533
  822MPD2    C112144   2.728   2.712  15.929 -0.4413  0.0161  0.4399
  822MPD2    C212145   2.643   2.785  16.007  0.2506 -0.0008  0.7483
  822MPD2    C312146   2.555   2.881  15.962 -0.2787 -0.4218 -0.3535
  822MPD2    C412147   2.546   2.905  15.822 -0.4622  0.2052  0.5961
  822MPD2    C512148   2.622   2.829  15.745  0.2857 -0.0142 -1.0083
  822MPD2     H12149   2.649   2.771  16.115 -0.8891 -5.0053  0.2015
  822MPD2    H112150   2.478   2.972  15.772  0.3035  0.1975 -0.4410
  822MPD2    H212151   2.765   2.674  15.720  1.8329  0.0327  0.6939
  822MPD2    H312152   2.626   2.844  15.637 -0.5503 -1.3455 -1.2288
  822MPD2     N12153   2.484   2.957  16.060 -0.0386  0.5623 -0.2720
  822MPD2    H512154   2.504   2.937  16.158  1.7380  0.5549 -0.6311
  822MPD2    N112155   2.821   2.622  15.992  0.7247  0.4457  0.2823
  822MPD2    H712156   2.828   2.625  16.093 -3.3081  0.5799  0.5442
  823MPD2     C12157   1.981   3.170  16.749 -0.4677 -0.0186  0.7034
  823MPD2    C112158   2.065   3.093  16.667 -0.0127  0.0072  0.0680
  823MPD2    C212159   2.126   2.989  16.723  0.4014 -0.2128  0.4755
  823MPD2    C312160   2.110   2.954  16.852  0.6568 -0.1128  0.3461
  823MPD2    C412161   2.023   3.021  16.930 -0.3114 -0.2293 -0.8321
  823MPD2    C512162   1.977   3.141  16.885 -0.4377 -0.2125 -0.1625
  823MPD2     H12163   2.190   2.931  16.658  2.3933 -0.9038  3.0186
  823MPD2    H112164   2.016   3.000  17.036 -2.0270  0.4635 -0.8086
  823MPD2    H212165   1.934   3.257  16.705 -1.0955 -0.6316  0.1751
  823MPD2    H312166   1.919   3.197  16.957  1.7877  0.0043  1.4771
  823MPD2     N12167   2.178   2.843  16.903 -0.7103 -0.0191  0.5689
  823MPD2    H512168   2.152   2.806  16.994  2.4710 -0.0321  1.4775
  823MPD2    N112169   2.078   3.126  16.530 -0.3245  0.1079 -0.2038
  823MPD2    H712170   2.046   3.220  16.510 -0.2252 -0.0097 -0.8948
  824MPD2     C12171   2.926   1.821  15.775 -0.1731  0.0972 -0.1011
  824MPD2    C112172   3.020   1.903  15.829 -0.1055 -0.4574  0.3673
  824MPD2    C212173   3.147   1.846  15.838  0.3203  0.3451  0.3094
  824MPD2    C312174   3.174   1.714  15.798 -1.0494 -0.4167 -0.0166
  824MPD2    C412175   3.067   1.641  15.745 -0.6561 -0.3508  0.5001
  824MPD2    C512176   2.942   1.694  15.736 -0.2940 -0.1859 -0.3962
  824MPD2     H12177   3.233   1.895  15.881 -1.1314  0.5101  3.0152
  824MPD2    H112178   3.069   1.538  15.712  1.2615 -0.2745  0.3730
  824MPD2    H212179   2.826   1.858  15.795  0.0231  1.9237 -2.4825
  824MPD2    H312180   2.862   1.629  15.702  0.9810 -0.7114 -2.4008
  824MPD2     N12181   3.310   1.673  15.825 -0.2377 -0.2093  0.2071
  824MPD2    H512182   3.376   1.745  15.851  0.2993 -0.4872 -0.3912
  824MPD2    N112183   2.979   2.019  15.899  0.1456  0.1959 -0.3837
  824MPD2    H712184   2.881   2.044  15.895  0.0979  0.0631  0.0019
  825MPD2     C12185   4.066   1.720  15.450 -0.2562 -0.2891  0.0704
  825MPD2    C112186   3.955   1.774  15.506 -0.4359 -0.3090  0.2944
  825MPD2    C212187   3.919   1.909  15.474 -0.8908 -0.1467 -0.3192
  825MPD2    C312188   3.989   1.971  15.370  0.0025  0.6603  0.0355
  825MPD2    C412189   4.097   1.912  15.311 -0.6992  0.1163  0.6148
  825MPD2    C512190   4.141   1.786  15.352  0.4423 -0.2079  0.1455
  825MPD2     H12191   3.836   1.954  15.527 -0.8822 -0.5358  0.0219
  825MPD2    H112192   4.156   1.970  15.241  1.5592  0.4240  2.7647
  825MPD2    H212193   4.094   1.623  15.489  1.5079  0.8624  1.6988
  825MPD2    H312194   4.232   1.744  15.310  0.7200 -0.0137  0.5576
  825MPD2     N12195   3.964   2.101  15.326 -0.5807  0.2392 -0.3419
  825MPD2    H512196   4.032   2.134  15.259  0.3061 -1.8071 -0.4460
  825MPD2    N112197   3.885   1.695  15.601  0.3629  0.0428 -0.3765
  825MPD2    H712198   3.935   1.608  15.620  1.5110  1.0908  1.3987
  826MPD2     C12199   3.735   1.594  13.884 -0.2765  0.2536  0.1560
  826MPD2    C112200   3.721   1.717  13.816  0.2858 -0.1114 -0.3446
  826MPD2    C212201   3.600   1.785  13.827  0.4471 -0.5686 -0.9480
  826MPD2    C312202   3.501   1.728  13.918  0.3773  0.4160  0.0786
  826MPD2    C412203   3.510   1.606  13.976 -0.3533  0.6777  0.0645
  826MPD2    C512204   3.632   1.542  13.961  0.3178  0.3016 -0.8819
  826MPD2     H12205   3.567   1.874  13.776 -0.3675 -1.2529 -1.6213
  826MPD2    H112206   3.440   1.561  14.046 -0.0117 -1.4694 -0.9686
  826MPD2    H212207   3.827   1.538  13.869  0.7954  1.9630  0.4089
  826MPD2    H312208   3.642   1.441  14.000 -0.8434  1.1813  1.6713
  826MPD2     N12209   3.375   1.790  13.934 -0.0934 -1.2161  0.0145
  826MPD2    H512210   3.311   1.733  13.988 -1.4246  0.4629  0.1833
  826MPD2    N112211   3.830   1.749  13.734 -0.0809 -0.7310  0.0838
  826MPD2    H712212   3.906   1.682  13.734  1.3383  0.8831  1.0975
  827MPD2     C12213   0.323   3.822   9.659  0.1449  0.1311  0.3927
  827MPD2    C112214   0.305   3.719   9.753 -0.2481  0.0052 -0.2372
  827MPD2    C212215   0.208   3.631   9.730  0.5271  0.0064  0.4053
  827MPD2    C312216   0.136   3.633   9.614  0.1641 -0.1417 -0.7059
  827MPD2    C412217   0.152   3.733   9.518  0.2343  0.1836  0.3040
  827MPD2    C512218   0.247   3.828   9.547 -0.2230 -1.1380  0.5430
  827MPD2     H12219   0.192   3.543   9.791  0.8742 -1.1423 -1.1599
  827MPD2    H112220   0.094   3.741   9.427 -0.4833 -0.4977  0.7075
  827MPD2    H212221   0.402   3.894   9.674 -0.2725  0.8280 -0.7532
  827MPD2    H312222   0.266   3.912   9.481  1.7487 -2.4801 -0.6087
  827MPD2     N12223   0.044   3.534   9.588 -0.7658  1.1037 -0.1393
  827MPD2    H512224   0.036   3.464   9.661 -0.2998  0.9258 -0.2565
  827MPD2    N112225   0.383   3.720   9.870 -0.2911  0.5343  0.3105
  827MPD2    H712226   0.440   3.802   9.887  0.3799 -0.2719  1.9240
  828MPD2     C12227   3.136   3.035  12.939  0.5353  0.1585  0.3766
  828MPD2    C112228   3.074   3.116  12.848  0.1000  0.0485 -0.5360
  828MPD2    C212229   3.157   3.173  12.741 -0.3812 -0.4222  0.1074
  828MPD2    C312230   3.282   3.125  12.726  0.3174  0.3633  0.5632
  828MPD2    C412231   3.343   3.039  12.814 -0.0142  0.1764  0.0645
  828MPD2    C512232   3.268   3.006  12.930  0.4248 -0.7891  0.3762
  828MPD2     H12233   3.118   3.243  12.667 -1.2719 -1.7073 -0.6293
  828MPD2    H112234   3.445   3.007  12.802  0.3945  1.5140 -0.0167
  828MPD2    H212235   3.088   3.001  13.031  2.3312 -0.4954  1.0609
  828MPD2    H312236   3.312   2.942  13.005  1.0090 -0.6671  0.1347
  828MPD2     N12237   3.369   3.161  12.615  0.1081  0.0175 -0.8972
  828MPD2    H512238   3.467   3.134  12.617  0.4176  1.2784  0.1492
  828MPD2    N112239   2.935   3.143  12.871 -0.5284 -0.0774 -0.2527
  828MPD2    H712240   2.880   3.117  12.952  1.5117 -0.1971  1.0664
  829MPD2     C12241   2.421   3.564  12.138  0.3283  0.2624 -0.1364
  829MPD2    C112242   2.335   3.464  12.177  0.2356  0.5066  0.2328
  829MPD2    C212243   2.366   3.401  12.299  0.7045  0.1125 -0.2152
  829MPD2    C312244   2.477   3.441  12.374  0.1353 -0.4609 -0.3699
  829MPD2    C412245   2.568   3.533  12.320  0.1270 -0.1938  0.1898
  829MPD2    C512246   2.537   3.599  12.205 -0.9410  0.7219  0.4773
  829MPD2     H12247   2.306   3.321  12.340  0.8880 -0.0273 -0.2155
  829MPD2    H112248   2.661   3.554  12.373  0.1993  0.5579 -0.2343
  829MPD2    H212249   2.407   3.612  12.042  0.4508 -0.8612 -0.7113
  829MPD2    H312250   2.604   3.677  12.170 -3.0580  1.8048 -1.1106
  829MPD2     N12251   2.509   3.398  12.503 -0.5490 -0.0683 -0.6326
  829MPD2    H512252   2.586   3.443  12.551 -1.5875  0.0276  0.9699
  829MPD2    N112253   2.226   3.420  12.087  0.7480  0.1995 -0.3292
  829MPD2    H712254   2.212   3.466  11.997 -2.1489  1.5088  0.7743
  830MPD2     C12255   2.737   0.893  15.580  0.4770  0.6506 -0.0203
  830MPD2    C112256   2.702   1.022  15.599  0.6520  0.0686 -0.0121
  830MPD2    C212257   2.765   1.128  15.530 -0.1612 -0.0424 -0.5088
  830MPD2    C312258   2.853   1.095  15.434 -0.0785 -0.1964 -0.3958
  830MPD2    C412259   2.898   0.965  15.415 -0.0607  0.1129  0.3674
  830MPD2    C512260   2.836   0.868  15.487 -0.1005  0.3001  0.0778
  830MPD2     H12261   2.747   1.233  15.553 -0.8033  0.2091 -2.1469
  830MPD2    H112262   2.970   0.931  15.341  0.5596  2.7888 -0.2790
  830MPD2    H212263   2.688   0.810  15.630  1.4718 -0.4938 -0.9180
  830MPD2    H312264   2.870   0.768  15.461 -0.1747 -0.2031  1.9041
  830MPD2     N12265   2.901   1.204  15.356  0.2938  0.5713 -0.2093
  830MPD2    H512266   2.891   1.300  15.387  2.5331  0.5174  0.7074
  830MPD2    N112267   2.615   1.050  15.705  0.2031  0.8023  0.0243
  830MPD2    H712268   2.587   0.967  15.757  0.1794  1.1663  0.5972
  831MPD2     C12269   2.654   3.113  16.414  0.4332 -0.1140  0.0046
  831MPD2    C112270   2.695   2.997  16.369  0.4280  0.3892 -0.2091
  831MPD2    C212271   2.615   2.884  16.375  0.1257 -0.0233  0.5308
  831MPD2    C312272   2.500   2.892  16.450  0.1939 -0.4193 -0.1060
  831MPD2    C412273   2.456   3.013  16.507  0.5897 -0.4664 -0.0349
  831MPD2    C512274   2.536   3.121  16.485  0.5735 -0.7789  0.0208
  831MPD2     H12275   2.637   2.791  16.324  0.4710  0.8912 -0.9691
  831MPD2    H112276   2.362   3.025  16.561  1.2138 -0.1810  0.9866
  831MPD2    H212277   2.720   3.199  16.413  0.4128 -0.0880  0.7416
  831MPD2    H312278   2.511   3.219  16.526 -1.6496 -0.6324 -1.6715
  831MPD2     N12279   2.419   2.779  16.466  0.1904 -0.2565  0.1441
  831MPD2    H512280   2.344   2.776  16.534  0.5786  0.9210  0.6068
  831MPD2    N112281   2.818   2.986  16.305 -0.4798 -0.5756  0.1128
  831MPD2    H712282   2.866   3.075  16.302 -0.0538 -0.7669  1.4537
  832MPD2     C12283   1.389   4.081  16.967 -0.1793  0.0529 -0.6864
  832MPD2    C112284   1.346   4.213  16.967 -0.4639  0.9191  0.4613
  832MPD2    C212285   1.212   4.234  16.928  0.8620  0.5933  0.0058
  832MPD2    C312286   1.122   4.130  16.887 -0.2438  0.4722 -0.5405
  832MPD2    C412287   1.177   4.003  16.877 -0.0545 -0.1637  0.2863
  832MPD2    C512288   1.309   3.985  16.915 -0.1747  0.0782  0.4716
  832MPD2     H12289   1.175   4.333  16.951 -1.4710 -0.5648  1.2377
  832MPD2    H112290   1.110   3.930  16.833 -0.7781  1.2290 -0.9306
  832MPD2    H212291   1.492   4.057  16.992  0.0398  2.3242  0.5653
  832MPD2    H312292   1.354   3.887  16.905 -2.0102 -0.6854 -0.3412
  832MPD2     N12293   0.982   4.142  16.856  0.2131  0.2540  0.2722
  832MPD2    H512294   0.932   4.054  16.850  3.2019 -1.4796  0.8791
  832MPD2    N112295   1.432   4.311  17.013 -0.1947 -0.1003  0.1875
  832MPD2    H712296   1.510   4.286  17.072 -0.2408 -0.6391  0.0199
  833MPD2     C12297   3.657   1.529  12.607 -0.2135 -0.1939 -0.4310
  833MPD2    C112298   3.553   1.510  12.518  0.1618  0.3327  0.1019
  833MPD2    C212299   3.583   1.524  12.382  0.1673  0.4394 -0.8170
  833MPD2    C312300   3.708   1.544  12.333  0.0599 -0.1168 -0.0514
  833MPD2    C412301   3.814   1.548  12.422  0.2088 -0.1958  0.1346
  833MPD2    C512302   3.785   1.547  12.559 -0.6599 -0.1137 -0.1717
  833MPD2     H12303   3.493   1.510  12.323 -1.1043 -1.8914  1.7085
  833MPD2    H112304   3.917   1.560  12.390  0.7006  1.6110  2.4540
  833MPD2    H212305   3.635   1.526  12.713  0.0550  1.0089 -0.3328
  833MPD2    H312306   3.869   1.563  12.625 -0.2932  0.6413 -0.8129
  833MPD2     N12307   3.743   1.552  12.194 -0.0465  0.2300 -0.1292
  833MPD2    H512308   3.839   1.552  12.161 -0.8452 -0.6814 -2.4926
  833MPD2    N112309   3.422   1.471  12.538  0.2707 -0.2072  0.2024
  833MPD2    H712310   3.367   1.456  12.454 -0.9859  2.1308  0.6105
  834MPD2     C12311   3.925   0.788  11.610  0.5388 -0.3339  0.3719
  834MPD2    C112312   3.895   0.873  11.505  1.1186  0.0080  0.6264
  834MPD2    C212313   3.862   1.003  11.539  0.1163 -0.1038 -0.2420
  834MPD2    C312314   3.855   1.052  11.672 -0.3544 -0.5397  0.1920
  834MPD2    C412315   3.874   0.957  11.771  0.4411 -0.7013  0.5134
  834MPD2    C512316   3.911   0.829  11.738  0.6715 -0.7745  0.2273
  834MPD2     H12317   3.839   1.078  11.464 -0.1878 -0.5689 -0.6080
  834MPD2    H112318   3.862   0.980  11.876 -1.1894  0.6668  0.0166
  834MPD2    H212319   3.947   0.684  11.592  2.2158  0.3841 -1.6116
  834MPD2    H312320   3.931   0.759  11.818  2.2041 -1.3375 -0.6354
  834MPD2     N12321   3.827   1.184  11.698 -0.7512  0.1575 -0.5430
  834MPD2    H512322   3.816   1.250  11.621  0.8516 -0.2342 -1.0969
  834MPD2    N112323   3.887   0.814  11.377  0.2737 -0.4226  0.3819
  834MPD2    H712324   3.912   0.716  11.373  1.8209 -0.0472  0.8406
  835MPD2     C12325   4.012   3.840  11.577  0.2415  0.0148  0.3417
  835MPD2    C112326   3.904   3.844  11.661 -0.2170 -0.3919 -0.5323
  835MPD2    C212327   3.926   3.855  11.798  0.2587  0.2620 -0.2040
  835MPD2    C312328   4.054   3.849  11.856  0.5401 -0.6370 -0.1401
  835MPD2    C412329   4.159   3.840  11.765 -0.0273  0.3305 -0.4887
  835MPD2    C512330   4.141   3.840  11.629  0.7434  0.1254  0.1241
  835MPD2     H12331   3.842   3.846  11.865  1.1879 -2.9593  0.5073
  835MPD2    H112332   4.262   3.830  11.799  0.3941 -0.2178 -1.9587
  835MPD2    H212333   4.010   3.853  11.469  2.5422 -1.2033  0.1558
  835MPD2    H312334   4.232   3.855  11.572  1.5484 -2.5756  0.6907
  835MPD2     N12335   4.075   3.836  11.993 -0.3762  0.0820  0.0440
  835MPD2    H512336   4.160   3.795  12.030 -1.9363 -1.9904  1.3182
  835MPD2    N112337   3.774   3.848  11.616 -0.4483  0.4195 -0.1910
  835MPD2    H712338   3.700   3.854  11.684 -1.6581 -0.5001 -1.4258
  836MPD2     C12339   3.494   3.610  12.229 -0.9079  0.5727  0.5719
  836MPD2    C112340   3.554   3.627  12.355 -0.5070 -0.0852  0.1306
  836MPD2    C212341   3.476   3.604  12.468  0.1630 -0.0240  0.5849
  836MPD2    C312342   3.338   3.583  12.461 -0.4494  0.2170  0.4866
  836MPD2    C412343   3.276   3.588  12.341  0.5976 -0.0552  0.4728
  836MPD2    C512344   3.358   3.591  12.225  0.9203 -0.5590 -0.2367
  836MPD2     H12345   3.524   3.602  12.565 -0.4256  0.2611  0.8846
  836MPD2    H112346   3.170   3.571  12.329  0.4783  1.2377 -0.2888
  836MPD2    H212347   3.551   3.613  12.138  0.1587 -1.5769  1.1791
  836MPD2    H312348   3.319   3.581  12.125 -0.2161 -0.1405  0.1661
  836MPD2     N12349   3.256   3.557  12.569  0.5903 -0.4955 -0.1468
  836MPD2    H512350   3.158   3.545  12.546  0.4497 -2.5514  1.5057
  836MPD2    N112351   3.696   3.656  12.353  0.2417 -0.4837 -0.7166
  836MPD2    H712352   3.734   3.674  12.261 -2.1086 -0.8507 -1.7744
  837MPD2     C12353   2.121   3.395  10.203  0.7166 -0.0889  0.1233
  837MPD2    C112354   2.107   3.442  10.075 -0.3438  0.4651 -0.6600
  837MPD2    C212355   2.144   3.569  10.045 -0.2705  0.5388  0.2807
  837MPD2    C312356   2.215   3.645  10.132 -0.0120 -0.2655  0.7269
  837MPD2    C412357   2.230   3.598  10.260  0.0216  0.5619 -0.6046
  837MPD2    C512358   2.185   3.473  10.288 -0.6135  0.2747  0.5633
  837MPD2     H12359   2.117   3.609   9.948  0.6830  1.0719  0.2404
  837MPD2    H112360   2.270   3.647  10.348  3.5689 -0.0462 -1.9150
  837MPD2    H212361   2.077   3.303  10.241 -0.9250  1.0747  1.0508
  837MPD2    H312362   2.196   3.436  10.389  1.2113  2.6684  1.2304
  837MPD2     N12363   2.242   3.779  10.097  0.2428  0.5848 -0.2327
  837MPD2    H512364   2.214   3.804  10.002  0.5011  0.5948 -0.3044
  837MPD2    N112365   2.021   3.376   9.983 -0.0136  0.7555 -0.0260
  837MPD2    H712366   1.997   3.423   9.896 -1.4769 -2.5591 -1.3900
  838MPD2     C12367   4.652   1.579  11.367  1.2969  0.3049  0.1578
  838MPD2    C112368   4.707   1.551  11.491 -0.3013 -0.2666 -0.5493
  838MPD2    C212369   4.651   1.444  11.560  0.4258  0.6457 -0.4780
  838MPD2    C312370   4.536   1.380  11.522  0.0783 -0.2707  0.7734
  838MPD2    C412371   4.483   1.418  11.399  0.2740 -0.3879  0.0812
  838MPD2    C512372   4.538   1.514  11.324  0.2118 -0.3050 -0.4824
  838MPD2     H12373   4.691   1.430  11.660 -0.8852  0.3409  0.0037
  838MPD2    H112374   4.390   1.377  11.361  0.0614 -0.2012  0.4020
  838MPD2    H212375   4.682   1.666  11.310 -0.7983  1.1786  0.3865
  838MPD2    H312376   4.480   1.554  11.241 -1.2702 -2.4365 -0.4602
  838MPD2     N12377   4.484   1.282  11.609 -0.4747 -1.2053  0.1009
  838MPD2    H512378   4.500   1.283  11.709  1.2206  2.0828 -0.2277
  838MPD2    N112379   0.080   1.616  11.547 -0.5424  0.8335 -1.2083
  838MPD2    H712380   0.131   1.568  11.621  0.9898  1.5719 -1.7915
  839MPD2     C12381   4.700   1.005  11.596  0.6670  0.8210 -0.6896
  839MPD2    C112382   4.700   1.046  11.463 -0.5382  0.6682 -0.3291
  839MPD2    C212383   0.055   1.143  11.419 -0.2233  0.6734 -0.4611
  839MPD2    C312384   0.141   1.197  11.512 -0.4578  0.1870 -0.3689
  839MPD2    C412385   0.127   1.156  11.639 -0.2655 -0.2045 -0.6022
  839MPD2    C512386   0.043   1.060  11.688  0.2988  0.4223  0.0690
  839MPD2     H12387   0.054   1.182  11.318 -0.7970  0.0905 -0.6823
  839MPD2    H112388   0.188   1.201  11.717 -2.8193  0.7902  0.8502
  839MPD2    H212389   4.631   0.932  11.638  0.8249  1.0954  0.0483
  839MPD2    H312390   0.040   1.024  11.791 -0.0652  0.2281 -0.0075
  839MPD2     N12391   0.245   1.283  11.475  0.4768 -0.4251 -1.0183
  839MPD2    H512392   0.302   1.330  11.545 -0.0249 -0.0700 -0.8483
  839MPD2    N112393   4.607   0.993  11.370 -0.2112  0.7149 -0.2091
  839MPD2    H712394   4.614   1.027  11.275 -0.2614 -0.3005 -0.5781
  840MPD2     C12395   0.872   4.094   9.906 -0.4425  0.7727  0.4119
  840MPD2    C112396   0.849   4.048  10.032 -1.2701  0.4257 -0.5556
  840MPD2    C212397   0.888   4.126  10.139  0.8557 -0.7741 -0.1424
  840MPD2    C312398   0.958   4.245  10.120 -0.1348 -0.0531 -0.4601
  840MPD2    C412399   0.983   4.293   9.992 -0.0265  0.2951  0.3670
  840MPD2    C512400   0.942   4.209   9.887 -0.2232  0.4405 -0.4043
  840MPD2     H12401   0.871   4.092  10.240  1.7383 -0.1714  0.2034
  840MPD2    H112402   1.036   4.385   9.972 -2.0552  1.3326 -0.2650
  840MPD2    H212403   0.857   4.038   9.814  1.5970  0.8595  0.0343
  840MPD2    H312404   0.962   4.241   9.785 -2.2886 -1.0656 -1.3039
  840MPD2     N12405   1.001   4.326  10.227  0.0984 -0.8243  0.1841
  840MPD2    H512406   1.070   4.398  10.210  0.2171 -0.7615  0.9094
  840MPD2    N112407   0.785   3.919  10.050 -0.0708  0.2469  0.1965
  840MPD2    H712408   0.749   3.878   9.965  1.5509 -1.6705  0.4365
  841MPD2     C12409   4.159   3.457  13.933 -0.8172  0.6194  0.2619
  841MPD2    C112410   4.287   3.464  13.974  0.3988  0.9422  0.2755
  841MPD2    C212411   4.323   3.529  14.093 -0.0058 -0.0285 -0.2448
  841MPD2    C312412   4.227   3.605  14.165  0.3032  0.3692 -0.0718
  841MPD2    C412413   4.095   3.604  14.115  0.2308 -0.4709  0.1110
  841MPD2    C512414   4.070   3.535  13.996  0.7201 -0.4169  0.5318
  841MPD2     H12415   4.425   3.529  14.129 -0.2761  1.4919  0.5069
  841MPD2    H112416   4.008   3.652  14.159  1.8085  2.2436  0.2160
  841MPD2    H212417   4.120   3.405  13.846  0.3066 -1.8241  1.2213
  841MPD2    H312418   3.968   3.519  13.960  1.3704  0.7054 -1.8176
  841MPD2     N12419   4.259   3.659  14.287 -0.2951  0.4872 -0.0734
  841MPD2    H512420   4.352   3.636  14.323 -0.1409  1.6449  0.2684
  841MPD2    N112421   4.396   3.400  13.909  1.0092 -0.0335 -0.2755
  841MPD2    H712422   4.489   3.416  13.946  0.2891  0.8018  1.1746
  842MPD2     C12423   0.428   4.551  16.816  0.2029 -0.3986  0.4378
  842MPD2    C112424   0.319   4.466  16.825  0.0476 -0.9093 -0.0776
  842MPD2    C212425   0.338   4.358  16.910  0.3141 -0.2420  0.1430
  842MPD2    C312426   0.443   4.339  16.999 -0.0172 -0.5372  0.2771
  842MPD2    C412427   0.548   4.431  16.992 -0.4749 -0.8274  0.9091
  842MPD2    C512428   0.537   4.534  16.897  0.0788 -0.1563  0.1055
  842MPD2     H12429   0.255   4.291  16.933 -1.9460  3.2782  2.3522
  842MPD2    H112430   0.633   4.437  17.058 -0.0506  2.0288  0.1398
  842MPD2    H212431   0.413   4.637  16.752 -1.0129 -1.7227 -1.0487
  842MPD2    H312432   0.617   4.606  16.885 -0.0830 -0.0485 -0.3556
  842MPD2     N12433   0.448   4.242  17.098 -0.0679 -0.1146  0.9854
  842MPD2    H512434   0.529   4.238  17.159 -0.7252  0.7979  1.9316
  842MPD2    N112435   0.202   4.486  16.745 -0.1761  0.0178 -0.0897
  842MPD2    H712436   0.211   4.561  16.677  0.0970 -2.4502 -2.7874
  843MPD2     C12437   2.551   0.070  17.542  0.8895  0.2489  0.0956
  843MPD2    C112438   2.443   0.161  17.529 -0.0739  0.0774 -0.3526
  843MPD2    C212439   2.436   0.270  17.612 -0.5139 -0.7304 -0.4253
  843MPD2    C312440   2.529   0.294  17.712 -0.3011 -0.2153 -0.6789
  843MPD2    C412441   2.628   0.195  17.724  0.4102 -0.5826  0.0939
  843MPD2    C512442   2.644   0.090  17.642 -0.2616 -0.1566  0.0690
  843MPD2     H12443   2.350   0.336  17.603  0.4050  0.5795  0.3480
  843MPD2    H112444   2.705   0.210   0.055  0.5359  1.8732 -0.5216
  843MPD2    H212445   2.556   4.719  17.478 -2.6224 -0.5102  0.8761
  843MPD2    H312446   2.727   0.022  17.652 -0.4601 -0.5151 -0.7475
  843MPD2     N12447   2.540   0.410   0.050 -0.0674  0.0731 -0.0294
  843MPD2    H512448   2.624   0.418   0.106 -0.7068 -3.3693  1.4245
  843MPD2    N112449   2.343   0.127  17.435 -0.2792 -0.0890  0.1194
  843MPD2    H712450   2.360   0.036  17.395 -1.6035  0.2983 -1.3240
  844MPD2     C12451   0.749   3.987  16.288 -0.4785 -0.4465  0.4188
  844MPD2    C112452   0.869   3.919  16.255 -0.1540  0.3268  0.5347
  844MPD2    C212453   0.989   3.955  16.323  0.9506  0.3632 -0.9545
  844MPD2    C312454   0.994   4.068  16.405  0.8312 -0.1612  0.5477
  844MPD2    C412455   0.876   4.140  16.422 -0.7455  0.2652 -0.7926
  844MPD2    C512456   0.755   4.095  16.371  0.5853  0.9430 -0.2996
  844MPD2     H12457   1.076   3.893  16.305  0.5053 -0.3024 -0.8219
  844MPD2    H112458   0.874   4.215  16.500 -1.7906  1.1422 -1.6764
  844MPD2    H212459   0.650   3.959  16.253 -0.9084  0.3827  0.9685
  844MPD2    H312460   0.669   4.160  16.382  0.9124  1.0679  1.5500
  844MPD2     N12461   1.125   4.106  16.456  0.4421  0.7989  0.4023
  844MPD2    H512462   1.202   4.039  16.452 -1.6740 -1.6730  1.2865
  844MPD2    N112463   0.872   3.797  16.184 -0.3748 -0.2520  0.5426
  844MPD2    H712464   0.957   3.742  16.192  0.7705  1.5502  0.9836
  845MPD2     C12465   1.383   0.327  16.683 -0.3032  0.4148 -0.5164
  845MPD2    C112466   1.318   0.249  16.783  0.2477 -0.2388  0.7996
  845MPD2    C212467   1.306   0.118  16.755  0.0056  0.0521 -0.1960
  845MPD2    C312468   1.379   0.056  16.650  0.5752  0.7459 -0.2959
  845MPD2    C412469   1.450   0.137  16.564 -0.1163 -0.8458 -0.5777
  845MPD2    C512470   1.448   0.271  16.577  0.0741 -0.2215 -0.2604
  845MPD2     H12471   1.242   0.051  16.810 -0.5825  1.0911  0.3792
  845MPD2    H112472   1.521   0.090  16.497 -1.7319 -0.7415 -2.3497
  845MPD2    H212473   1.392   0.435  16.675  0.6910  0.3053 -0.7964
  845MPD2    H312474   1.511   0.325  16.507  2.0322 -1.6214  0.4366
  845MPD2     N12475   1.369   4.650  16.647  0.6717 -0.1732  0.6369
  845MPD2    H512476   1.300   4.601  16.703 -0.2746 -2.2082 -2.2553
  845MPD2    N112477   1.269   0.307  16.900  0.1604  0.3645 -0.3021
  845MPD2    H712478   1.260   0.408  16.910 -1.8879  0.2056 -0.5443
  846MPD2     C12479   2.169   0.647  13.569 -0.1149 -0.2313  0.3996
  846MPD2    C112480   2.286   0.645  13.641 -0.2519 -0.2109  0.0766
  846MPD2    C212481   2.282   0.646  13.774 -0.0214  0.0598  0.7554
  846MPD2    C312482   2.158   0.635  13.845  0.1127 -0.2158 -0.0114
  846MPD2    C412483   2.042   0.631  13.770  0.1784  0.7176  0.1210
  846MPD2    C512484   2.051   0.650  13.634 -0.7936  0.2795  0.7857
  846MPD2     H12485   2.376   0.657  13.826  0.1918  2.0214 -0.0446
  846MPD2    H112486   1.946   0.617  13.819  0.7911 -3.6268  0.0537
  846MPD2    H212487   2.152   0.643  13.462 -2.0231 -2.5871  0.8129
  846MPD2    H312488   1.960   0.652  13.576 -0.1929  0.7755 -0.1440
  846MPD2     N12489   2.154   0.634  13.988  0.5245 -0.4989 -0.9131
  846MPD2    H512490   2.242   0.647  14.038 -0.5408 -0.9402  1.0771
  846MPD2    N112491   2.406   0.664  13.579 -0.2737 -0.1638 -0.1085
  846MPD2    H712492   2.484   0.668  13.644 -0.1868 -1.1665 -0.1552
  847MPD2     C12493   2.878   1.382  14.423  0.1111  0.6617 -0.4383
  847MPD2    C112494   2.930   1.502  14.470  0.6540  0.4708  0.2670
  847MPD2    C212495   3.046   1.501  14.548  0.6247  0.1976 -0.5786
  847MPD2    C312496   3.108   1.386  14.584 -0.3534  0.3162  0.0252
  847MPD2    C412497   3.046   1.267  14.548 -0.3162  0.3754 -0.0896
  847MPD2    C512498   2.943   1.265  14.457 -0.0607  0.1368 -0.5685
  847MPD2     H12499   3.080   1.599  14.578 -2.6072  1.4331 -1.0088
  847MPD2    H112500   3.083   1.172  14.586 -0.6378  0.6934  1.0293
  847MPD2    H212501   2.791   1.382  14.359 -1.6390 -3.0530  1.9670
  847MPD2    H312502   2.906   1.177  14.405  1.1773 -0.6089 -0.1754
  847MPD2     N12503   3.225   1.380  14.670  0.1518  0.0078  0.2611
  847MPD2    H512504   3.248   1.288  14.706  1.0835  0.2792  0.3417
  847MPD2    N112505   2.874   1.630  14.442 -1.0520 -0.0017 -0.6372
  847MPD2    H712506   2.927   1.707  14.482 -3.5814  0.9632  0.8519
  848MPD2     C12507   0.461   4.375  16.282 -0.7305  0.3053  0.4569
  848MPD2    C112508   0.547   4.438  16.367  1.3538 -0.3496 -0.8707
  848MPD2    C212509   0.613   4.552  16.327  0.1706 -0.5082  0.2336
  848MPD2    C312510   0.584   4.606  16.204  0.6328 -0.4153 -0.0417
  848MPD2    C412511   0.490   4.548  16.123 -0.6545  0.4195 -0.1479
  848MPD2    C512512   0.431   4.427  16.158  0.0450  0.7654 -0.2733
  848MPD2     H12513   0.675   4.603  16.400  0.1551  1.8116 -1.3715
  848MPD2    H112514   0.453   4.591  16.030 -0.1084 -0.4672 -0.7744
  848MPD2    H212515   0.407   4.284  16.308  2.5436 -2.1432 -1.3108
  848MPD2    H312516   0.348   4.391  16.097  0.1416 -1.6528  1.0173
  848MPD2     N12517   0.639   4.731  16.160 -0.4127  0.4215  0.7232
  848MPD2    H512518   0.607   0.014  16.066  1.2452  0.5692  0.1887
  848MPD2    N112519   0.586   4.387  16.494  0.0360  0.0119  0.0719
  848MPD2    H712520   0.666   4.434  16.536 -0.1317 -0.1887  0.6152
  849MPD2     C12521   4.112   4.133  13.965  0.5651  0.1122  0.1813
  849MPD2    C112522   4.226   4.201  13.921 -0.0153 -0.1940 -0.5593
  849MPD2    C212523   4.351   4.167  13.981 -0.0578  0.0998  0.7128
  849MPD2    C312524   4.353   4.078  14.083 -0.3171 -0.2151  1.0975
  849MPD2    C412525   4.239   4.019  14.134  0.3782  0.1885  0.7488
  849MPD2    C512526   4.121   4.042  14.065 -0.6142 -0.0091 -0.9622
  849MPD2     H12527   4.442   4.212  13.944  1.2134 -1.5649  1.8077
  849MPD2    H112528   4.239   3.939  14.207  2.7641 -1.8721 -1.4824
  849MPD2    H212529   4.012   4.158  13.934  1.2506  1.7101 -0.7439
  849MPD2    H312530   4.034   3.986  14.097 -0.7964  1.9734  1.9932
  849MPD2     N12531   4.478   4.078  14.142  0.4835 -0.1765 -0.1728
  849MPD2    H512532   4.554   4.114  14.085  0.1982 -2.6404 -2.1222
  849MPD2    N112533   4.218   4.304  13.824 -0.0222 -0.3714  0.1156
  849MPD2    H712534   4.136   4.298  13.764  1.7709 -0.8925 -2.3059
  850MPD2     C12535   2.642   2.392  14.680  0.5967 -0.2247 -0.4742
  850MPD2    C112536   2.642   2.454  14.809  0.2455 -0.0197 -0.5116
  850MPD2    C212537   2.763   2.473  14.869  0.6555  0.3233 -0.1553
  850MPD2    C312538   2.878   2.428  14.816 -0.5337 -0.4504 -0.5862
  850MPD2    C412539   2.883   2.381  14.684 -0.0993  0.2209  0.0151
  850MPD2    C512540   2.766   2.372  14.612 -0.0178  0.1416  0.7073
  850MPD2     H12541   2.759   2.521  14.966  1.8378  1.8943 -0.8876
  850MPD2    H112542   2.971   2.353  14.627 -1.1978 -2.0686 -0.5499
  850MPD2    H212543   2.549   2.361  14.635 -0.2190  0.8911  0.4592
  850MPD2    H312544   2.769   2.331  14.512 -0.0387  0.5515  0.5392
  850MPD2     N12545   2.994   2.450  14.888  0.3592  0.0963  0.3938
  850MPD2    H512546   3.078   2.413  14.844 -1.5335 -1.1380 -2.2461
  850MPD2    N112547   2.517   2.478  14.867 -0.2135  0.0411  0.4793
  850MPD2    H712548   2.437   2.487  14.804 -0.2114 -1.3325  0.2926
  851MPD2     C12549   3.023   2.096  15.490 -0.8760  0.0634 -0.0735
  851MPD2    C112550   2.946   2.088  15.377 -0.3817 -0.1879  0.1048
  851MPD2    C212551   2.967   1.974  15.298  0.3005 -0.0965  0.8206
  851MPD2    C312552   3.039   1.863  15.337  0.1976  0.0994 -0.0917
  851MPD2    C412553   3.113   1.877  15.452 -0.5315  0.0232  0.0432
  851MPD2    C512554   3.102   1.993  15.529  0.3367 -0.3005  0.1620
  851MPD2     H12555   2.903   1.967  15.210 -2.4425 -0.4844  2.8427
  851MPD2    H112556   3.194   1.812  15.482 -1.7412 -0.9762  1.1475
  851MPD2    H212557   3.010   2.172  15.566 -0.9304  0.4117 -0.4326
  851MPD2    H312558   3.173   1.998  15.611  0.2753 -2.1272  0.3364
  851MPD2     N12559   3.027   1.746  15.258  0.0563  0.1067 -0.2155
  851MPD2    H512560   2.971   1.751  15.174 -2.7286  2.9152  1.8432
  851MPD2    N112561   2.852   2.192  15.358  0.4009 -0.2456 -1.1232
  851MPD2    H712562   2.859   2.264  15.430  0.8754 -0.7301 -0.6820
  852MPD2     C12563   3.255   0.276  10.000 -0.1770  1.1250  0.4301
  852MPD2    C112564   3.200   0.262  10.125  0.2114  0.1795  0.0685
  852MPD2    C212565   3.234   0.361  10.212 -0.5055  1.1036  0.4351
  852MPD2    C312566   3.328   0.462  10.189 -0.1830  0.5996 -0.0619
  852MPD2    C412567   3.377   0.472  10.061 -0.0274  0.1569 -0.5865
  852MPD2    C512568   3.342   0.377   9.968 -0.0448 -0.4095  0.6238
  852MPD2     H12569   3.190   0.361  10.311  1.5857  0.2701  1.3715
  852MPD2    H112570   3.450   0.543  10.024 -0.9630  1.6473  0.4780
  852MPD2    H212571   3.243   0.207   9.917  0.7588  1.3115  0.1361
  852MPD2    H312572   3.391   0.385   9.872  0.7062 -1.2491  0.9370
  852MPD2     N12573   3.364   0.557  10.290  0.0927  0.0739  0.0849
  852MPD2    H512574   3.323   0.550  10.382  0.1121  0.8527  0.1543
  852MPD2    N112575   3.118   0.159  10.171 -0.1300  0.0394  0.5212
  852MPD2    H712576   3.071   0.186  10.256 -0.5258  2.8900 -0.5853
  853MPD2     C12577   4.278   4.209  11.849  0.5187  0.0623  0.2651
  853MPD2    C112578   4.198   4.317  11.819 -0.0247  0.0590 -0.2157
  853MPD2    C212579   4.234   4.390  11.708  0.8315  0.8215 -0.1966
  853MPD2    C312580   4.341   4.353  11.622  0.5230  0.3540 -0.6524
  853MPD2    C412581   4.401   4.233  11.648 -0.1059  0.0361 -0.4098
  853MPD2    C512582   4.368   4.164  11.760 -0.0491 -0.0898  0.2759
  853MPD2     H12583   4.182   4.483  11.689 -0.7226  0.0934  0.5090
  853MPD2    H112584   4.482   4.199  11.585 -0.3251 -0.2551 -0.5335
  853MPD2    H212585   4.248   4.146  11.931  1.3939  0.0866  0.6034
  853MPD2    H312586   4.410   4.067  11.782  1.3860  0.9513  2.0690
  853MPD2     N12587   4.388   4.414  11.500  0.1724  1.1722  0.2563
  853MPD2    H512588   4.454   4.375  11.434  0.5165  2.0133  0.0999
  853MPD2    N112589   4.096   4.356  11.910 -1.0859  0.1046  0.6002
  853MPD2    H712590   4.094   4.305  11.997  1.8177 -0.3083  0.4445
  854MPD2     C12591   1.369   0.665  13.017  1.0474  0.2030  0.3041
  854MPD2    C112592   1.265   0.568  13.024 -0.2113 -0.0179  0.4299
  854MPD2    C212593   1.303   0.438  13.043 -0.0506 -0.0935 -0.3122
  854MPD2    C312594   1.441   0.400  13.055  1.2716 -0.3472 -0.3074
  854MPD2    C412595   1.535   0.496  13.044  0.5832 -0.0753 -0.2678
  854MPD2    C512596   1.499   0.628  13.031 -0.4573 -1.0265 -0.6980
  854MPD2     H12597   1.221   0.367  13.047  0.8628 -1.2142 -1.4250
  854MPD2    H112598   1.640   0.479  13.065  0.1320 -0.4509  1.6876
  854MPD2    H212599   1.348   0.770  13.002 -1.5781 -0.4666 -0.5331
  854MPD2    H312600   1.573   0.707  13.026  1.1086 -2.4768 -0.3617
  854MPD2     N12601   1.486   0.268  13.070 -0.7779 -0.1039 -0.9495
  854MPD2    H512602   1.586   0.250  13.073 -1.3316 -2.7955  0.8328
  854MPD2    N112603   1.127   0.606  13.021  0.8617  0.3124  0.2990
  854MPD2    H712604   1.097   0.701  12.999  2.5748  0.7913 -0.0102
  855MPD2     C12605   2.005   0.102  13.659 -0.1526 -0.0740  0.0044
  855MPD2    C112606   1.979   4.706  13.628  0.7267  0.0003  0.2441
  855MPD2    C212607   1.922   4.680  13.506 -0.3674  0.2103  0.6373
  855MPD2    C312608   1.888   0.041  13.419 -0.2988  0.2863  0.4937
  855MPD2    C412609   1.907   0.172  13.457 -0.0257 -0.7665  0.1751
  855MPD2    C512610   1.965   0.200  13.575 -0.0291 -0.3976  0.3330
  855MPD2     H12611   1.903   4.576  13.482  1.6016 -0.1996  0.8928
  855MPD2    H112612   1.875   0.248  13.387  2.4415  0.8447  0.7953
  855MPD2    H212613   2.058   0.122  13.751 -0.6059  0.5841  0.1170
  855MPD2    H312614   1.981   0.307  13.587 -1.6768 -0.6957  5.1413
  855MPD2     N12615   1.806   0.023  13.306  0.2036  0.0669 -0.4357
  855MPD2    H512616   1.782   0.108  13.256  2.7785  2.2421  1.9910
  855MPD2    N112617   1.983   4.605  13.720  0.6692  0.2990 -0.7359
  855MPD2    H712618   1.946   4.515  13.690 -0.7195  0.1587  1.4389
  856MPD2     C12619   4.170   4.665  13.990  0.4130  0.5164 -0.8980
  856MPD2    C112620   4.159   0.064  13.984  0.0786  0.6974  0.2685
  856MPD2    C212621   4.032   0.121  13.985  0.1045  0.7745  0.3761
  856MPD2    C312622   3.918   0.042  13.978  0.2466 -0.4449  0.0968
  856MPD2    C412623   3.930   4.646  13.973 -0.3253  0.4946  0.5133
  856MPD2    C512624   4.050   4.593  13.986  0.0007 -0.7190 -0.1187
  856MPD2     H12625   4.048   0.227  13.976  0.9574  0.7104  1.2048
  856MPD2    H112626   3.844   4.580  13.966 -0.5845  1.0640 -1.7101
  856MPD2    H212627   4.263   4.609  13.988  1.6648  2.5330  0.4655
  856MPD2    H312628   4.054   4.485  13.989  0.3712 -0.7062 -0.1632
  856MPD2     N12629   3.791   0.100  13.953 -0.5917  0.1149  0.3271
  856MPD2    H512630   3.711   0.044  13.923 -0.6674  0.5525 -0.3013
  856MPD2    N112631   4.265   0.156  13.983  0.5321 -0.1663 -0.1157
  856MPD2    H712632   4.243   0.254  13.994 -0.8688 -0.4169 -0.7629
  857MPD2     C12633   0.571   2.947  12.617 -0.3272 -0.4694 -0.5173
  857MPD2    C112634   0.685   3.013  12.590 -0.8112  0.6323  0.3321
  857MPD2    C212635   0.724   3.115  12.668 -0.8997  0.2676 -0.3939
  857MPD2    C312636   0.649   3.152  12.782 -0.4223  0.2695  0.0890
  857MPD2    C412637   0.541   3.071  12.811  0.6542  0.0310  0.0077
  857MPD2    C512638   0.496   2.972  12.727  0.1588  0.6453  0.1265
  857MPD2     H12639   0.813   3.173  12.646 -1.2731 -0.2065 -3.1634
  857MPD2    H112640   0.478   3.086  12.898  2.0718 -0.5557  1.1325
  857MPD2    H212641   0.543   2.875  12.541  0.2021 -2.8279  1.5272
  857MPD2    H312642   0.405   2.917  12.748  0.6529  1.0766  3.3810
  857MPD2     N12643   0.691   3.268  12.857  0.3211 -0.3376  0.8263
  857MPD2    H512644   0.772   3.322  12.828 -0.5485 -0.7002 -2.2618
  857MPD2    N112645   0.759   2.980  12.477 -0.0371 -0.0334  0.0793
  857MPD2    H712646   0.713   2.899  12.436 -2.0019  0.5673  1.0750
  858MPD2     C12647   1.323   2.218  16.255 -0.1478  0.1734  0.1284
  858MPD2    C112648   1.288   2.112  16.330 -0.0427  0.5722 -0.0339
  858MPD2    C212649   1.304   2.130  16.466  0.0793  0.1844 -0.1463
  858MPD2    C312650   1.323   2.255  16.527 -0.7633  0.3525 -0.1787
  858MPD2    C412651   1.349   2.363  16.445  0.3133 -0.6949  0.2243
  858MPD2    C512652   1.354   2.339  16.307 -1.3421 -0.6870  0.4086
  858MPD2     H12653   1.289   2.043  16.528 -0.7845  1.8137  1.9096
  858MPD2    H112654   1.367   2.461  16.488  1.8360 -1.9237  2.3741
  858MPD2    H212655   1.312   2.209  16.148 -0.1008  0.4376  0.1005
  858MPD2    H312656   1.374   2.424  16.243  0.6870  0.4823  2.5685
  858MPD2     N12657   1.355   2.259  16.660  0.2493 -0.1815 -1.7262
  858MPD2    H512658   1.332   2.345  16.709  1.9047 -0.1719 -0.9687
  858MPD2    N112659   1.259   1.985  16.268 -0.3764 -0.5152 -0.3557
  858MPD2    H712660   1.277   1.969  16.169  0.1109 -1.3285 -0.1393
  859MPD2     C12661   4.395   4.082  15.744  0.2661 -0.9122  0.2470
  859MPD2    C112662   4.363   4.024  15.624 -0.1187 -0.4009  0.4825
  859MPD2    C212663   4.272   3.919  15.626 -1.1730 -0.0508 -0.1073
  859MPD2    C312664   4.217   3.876  15.746  0.0573 -0.1024 -0.7507
  859MPD2    C412665   4.260   3.930  15.861 -0.0312 -0.5003 -0.8020
  859MPD2    C512666   4.338   4.041  15.855  0.2024  0.1277 -0.0995
  859MPD2     H12667   4.252   3.867  15.533  0.2980 -2.2274  0.7790
  859MPD2    H112668   4.205   3.915  15.953  0.5822 -0.0777 -0.3661
  859MPD2    H212669   4.451   4.175  15.730  0.4728 -1.1248 -0.3698
  859MPD2    H312670   4.354   4.096  15.947 -1.8116  0.9100 -0.2111
  859MPD2     N12671   4.125   3.774  15.753  0.0391 -0.5576 -0.2837
  859MPD2    H512672   4.126   3.721  15.840  2.9993 -3.1777 -1.9020
  859MPD2    N112673   4.422   4.082  15.505 -0.4806  0.7164  0.2998
  859MPD2    H712674   4.491   4.156  15.518  1.9576 -1.7580  1.4048
  860MPD2     C12675   1.916   4.552  11.607 -0.0894  0.0884  0.4498
  860MPD2    C112676   1.922   4.533  11.749 -0.6289 -0.3497  0.0708
  860MPD2    C212677   1.806   4.563  11.815 -0.3440 -0.4293 -0.8197
  860MPD2    C312678   1.696   4.624  11.753 -0.3498  0.1437 -0.4344
  860MPD2    C412679   1.696   4.654  11.621 -0.5568  0.5215  0.4055
  860MPD2    C512680   1.803   4.613  11.547  0.5320 -0.4222 -0.8498
  860MPD2     H12681   1.803   4.558  11.924  1.4402 -2.2944 -0.8464
  860MPD2    H112682   1.614   4.691  11.561 -0.1327  0.6491 -0.0942
  860MPD2    H212683   1.991   4.534  11.531  0.8886  1.0602  1.1713
  860MPD2    H312684   1.789   4.618  11.440  1.9354 -1.4311 -1.0707
  860MPD2     N12685   1.594   4.671  11.832 -0.4539 -0.2732  0.0789
  860MPD2    H512686   1.593   4.648  11.930  0.5338 -0.5148  0.0359
  860MPD2    N112687   2.029   4.463  11.805  0.1427 -0.1356 -1.1082
  860MPD2    H712688   2.113   4.444  11.751  1.1014 -1.5340  0.8582
  861MPD2     C12689   1.875   2.717  10.724 -0.2910 -0.1003 -0.4680
  861MPD2    C112690   1.843   2.805  10.825  0.4832 -0.3242  0.0024
  861MPD2    C212691   1.777   2.920  10.798 -0.0606 -0.8942  0.2567
  861MPD2    C312692   1.730   2.946  10.664  0.1071  0.3271 -0.0385
  861MPD2    C412693   1.771   2.858  10.565 -0.0910 -0.0007 -0.3469
  861MPD2    C512694   1.842   2.744  10.597  0.4565 -0.2809  1.0214
  861MPD2     H12695   1.745   2.988  10.877  0.7030  0.0552 -0.2520
  861MPD2    H112696   1.741   2.874  10.462 -1.2814 -0.3553 -0.0462
  861MPD2    H212697   1.935   2.628  10.740 -0.7656 -0.4549 -0.6824
  861MPD2    H312698   1.872   2.671  10.523 -0.0642  1.8748 -1.3043
  861MPD2     N12699   1.653   3.058  10.623  0.0931  0.0601  0.2545
  861MPD2    H512700   1.625   3.056  10.525 -1.5022 -0.9839  0.7296
  861MPD2    N112701   1.868   2.782  10.961  0.1657  0.2370  0.4303
  861MPD2    H712702   1.837   2.853  11.026  2.3548  0.7053  0.9631
  862MPD2     C12703   1.173   3.646  10.178  0.5843  0.2310  0.3815
  862MPD2    C112704   1.211   3.517  10.225  0.0720 -1.0675  0.6095
  862MPD2    C212705   1.127   3.409  10.190  0.1883 -0.2476 -0.4085
  862MPD2    C312706   1.008   3.427  10.121  0.1047  0.3838 -1.0235
  862MPD2    C412707   0.985   3.550  10.062  0.4532  0.1421 -1.3751
  862MPD2    C512708   1.068   3.656  10.092  0.0242 -0.0242  0.0772
  862MPD2     H12709   1.149   3.311  10.233  0.1358  0.3046  0.8911
  862MPD2    H112710   0.900   3.567   9.998 -0.6883 -0.3020  0.0109
  862MPD2    H212711   1.225   3.737  10.205  0.0914  1.0165 -1.3445
  862MPD2    H312712   1.043   3.752  10.049 -3.1882 -0.6613  0.5180
  862MPD2     N12713   0.915   3.319  10.098 -0.3418 -0.3614 -0.1917
  862MPD2    H512714   0.829   3.335  10.046  0.2033  1.1228 -0.6184
  862MPD2    N112715   1.322   3.506  10.311 -0.8309  0.2527 -0.3590
  862MPD2    H712716   1.358   3.586  10.361  0.9083 -1.2296  0.7617
  863MPD2     C12717   3.838   0.615  16.898 -0.3282  0.6165 -0.1434
  863MPD2    C112718   3.936   0.702  16.858  0.0377 -0.3047  0.3049
  863MPD2    C212719   4.052   0.709  16.928 -0.5343  0.0593  0.1092
  863MPD2    C312720   4.076   0.626  17.036  0.3340  0.3892  0.2747
  863MPD2    C412721   3.981   0.530  17.067  0.0183 -0.2157 -0.0795
  863MPD2    C512722   3.864   0.521  16.995 -0.1840 -0.3068 -0.2254
  863MPD2     H12723   4.124   0.786  16.902  0.4477 -0.0530  2.4592
  863MPD2    H112724   3.995   0.464  17.152  2.4541 -1.8279 -1.7540
  863MPD2    H212725   3.746   0.614  16.840 -0.0481 -0.8873 -0.5606
  863MPD2    H312726   3.784   0.454  17.025 -0.0215 -1.1416 -1.6827
  863MPD2     N12727   4.188   0.627  17.121  0.4918  0.1551  0.2933
  863MPD2    H512728   4.197   0.556  17.193 -0.5107  0.9386  1.1833
  863MPD2    N112729   3.901   0.795  16.757  0.3366 -0.2786  0.3048
  863MPD2    H712730   3.808   0.785  16.719  0.1506 -0.7796  0.8772
  864MPD2     C12731   0.167   2.803  17.208 -0.6732 -0.3183  0.4450
  864MPD2    C112732   0.202   2.679  17.150  0.6267 -0.3844  0.2994
  864MPD2    C212733   0.325   2.676  17.087 -0.9892 -0.0178 -0.0863
  864MPD2    C312734   0.411   2.786  17.079  0.3863 -0.0832  0.4074
  864MPD2    C412735   0.374   2.899  17.137  0.0360 -0.5611  0.1863
  864MPD2    C512736   0.249   2.911  17.192 -0.9746  0.3772  0.2484
  864MPD2     H12737   0.372   2.586  17.049  0.3546  0.7317 -0.2223
  864MPD2    H112738   0.429   2.993  17.129 -0.9707  0.1498  1.5258
  864MPD2    H212739   0.067   2.809  17.250 -1.3203 -2.2483 -0.8348
  864MPD2    H312740   0.213   3.003  17.236 -0.4580  1.1524 -0.9661
  864MPD2     N12741   0.541   2.778  17.030 -0.0366 -0.2427 -0.0058
  864MPD2    H512742   0.586   2.868  17.014  2.2917 -2.1123 -3.9450
  864MPD2    N112743   0.113   2.568  17.155 -0.0568  0.3198  0.6833
  864MPD2    H712744   0.026   2.576  17.208  0.2253 -1.0452  1.3269
  865MPD2     C12745   0.811   2.683  16.240  0.3942  1.0186 -0.4281
  865MPD2    C112746   0.746   2.606  16.328 -0.2188 -0.6527 -0.8772
  865MPD2    C212747   0.735   2.657  16.458  0.2489 -0.0820  0.8690
  865MPD2    C312748   0.805   2.771  16.495  0.4155 -0.2580  0.9116
  865MPD2    C412749   0.877   2.843  16.407  0.2631 -0.0793 -0.7708
  865MPD2    C512750   0.869   2.803  16.274  0.0287  0.3282  0.1870
  865MPD2     H12751   0.691   2.594  16.534 -2.5927  2.3617  1.2696
  865MPD2    H112752   0.921   2.940  16.426  0.7465 -0.3696 -0.4192
  865MPD2    H212753   0.828   2.659  16.135  0.4479 -0.4698 -0.0759
  865MPD2    H312754   0.913   2.865  16.197 -1.9718  0.9968 -0.4238
  865MPD2     N12755   0.803   2.798  16.634 -0.2594  0.6866 -0.0438
  865MPD2    H512756   0.769   2.716  16.684  1.8263 -0.8926 -1.2307
  865MPD2    N112757   0.700   2.470  16.294  0.6787 -0.2297  0.0642
  865MPD2    H712758   0.720   2.438  16.200 -2.3281  1.3065 -1.0969
  866MPD2     C12759   2.320   2.944  11.356 -0.1937 -0.6710  0.2393
  866MPD2    C112760   2.302   2.915  11.222  0.4483  0.5276 -0.1519
  866MPD2    C212761   2.195   2.973  11.152 -0.2331  0.3880 -0.2280
  866MPD2    C312762   2.116   3.065  11.214  0.5038 -0.1010  1.1476
  866MPD2    C412763   2.129   3.085  11.350 -1.1423 -0.6069  0.2536
  866MPD2    C512764   2.231   3.024  11.420  0.2387  0.3587 -0.5125
  866MPD2     H12765   2.193   2.958  11.045  0.3369  0.6935 -0.2784
  866MPD2    H112766   2.074   3.163  11.401 -0.9801  0.2256 -0.8323
  866MPD2    H212767   2.404   2.904  11.411  0.6699  1.0705  0.1612
  866MPD2    H312768   2.244   3.040  11.527 -1.1181  1.7520 -0.5641
  866MPD2     N12769   2.003   3.134  11.151  0.1788 -0.5278 -0.0868
  866MPD2    H512770   1.932   3.180  11.208 -1.4672 -1.2192 -1.5938
  866MPD2    N112771   2.399   2.828  11.167 -0.1750  0.0223 -0.0886
  866MPD2    H712772   2.481   2.812  11.223  1.9492 -0.5255 -3.3640
  867MPD2     C12773   3.387   2.319  16.493 -0.0161 -0.5463  0.4657
  867MPD2    C112774   3.444   2.266  16.606 -0.0522  0.4099  0.1773
  867MPD2    C212775   3.484   2.353  16.705  0.3303  0.7300  0.4604
  867MPD2    C312776   3.471   2.488  16.698 -0.1451 -0.0624 -0.0609
  867MPD2    C412777   3.395   2.532  16.585 -0.8372  0.0670 -0.6032
  867MPD2    C512778   3.353   2.451  16.483  0.9442 -0.7007 -0.5011
  867MPD2     H12779   3.521   2.318  16.801 -0.4273 -0.2947  0.3831
  867MPD2    H112780   3.380   2.637  16.563 -1.0243 -0.0600 -1.0832
  867MPD2    H212781   3.380   2.260  16.402  2.0132  2.3336 -1.5591
  867MPD2    H312782   3.307   2.495  16.396 -2.0197 -2.2012  0.3323
  867MPD2     N12783   3.528   2.586  16.791 -0.7766  0.1011  0.0435
  867MPD2    H512784   3.514   2.683  16.766  0.1097 -0.4572 -2.6427
  867MPD2    N112785   3.464   2.119  16.612 -0.4661 -0.0417 -0.0628
  867MPD2    H712786   3.430   2.064  16.533 -1.3361 -1.1499  1.0922
  868MPD2     C12787   1.080   1.736  13.181  0.2056 -0.2144 -0.0639
  868MPD2    C112788   1.047   1.616  13.124  0.1025  0.4141 -0.0504
  868MPD2    C212789   0.954   1.531  13.182 -0.4279 -0.0768  0.0264
  868MPD2    C312790   0.901   1.569  13.303 -0.0372 -0.7380 -0.2148
  868MPD2    C412791   0.939   1.689  13.362 -0.5139  0.4379  0.1047
  868MPD2    C512792   1.024   1.776  13.300 -0.5967  0.5172 -0.0142
  868MPD2     H12793   0.929   1.435  13.139  0.6947 -0.1367 -0.4905
  868MPD2    H112794   0.897   1.712  13.459  0.4411 -0.0367  0.6255
  868MPD2    H212795   1.136   1.808  13.122  0.6611 -1.7114 -1.4588
  868MPD2    H312796   1.055   1.873  13.339  1.9441 -1.3426  2.6099
  868MPD2     N12797   0.816   1.479  13.367  0.2019  0.0891 -0.0368
  868MPD2    H512798   0.792   1.389  13.327  2.4666 -1.5954  2.3930
  868MPD2    N112799   1.114   1.567  13.006 -0.2843 -0.5244 -0.2767
  868MPD2    H712800   1.193   1.616  12.964  0.4737 -1.7616 -0.3056
  869MPD2     C12801   1.434   3.736   0.573 -0.3279 -0.2291 -0.1619
  869MPD2    C112802   1.453   3.764   0.440 -0.3396  0.2335 -0.4154
  869MPD2    C212803   1.568   3.838   0.406  0.2191 -0.0679  0.6458
  869MPD2    C312804   1.642   3.900   0.500  0.4859 -0.0133  0.1682
  869MPD2    C412805   1.618   3.870   0.635 -0.7122 -0.0525  0.2636
  869MPD2    C512806   1.520   3.783   0.667  0.2916  0.1908  0.5389
  869MPD2     H12807   1.580   3.864   0.302 -0.5022 -0.0052  0.5787
  869MPD2    H112808   1.685   3.894   0.717 -0.8788  0.2877  0.3013
  869MPD2    H212809   1.351   3.678   0.612 -1.3919  1.5915  0.3307
  869MPD2    H312810   1.505   3.749   0.768 -0.6399 -0.2676  0.2474
  869MPD2     N12811   1.733   3.999   0.466 -0.3339 -0.5463  1.1205
  869MPD2    H512812   1.765   4.062   0.538  0.7890  0.2875 -0.1128
  869MPD2    N112813   1.358   3.706   0.353  0.2112 -0.1629  0.7001
  869MPD2    H712814   1.291   3.640   0.391  0.7149 -1.0579  0.0223
  870MPD2     C12815   2.294   2.966   1.334  0.1550 -0.9472 -0.7365
  870MPD2    C112816   2.195   2.877   1.307 -0.1094  0.5296  0.8158
  870MPD2    C212817   2.066   2.906   1.353  0.1774 -0.2262  0.5062
  870MPD2    C312818   2.033   3.027   1.401 -0.3353 -0.0274  0.2878
  870MPD2    C412819   2.139   3.118   1.424 -0.3998 -0.2684  0.0212
  870MPD2    C512820   2.264   3.087   1.390  0.3644  0.7626 -0.2548
  870MPD2     H12821   1.978   2.849   1.327  0.6028 -0.2974 -0.7355
  870MPD2    H112822   2.126   3.210   1.479 -2.9619  0.7488 -2.2969
  870MPD2    H212823   2.391   2.945   1.290 -0.2777  0.3953 -2.3547
  870MPD2    H312824   2.345   3.160   1.398  1.4984 -0.2108 -2.6413
  870MPD2     N12825   1.902   3.047   1.428 -0.3678 -0.0118  0.1023
  870MPD2    H512826   1.839   2.973   1.399  2.3430 -2.0170 -0.6423
  870MPD2    N112827   2.226   2.760   1.231  0.4533 -0.4108 -0.4512
  870MPD2    H712828   2.322   2.737   1.208  1.2841  0.4882  2.2183
  871MPD2     C12829   2.677   2.499  16.440  0.2693 -0.2703 -0.6446
  871MPD2    C112830   2.617   2.407  16.520  0.2147  0.0325 -0.1266
  871MPD2    C212831   2.602   2.277  16.476  0.3195  0.3960  0.3845
  871MPD2    C312832   2.641   2.234  16.351 -0.2798 -0.0751  0.7776
  871MPD2    C412833   2.689   2.334  16.268  0.0065  0.3347  0.2033
  871MPD2    C512834   2.709   2.461  16.315 -0.1839  0.0592  0.5553
  871MPD2     H12835   2.580   2.197  16.546  1.4300 -0.5402 -0.3271
  871MPD2    H112836   2.727   2.310  16.170  0.4623 -1.7248  0.8767
  871MPD2    H212837   2.691   2.605  16.457  0.4789 -1.0095  3.8195
  871MPD2    H312838   2.756   2.538  16.255  0.3696 -1.6207 -1.1764
  871MPD2     N12839   2.647   2.095  16.324  0.4073 -0.4109  0.1259
  871MPD2    H512840   2.605   2.037  16.396  1.3941 -2.3104 -0.8313
  871MPD2    N112841   2.570   2.452  16.649  0.1267 -0.8259 -0.0303
  871MPD2    H712842   2.591   2.544  16.685  0.1300  0.1960 -2.6198
  872MPD2     C12843   3.949   4.363  13.575 -0.1460  0.1143  0.3360
  872MPD2    C112844   3.898   4.490  13.608 -0.0304 -0.4402 -0.4290
  872MPD2    C212845   3.793   4.492  13.702  0.0189  0.0731  0.4939
  872MPD2    C312846   3.740   4.383  13.760  0.4421  0.2153 -0.2220
  872MPD2    C412847   3.796   4.263  13.728  0.2641  0.2022  0.0596
  872MPD2    C512848   3.891   4.256  13.634 -0.1178 -0.2533 -0.2835
  872MPD2     H12849   3.759   4.594  13.720  1.8584  0.2742  2.8272
  872MPD2    H112850   3.763   4.172  13.776 -0.9821  0.1561 -0.8960
  872MPD2    H212851   4.030   4.347  13.505  1.0308  2.2541  1.1830
  872MPD2    H312852   3.928   4.156  13.611  0.3176  0.0410 -0.8739
  872MPD2     N12853   3.648   4.395  13.864 -0.1190  0.3155 -0.6893
  872MPD2    H512854   3.605   4.307  13.891  0.1717  0.8215  1.3911
  872MPD2    N112855   3.958   4.611  13.567 -0.2457  0.0933 -0.5520
  872MPD2    H712856   3.917   4.698  13.601 -1.3866 -0.2924 -0.9202
  873MPD2     C12857   0.207   0.161   0.561  0.1545 -0.1725 -0.3279
  873MPD2    C112858   0.317   0.140   0.638  0.1388  0.7348  0.4832
  873MPD2    C212859   0.378   0.018   0.637 -0.5664  0.1146 -0.3906
  873MPD2    C312860   0.314   4.647   0.574 -0.7377 -0.5953 -0.2639
  873MPD2    C412861   0.196   4.661   0.499  0.0607  0.0484  0.5387
  873MPD2    C512862   0.151   0.056   0.487  0.2329 -0.6374  0.2289
  873MPD2     H12863   0.453   4.735   0.713 -0.7454 -0.6244 -0.3951
  873MPD2    H112864   0.149   4.577   0.450 -0.3795  2.2302 -2.7235
  873MPD2    H212865   0.162   0.259   0.554 -1.0906 -0.8234 -1.4463
  873MPD2    H312866   0.062   0.082   0.431 -0.1940  1.3985  1.8758
  873MPD2     N12867   0.357   4.512   0.582  0.2749 -0.7802 -0.4242
  873MPD2    H512868   0.304   4.429   0.558 -0.4755  0.3462 -2.6140
  873MPD2    N112869   0.364   0.252   0.699  0.0112 -0.8404 -0.1600
  873MPD2    H712870   0.318   0.341   0.681 -2.2764 -2.4075 -2.0626
  874MPD2     C12871   0.082   4.629  16.033  0.8409 -0.9782  0.0738
  874MPD2    C112872   0.092   4.698  16.145 -1.0021 -0.5266  0.6261
  874MPD2    C212873   0.167   0.077  16.152  0.3134  0.2193 -0.0077
  874MPD2    C312874   0.244   0.118  16.041  0.2221  0.3189 -0.0857
  874MPD2    C412875   0.223   0.050  15.923  0.7526 -0.0429 -0.4749
  874MPD2    C512876   0.152   4.672  15.922 -0.3098 -0.4804  0.5229
  874MPD2     H12877   0.171   0.136  16.244  2.9404 -1.6947  1.1197
  874MPD2    H112878   0.264   0.077  15.826  0.0191  1.3039 -0.4069
  874MPD2    H212879   0.029   4.535  16.040  0.5124 -0.7534  0.5944
  874MPD2    H312880   0.152   4.617  15.828 -0.8558 -0.5704  0.5749
  874MPD2     N12881   0.331   0.222  16.065 -0.1800  0.3459  0.0286
  874MPD2    H512882   0.345   0.249  16.162  1.9332 -3.0123  0.6735
  874MPD2    N112883   0.004   4.650  16.249 -0.3404 -0.0809 -0.2392
  874MPD2    H712884   4.677   4.578  16.215  0.1337  0.1001 -1.4985
  875MPD2     C12885   0.569   2.808  14.418  0.5954  0.1842  0.0455
  875MPD2    C112886   0.643   2.919  14.369 -0.0496  0.3136  0.0278
  875MPD2    C212887   0.706   3.003  14.457 -0.1776  0.2212 -0.1375
  875MPD2    C312888   0.714   2.976  14.589  0.6946 -0.9551 -0.2992
  875MPD2    C412889   0.659   2.856  14.636  0.3599 -0.6388 -0.1921
  875MPD2    C512890   0.575   2.785  14.550  0.3206  0.1553 -1.2409
  875MPD2     H12891   0.760   3.090  14.422 -0.5964  0.6155  0.2105
  875MPD2    H112892   0.644   2.843  14.742  2.6617 -1.8529 -0.0088
  875MPD2    H212893   0.504   2.750  14.353 -0.2040  0.6556  0.4331
  875MPD2    H312894   0.509   2.712  14.594  1.9986  0.9427  2.6431
  875MPD2     N12895   0.778   3.060  14.684 -0.2561  0.7618 -1.0366
  875MPD2    H512896   0.781   3.026  14.779 -0.0887 -0.8064 -1.6147
  875MPD2    N112897   0.654   2.948  14.232 -0.4728 -0.3262 -0.4087
  875MPD2    H712898   0.699   3.037  14.211  1.8740 -1.2535  0.7301
  876MPD2     C12899   4.634   4.000  16.072  0.1028  0.6690  0.0712
  876MPD2    C112900   0.021   4.000  16.011 -0.0309  0.4429  0.0390
  876MPD2    C212901   0.099   3.893  16.038  0.0020 -0.9957  0.5029
  876MPD2    C312902   0.059   3.797  16.137  0.6942 -0.4486  0.1426
  876MPD2    C412903   4.666   3.797  16.183 -0.3767 -0.5955  0.3240
  876MPD2    C512904   4.588   3.897  16.143 -0.5427 -0.3990  0.4263
  876MPD2     H12905   0.194   3.887  15.987  0.7942 -1.7548  2.0629
  876MPD2    H112906   4.628   3.723  16.251 -0.5788 -0.7957 -0.0054
  876MPD2    H212907   4.562   4.074  16.041 -1.2335  0.3878  2.5087
  876MPD2    H312908   4.483   3.900  16.169 -0.7225  0.6664 -0.4083
  876MPD2     N12909   0.162   3.709  16.181  0.5241 -0.4418 -0.3028
  876MPD2    H512910   0.257   3.720  16.149 -0.2384  1.7601 -1.8057
  876MPD2    N112911   0.051   4.100  15.917 -0.1760  0.2909 -0.0836
  876MPD2    H712912   4.714   4.170  15.904 -0.5546 -0.2546 -0.8924
  877MPD2     C12913   4.406   4.514  15.407  0.4772 -0.0514 -0.0885
  877MPD2    C112914   4.528   4.579  15.418 -0.1000  0.3710 -0.6250
  877MPD2    C212915   4.550   4.684  15.329  0.6687 -0.1968 -0.7892
  877MPD2    C312916   4.461   4.702  15.218  0.2704  0.5781 -0.1680
  877MPD2    C412917   4.344   4.629  15.205  0.4358 -0.6177  0.1293
  877MPD2    C512918   4.319   4.544  15.309  0.6955 -0.6370  0.3173
  877MPD2     H12919   4.647   4.732  15.336  0.6841 -0.4495  0.8443
  877MPD2    H112920   4.278   4.641  15.120 -2.7997 -0.7278  2.6511
  877MPD2    H212921   4.383   4.443  15.486 -1.3793 -0.5949 -1.1152
  877MPD2    H312922   4.225   4.491  15.307 -1.0206  2.3260  3.4255
  877MPD2     N12923   4.494   0.045  15.101  0.4022  0.1838 -0.3961
  877MPD2    H512924   4.438   0.016  15.022 -0.2697  1.9416 -0.5404
  877MPD2    N112925   4.629   4.547  15.510  0.1331 -0.1787 -0.5353
  877MPD2    H712926   4.711   4.606  15.513 -1.1312  1.5884 -0.8560
  878MPD2     C12927   0.108   4.184  13.094  0.3661  0.7878 -0.7266
  878MPD2    C112928   0.142   4.306  13.143 -0.3917  0.3356 -0.4144
  878MPD2    C212929   0.063   4.371  13.237  0.0549  1.1315 -0.1165
  878MPD2    C312930   4.674   4.314  13.276 -0.6069  0.6206  0.0439
  878MPD2    C412931   4.662   4.177  13.241  0.5222  0.1179 -0.1629
  878MPD2    C512932   0.007   4.114  13.148  0.5330 -0.6179 -0.1658
  878MPD2     H12933   0.077   4.476  13.259  0.2765  1.0585  0.0876
  878MPD2    H112934   4.567   4.125  13.256  0.7247 -0.0942  0.4007
  878MPD2    H212935   0.173   4.145  13.017  0.8810  0.0885  0.0617
  878MPD2    H312936   4.724   4.018  13.101  1.0195  0.1876 -2.0011
  878MPD2     N12937   4.579   4.390  13.349  0.5082  0.2895  0.4769
  878MPD2    H512938   4.608   4.486  13.363 -0.0802  0.6182 -0.5952
  878MPD2    N112939   0.264   4.361  13.093  0.6496  0.4236 -0.1010
  878MPD2    H712940   0.319   4.299  13.035 -1.2113 -1.5414  0.2393
  879MPD2     C12941   0.315   0.706  16.735 -0.4851  0.4815 -1.0193
  879MPD2    C112942   0.328   0.636  16.859 -0.0735 -0.0465  0.0822
  879MPD2    C212943   0.254   0.518  16.871  0.2331  0.6699 -0.4841
  879MPD2    C312944   0.185   0.466  16.757  0.1663 -0.2130  0.2104
  879MPD2    C412945   0.174   0.538  16.643 -0.5106 -0.5025 -0.1597
  879MPD2    C512946   0.242   0.654  16.631  0.6349  0.3485 -0.1505
  879MPD2     H12947   0.252   0.464  16.965  0.6214  2.6098  0.6331
  879MPD2    H112948   0.113   0.513  16.557 -0.2742 -0.0551 -0.4551
  879MPD2    H212949   0.370   0.799  16.722  0.0698  0.4068  0.7893
  879MPD2    H312950   0.236   0.717  16.544  1.4721 -0.6109 -0.9029
  879MPD2     N12951   0.112   0.350  16.769 -0.3123 -0.5932 -0.4898
  879MPD2    H512952   0.051   0.331  16.690 -0.0791 -2.6899 -0.1499
  879MPD2    N112953   0.398   0.699  16.965  0.2383  0.1205  0.5462
  879MPD2    H712954   0.440   0.786  16.934  0.4833 -0.0403  0.4225
  880MPD2     C12955   1.324   2.321   0.192  0.4069  0.4237 -0.0135
  880MPD2    C112956   1.393   2.396   0.288 -1.0381 -0.7333 -0.3551
  880MPD2    C212957   1.518   2.354   0.330  0.2304  0.8219 -0.5455
  880MPD2    C312958   1.568   2.234   0.284 -0.3661  0.2568 -0.2247
  880MPD2    C412959   1.496   2.161   0.190  0.4397  0.3189  0.3576
  880MPD2    C512960   1.367   2.196   0.156 -0.3662  1.0870 -0.2357
  880MPD2     H12961   1.576   2.416   0.396 -0.9323  2.1767 -0.7920
  880MPD2    H112962   1.532   2.072   0.139 -1.1441  0.6343 -1.3113
  880MPD2    H212963   1.223   2.343   0.159  1.1859  2.2911 -1.1240
  880MPD2    H312964   1.307   2.148   0.079  3.0062 -2.5690 -0.5764
  880MPD2     N12965   1.700   2.199   0.326 -0.3988  0.4187  0.3025
  880MPD2    H512966   1.756   2.264   0.381  1.1010  0.9309 -1.8339
  880MPD2    N112967   1.334   2.513   0.336 -0.2497 -0.1927  0.0745
  880MPD2    H712968   1.244   2.536   0.294 -0.7614  1.4144  2.0416
  881MPD2     C12969   1.599   3.382   0.043  0.4600  0.3208  0.2376
  881MPD2    C112970   1.571   3.258   0.005  0.4070 -0.2518  0.4020
  881MPD2    C212971   1.482   3.188   0.083 -0.9100 -0.4321  0.4587
  881MPD2    C312972   1.447   3.225   0.218  0.2840  0.7451  0.4018
  881MPD2    C412973   1.485   3.351   0.249 -0.2218  0.2601  0.1830
  881MPD2    C512974   1.563   3.434   0.167  0.4028 -0.1093 -0.1476
  881MPD2     H12975   1.453   3.086   0.058  0.9424 -1.0757  0.9672
  881MPD2    H112976   1.465   3.389   0.349 -4.4940 -0.9208 -0.2256
  881MPD2    H212977   1.648   3.446  17.714 -0.5458  2.1443  1.1867
  881MPD2    H312978   1.566   3.538   0.198 -1.1066 -0.2603  0.5522
  881MPD2     N12979   1.379   3.139   0.311 -0.0879 -0.4770  0.2586
  881MPD2    H512980   1.381   3.176   0.405  0.2851  2.5353 -0.9495
  881MPD2    N112981   1.604   3.218  17.611 -0.4457  0.0215  0.1059
  881MPD2    H712982   1.663   3.279  17.555  0.1708 -0.2984  0.4066
  882MPD2     C12983   0.010   4.723  14.290  0.1948 -0.2500  0.5751
  882MPD2    C112984   4.671   4.704  14.406  0.0670  1.0912  0.2578
  882MPD2    C212985   4.596   4.589  14.417  0.5841  0.1412  0.0016
  882MPD2    C312986   4.582   4.517  14.299 -0.3190  0.3076 -0.0263
  882MPD2    C412987   4.646   4.548  14.182  0.3112 -0.7170 -0.0614
  882MPD2    C512988   0.004   4.643  14.178  0.4673 -0.0598 -0.1830
  882MPD2     H12989   4.539   4.567  14.507 -0.2651  1.4183 -0.2222
  882MPD2    H112990   4.625   4.485  14.096 -2.0133  1.6377 -1.2005
  882MPD2    H212991   0.072   0.074  14.272 -0.0994  0.1256  1.4052
  882MPD2    H312992   0.054   4.673  14.087 -0.7413  0.4980 -0.6666
  882MPD2     N12993   4.490   4.417  14.292 -0.0465 -0.4368  0.9156
  882MPD2    H512994   4.470   4.377  14.200  0.9864 -2.0473  1.3878
  882MPD2    N112995   4.683   0.063  14.511  0.1607  0.9819 -0.4943
  882MPD2    H712996   0.011   0.141  14.497  0.2929  1.1542  1.0598
  883MPD2     C12997   1.829   4.713  15.393 -0.6595 -0.4673  0.8492
  883MPD2    C112998   1.956   4.728  15.335 -0.1161 -0.1657 -0.8718
  883MPD2    C212999   2.059   0.003  15.415  0.1907 -0.3888 -0.0486
  883MPD2    C313000   2.054   4.735  15.548  0.2575 -0.0402  0.2340
  883MPD2    C413001   1.929   4.716  15.610 -0.1529 -0.0104  0.4609
  883MPD2    C513002   1.819   4.703  15.529  0.2023 -0.6479  0.0776
  883MPD2     H13003   2.156   0.021  15.368 -0.3851  0.9823 -0.6984
  883MPD2    H113004   1.917   4.725  15.718 -0.3446 -1.3199  0.5478
  883MPD2    H213005   1.740   4.714  15.332 -2.1152 -1.3415  2.9356
  883MPD2    H313006   1.721   4.687  15.574 -0.6605  1.8732 -0.9496
  883MPD2     N13007   2.178   0.017  15.622  0.3167  0.8496 -0.0661
  883MPD2    H513008   2.262   0.017  15.565  0.6781 -1.2489  0.4623
  883MPD2    N113009   1.983   4.735  15.196  0.4816  0.0960 -0.4435
  883MPD2    H713010   2.079   0.023  15.175 -0.6949  2.8597 -2.5704
  884MPD2     C13011   4.334   0.390  14.842  0.0925 -0.0716 -0.1608
  884MPD2    C113012   4.322   0.468  14.957 -0.2184 -0.3480  0.2609
  884MPD2    C213013   4.191   0.494  15.003  0.0037 -0.5729 -0.3879
  884MPD2    C313014   4.084   0.443  14.932 -0.2837  0.2749  0.1618
  884MPD2    C413015   4.107   0.374  14.807 -0.8477 -0.2665 -0.1872
  884MPD2    C513016   4.226   0.342  14.767  0.3794 -0.6324 -0.5142
  884MPD2     H13017   4.179   0.539  15.101 -1.8424  3.2822 -2.4210
  884MPD2    H113018   4.030   0.314  14.760 -0.1365 -1.2390 -0.1022
  884MPD2    H213019   4.435   0.378  14.806  0.8748 -0.6956  2.2505
  884MPD2    H313020   4.243   0.287  14.675 -1.9247 -0.3769 -1.0868
  884MPD2     N13021   3.954   0.453  14.992 -0.4431 -0.1389  0.2712
  884MPD2    H513022   3.960   0.515  15.072  1.2635 -1.7739  1.4175
  884MPD2    N113023   4.439   0.513  15.021 -0.4452 -0.0336 -0.0038
  884MPD2    H713024   4.428   0.555  15.112  1.7284 -2.5102  1.4029
  885MPD2     C13025   2.036   1.334   0.372 -0.0508 -0.1048 -0.1869
  885MPD2    C113026   2.109   1.219   0.360 -0.2397  0.3943  0.1359
  885MPD2    C213027   2.124   1.151   0.235 -0.9930 -0.4248 -0.0430
  885MPD2    C313028   2.059   1.208   0.119 -1.0488 -0.6999  0.6090
  885MPD2    C413029   1.987   1.321   0.141 -0.1824 -0.0628  0.1233
  885MPD2    C513030   1.974   1.385   0.259 -0.5466  0.2636 -0.9439
  885MPD2     H13031   2.186   1.064   0.218 -0.5501 -0.9443  4.0464
  885MPD2    H113032   1.933   1.376   0.064 -0.3344 -0.0314  0.2532
  885MPD2    H213033   2.040   1.390   0.465  0.7189 -1.9849  0.9220
  885MPD2    H313034   1.924   1.481   0.262  0.2141  0.5552  2.0867
  885MPD2     N13035   2.079   1.147  17.743  0.1939  0.5225  0.3168
  885MPD2    H513036   2.151   1.076  17.733 -1.0683 -0.8468  1.0689
  885MPD2    N113037   2.203   1.198   0.460  0.5610 -0.2345 -0.5486
  885MPD2    H713038   2.201   1.266   0.536 -0.8399  0.5990 -1.3203
  886MPD2     C13039   3.237   4.382  15.518 -0.3696 -0.0597  0.3392
  886MPD2    C113040   3.376   4.393  15.519 -0.4658  0.6758 -0.6686
  886MPD2    C213041   3.439   4.485  15.434  0.5108  0.5979  0.2517
  886MPD2    C313042   3.364   4.565  15.351 -0.6723  0.3349  0.0689
  886MPD2    C413043   3.226   4.552  15.357  0.2854 -0.1393 -0.3635
  886MPD2    C513044   3.165   4.474  15.441  0.0749 -0.1272  0.5842
  886MPD2     H13045   3.545   4.470  15.422  0.7207 -0.6617  3.6307
  886MPD2    H113046   3.157   4.621  15.309 -0.7134 -0.3128  0.7914
  886MPD2    H213047   3.188   4.331  15.599  0.6656 -0.2141  0.8749
  886MPD2    H313048   3.057   4.481  15.447 -0.1340 -1.0836 -1.9495
  886MPD2     N13049   3.430   4.624  15.244 -0.4007  0.3361 -0.2950
  886MPD2    H513050   3.530   4.602  15.240 -0.7112 -0.7989 -2.1016
  886MPD2    N113051   3.450   4.301  15.608  0.4318 -0.1578  0.0148
  886MPD2    H713052   3.551   4.312  15.605  0.2262  1.5115 -0.8683
  887MPD2     C13053   4.073   4.191  16.012 -0.2749 -0.6121 -0.4954
  887MPD2    C113054   4.018   4.273  15.918 -0.1358 -0.1580 -0.0472
  887MPD2    C213055   4.079   4.391  15.886 -0.5224  0.2211 -0.5819
  887MPD2    C313056   4.191   4.425  15.961 -1.5031 -0.7507 -0.3625
  887MPD2    C413057   4.227   4.351  16.072  0.2877 -0.1285  0.4794
  887MPD2    C513058   4.174   4.231  16.094 -0.8926  0.3828 -0.1507
  887MPD2     H13059   4.056   4.459  15.806 -1.0002  0.6250 -0.0980
  887MPD2    H113060   4.309   4.379  16.137  1.6438  0.1644 -1.3355
  887MPD2    H213061   4.032   4.093  16.034 -0.4450 -0.6397 -0.9329
  887MPD2    H313062   4.221   4.167  16.168 -0.9023 -0.1804 -0.6291
  887MPD2     N13063   4.267   4.535  15.913 -0.3307  0.9915  0.3168
  887MPD2    H513064   4.225   4.596  15.843  0.4015  0.4109 -0.6407
  887MPD2    N113065   3.908   4.240  15.841 -0.2302  0.1835 -0.4141
  887MPD2    H713066   3.882   4.305  15.767 -1.5172 -0.7803 -0.8039
  888MPD2     C13067   0.799   4.277  14.851 -0.2427 -0.2064 -0.2225
  888MPD2    C113068   0.840   4.283  14.983  0.1088 -0.4550  0.1270
  888MPD2    C213069   0.915   4.390  15.019 -0.1019  0.0609  0.5876
  888MPD2    C313070   0.956   4.482  14.926  0.3724  0.0830  0.9771
  888MPD2    C413071   0.928   4.469  14.789  0.1069 -1.5264 -0.2093
  888MPD2    C513072   0.855   4.358  14.755 -0.5060 -0.5817  0.8349
  888MPD2     H13073   0.935   4.400  15.125  1.2095  1.8103  0.1721
  888MPD2    H113074   0.968   4.527  14.707 -0.8916 -0.6574 -0.0881
  888MPD2    H213075   0.742   4.191  14.817 -0.5846  0.0185 -0.2270
  888MPD2    H313076   0.842   4.340  14.649 -0.0447 -1.7413  0.9650
  888MPD2     N13077   1.041   4.584  14.980 -0.3792 -0.0528 -0.2279
  888MPD2    H513078   1.045   4.597  15.080 -1.3049  0.6819 -0.2963
  888MPD2    N113079   0.823   4.181  15.078  0.3954 -1.1605 -0.0282
  888MPD2    H713080   0.868   4.182  15.169  0.0953  3.0009  0.0689
  889MPD2     C13081   0.375   3.852  13.220 -0.9469 -0.1113  0.2166
  889MPD2    C113082   0.509   3.869  13.200 -0.2320 -0.7894  0.3665
  889MPD2    C213083   0.562   3.982  13.268  0.2105 -0.0926  0.1487
  889MPD2    C313084   0.482   4.080  13.321  0.4914  0.3882  0.3782
  889MPD2    C413085   0.346   4.054  13.322 -0.2672 -0.2623  0.5904
  889MPD2    C513086   0.293   3.943  13.274 -0.1011 -1.1272  0.7630
  889MPD2     H13087   0.667   4.004  13.258  0.2996 -0.6872 -0.2166
  889MPD2    H113088   0.277   4.122  13.370  0.3584  0.9398 -0.2260
  889MPD2    H213089   0.334   3.760  13.179  0.8940 -1.5093  1.5246
  889MPD2    H313090   0.190   3.914  13.292 -1.2937  1.2774 -2.2364
  889MPD2     N13091   0.543   4.204  13.354  0.7952 -0.0928  0.4673
  889MPD2    H513092   0.644   4.204  13.339  0.6246 -2.5976 -0.8340
  889MPD2    N113093   0.596   3.764  13.149  0.4740 -0.3815 -0.7038
  889MPD2    H713094   0.547   3.679  13.122 -2.4025  0.9825  0.1381
  890MPD2     C13095   0.294   0.569  14.539 -0.0786 -0.4778  0.2730
  890MPD2    C113096   0.350   0.689  14.565  0.5385  0.1660 -0.4018
  890MPD2    C213097   0.348   0.731  14.695  0.6432  0.4068  0.5469
  890MPD2    C313098   0.305   0.652  14.795  0.4367  1.1327 -0.5879
  890MPD2    C413099   0.255   0.526  14.768 -0.4547  0.4670  0.5003
  890MPD2    C513100   0.246   0.484  14.635 -0.3851  0.7326 -0.1126
  890MPD2     H13101   0.378   0.831  14.721  2.8112 -0.3399  0.9278
  890MPD2    H113102   0.224   0.459  14.847 -0.2699 -1.0620 -0.7213
  890MPD2    H213103   0.282   0.531  14.438 -0.4856 -1.4919  0.7084
  890MPD2    H313104   0.209   0.386  14.608  0.0995  0.4462  0.2777
  890MPD2     N13105   0.330   0.690  14.929 -0.0001  0.0394  0.5997
  890MPD2    H513106   0.381   0.777  14.940 -0.6365  0.3273  1.3186
  890MPD2    N113107   0.401   0.762  14.459  0.5097 -0.2326  0.0421
  890MPD2    H713108   0.387   0.712  14.371  1.9697  1.1129 -0.9548
  891MPD2     C13109   2.926   4.043  16.331 -0.3725  0.4208 -0.0072
  891MPD2    C113110   2.872   4.134  16.413  0.5301 -0.3520 -0.1739
  891MPD2    C213111   2.937   4.149  16.537  0.7931 -0.1773  0.4539
  891MPD2    C313112   3.044   4.069  16.569 -0.5612  0.1211  0.8225
  891MPD2    C413113   3.088   3.975  16.479 -0.0549 -0.2594 -0.7921
  891MPD2    C513114   3.020   3.948  16.364 -1.2526  1.0350  0.0336
  891MPD2     H13115   2.908   4.229  16.604  0.4487  0.5065 -0.5089
  891MPD2    H113116   3.178   3.922  16.506 -0.3689 -0.6346 -0.4693
  891MPD2    H213117   2.886   4.026  16.231  0.0550 -0.1513 -0.0822
  891MPD2    H313118   3.045   3.866  16.297  1.4996  2.0896 -0.2458
  891MPD2     N13119   3.114   4.102  16.692 -0.2490 -0.1937 -0.6568
  891MPD2    H513120   3.081   4.184  16.743  0.3772 -1.4149  1.7144
  891MPD2    N113121   2.770   4.223  16.380 -0.2168  0.2342 -0.4882
  891MPD2    H713122   2.724   4.212  16.290 -0.6856 -0.1548 -0.2009
  892MPD2     C13123   4.143   0.222  14.398  0.1063  0.0721 -0.0933
  892MPD2    C113124   4.026   0.156  14.392  0.3632 -0.2316  0.1729
  892MPD2    C213125   4.022   0.023  14.374  0.6394 -0.3246  1.2614
  892MPD2    C313126   4.139   4.695  14.341  0.5166 -0.3923 -0.3144
  892MPD2    C413127   4.258   0.024  14.338 -0.0349 -0.2201  0.5423
  892MPD2    C513128   4.260   0.156  14.375 -0.4304  0.3505 -0.3919
  892MPD2     H13129   3.924   4.713  14.370 -0.6440  2.4560 -0.1197
  892MPD2    H113130   4.355   4.721  14.308  0.0669  0.3096  0.1734
  892MPD2    H213131   4.155   0.320  14.442  2.8333 -0.5100  0.4242
  892MPD2    H313132   4.352   0.214  14.375  0.5535 -1.1997  0.2114
  892MPD2     N13133   4.141   4.560  14.313  0.2134 -0.7305 -0.3875
  892MPD2    H513134   4.234   4.520  14.306  0.8775  0.9966 -1.4589
  892MPD2    N113135   3.903   0.220  14.430  0.0579  0.2033 -0.7773
  892MPD2    H713136   3.830   0.155  14.455 -0.4397  1.8961  2.1587
  893MPD2     C13137   0.721   2.981   1.491  0.5099 -0.1157  0.7041
  893MPD2    C113138   0.747   2.952   1.356  0.1174 -0.2925 -0.3364
  893MPD2    C213139   0.680   2.850   1.295 -0.0180 -0.0017  0.2027
  893MPD2    C313140   0.578   2.777   1.362  0.3094 -0.7226  0.1775
  893MPD2    C413141   0.551   2.806   1.491 -0.1455  0.5039 -0.6112
  893MPD2    C513142   0.621   2.909   1.554 -0.4598  0.5057 -0.3194
  893MPD2     H13143   0.686   2.823   1.191  0.1786  0.1757  0.1677
  893MPD2    H113144   0.484   2.754   1.558 -0.2941  2.8544  1.0737
  893MPD2    H213145   0.763   3.063   1.549  3.1230 -1.5359  0.8345
  893MPD2    H313146   0.609   2.931   1.659 -1.1840 -2.1420  0.1609
  893MPD2     N13147   0.487   2.684   1.296 -0.0969  0.6698 -0.3229
  893MPD2    H513148   0.412   2.659   1.359 -1.5594  1.1903 -1.8461
  893MPD2    N113149   0.842   3.031   1.286  0.1402 -0.1892 -0.6307
  893MPD2    H713150   0.883   3.104   1.341 -1.2481 -0.9349  1.4033
  894MPD2     C13151   3.814   0.836   1.395 -0.5099 -0.5670 -0.0207
  894MPD2    C113152   3.739   0.953   1.389  0.2017 -0.9328  0.1803
  894MPD2    C213153   3.762   1.051   1.288  0.3613 -0.2432 -0.8993
  894MPD2    C313154   3.870   1.035   1.202 -0.0819  0.5480 -0.9094
  894MPD2    C413155   3.943   0.918   1.216 -0.0097  0.4451  0.0482
  894MPD2    C513156   3.914   0.819   1.308  0.1725  0.0659 -0.1586
  894MPD2     H13157   3.709   1.146   1.294  0.3004 -0.3622  0.4869
  894MPD2    H113158   4.035   0.893   1.164  1.4392 -0.1948  2.8945
  894MPD2    H213159   3.809   0.764   1.477  2.2628  1.1168  1.6332
  894MPD2    H313160   3.968   0.725   1.308 -3.1987 -1.8697  3.5264
  894MPD2     N13161   3.896   1.132   1.098 -0.6539  0.2481  0.2625
  894MPD2    H513162   3.831   1.210   1.091 -0.7722  0.1251 -0.0241
  894MPD2    N113163   3.626   0.964   1.471  0.6470 -0.4769 -0.1576
  894MPD2    H713164   3.581   1.053   1.454 -0.4727 -1.3837 -1.9070
  895MPD2     C13165   3.024   4.314  14.045 -0.0942 -0.3842 -0.2930
  895MPD2    C113166   2.951   4.347  13.936 -0.8333  0.0333  0.2472
  895MPD2    C213167   3.004   4.328  13.807  0.2892 -0.0270  0.5553
  895MPD2    C313168   3.135   4.288  13.781  1.1541  0.0812 -0.0685
  895MPD2    C413169   3.206   4.248  13.892  0.1134  0.2254 -0.7128
  895MPD2    C513170   3.144   4.257  14.024 -1.2147  0.2698 -0.2273
  895MPD2     H13171   2.948   4.343  13.716 -1.9831  1.1279  2.1310
  895MPD2    H113172   3.308   4.214  13.882 -0.0506 -0.0310 -1.6073
  895MPD2    H213173   2.978   4.326  14.143 -1.9405 -1.5788 -1.0177
  895MPD2    H313174   3.203   4.227  14.110 -0.1735 -0.4754 -1.2025
  895MPD2     N13175   3.197   4.279  13.650 -0.5194  0.1573  0.3920
  895MPD2    H513176   3.285   4.229  13.658  0.5227  2.2948  2.2532
  895MPD2    N113177   2.823   4.411  13.940 -0.2770  0.1748  0.1218
  895MPD2    H713178   2.771   4.421  13.853 -3.1304  1.9773  2.0388
  896MPD2     C13179   0.980   2.535   1.452 -0.1549  0.6346 -0.8067
  896MPD2    C113180   0.910   2.464   1.358 -0.1674 -0.3557  0.0165
  896MPD2    C213181   0.781   2.427   1.384  0.1000 -0.3403  0.8542
  896MPD2    C313182   0.715   2.463   1.498  0.5320 -0.5998  0.5618
  896MPD2    C413183   0.784   2.534   1.596  0.2144  0.7905  0.3700
  896MPD2    C513184   0.912   2.567   1.573 -0.3277  0.0221  0.1341
  896MPD2     H13185   0.733   2.357   1.316  0.7470 -0.4298  0.4842
  896MPD2    H113186   0.730   2.553   1.688  1.8991 -2.2666  2.0014
  896MPD2    H213187   1.087   2.550   1.446 -0.3956  1.5251 -2.7221
  896MPD2    H313188   0.970   2.614   1.652 -1.3979 -0.4462  1.1975
  896MPD2     N13189   0.583   2.419   1.509 -0.5105  0.1421  0.0872
  896MPD2    H513190   0.550   2.375   1.423  1.9027 -2.2283  0.3496
  896MPD2    N113191   0.988   2.425   1.242  0.3740  0.5659 -0.1513
  896MPD2    H713192   1.083   2.460   1.237  0.0257  1.6044  0.3730
  897MPD2     C13193   2.595   3.793  10.655  0.5020 -0.0048  0.3388
  897MPD2    C113194   2.522   3.900  10.611 -0.3967 -0.0681  0.4635
  897MPD2    C213195   2.400   3.931  10.676  0.1868  0.0632  0.0056
  897MPD2    C313196   2.350   3.864  10.788  0.4251 -0.4488  0.0083
  897MPD2    C413197   2.432   3.762  10.833  0.2897 -0.0872  0.4332
  897MPD2    C513198   2.549   3.725  10.767  0.2149 -0.8168  0.3664
  897MPD2     H13199   2.345   4.021  10.651  0.7584  0.2927 -0.4270
  897MPD2    H113200   2.399   3.698  10.915 -0.2994 -0.4266 -0.0682
  897MPD2    H213201   2.690   3.765  10.611  0.9888  2.1369  0.0289
  897MPD2    H313202   2.608   3.645  10.811  0.7583 -0.3792  0.4336
  897MPD2     N13203   2.217   3.899  10.834 -0.1028  0.3344  0.0862
  897MPD2    H513204   2.175   3.973  10.779 -2.1182  0.0272  1.1981
  897MPD2    N113205   2.561   3.960  10.488 -0.1087  0.5786 -0.7000
  897MPD2    H713206   2.647   3.928  10.443 -0.9577 -1.7073 -0.6560
  898MPD2     C13207   4.226   4.432   0.165  0.3889 -0.0286 -0.5965
  898MPD2    C113208   4.201   4.473   0.297  0.6002 -0.7188  0.7642
  898MPD2    C213209   4.163   4.601   0.322  0.2972  0.5549  0.2648
  898MPD2    C313210   4.133   4.691   0.225  0.1467  0.1692  0.0972
  898MPD2    C413211   4.151   4.656   0.095 -0.4331 -0.4222 -0.6831
  898MPD2    C513212   4.201   4.526   0.069 -0.5038 -0.1228  0.3118
  898MPD2     H13213   4.162   4.644   0.422 -0.8107 -0.2199  0.5825
  898MPD2    H113214   4.137   4.725   0.012  1.1735 -1.3118 -1.7089
  898MPD2    H213215   4.250   4.330   0.136  2.3793  0.4063 -0.4913
  898MPD2    H313216   4.209   4.493  17.710 -2.9501 -0.0137  0.0910
  898MPD2     N13217   4.097   0.086   0.261  0.1824  0.0826 -0.2573
  898MPD2    H513218   4.103   0.116   0.357  0.4861  0.9323 -0.5398
  898MPD2    N113219   4.208   4.395   0.414 -0.8184  0.0909 -0.0027
  898MPD2    H713220   4.196   4.445   0.502  0.8544 -0.4440  0.5376
  899MPD2     C13221   4.395   0.174  17.528  1.0281  0.1757  0.4904
  899MPD2    C113222   4.457   0.292  17.567  0.9650 -0.1861 -0.2554
  899MPD2    C213223   4.502   0.306  17.692 -0.0755 -0.0027  0.7825
  899MPD2    C313224   4.480   0.207   0.042  0.6440 -0.0688  0.0521
  899MPD2    C413225   4.429   0.083  17.744  0.0267 -0.0804  0.9794
  899MPD2    C513226   4.383   0.069  17.617  0.1535 -0.3831 -0.1130
  899MPD2     H13227   4.555   0.398  17.716 -0.5305  0.4979 -0.1459
  899MPD2    H113228   4.417   4.736   0.068  0.2518  0.4022  1.6037
  899MPD2    H213229   4.365   0.151  17.426  1.3091 -1.9538  0.8859
  899MPD2    H313230   4.351   4.708  17.582 -0.3771  0.9015 -3.1774
  899MPD2     N13231   4.524   0.218   0.172 -0.2243 -0.2656  0.2129
  899MPD2    H513232   4.542   0.130   0.220 -0.8024  0.1201  1.1366
  899MPD2    N113233   4.466   0.396  17.467 -1.0728 -0.4734  0.0557
  899MPD2    H713234   4.408   0.381  17.385  0.3515  0.9658 -1.1842
  900MPD2     C13235   4.190   1.805  12.139 -0.0865  0.3655  0.0366
  900MPD2    C113236   4.192   1.805  12.277 -0.8733 -0.8486 -0.1203
  900MPD2    C213237   4.076   1.847  12.341 -0.0750 -0.9241  0.1735
  900MPD2    C313238   3.955   1.880  12.269 -0.5504 -0.6825  0.5756
  900MPD2    C413239   3.962   1.874  12.134 -0.0384  0.2743 -1.0308
  900MPD2    C513240   4.074   1.847  12.066  0.2962  0.0588 -0.6940
  900MPD2     H13241   4.072   1.862  12.449  0.0344 -1.0894  0.2008
  900MPD2    H113242   3.875   1.915  12.083 -0.5352 -0.0831 -0.4782
  900MPD2    H213243   4.283   1.779  12.089 -0.8333 -2.8310  0.3505
  900MPD2    H313244   4.082   1.857  11.958  0.1472  0.0170 -0.7090
  900MPD2     N13245   3.836   1.914  12.340 -0.6956 -0.5301  0.4472
  900MPD2    H513246   3.834   1.923  12.441  0.7735 -0.4788  0.4656
  900MPD2    N113247   4.319   1.789  12.336 -0.4990  0.3752 -0.1191
  900MPD2    H713248   4.396   1.765  12.275  1.1259 -1.3673  2.6346
  901MPD2     C13249   0.316   1.454  12.928 -0.4171  0.1096 -0.2676
  901MPD2    C113250   0.223   1.402  12.842  0.4063  0.2420  0.7476
  901MPD2    C213251   0.124   1.486  12.790 -0.4955  0.3748  0.1745
  901MPD2    C313252   0.111   1.624  12.827  0.1263  0.8914  0.7836
  901MPD2    C413253   0.220   1.672  12.905  0.2242 -0.0705 -0.3162
  901MPD2    C513254   0.319   1.587  12.957  0.3511  0.2276  0.5009
  901MPD2     H13255   0.056   1.451  12.714  0.9671  4.1290 -2.8569
  901MPD2    H113256   0.212   1.776  12.934  0.9784 -0.7528  2.3124
  901MPD2    H213257   0.398   1.397  12.969  0.0009  1.3591  0.6340
  901MPD2    H313258   0.393   1.631  13.023 -0.6300  0.7784  1.2340
  901MPD2     N13259   0.008   1.701  12.769  0.3998  0.2619  0.5497
  901MPD2    H513260   4.670   1.655  12.717  0.8283  1.4714 -1.1415
  901MPD2    N113261   0.238   1.266  12.806  0.2386 -0.0857 -0.6192
  901MPD2    H713262   0.318   1.213  12.842 -0.4269  0.0294  1.0276
  902MPD2     C13263   3.162   4.634  12.981 -0.5381 -0.7917  0.3634
  902MPD2    C113264   3.278   4.667  12.916  0.1909 -0.1243  0.6238
  902MPD2    C213265   3.324   4.593  12.810 -0.6796 -0.1617  0.2644
  902MPD2    C313266   3.250   4.478  12.771  0.6887 -0.4957  0.1487
  902MPD2    C413267   3.129   4.448  12.841 -0.0343  0.4349 -1.0285
  902MPD2    C513268   3.085   4.523  12.942 -0.0328 -0.4693 -1.0732
  902MPD2     H13269   3.416   4.618  12.758  0.0571 -3.1803  0.1078
  902MPD2    H113270   3.071   4.358  12.821 -0.0637  0.1023  0.6223
  902MPD2    H213271   3.128   4.702  13.058  0.2212  0.1262 -0.1181
  902MPD2    H313272   2.997   4.503  13.001 -0.1084  2.0099 -0.3586
  902MPD2     N13273   3.265   4.423  12.648  0.0584  0.7763 -0.5046
  902MPD2    H513274   3.196   4.364  12.602  0.5122 -1.0267  1.1369
  902MPD2    N113275   3.326   0.057  12.936  0.0086  0.3156  0.0660
  902MPD2    H713276   3.289   0.100  13.021 -0.0542  1.9650 -0.7980
  903MPD2     C13277   3.004   4.496  11.875  0.0903 -0.5274  0.6521
  903MPD2    C113278   2.973   4.463  11.999 -0.1247 -0.2944  0.6075
  903MPD2    C213279   2.847   4.435  12.044  0.6638 -1.0419  0.5750
  903MPD2    C313280   2.745   4.435  11.954  0.4833 -0.0239  0.2889
  903MPD2    C413281   2.771   4.465  11.818  1.1278  0.0702 -0.6996
  903MPD2    C513282   2.902   4.500  11.782  0.2811  0.3974 -0.3658
  903MPD2     H13283   2.822   4.405  12.145  0.5245  2.4243  1.5482
  903MPD2    H113284   2.699   4.469  11.737  0.9574 -0.5360 -0.5782
  903MPD2    H213285   3.106   4.514  11.844 -0.2615 -0.0457 -0.2407
  903MPD2    H313286   2.915   4.529  11.678  0.1196 -0.3555 -0.5920
  903MPD2     N13287   2.618   4.397  11.995  0.1762  0.6251  0.5065
  903MPD2    H513288   2.605   4.354  12.086  2.5850  0.4353  0.7643
  903MPD2    N113289   3.082   4.455  12.083  0.4238  0.9969 -0.4426
  903MPD2    H713290   3.173   4.482  12.047  0.1417 -1.8800 -3.2077
  904MPD2     C13291   2.889   3.897  13.616 -0.1584 -0.1628 -0.3530
  904MPD2    C113292   2.883   3.771  13.670  0.2751 -1.2711 -0.6691
  904MPD2    C213293   3.003   3.707  13.695 -0.3524 -0.2033  0.1840
  904MPD2    C313294   3.126   3.786  13.686  0.6824 -0.6167  0.1181
  904MPD2    C413295   3.126   3.912  13.644  0.1612  0.4050  0.1874
  904MPD2    C513296   3.007   3.964  13.607  0.0078  0.7071 -0.8384
  904MPD2     H13297   3.008   3.605  13.731 -1.9077  0.1790  1.4551
  904MPD2    H113298   3.214   3.974  13.628 -1.7868  2.5910 -1.9545
  904MPD2    H213299   2.801   3.946  13.575  2.0113  1.6682 -2.8603
  904MPD2    H313300   3.006   4.069  13.581  1.1550  0.6778 -0.9759
  904MPD2     N13301   3.244   3.714  13.717  0.8399 -0.1664  0.4219
  904MPD2    H513302   3.239   3.614  13.737  2.0192  0.0655  1.8328
  904MPD2    N113303   2.768   3.686  13.685 -0.2579  0.1661  0.5729
  904MPD2    H713304   2.784   3.586  13.678 -0.3375  0.1957 -0.0689
  905MPD2     C13305   2.515   4.228  13.337 -0.6826  0.2011 -0.3486
  905MPD2    C113306   2.597   4.239  13.440 -0.4352 -0.5321 -0.0077
  905MPD2    C213307   2.731   4.282  13.427  0.4199 -0.0214 -0.1407
  905MPD2    C313308   2.781   4.293  13.294  0.2820  0.1856 -0.5762
  905MPD2    C413309   2.698   4.274  13.184  0.1062  0.0790 -0.2191
  905MPD2    C513310   2.564   4.241  13.205 -0.3714 -0.0449 -0.0101
  905MPD2     H13311   2.792   4.311  13.511 -1.2379 -0.9142  1.3670
  905MPD2    H113312   2.730   4.299  13.084 -0.1549 -1.1067 -0.6009
  905MPD2    H213313   2.414   4.189  13.346  0.1379 -1.5656  1.4795
  905MPD2    H313314   2.499   4.238  13.119  1.0324  0.7405 -1.0931
  905MPD2     N13315   2.909   4.322  13.279 -0.0749  0.8090 -0.0209
  905MPD2    H513316   2.958   4.358  13.360 -1.0651 -0.0626  0.9559
  905MPD2    N113317   2.544   4.198  13.569 -0.2633 -0.0984  0.1709
  905MPD2    H713318   2.463   4.136  13.566  1.7426 -2.6140 -1.5713
  906MPD2     C13319   0.905   4.505  11.142  0.2412 -0.4581  0.1033
  906MPD2    C113320   0.933   4.423  11.034  0.3507  0.8328  0.6754
  906MPD2    C213321   0.951   4.292  11.054  0.1683  0.0634  0.0385
  906MPD2    C313322   0.930   4.235  11.175 -0.4707 -0.0517 -0.0666
  906MPD2    C413323   0.880   4.314  11.276 -0.8216  0.2014 -0.2004
  906MPD2    C513324   0.868   4.449  11.262 -0.1870  0.1210 -0.2935
  906MPD2     H13325   0.981   4.239  10.964 -2.7490 -1.6900  0.1104
  906MPD2    H113326   0.856   4.267  11.371  2.4546  0.1262  0.5685
  906MPD2    H213327   0.920   4.612  11.132  1.7915 -0.6544  0.2892
  906MPD2    H313328   0.830   4.515  11.339 -2.0670 -0.1772 -0.9449
  906MPD2     N13329   0.938   4.092  11.192  0.1425  0.5455 -0.0212
  906MPD2    H513330   0.970   4.061  11.284 -1.3427  1.7411  0.8920
  906MPD2    N113331   0.964   4.474  10.909  0.1806  0.5225 -0.3152
  906MPD2    H713332   0.986   4.573  10.909  0.0948  0.5397 -1.3675
  907MPD2     C13333   4.388   2.650  15.262 -0.0820  0.8658 -0.0639
  907MPD2    C113334   4.337   2.523  15.246 -0.0380  0.5505  0.3085
  907MPD2    C213335   4.409   2.413  15.285 -0.4550  0.2285 -0.2183
  907MPD2    C313336   4.533   2.423  15.338  0.6975  0.0062  0.8272
  907MPD2    C413337   4.588   2.550  15.354  0.1704 -0.1710  0.5986
  907MPD2    C513338   4.513   2.661  15.308  0.0684  0.0383  0.2486
  907MPD2     H13339   4.362   2.317  15.267 -0.2066  0.1770 -0.5763
  907MPD2    H113340   4.674   2.576  15.415  0.1553  1.5518 -0.1396
  907MPD2    H213341   4.335   2.744  15.252 -0.9598  0.6529  2.5067
  907MPD2    H313342   4.555   2.757  15.335  0.4338 -0.2407  0.6698
  907MPD2     N13343   4.608   2.303  15.379 -0.2514  0.1770 -0.3176
  907MPD2    H513344   4.559   2.215  15.381  1.1095 -0.5699 -0.0439
  907MPD2    N113345   4.204   2.494  15.208  0.4455 -0.0795 -1.0186
  907MPD2    H713346   4.185   2.395  15.195 -0.0728 -0.2094  0.6697
  908MPD2     C13347   2.465   3.679   9.674  0.2165 -0.1417  0.1548
  908MPD2    C113348   2.484   3.631   9.802 -1.0199 -1.1929 -0.4237
  908MPD2    C213349   2.526   3.720   9.904  0.5042 -0.2352 -0.2195
  908MPD2    C313350   2.539   3.854   9.874  0.1452  0.5994 -0.7994
  908MPD2    C413351   2.511   3.903   9.749  0.3894  0.3744 -0.2550
  908MPD2    C513352   2.467   3.816   9.647 -0.1025  0.3827 -0.3043
  908MPD2     H13353   2.560   3.682   9.999  2.3733 -0.7342 -1.0791
  908MPD2    H113354   2.554   3.999   9.721 -2.7146  1.4697 -1.2740
  908MPD2    H213355   2.448   3.603   9.599  0.7863 -0.9380  0.8343
  908MPD2    H313356   2.462   3.842   9.542 -0.5708  1.1534 -0.0902
  908MPD2     N13357   2.590   3.937   9.974  0.3638 -0.0003  0.2392
  908MPD2    H513358   2.629   3.895  10.057  0.8732 -1.3232 -0.6726
  908MPD2    N113359   2.462   3.487   9.828  0.6527 -0.4912  0.0201
  908MPD2    H713360   2.448   3.423   9.751  0.1546  0.6268 -0.8227
  909MPD2     C13361   2.514   1.682  11.208 -0.0313  0.0439 -0.4292
  909MPD2    C113362   2.544   1.811  11.254  0.3363  0.3692 -0.0709
  909MPD2    C213363   2.484   1.852  11.373  0.0079 -0.2854 -0.7827
  909MPD2    C313364   2.402   1.766  11.446  0.4774 -0.2906 -0.4485
  909MPD2    C413365   2.351   1.650  11.382  0.0326  0.5238 -0.0876
  909MPD2    C513366   2.417   1.607  11.274 -0.2547  0.3512  0.5799
  909MPD2     H13367   2.521   1.942  11.420 -0.4507  1.2514 -3.3837
  909MPD2    H113368   2.275   1.588  11.429  0.1222  0.7278  0.3218
  909MPD2    H213369   2.564   1.634  11.124  1.8908  0.3299  0.5493
  909MPD2    H313370   2.379   1.512  11.239 -1.5101  0.6442  1.1591
  909MPD2     N13371   2.349   1.812  11.571  0.1457 -0.3344  0.2396
  909MPD2    H513372   2.375   1.906  11.599 -1.6557 -0.0624  1.0283
  909MPD2    N113373   2.630   1.899  11.192 -0.0601  1.0198  0.2577
  909MPD2    H713374   2.640   1.989  11.237  2.3008 -0.3215  2.3974
  910MPD2     C13375   3.484   3.101  16.090  0.1337 -0.0028 -0.1610
  910MPD2    C113376   3.511   2.979  16.036 -0.3466  0.2605  0.2022
  910MPD2    C213377   3.483   2.965  15.902  0.1465  0.7877  0.1144
  910MPD2    C313378   3.423   3.065  15.829 -0.1892  0.1468 -0.1140
  910MPD2    C413379   3.404   3.189  15.887  0.1212  0.0918 -0.0359
  910MPD2    C513380   3.435   3.203  16.016  0.1097 -0.3722  0.0591
  910MPD2     H13381   3.508   2.865  15.867  1.8286  1.3852 -0.3920
  910MPD2    H113382   3.364   3.275  15.834  2.0650  0.8138 -0.3384
  910MPD2    H213383   3.516   3.123  16.191 -1.7252  0.7427  0.2504
  910MPD2    H313384   3.421   3.302  16.059 -1.1092 -0.4952 -0.0686
  910MPD2     N13385   3.377   3.038  15.700 -0.8270  0.2942  0.2413
  910MPD2    H513386   3.338   3.121  15.656 -0.7405  0.5556  0.6569
  910MPD2    N113387   3.566   2.869  16.103  0.3934  0.0519 -0.0344
  910MPD2    H713388   3.588   2.789  16.045  0.1156  0.2829 -0.4581
  911MPD2     C13389   1.210   3.863  15.931  0.4052 -0.0270  0.9516
  911MPD2    C113390   1.262   3.912  16.047  0.2312 -0.2133 -0.6464
  911MPD2    C213391   1.194   4.032  16.091  0.1997 -0.3257  0.4176
  911MPD2    C313392   1.092   4.083  16.020 -0.7360  0.1251  0.1862
  911MPD2    C413393   1.048   4.024  15.904 -0.5207 -0.6326  0.3520
  911MPD2    C513394   1.114   3.917  15.854 -0.0578 -0.7807  0.0635
  911MPD2     H13395   1.221   4.076  16.187 -1.7959 -0.8794  1.2364
  911MPD2    H113396   0.959   4.056  15.852  2.9601  1.5222 -4.1930
  911MPD2    H213397   1.255   3.772  15.894  1.2479  1.2662 -1.2058
  911MPD2    H313398   1.085   3.863  15.765  0.8297 -1.4559  0.1800
  911MPD2     N13399   1.011   4.192  16.060  0.0863  0.2848 -0.1141
  911MPD2    H513400   0.925   4.207  16.008  0.0490  3.1841  0.8371
  911MPD2    N113401   1.355   3.835  16.118  0.1166  0.0434 -0.6333
  911MPD2    H713402   1.395   3.756  16.068  1.6424  0.6850 -0.4179
  912MPD2     C13403   0.665   4.224  15.569 -0.0400  0.0691  0.3789
  912MPD2    C113404   0.672   4.204  15.705  0.0208  0.6432 -0.7178
  912MPD2    C213405   0.681   4.072  15.757 -0.1136  0.2773 -0.1585
  912MPD2    C313406   0.695   3.964  15.669  0.1224  1.0786 -0.8014
  912MPD2    C413407   0.686   3.991  15.537  0.2702 -0.2437 -0.7215
  912MPD2    C513408   0.670   4.115  15.487  0.4215  0.4592 -0.5869
  912MPD2     H13409   0.687   4.052  15.863 -0.2709 -0.2634 -0.2515
  912MPD2    H113410   0.701   3.913  15.463  3.2082  0.6464 -1.0616
  912MPD2    H213411   0.659   4.319  15.517  1.5104  0.1180  0.2951
  912MPD2    H313412   0.684   4.137  15.382  2.3168 -0.4051 -0.5235
  912MPD2     N13413   0.714   3.839  15.725  0.5539 -0.0674 -0.3483
  912MPD2    H513414   0.725   3.836  15.826  1.9829 -0.4016 -0.5118
  912MPD2    N113415   0.688   4.317  15.788 -0.0021 -0.2297 -0.3802
  912MPD2    H713416   0.698   4.409  15.746 -0.9825  0.1299  0.1578
  913MPD2     C13417   1.896   1.286   9.970  0.4868  0.3042  0.5230
  913MPD2    C113418   1.925   1.398  10.037 -0.4941 -0.1357  0.1065
  913MPD2    C213419   2.007   1.493   9.974 -0.0681  0.3054 -0.2560
  913MPD2    C313420   2.062   1.462   9.847 -0.4024 -0.1929  0.2312
  913MPD2    C413421   2.041   1.337   9.784  0.3528 -0.1181  0.1849
  913MPD2    C513422   1.951   1.253   9.854  0.1484  0.4439 -0.5078
  913MPD2     H13423   2.038   1.579  10.032 -1.0769  0.5965 -0.1527
  913MPD2    H113424   2.073   1.313   9.683  2.1544  1.6743  0.3194
  913MPD2    H213425   1.831   1.215  10.018  1.7405 -2.1400 -1.3670
  913MPD2    H313426   1.940   1.153   9.813  1.7705 -0.2735  0.8090
  913MPD2     N13427   2.146   1.547   9.772 -0.2511  0.4048  0.2073
  913MPD2    H513428   2.177   1.512   9.682  1.0796 -0.3132  0.9442
  913MPD2    N113429   1.877   1.421  10.167  0.2566  0.4932 -0.1252
  913MPD2    H713430   1.827   1.341  10.203  0.8867 -0.9710 -2.5176
  914MPD2     C13431   4.710   0.809  11.988 -0.6271 -0.6619 -0.2600
  914MPD2    C113432   4.623   0.892  12.057 -0.2065  0.0038  0.0731
  914MPD2    C213433   4.624   0.892  12.201  0.1890  0.2735  0.0578
  914MPD2    C313434   4.723   0.818  12.268  0.1455  0.2982  0.5790
  914MPD2    C413435   0.067   0.732  12.199  0.6373  0.5154 -0.0536
  914MPD2    C513436   0.060   0.729  12.059  0.2830  0.0523  0.6861
  914MPD2     H13437   4.556   0.958  12.254 -0.2390  0.0089 -0.1586
  914MPD2    H113438   0.142   0.669  12.246 -0.4805 -0.6814  0.1176
  914MPD2    H213439   4.710   0.801  11.880  1.0910 -0.0485 -0.3050
  914MPD2    H313440   0.120   0.655  12.008  0.6604  0.4533  0.5481
  914MPD2     N13441   0.003   0.838  12.408 -0.3290 -0.8981  0.2580
  914MPD2    H513442   4.678   0.906  12.451  0.2798 -0.6261  0.6958
  914MPD2    N113443   4.515   0.950  11.987  0.4130  0.1773 -0.0564
  914MPD2    H713444   4.505   0.907  11.896 -1.1093 -1.6410  0.9688
  915MPD2     C13445   2.333   0.456  15.668 -0.6881  0.1238 -0.3167
  915MPD2    C113446   2.203   0.453  15.704 -0.1472 -0.1397 -0.2051
  915MPD2    C213447   2.164   0.497  15.824 -0.8156  0.1403 -0.8889
  915MPD2    C313448   2.256   0.557  15.905  0.3448  0.0544  0.5082
  915MPD2    C413449   2.385   0.555  15.866 -0.2039 -0.7708  0.4494
  915MPD2    C513450   2.429   0.494  15.750 -0.8616  0.3275  0.6139
  915MPD2     H13451   2.063   0.492  15.864  0.6069  0.2920  2.7374
  915MPD2    H113452   2.463   0.594  15.930 -0.0043  2.5814 -1.8415
  915MPD2    H213453   2.370   0.428  15.569  1.6241  1.0292  0.2837
  915MPD2    H313454   2.536   0.475  15.740 -0.8036  0.4993  0.9117
  915MPD2     N13455   2.212   0.613  16.025 -0.4112 -0.2896 -0.0655
  915MPD2    H513456   2.115   0.606  16.055 -0.4059 -1.3059 -0.2629
  915MPD2    N113457   2.111   0.401  15.610  0.1569 -0.1741 -0.5518
  915MPD2    H713458   2.154   0.392  15.518 -2.3927 -2.7331 -1.4736
  916MPD2     C13459   0.551   3.400  15.752 -0.0283  0.0354 -0.2291
  916MPD2    C113460   0.586   3.356  15.876 -0.7347  0.1046  0.0472
  916MPD2    C213461   0.712   3.297  15.900 -0.0301  0.1267  0.0162
  916MPD2    C313462   0.801   3.284  15.795 -0.4775 -0.1759 -0.9646
  916MPD2    C413463   0.757   3.312  15.662 -0.4442 -1.1090 -0.3221
  916MPD2    C513464   0.634   3.366  15.645  0.0627 -0.3080  0.4292
  916MPD2     H13465   0.751   3.268  15.996  0.5266  1.7453  0.2682
  916MPD2    H113466   0.822   3.305  15.576 -1.1137 -0.8915 -0.8382
  916MPD2    H213467   0.456   3.436  15.715  0.8161 -0.5504 -3.0305
  916MPD2    H313468   0.613   3.379  15.539  1.4682  2.1835  0.4573
  916MPD2     N13469   0.924   3.229  15.826  0.9549  0.6584  0.0588
  916MPD2    H513470   0.945   3.206  15.922  0.4062 -2.0746 -0.4890
  916MPD2    N113471   0.486   3.375  15.983  0.0010  0.4012  0.4207
  916MPD2    H713472   0.403   3.430  15.963 -0.5724 -0.4921  0.3429
  917MPD2     C13473   0.824   1.709  10.832  0.0913 -0.1880 -0.1157
  917MPD2    C113474   0.872   1.755  10.954 -0.1254 -0.7482  0.3024
  917MPD2    C213475   0.944   1.875  10.963  0.2618  0.5333  0.5465
  917MPD2    C313476   0.950   1.955  10.850 -0.0137 -0.5924  0.9944
  917MPD2    C413477   0.913   1.906  10.727 -1.2402 -0.2744  0.3434
  917MPD2    C513478   0.843   1.793  10.724  0.7581 -0.2459  0.4271
  917MPD2     H13479   0.977   1.915  11.058  0.3111 -0.5578  0.9898
  917MPD2    H113480   0.905   1.959  10.632 -1.1073  0.6022  0.8254
  917MPD2    H213481   0.762   1.620  10.822 -1.2800  0.6165  1.2972
  917MPD2    H313482   0.801   1.758  10.630  0.2666 -3.2117  1.7486
  917MPD2     N13483   1.006   2.079  10.848 -0.0448 -0.4622 -0.2028
  917MPD2    H513484   1.032   2.122  10.759 -0.3427  1.4475  0.6225
  917MPD2    N113485   0.858   1.670  11.064 -0.1269  0.0949 -0.3190
  917MPD2    H713486   0.791   1.595  11.055 -0.9344  1.0535 -2.1630
  918MPD2     C13487   1.017   2.032  11.814 -0.5436  0.0899 -0.3143
  918MPD2    C113488   1.096   1.922  11.836 -0.1373  0.3159 -0.0657
  918MPD2    C213489   1.047   1.795  11.821  0.2076  0.1682  0.8646
  918MPD2    C313490   0.921   1.772  11.763  1.0512  0.2536 -0.7454
  918MPD2    C413491   0.843   1.884  11.737 -0.4458  0.1683 -0.2149
  918MPD2    C513492   0.887   2.011  11.778  0.1798 -0.1561 -0.0873
  918MPD2     H13493   1.110   1.710  11.843  1.1734  0.5483 -0.4021
  918MPD2    H113494   0.743   1.881  11.695  0.3093  2.2738 -2.1823
  918MPD2    H213495   1.051   2.134  11.827 -0.8057  0.4522 -2.4393
  918MPD2    H313496   0.819   2.094  11.763 -1.6784 -1.4067  1.3613
  918MPD2     N13497   0.896   1.646  11.708  0.4347  0.5619  0.6896
  918MPD2    H513498   0.954   1.567  11.730  0.2991  0.1662 -0.3510
  918MPD2    N113499   1.229   1.939  11.887  0.4351 -0.0889  0.8290
  918MPD2    H713500   1.276   1.849  11.899  1.3010 -0.1413 -2.9767
  919MPD2     C13501   1.764   0.806  11.585 -0.0444  0.0910 -0.2157
  919MPD2    C113502   1.629   0.778  11.582 -0.7493  0.3377 -0.0727
  919MPD2    C213503   1.551   0.864  11.513  0.3457 -0.4043 -0.2475
  919MPD2    C313504   1.602   0.980  11.460  0.2257 -0.0719  0.1880
  919MPD2    C413505   1.735   1.015  11.472 -0.6748 -0.0664 -0.2176
  919MPD2    C513506   1.815   0.916  11.524  0.0510 -0.3767 -0.3336
  919MPD2     H13507   1.447   0.845  11.493  0.1251  1.5065 -0.8917
  919MPD2    H113508   1.773   1.107  11.430  3.1127 -1.1814  0.7268
  919MPD2    H213509   1.831   0.742  11.641  0.3378  1.1221  0.4927
  919MPD2    H313510   1.919   0.945  11.519  0.3814 -1.5380 -0.1686
  919MPD2     N13511   1.521   1.075  11.387  0.1651 -0.1673 -0.8527
  919MPD2    H513512   1.574   1.144  11.335  0.4858  0.1704 -0.0739
  919MPD2    N113513   1.580   0.655  11.632 -0.1500 -0.8292 -0.1768
  919MPD2    H713514   1.639   0.580  11.668  2.0235  1.7573  1.6251
  920MPD2     C13515   1.551   1.567  10.513  0.0812  0.3596 -0.2545
  920MPD2    C113516   1.535   1.431  10.475 -0.1078  0.1194 -0.1962
  920MPD2    C213517   1.517   1.337  10.577 -0.1052 -0.0815  0.0855
  920MPD2    C313518   1.511   1.378  10.718 -0.1155  0.0488 -0.5795
  920MPD2    C413519   1.531   1.510  10.747  0.3342  0.5553  0.2280
  920MPD2    C513520   1.538   1.601  10.647  0.2891  0.0206  0.6942
  920MPD2     H13521   1.503   1.234  10.547  2.2443 -0.0346 -1.1788
  920MPD2    H113522   1.536   1.550  10.847 -2.2658  1.3450  0.0584
  920MPD2    H213523   1.553   1.652  10.446 -2.3759  0.4775 -0.1803
  920MPD2    H313524   1.539   1.706  10.676  0.1779  0.3582 -0.5206
  920MPD2     N13525   1.484   1.272  10.813 -0.6908 -0.4360 -0.0501
  920MPD2    H513526   1.466   1.180  10.776  1.7349 -1.1766  0.5846
  920MPD2    N113527   1.519   1.393  10.337  0.2005 -0.2409  0.2976
  920MPD2    H713528   1.495   1.297  10.317  1.6158 -0.6151  0.3534
  921MPD2     C13529   2.286   3.968  16.651  0.2239  0.5559 -0.4118
  921MPD2    C113530   2.230   4.047  16.552 -0.1330  0.4985  0.5332
  921MPD2    C213531   2.110   4.008  16.499 -0.0717 -0.2106  0.3382
  921MPD2    C313532   2.055   3.885  16.535 -0.9565  0.1378  0.0275
  921MPD2    C413533   2.115   3.810  16.634  0.0737  0.5409  0.0553
  921MPD2    C513534   2.227   3.853  16.692 -0.8351  0.2023  1.0576
  921MPD2     H13535   2.050   4.077  16.440 -1.0402 -1.4710 -0.1349
  921MPD2    H113536   2.067   3.720  16.672 -2.2285  0.7739 -2.3607
  921MPD2    H213537   2.379   3.998  16.697  1.1125 -0.4294 -1.5480
  921MPD2    H313538   2.271   3.792  16.769 -1.2142  0.5608  1.5598
  921MPD2     N13539   1.929   3.843  16.486 -0.2529 -0.2482 -0.0308
  921MPD2    H513540   1.884   3.760  16.525 -2.0329  0.3905 -0.7233
  921MPD2    N113541   2.285   4.173  16.525  0.0273  0.1388  0.1141
  921MPD2    H713542   2.376   4.195  16.564 -0.1976 -1.4867  1.5660
  922MPD2     C13543   3.168   1.847  17.029  0.6900  0.0469  0.6688
  922MPD2    C113544   3.056   1.905  17.090 -0.3065 -0.3881  0.6006
  922MPD2    C213545   2.966   1.823  17.152 -0.2909  0.3869  1.0236
  922MPD2    C313546   2.981   1.694  17.169 -0.0845  0.3068  0.4168
  922MPD2    C413547   3.086   1.633  17.100 -0.7714  0.3356 -0.0009
  922MPD2    C513548   3.179   1.716  17.035 -0.0604 -1.1495  0.4865
  922MPD2     H13549   2.873   1.867  17.187  0.1369  2.0973  0.0077
  922MPD2    H113550   3.092   1.525  17.102  0.5661  0.4118  0.7501
  922MPD2    H213551   3.243   1.895  16.968 -0.6022  1.3831  0.1300
  922MPD2    H313552   3.263   1.669  16.986  0.4641 -0.0842  0.3651
  922MPD2     N13553   2.866   1.622  17.226  0.0595 -0.3825 -0.0144
  922MPD2    H513554   2.794   1.684  17.261 -2.0363 -3.2519  0.7680
  922MPD2    N113555   3.035   2.043  17.084 -0.0698  0.1004  0.1852
  922MPD2    H713556   2.949   2.079  17.124 -1.0216  0.4911 -2.1776
  923MPD2     C13557   0.373   0.104   8.866 -0.1795  0.4676  0.6489
  923MPD2    C113558   0.315   0.071   8.985  0.3274  0.6589  0.1288
  923MPD2    C213559   0.402   0.052   9.093  0.0104 -0.3991 -0.1098
  923MPD2    C313560   0.538   0.072   9.076  0.1394 -0.2787  0.3656
  923MPD2    C413561   0.589   0.102   8.955  0.0647  0.6685 -0.6654
  923MPD2    C513562   0.505   0.119   8.849  0.0754 -0.1198  0.4562
  923MPD2     H13563   0.365   0.020   9.190  0.0625  0.7048  0.2763
  923MPD2    H113564   0.694   0.115   8.933  0.3222 -1.5372 -0.7642
  923MPD2    H213565   0.310   0.113   8.779  0.3439 -0.9650  0.1183
  923MPD2    H313566   0.541   0.158   8.754  0.0526  0.0006  0.4971
  923MPD2     N13567   0.625   0.035   9.190 -0.6305  0.0683 -0.3650
  923MPD2    H513568   0.723   0.026   9.166 -0.3144  0.4617  0.7659
  923MPD2    N113569   0.172   0.061   8.987 -0.3202 -0.1320 -0.6704
  923MPD2    H713570   0.114   0.083   8.907  1.7700  1.3146 -1.7985
  924MPD2     C13571   4.324   1.517  15.529 -0.1565  1.4112 -0.6681
  924MPD2    C113572   4.369   1.586  15.641 -0.1774 -0.3435 -0.0499
  924MPD2    C213573   4.487   1.662  15.644  0.1032  0.2516 -0.2048
  924MPD2    C313574   4.542   1.690  15.525  0.0878 -0.4120  0.0265
  924MPD2    C413575   4.494   1.627  15.417 -0.0695  0.2298 -0.4374
  924MPD2    C513576   4.400   1.532  15.419 -0.4033  0.3849  0.1344
  924MPD2     H13577   4.529   1.701  15.736  1.1527 -2.6982  0.5677
  924MPD2    H113578   4.530   1.643  15.316 -0.3565  0.0987 -0.5608
  924MPD2    H213579   4.240   1.449  15.524  0.9897 -0.0819 -0.0047
  924MPD2    H313580   4.373   1.478  15.330  3.5903 -0.3637 -0.6014
  924MPD2     N13581   4.644   1.788  15.526 -0.1827 -0.2144  0.7177
  924MPD2    H513582   4.671   1.815  15.620 -0.5757  0.0661  0.7515
  924MPD2    N113583   4.307   1.579  15.766  0.4359  0.0235 -1.2005
  924MPD2    H713584   4.358   1.608  15.848  0.0147  0.7060 -1.1761
  925MPD2     C13585   3.513   4.162  14.583 -0.0372 -0.0375 -0.3097
  925MPD2    C113586   3.405   4.249  14.555 -0.1148 -0.2448 -1.0317
  925MPD2    C213587   3.325   4.289  14.660  0.4008 -0.5928  0.0008
  925MPD2    C313588   3.333   4.238  14.794  0.5167 -0.1065 -0.0095
  925MPD2    C413589   3.444   4.150  14.818  0.2175 -0.2214  0.3618
  925MPD2    C513590   3.519   4.104  14.709 -0.2067 -0.0902 -0.2710
  925MPD2     H13591   3.248   4.363  14.642  1.4821  0.4932 -0.1793
  925MPD2    H113592   3.459   4.109  14.917  2.2715 -2.2077 -0.7594
  925MPD2    H213593   3.588   4.125  14.514 -0.1230 -1.4559  0.3508
  925MPD2    H313594   3.601   4.036  14.730  1.2576  1.5840 -0.5158
  925MPD2     N13595   3.249   4.269  14.904 -0.5315 -0.4531  0.3413
  925MPD2    H513596   3.276   4.245  14.999 -0.0501  2.1038  0.8559
  925MPD2    N113597   3.385   4.315  14.426  0.2118 -0.5632  0.2319
  925MPD2    H713598   3.303   4.370  14.402  2.9065  2.2057 -2.7774
  926MPD2     C13599   1.585   3.285  12.881 -0.0716  0.1533  0.1561
  926MPD2    C113600   1.650   3.387  12.941 -0.5017 -0.6393 -0.2653
  926MPD2    C213601   1.764   3.442  12.887  1.1050 -0.2087 -0.3284
  926MPD2    C313602   1.802   3.395  12.764  1.0517  0.1337  0.4169
  926MPD2    C413603   1.728   3.301  12.701 -0.3676  0.1209 -0.3982
  926MPD2    C513604   1.619   3.243  12.754  0.3455 -0.3509 -0.1099
  926MPD2     H13605   1.821   3.519  12.938  1.3947  1.2787 -2.8565
  926MPD2    H113606   1.765   3.272  12.604  0.3669 -2.4962  0.6851
  926MPD2    H213607   1.489   3.250  12.917  0.3782 -1.4707 -0.2029
  926MPD2    H313608   1.567   3.166  12.698  0.2958 -0.2657 -0.1800
  926MPD2     N13609   1.923   3.437  12.693  0.0342 -0.2901  0.4320
  926MPD2    H513610   1.940   3.393  12.603 -1.7055  2.5266 -1.2614
  926MPD2    N113611   1.609   3.425  13.074 -0.3532  0.2034  0.3691
  926MPD2    H713612   1.681   3.485  13.115  0.7884 -1.5405  0.9369
  927MPD2     C13613   1.021   0.813  17.523 -0.1689  0.5652 -0.3895
  927MPD2    C113614   1.131   0.891  17.532  0.8925 -0.5167  1.0941
  927MPD2    C213615   1.208   0.918  17.419  0.3948 -1.1405 -0.0716
  927MPD2    C313616   1.168   0.863  17.298 -0.0617 -0.0647  0.5089
  927MPD2    C413617   1.057   0.787  17.281  0.1872  0.2170  0.2369
  927MPD2    C513618   0.990   0.761  17.393  0.1508  0.2519 -1.0572
  927MPD2     H13619   1.299   0.975  17.429  1.1934 -2.7318  1.6400
  927MPD2    H113620   1.006   0.750  17.193  2.1435 -1.8581 -0.0168
  927MPD2    H213621   0.950   0.794  17.602 -1.3418  1.2657 -1.2624
  927MPD2    H313622   0.902   0.700  17.382  0.2317  0.2145 -1.5071
  927MPD2     N13623   1.244   0.894  17.186  0.3046 -0.7946  0.6512
  927MPD2    H513624   1.321   0.959  17.201  1.3603 -1.5531 -1.4045
  927MPD2    N113625   1.153   0.944  17.659  0.2311 -0.0739 -0.1656
  927MPD2    H713626   1.081   0.942  17.731 -0.8540  1.7251 -1.2122
  928MPD2     C13627   4.678   3.618   1.341  0.5427  0.7034  0.0288
  928MPD2    C113628   4.588   3.715   1.298 -0.2055 -0.7755  0.6655
  928MPD2    C213629   4.606   3.769   1.172 -0.0770 -0.0710 -0.1632
  928MPD2    C313630   4.698   3.712   1.080 -0.3389 -0.5158  0.2495
  928MPD2    C413631   0.034   3.604   1.120 -0.8203 -0.1345 -0.2019
  928MPD2    C513632   0.031   3.566   1.254  0.0728 -0.2109  0.2867
  928MPD2     H13633   4.545   3.852   1.139  0.1251  0.0651 -0.1968
  928MPD2    H113634   0.097   3.554   1.047 -1.9061 -0.8289 -0.6600
  928MPD2    H213635   4.670   3.578   1.442  1.5881  0.6692  0.0972
  928MPD2    H313636   0.107   3.493   1.280  1.2929  0.9754  0.0899
  928MPD2     N13637   4.712   3.754   0.949 -0.4876 -0.3424 -0.5323
  928MPD2    H513638   0.044   3.704   0.893  0.9103  0.3589  0.5214
  928MPD2    N113639   4.504   3.779   1.391  0.4645 -0.7886  0.1022
  928MPD2    H713640   4.516   3.758   1.489 -1.0645 -1.8227  0.0768
  929MPD2     C13641   0.577   4.277  10.134  0.1590  0.5316  0.0301
  929MPD2    C113642   0.499   4.198  10.216  0.0715 -0.5443 -0.7835
  929MPD2    C213643   0.367   4.193  10.188 -0.0965 -0.0541  0.0234
  929MPD2    C313644   0.304   4.280  10.099 -0.2507 -0.0019  0.6740
  929MPD2    C413645   0.391   4.361  10.023  0.4473  1.1878  0.2919
  929MPD2    C513646   0.521   4.360  10.042  0.7035 -0.4894 -0.8765
  929MPD2     H13647   0.306   4.146  10.264 -0.1581  3.6762  2.2669
  929MPD2    H113648   0.350   4.419   9.941 -0.1616  1.8851  1.0864
  929MPD2    H213649   0.682   4.280  10.161  0.2322  0.2458 -0.2236
  929MPD2    H313650   0.584   4.423   9.982  0.9824  1.5148  1.5257
  929MPD2     N13651   0.170   4.280  10.067 -0.2143  0.2278  0.2220
  929MPD2    H513652   0.133   4.349  10.003  0.7780  1.5428  1.0423
  929MPD2    N113653   0.559   4.134  10.325 -0.4724  0.1608  0.5742
  929MPD2    H713654   0.654   4.161  10.344 -0.7695  1.9181 -0.4886
  930MPD2     C13655   1.145   1.152  13.939 -0.0444  0.5122 -0.0615
  930MPD2    C113656   1.258   1.081  13.925  0.3865 -0.0678  0.2292
  930MPD2    C213657   1.314   1.071  13.800 -0.1031  0.2613 -0.1073
  930MPD2    C313658   1.237   1.120  13.693 -0.7724  0.3947 -0.2136
  930MPD2    C413659   1.110   1.168  13.709 -0.1640 -0.3618  0.5200
  930MPD2    C513660   1.067   1.195  13.838  0.1686  0.1160 -0.1212
  930MPD2     H13661   1.417   1.039  13.788  0.1787  0.9091  0.6121
  930MPD2    H113662   1.047   1.182  13.622  1.8838  1.6929 -0.6304
  930MPD2    H213663   1.103   1.175  14.036  0.3789  1.7488 -0.1828
  930MPD2    H313664   0.968   1.236  13.853 -0.2229 -0.6316 -0.6429
  930MPD2     N13665   1.282   1.123  13.559  0.0056  0.2067 -0.2208
  930MPD2    H513666   1.213   1.160  13.494 -0.6153 -0.3449  0.1234
  930MPD2    N113667   1.334   1.071  14.039  1.0722  0.4497  0.3962
  930MPD2    H713668   1.307   1.126  14.120  1.0104 -0.9599  1.3342
  931MPD2     C13669   1.808   1.003   0.304 -0.0524  0.5186  0.7211
  931MPD2    C113670   1.684   0.991   0.357  0.7514 -0.1998 -1.0465
  931MPD2    C213671   1.658   0.894   0.450  0.4339  0.0327 -0.5956
  931MPD2    C313672   1.757   0.796   0.479 -0.6969  0.2190  0.1158
  931MPD2    C413673   1.884   0.818   0.430 -0.7719 -0.2797 -0.1551
  931MPD2    C513674   1.910   0.915   0.341 -0.0058 -0.1252  0.1933
  931MPD2     H13675   1.554   0.870   0.465  0.3580  1.2447  0.7449
  931MPD2    H113676   1.959   0.745   0.459  0.6619  1.2003 -0.1770
  931MPD2    H213677   1.830   1.094   0.250  0.1150 -0.4511 -0.8564
  931MPD2    H313678   2.009   0.925   0.300  0.7551 -1.0283  1.8262
  931MPD2     N13679   1.735   0.669   0.546 -0.0731  0.3050 -0.4613
  931MPD2    H513680   1.808   0.598   0.542 -0.6384 -0.2972 -0.0375
  931MPD2    N113681   1.588   1.089   0.311  0.3646 -0.1607 -0.5747
  931MPD2    H713682   1.612   1.139   0.226  0.3244 -1.6405 -1.4713
  932MPD2     C13683   3.261   0.329  11.310  0.3316 -0.5040 -0.3847
  932MPD2    C113684   3.362   0.290  11.230  0.2209  0.6054 -0.2046
  932MPD2    C213685   3.371   0.158  11.191  0.6653  0.6190  0.0246
  932MPD2    C313686   3.283   0.066  11.241  0.0816  0.3252  0.3248
  932MPD2    C413687   3.176   0.109  11.318  0.1004 -0.2636  0.3516
  932MPD2    C513688   3.168   0.240  11.360 -0.1801 -0.4604  0.3983
  932MPD2     H13689   3.458   0.119  11.139 -0.9434 -2.4602 -0.3888
  932MPD2    H113690   3.108   0.040  11.368  2.1062 -2.9703 -0.6485
  932MPD2    H213691   3.239   0.433  11.335 -0.7881 -1.0534  0.9177
  932MPD2    H313692   3.091   0.266  11.432 -1.8171  1.5056 -2.0827
  932MPD2     N13693   3.302   4.662  11.226 -0.2161  0.5024  0.2537
  932MPD2    H513694   3.246   4.603  11.285 -1.1969 -0.6197 -1.7978
  932MPD2    N113695   3.462   0.383  11.191 -0.2342 -0.1197 -0.4633
  932MPD2    H713696   3.541   0.342  11.142  0.7887 -2.2794  2.9524
  933MPD2     C13697   3.767   3.965   1.291  0.0413  0.1474 -0.5534
  933MPD2    C113698   3.864   4.055   1.296  0.2029 -0.7852 -0.0293
  933MPD2    C213699   3.851   4.165   1.212  0.1288 -0.3747  0.6027
  933MPD2    C313700   3.739   4.184   1.137 -0.6285  0.4770 -0.5125
  933MPD2    C413701   3.641   4.090   1.134  0.4005 -0.0738 -0.0840
  933MPD2    C513702   3.656   3.983   1.215 -0.2967  0.6918  0.3200
  933MPD2     H13703   3.925   4.244   1.211  0.7907 -0.9938  0.7617
  933MPD2    H113704   3.546   4.110   1.086  0.8768  0.3461 -0.8343
  933MPD2    H213705   3.754   3.884   1.362  1.5654  1.3795  1.1221
  933MPD2    H313706   3.579   3.907   1.214  0.9416 -0.5769  1.0263
  933MPD2     N13707   3.726   4.312   1.080  0.6851 -0.3492 -0.1021
  933MPD2    H513708   3.785   4.388   1.111  1.3552 -0.4245 -1.1858
  933MPD2    N113709   3.967   4.029   1.388 -0.2280  0.0759 -0.3125
  933MPD2    H713710   3.968   3.934   1.423 -0.8940 -0.2242 -1.0917
  934MPD2     C13711   0.259   2.233   1.851  0.0092 -0.3850  0.0673
  934MPD2    C113712   0.366   2.166   1.798 -0.3443 -0.5713  0.5481
  934MPD2    C213713   0.342   2.069   1.698  0.3774  0.6578 -0.9597
  934MPD2    C313714   0.211   2.054   1.653 -0.3335 -0.2502  0.1104
  934MPD2    C413715   0.106   2.124   1.705  0.7524 -0.1186  0.7016
  934MPD2    C513716   0.129   2.212   1.809 -0.5908  0.3089 -0.5209
  934MPD2     H13717   0.426   2.013   1.660  0.4241  0.4266 -0.5185
  934MPD2    H113718   0.010   2.107   1.657  1.3472 -1.8746  0.1187
  934MPD2    H213719   0.278   2.303   1.931  0.6812 -0.1968 -0.2566
  934MPD2    H313720   0.045   2.267   1.848 -0.1239  0.0639  0.8140
  934MPD2     N13721   0.177   1.961   1.547 -0.3214  0.0888  0.0289
  934MPD2    H513722   0.078   1.954   1.527 -0.5875  2.0018  0.6021
  934MPD2    N113723   0.503   2.202   1.831 -0.1656  0.3263 -0.4725
  934MPD2    H713724   0.569   2.164   1.764  2.3204  2.1672  0.9297
  935MPD2     C13725   0.799   1.356   1.067  0.5199 -0.3445  0.5427
  935MPD2    C113726   0.666   1.323   1.021 -0.6840  0.0121  0.3216
  935MPD2    C213727   0.559   1.399   1.061  0.9801 -0.6640  0.6546
  935MPD2    C313728   0.575   1.524   1.122 -0.3248  0.9813 -0.4261
  935MPD2    C413729   0.702   1.558   1.157 -0.4270 -0.4310  1.1646
  935MPD2    C513730   0.814   1.482   1.122  0.0236 -0.1658 -0.3389
  935MPD2     H13731   0.460   1.366   1.033  1.9625 -1.8648 -1.4074
  935MPD2    H113732   0.723   1.652   1.207 -1.3710  1.9459 -2.9384
  935MPD2    H213733   0.883   1.296   1.036 -0.3863 -1.4600  0.2610
  935MPD2    H313734   0.914   1.517   1.143 -0.9161  1.1003  2.0354
  935MPD2     N13735   0.474   1.622   1.133  0.0385  0.2884  0.4888
  935MPD2    H513736   0.498   1.713   1.171  0.7527  0.6333 -0.7848
  935MPD2    N113737   0.633   1.200   0.958 -0.0520 -0.3966  0.6251
  935MPD2    H713738   0.535   1.172   0.959 -0.0126 -0.5856 -1.7375
  936MPD2     C13739   4.452   2.606  13.201 -0.1215 -0.1868  0.2645
  936MPD2    C113740   4.348   2.676  13.150 -0.0728 -0.3765 -0.1599
  936MPD2    C213741   4.361   2.732  13.027 -0.0719 -0.0548  0.8432
  936MPD2    C313742   4.462   2.699  12.938 -0.0968 -0.0229 -0.8669
  936MPD2    C413743   4.562   2.620  12.976  0.5839  0.4515 -0.7348
  936MPD2    C513744   4.556   2.576  13.104 -0.2323  0.0954  0.0698
  936MPD2     H13745   4.302   2.816  12.994  0.6602  0.1967  0.1624
  936MPD2    H113746   4.636   2.574  12.912  1.0294 -1.4294  1.1182
  936MPD2    H213747   4.470   2.576  13.303 -0.6005  1.0609  0.7160
  936MPD2    H313748   4.634   2.509  13.139  0.0694  0.7993  0.7624
  936MPD2     N13749   4.455   2.771  12.812 -0.3384 -0.1783  0.0307
  936MPD2    H513750   4.377   2.831  12.789  0.3277  0.0127 -1.7174
  936MPD2    N113751   4.238   2.725  13.229  0.2567  0.4369  0.3729
  936MPD2    H713752   4.154   2.747  13.177  0.5402 -1.6271 -0.9843
  937MPD2     C13753   1.342   0.259  11.058 -0.1057 -0.0691  0.2720
  937MPD2    C113754   1.442   0.315  11.137 -0.9134 -0.6122 -0.3129
  937MPD2    C213755   1.568   0.344  11.086 -0.1152 -1.0343 -0.7346
  937MPD2    C313756   1.594   0.309  10.952 -0.1644  0.2078  0.3772
  937MPD2    C413757   1.493   0.255  10.869 -0.5035  0.2954 -0.6044
  937MPD2    C513758   1.369   0.235  10.927 -0.0164  0.3244  0.3572
  937MPD2     H13759   1.638   0.399  11.148 -0.5501  0.2539 -1.3740
  937MPD2    H113760   1.509   0.217  10.768 -0.6037 -1.5987  0.0849
  937MPD2    H213761   1.238   0.241  11.081 -0.5698  1.1165 -0.8460
  937MPD2    H313762   1.290   0.184  10.872  0.1473  1.1095 -0.6199
  937MPD2     N13763   1.731   0.328  10.916 -0.0203 -0.4924  0.0043
  937MPD2    H513764   1.788   0.357  10.995 -0.0628  0.8798 -0.4751
  937MPD2    N113765   1.430   0.330  11.281 -0.3332 -0.6418 -1.0113
  937MPD2    H713766   1.507   0.364  11.337 -1.4787  0.9905 -0.4201
  938MPD2     C13767   4.189   1.366   0.647  0.4318  0.3202  0.2497
  938MPD2    C113768   4.277   1.419   0.737 -0.1136 -0.5221 -0.1366
  938MPD2    C213769   4.346   1.333   0.822 -0.2556  0.6074 -0.0399
  938MPD2    C313770   4.325   1.199   0.823 -0.8861 -0.4767 -0.3507
  938MPD2    C413771   4.236   1.149   0.733  0.1635  0.1825  0.1296
  938MPD2    C513772   4.172   1.227   0.648 -0.1305 -0.2507 -0.6162
  938MPD2     H13773   4.408   1.385   0.894  1.4488  0.5633 -1.4837
  938MPD2    H113774   4.212   1.043   0.730 -2.2987  0.8221 -3.4152
  938MPD2    H213775   4.110   1.421   0.596  1.3700  1.9528  0.5838
  938MPD2    H313776   4.093   1.188   0.586  0.1036  1.4309 -1.9822
  938MPD2     N13777   4.392   1.103   0.904 -0.4324  0.3880 -0.3897
  938MPD2    H513778   4.364   1.006   0.894  0.5239  0.5650 -4.6523
  938MPD2    N113779   4.292   1.557   0.771 -0.0389  0.3532 -0.5700
  938MPD2    H713780   4.365   1.588   0.834 -1.7632  1.3353  0.9549
  939MPD2     C13781   4.501   2.051   0.071  0.0110  0.2358  0.1727
  939MPD2    C113782   4.594   2.144   0.122 -0.6402 -0.4307  0.1658
  939MPD2    C213783   4.724   2.142   0.068  0.3595  0.9493  0.2211
  939MPD2    C313784   0.029   2.044  17.720  0.4643  0.3543 -0.2335
  939MPD2    C413785   4.677   1.943  17.684 -0.1914  0.0344  0.4796
  939MPD2    C513786   4.545   1.952  17.735  0.3155 -0.1687 -0.7779
  939MPD2     H13787   0.064   2.213   0.098  0.7367  0.9720 -0.8183
  939MPD2    H113788   4.700   1.859  17.620  0.3321 -0.1258  0.8799
  939MPD2    H213789   4.398   2.046   0.104 -0.7087  1.2865 -1.9063
  939MPD2    H313790   4.476   1.873  17.707  0.6580  0.2809 -2.9174
  939MPD2     N13791   0.166   2.051  17.691 -0.2806  0.4030  0.6625
  939MPD2    H513792   0.215   2.128  17.735  0.7132  0.1229  0.0531
  939MPD2    N113793   4.546   2.241   0.213  0.2738  0.2879  0.2911
  939MPD2    H713794   4.447   2.239   0.236 -0.2553  0.2185 -1.9747
  940MPD2     C13795   0.481   3.135  12.183 -0.0890  0.3756 -0.0856
  940MPD2    C113796   0.362   3.115  12.248 -0.3014 -0.8863 -0.1929
  940MPD2    C213797   0.265   3.037  12.195 -0.4777 -0.0320  0.1464
  940MPD2    C313798   0.280   2.982  12.069  0.3330  0.1768 -0.4883
  940MPD2    C413799   0.395   3.004  12.005  0.5327 -1.1538 -0.2682
  940MPD2    C513800   0.494   3.080  12.063 -0.0625 -0.1318  0.3628
  940MPD2     H13801   0.176   3.029  12.257 -0.4695 -1.0108  0.0202
  940MPD2    H113802   0.423   2.955  11.912 -0.2784 -0.1738 -1.0310
  940MPD2    H213803   0.560   3.199  12.222 -1.7533  2.0613  0.4958
  940MPD2    H313804   0.589   3.078  12.011  0.2000 -0.8869  0.8698
  940MPD2     N13805   0.192   2.889  12.013 -0.6415 -0.0141  0.9128
  940MPD2    H513806   0.236   2.836  11.939  0.7823  0.8695  1.1287
  940MPD2    N113807   0.340   3.149  12.380 -0.5106  0.3655  0.0263
  940MPD2    H713808   0.260   3.104  12.423 -0.8344  0.3378 -0.5971
  941MPD2     C13809   3.999   2.873   9.548 -0.1925 -0.4791 -0.4189
  941MPD2    C113810   4.064   2.748   9.543  0.0108  0.5298  0.0598
  941MPD2    C213811   3.986   2.636   9.571  0.4691 -0.1608  0.2416
  941MPD2    C313812   3.850   2.648   9.610 -0.7124 -0.1050 -0.3826
  941MPD2    C413813   3.793   2.777   9.608 -0.1909 -0.3034  0.5051
  941MPD2    C513814   3.866   2.887   9.573 -0.7865 -0.9343  0.1075
  941MPD2     H13815   4.043   2.544   9.574  1.3585  0.3528 -1.1129
  941MPD2    H113816   3.689   2.773   9.639 -0.2155 -0.8512  0.3543
  941MPD2    H213817   4.051   2.965   9.524 -0.1991 -0.2679  0.3798
  941MPD2    H313818   3.824   2.986   9.584  2.1495  0.4539 -1.2537
  941MPD2     N13819   3.776   2.531   9.648 -0.6797  0.0353 -0.5080
  941MPD2    H513820   3.684   2.552   9.686 -0.5393  1.8865 -1.1690
  941MPD2    N113821   4.198   2.734   9.517 -0.2030  0.2423 -0.0200
  941MPD2    H713822   4.233   2.641   9.497 -0.7962 -0.0394  0.2865
  942MPD2     C13823   4.439   4.449   8.981  0.1638  0.1815 -0.0023
  942MPD2    C113824   4.512   4.509   8.884  0.5806  0.1636 -0.2096
  942MPD2    C213825   4.650   4.508   8.903  0.3698 -0.1115  0.1568
  942MPD2    C313826   4.712   4.447   9.015  0.5517 -0.2591  0.3297
  942MPD2    C413827   4.634   4.380   9.106 -0.6839 -0.7186 -0.2590
  942MPD2    C513828   4.499   4.390   9.089 -0.3100  0.4635  0.2391
  942MPD2     H13829   4.713   4.541   8.821 -0.1231 -1.6121 -0.8257
  942MPD2    H113830   4.673   4.327   9.192 -2.1120 -1.3359  0.0143
  942MPD2    H213831   4.331   4.444   8.975  0.2433 -3.0581  1.3278
  942MPD2    H313832   4.446   4.338   9.168  2.2376 -1.6462  0.5413
  942MPD2     N13833   0.115   4.439   9.027  0.0992 -0.0091 -0.1975
  942MPD2    H513834   0.143   4.388   9.110 -0.6851 -0.7945 -0.4218
  942MPD2    N113835   4.443   4.560   8.772 -0.5933 -0.1398 -0.3375
  942MPD2    H713836   4.345   4.537   8.760 -0.8438 -0.7163  2.8301
  943MPD2     C13837   3.272   3.139   9.776 -0.1878 -0.4632 -0.8584
  943MPD2    C113838   3.167   3.055   9.814  0.9980  0.0840 -0.2927
  943MPD2    C213839   3.129   3.041   9.949  0.7550 -0.1374 -0.4324
  943MPD2    C313840   3.195   3.111  10.048  0.4326  0.6261  0.1757
  943MPD2    C413841   3.302   3.185  10.007  0.6602 -0.5420  0.3438
  943MPD2    C513842   3.333   3.210   9.871 -0.4534  0.5165  0.6280
  943MPD2     H13843   3.037   2.990   9.971  1.5524 -1.5192 -0.3073
  943MPD2    H113844   3.370   3.237  10.073 -2.6865 -0.1093  3.3907
  943MPD2    H213845   3.292   3.157   9.672  1.7942  0.5453 -0.3107
  943MPD2    H313846   3.415   3.272   9.840 -0.7272  0.3877 -0.3616
  943MPD2     N13847   3.150   3.112  10.187  0.0146  0.2720 -0.2125
  943MPD2    H513848   3.201   3.174  10.249  2.4477 -1.9373 -0.0441
  943MPD2    N113849   3.109   2.979   9.711  0.7799 -0.2220 -0.1101
  943MPD2    H713850   3.132   3.000   9.615  1.6253 -1.3441 -0.1490
  944MPD2     C13851   2.234   1.199  10.719 -0.4628 -0.4647  0.4401
  944MPD2    C113852   2.245   1.314  10.646  0.3800 -0.1044  0.4474
  944MPD2    C213853   2.231   1.431  10.717 -0.0520 -0.3662  0.5676
  944MPD2    C313854   2.212   1.437  10.852 -0.1767  0.5444 -0.0736
  944MPD2    C413855   2.209   1.320  10.923 -0.4838 -1.2010  0.0132
  944MPD2    C513856   2.218   1.204  10.851  0.6045 -0.5010 -0.3319
  944MPD2     H13857   2.238   1.528  10.670 -2.0305 -0.4223  0.1595
  944MPD2    H113858   2.222   1.318  11.031  2.7240  4.1294 -0.2337
  944MPD2    H213859   2.226   1.102  10.670 -0.1445 -1.1144  1.6736
  944MPD2    H313860   2.205   1.111  10.905  0.1983  0.1850  0.7550
  944MPD2     N13861   2.196   1.561  10.909  0.4926  0.1931 -0.6774
  944MPD2    H513862   2.234   1.636  10.852 -0.3427 -1.5795 -3.5666
  944MPD2    N113863   2.257   1.309  10.505  0.3069 -0.5993 -0.3809
  944MPD2    H713864   2.286   1.220  10.467 -0.0794 -0.2304 -1.5554
    1TMC1    C113865   1.005   1.653  14.324 -0.3027  0.3864  0.7749
    1TMC1    C213866   1.073   1.546  14.374 -0.1809 -0.7802  0.1877
    1TMC1    C313867   1.060   1.427  14.313  0.0156 -0.6611  1.1674
    1TMC1    C413868   0.924   1.649  14.213 -0.1297 -0.2903  0.0775
    1TMC1    C513869   0.925   1.524  14.155 -0.4310  0.1229  0.1333
    1TMC1    C613870   0.992   1.414  14.197 -0.3917 -0.5568  0.9582
    1TMC1     C13871   0.989   1.772  14.419 -0.0316  0.4388  0.4196
    1TMC1     O13872   1.063   1.769  14.516 -0.1876  0.1291 -0.0527
    1TMC1     H13873   1.146   1.564  14.452 -0.2260 -0.3441  0.1282
    1TMC1    H113874   0.886   1.738  14.162 -1.3473 -1.6098 -1.3169
    1TMC1    H213875   0.992   1.322  14.141 -1.0441  1.3990 -2.2804
    1TMC1    C713876   0.824   1.493  14.055  0.3203 -0.1012 -0.0676
    1TMC1    C813877   1.155   1.332  14.360  0.2483 -0.0798  0.2373
    1TMC1    O113878   0.824   1.393  13.985 -0.0389 -0.9962  0.1339
    1TMC1    O213879   1.145   1.272  14.465 -0.2821  0.0217  0.2445
    1TMC1    O313880   0.721   1.586  14.050 -0.0568 -0.1079 -0.5097
    1TMC1    H313881   0.724   1.650  14.124  0.7415 -0.1047 -0.5449
    1TMC1    O513882   1.264   1.358  14.285  0.0993 -0.1470  0.4764
    1TMC1    H513883   1.250   1.410  14.204 -2.7124  0.9942  1.7080
    2MPD2     C13884   0.769   2.214  14.552 -0.6370  0.2053  0.0332
    2MPD2    C113885   0.723   2.185  14.426 -0.3883 -0.3497  0.5133
    2MPD2    C213886   0.773   2.068  14.369  0.6282 -0.2371 -0.3525
    2MPD2    C313887   0.861   1.989  14.440  0.2446 -0.1240 -0.3759
    2MPD2    C413888   0.904   2.016  14.567  0.2459  0.1924  0.6855
    2MPD2    C513889   0.855   2.131  14.624  0.9086  0.0784 -0.3510
    2MPD2     H13890   0.750   2.047  14.266 -0.2474 -0.5753 -0.0882
    2MPD2    H113891   0.967   1.941  14.615 -0.6385 -0.6702  0.5016
    2MPD2    H213892   0.754   2.309  14.602  1.8315 -0.2940  1.7361
    2MPD2    H313893   0.891   2.164  14.721  0.2608 -0.7625  0.1862
    2MPD2     N13894   0.894   1.868  14.382 -0.2649 -0.7473 -0.1303
    2MPD2    H513895   0.843   1.849  14.296  0.0238 -1.3949 -0.1559
    2MPD2    N113896   0.641   2.280  14.359  0.0536  0.3761  0.2003
    2MPD2    H713897   0.624   2.370  14.405  1.3117  0.0174  1.3675
    3TMC2    C113898   0.471   2.348  14.206  0.1639 -0.6233  0.4105
    3TMC2    C213899   0.425   2.437  14.296 -0.4286 -0.9196 -0.5603
    3TMC2    C313900   0.350   2.540  14.251  0.1766  0.3923 -0.0598
    3TMC2    C413901   0.460   2.370  14.071  0.3200 -0.3824  0.1338
    3TMC2    C513902   0.399   2.485  14.030  0.0039  0.1252 -0.0238
    3TMC2    C613903   0.339   2.573  14.119 -0.3874  0.1787  0.1189
    3TMC2     C13904   0.581   2.260  14.238  0.5558  0.1101 -0.1175
    3TMC2     O13905   0.622   2.197  14.140 -0.3222  0.3234  0.3628
    3TMC2     H13906   0.425   2.414  14.401  4.1179 -0.3742 -0.4164
    3TMC2    H113907   0.499   2.301  13.997  1.5063  0.3503  0.0762
    3TMC2    H213908   0.284   2.661  14.087 -0.2187  0.2582  0.0478
    3TMC2    C713909   0.424   2.513  13.891 -0.5825  0.1020 -0.0576
    3TMC2    C813910   0.263   2.604  14.345  0.3024  0.1935 -0.3320
    3TMC2    O113911   0.442   2.414  13.821  0.7604 -0.1087  0.3571
    3TMC2    O213912   0.296   2.609  14.463 -0.3904  0.4211 -0.5581
    3TMC2    O513913   0.142   2.644  14.288 -0.2888 -0.5875 -0.3250
    3TMC2    H513914   0.134   2.629  14.191  1.8810  2.9354 -1.0243
    4TMC2    C113915   0.204   3.471  13.580 -0.1875 -0.2254 -0.3131
    4TMC2    C213916   0.244   3.491  13.452  0.0887 -0.8890 -0.2158
    4TMC2    C313917   0.338   3.409  13.401 -0.0396  0.0151 -0.2036
    4TMC2    C413918   0.250   3.363  13.656 -0.4366  0.5969  0.0043
    4TMC2    C513919   0.336   3.275  13.594 -0.0237 -0.3830 -1.0449
    4TMC2    C613920   0.376   3.299  13.471 -0.0127  0.7283  0.3018
    4TMC2     C13921   0.079   3.536  13.630 -0.2527 -0.3604  0.5110
    4TMC2     O13922   0.067   3.540  13.750 -0.6680 -0.1230 -0.1159
    4TMC2     H13923   0.218   3.583  13.400  0.1999  0.6243  2.3631
    4TMC2    H113924   0.211   3.340  13.754 -0.3281 -0.0621 -0.1058
    4TMC2    H213925   0.453   3.236  13.427 -0.9424 -0.1704 -0.0301
    4TMC2    C713926   0.344   3.148  13.660  0.1555 -0.7373  0.1523
    4TMC2    C813927   0.334   3.412  13.254  0.0857  0.4864 -0.1761
    4TMC2    O113928   0.327   3.140  13.781 -0.1412  0.6446 -0.4468
    4TMC2    O213929   0.263   3.348  13.179 -0.2350 -0.5750 -0.1473
    4TMC2    O513930   0.386   3.531  13.225  0.3464 -0.1130  0.0530
    4TMC2    H513931   0.433   3.561  13.306 -0.3462  0.9022  0.0758
    5MPD2     C13932   4.336   3.687  13.589  0.2134  0.6149 -0.6094
    5MPD2    C113933   4.375   3.648  13.461 -0.3508 -0.6656  0.0081
    5MPD2    C213934   4.508   3.613  13.443  0.1074 -0.0046 -0.1848
    5MPD2    C313935   4.599   3.621  13.548 -0.8940  0.4946 -0.1955
    5MPD2    C413936   4.548   3.668  13.672 -0.1093 -0.0272  0.1467
    5MPD2    C513937   4.419   3.702  13.692  0.1945 -0.6316 -0.2338
    5MPD2     H13938   4.535   3.564  13.350 -2.5773 -0.1239 -0.9185
    5MPD2    H113939   4.613   3.684  13.758 -0.3798  2.7642 -0.1782
    5MPD2    H213940   4.232   3.712  13.603  0.2199 -1.0901  2.5416
    5MPD2    H313941   4.381   3.744  13.784 -0.8283  1.9485 -1.8179
    5MPD2     N13942   4.730   3.565  13.528  0.3056  0.6741 -0.1949
    5MPD2    H513943   0.004   3.529  13.433  1.0798  0.3491  0.0104
    5MPD2    N113944   4.267   3.617  13.371  0.9164 -0.0258  0.3144
    5MPD2    H713945   4.174   3.623  13.410  0.5236  0.3993 -0.6807
    6MPD1     C13946   3.848   0.418  13.240  0.5646 -0.3376 -0.5926
    6MPD1    C113947   3.775   0.324  13.306 -0.0963  0.3990  0.1971
    6MPD1    C213948   3.738   0.204  13.246  0.2987  0.7355 -0.4720
    6MPD1    C313949   3.768   0.185  13.114  0.1637 -0.4935  0.0142
    6MPD1    C413950   3.850   0.273  13.054  0.1264  0.6760  0.1570
    6MPD1    C513951   3.883   0.393  13.116 -0.1683  0.1626  0.1947
    6MPD1     H13952   3.681   0.132  13.303 -0.6184  1.2058 -0.7842
    6MPD1    H113953   3.900   0.260  12.958 -1.1168  0.2269 -0.4313
    6MPD1    H213954   3.870   0.515  13.284  2.2722 -0.5249 -1.0322
    6MPD1    H313955   3.959   0.456  13.070 -0.4400  0.0829 -0.3636
    6MPD1     N13956   3.730   0.061  13.063  0.1710  0.0694 -0.2974
    6MPD1    H513957   3.687   4.728  13.123  0.1981  0.1263 -0.2117
    6MPD1    N113958   3.751   0.336  13.441 -0.4042  0.4204 -0.1383
    6MPD1    H613959   3.661   0.292  13.456  1.0019 -1.9016  1.4417
    6MPD1    H713960   3.738   0.435  13.462 -1.2041  0.9057 -2.9099
    7MPD2     C13961   3.573   4.150  13.310  0.1509  0.0079  0.0128
    7MPD2    C113962   3.580   4.126  13.172 -0.5768 -0.0336 -0.4353
    7MPD2    C213963   3.630   4.007  13.137  0.2161 -0.7341  0.8544
    7MPD2    C313964   3.678   3.904  13.222 -0.1794 -0.5184  0.1234
    7MPD2    C413965   3.664   3.930  13.358  0.2185 -0.0873 -0.2733
    7MPD2    C513966   3.613   4.054  13.396 -0.1952 -0.1661  0.2713
    7MPD2     H13967   3.641   3.984  13.031 -1.2293  1.2345  0.2694
    7MPD2    H113968   3.698   3.858  13.432  0.6396 -0.8821 -1.2432
    7MPD2    H213969   3.545   4.247  13.349 -3.2440 -1.0916  0.3878
    7MPD2    H313970   3.618   4.073  13.502  0.0321  0.5526  0.1330
    7MPD2     N13971   3.750   3.791  13.164 -0.2979  0.3953  0.1528
    7MPD2    H513972   3.764   3.786  13.064  1.0535 -0.7152  0.3944
    7MPD2    N113973   3.542   4.216  13.068  0.4921  0.4669 -0.5169
    7MPD2    H713974   3.559   4.170  12.979 -0.7241 -1.6023  0.3097
    8TMC3    C113975   3.923   3.626  13.162 -0.6930  0.1153  0.0170
    8TMC3    C213976   4.036   3.593  13.235  0.3067  0.3204  0.1390
    8TMC3    C313977   4.154   3.580  13.166 -0.1089 -0.1455 -0.0299
    8TMC3    C413978   3.925   3.624  13.032  0.3469 -0.0913  0.2013
    8TMC3    C513979   4.043   3.610  12.965  0.1956  0.8167  0.3296
    8TMC3    C613980   4.165   3.588  13.030 -0.2100  0.5781 -0.1968
    8TMC3     C13981   3.820   3.698  13.236 -0.1223  0.4109 -0.1717
    8TMC3     O13982   3.826   3.671  13.354 -0.0340 -0.7145 -0.3786
    8TMC3     H13983   4.022   3.579  13.341  1.3038 -1.3323  0.0456
    8TMC3    H113984   3.841   3.653  12.969  1.8951 -0.4703 -2.0488
    8TMC3    H213985   4.259   3.572  12.980  1.1923  1.2927  2.2373
    8TMC3    C713986   4.040   3.692  12.845 -0.7450  0.4748  0.2603
    8TMC3    C813987   4.280   3.608  13.233  0.4263  0.9788  0.2636
    8TMC3    O113988   4.110   3.635  12.763  0.0331  0.5753 -0.7598
    8TMC3    O213989   4.379   3.626  13.163 -0.7613  0.6654  0.8409
    9TMC3    C113990   3.715   4.628  12.917 -0.4097 -0.2081  0.9367
    9TMC3    C213991   3.788   4.557  12.819 -0.1069 -0.5781  0.1772
    9TMC3    C313992   3.734   4.435  12.790 -0.7925 -0.3198  0.5569
    9TMC3    C413993   3.616   4.567  12.991 -0.0315 -0.3116 -0.6558
    9TMC3    C513994   3.584   4.436  12.968  0.6946  0.3085 -0.0704
    9TMC3    C613995   3.640   4.371  12.865  0.1468 -0.5430 -0.1826
    9TMC3     C13996   3.757   0.026  12.931 -0.0591 -0.6356 -0.7519
    9TMC3     O13997   3.813   0.086  12.840  0.1879  0.1115 -0.1195
    9TMC3     H13998   3.860   4.598  12.749 -0.1354 -0.1861  0.3732
    9TMC3    H113999   3.565   4.621  13.071 -0.2549 -1.6367  0.0965
    9TMC3    H214000   3.607   4.272  12.837  3.6987 -1.4912 -1.0291
    9TMC3    C714001   3.531   4.353  13.086  0.7621  0.4962 -0.3464
    9TMC3    C814002   3.791   4.353  12.691 -0.1123 -0.5551 -0.3339
    9TMC3    O114003   3.520   4.420  13.191  0.0902 -0.1662 -0.1135
    9TMC3    O214004   3.810   4.400  12.580 -0.2548 -0.1762  0.0821
   10MPD2     C14005   4.071   3.919  12.659 -1.0072  0.0444  0.2765
   10MPD2    C114006   4.018   3.931  12.785 -0.0613 -0.4512 -0.9344
   10MPD2    C214007   3.964   4.054  12.818  0.0588  0.0131  0.7913
   10MPD2    C314008   3.945   4.149  12.723  0.5319 -0.1436 -0.1342
   10MPD2    C414009   4.015   4.145  12.604  0.4012  0.4391  0.6431
   10MPD2    C514010   4.074   4.025  12.574  0.4013 -0.0397 -0.1886
   10MPD2     H14011   3.926   4.062  12.919 -2.7707  1.0634 -0.3516
   10MPD2    H114012   4.004   4.221  12.527 -0.7979  1.5401  1.9042
   10MPD2    H214013   4.106   3.826  12.617 -0.8899 -0.8956  2.4712
   10MPD2    H314014   4.101   4.000  12.473 -1.2647 -1.3204 -0.3161
   10MPD2     N14015   3.845   4.249  12.759 -0.3976  0.1529  0.4146
   10MPD2    H514016   3.816   4.236  12.855  0.3824  0.5127  0.6962
   10MPD2    N114017   4.008   3.822  12.868  1.0791 -0.4775  0.0917
   10MPD2    H714018   3.987   3.848  12.964  1.5110  1.6682 -0.3964
   11MPD2     C14019   0.450   2.641  13.627  0.4463  0.4415  0.8732
   11MPD2    C114020   0.413   2.708  13.735  0.4066 -0.3911 -0.0122
   11MPD2    C214021   0.377   2.843  13.724 -0.0444  0.0379 -0.6608
   11MPD2    C314022   0.392   2.911  13.601 -0.2979  0.3837 -0.2597
   11MPD2    C414023   0.425   2.835  13.490  0.0869 -1.2514  0.2543
   11MPD2    C514024   0.462   2.705  13.509  0.6000  0.4175 -0.0166
   11MPD2     H14025   0.342   2.894  13.812  2.1944  0.5905 -0.0831
   11MPD2    H114026   0.431   2.870  13.387 -1.7651  0.2090  0.6536
   11MPD2    H214027   0.482   2.538  13.628 -0.6812  0.0768 -1.1590
   11MPD2    H314028   0.495   2.650  13.421  0.0376 -0.4468  0.3033
   11MPD2     N14029   0.371   3.046  13.572 -0.4459 -0.3655 -0.4735
   11MPD2    H514030   0.392   3.078  13.478 -0.1566  0.1036 -0.2534
   11MPD2    N114031   0.409   2.644  13.862 -0.6849 -0.0162  0.2165
   11MPD2    H714032   0.374   2.705  13.934 -0.3350 -1.1671  1.3541
    1MPD1     C14033   3.975   0.622  16.371  1.0907 -0.1777 -0.6255
    1MPD1    C114034   3.879   0.544  16.427  0.0167 -0.5018  0.0937
    1MPD1    C214035   3.912   0.461  16.535 -0.5509 -0.3058 -0.0103
    1MPD1    C314036   4.042   0.444  16.571  0.1250 -0.1781  0.6443
    1MPD1    C414037   4.143   0.518  16.506 -0.4720  0.3524 -0.3348
    1MPD1    C514038   4.102   0.608  16.416  0.1624  0.4360  0.6303
    1MPD1     H14039   3.834   0.399  16.578 -0.7729 -0.3510 -0.4711
    1MPD1    H114040   4.250   0.514  16.523 -0.3297 -1.8757 -1.6899
    1MPD1    H214041   3.956   0.681  16.281  0.7733  0.0441 -0.4125
    1MPD1    H314042   4.184   0.659  16.367 -0.4635  0.5147 -0.3347
    1MPD1     N14043   4.086   0.364  16.683 -0.4655 -0.1066 -0.0604
    1MPD1    H514044   4.186   0.363  16.702 -0.2583 -0.8531 -1.1566
    1MPD1    N114045   3.748   0.536  16.365 -0.4304 -0.8277 -0.4605
    1MPD1    H614046   3.662   0.536  16.420  0.7029 -0.5195  1.2840
    1MPD1    H714047   3.733   0.599  16.287  0.6476 -0.6218 -0.5005
    2MPD1     C14048   0.039   0.578  17.144  0.1147  0.2223  0.2713
    2MPD1    C114049   4.708   0.620  17.031 -0.6863  0.2065 -0.2480
    2MPD1    C214050   4.599   0.543  16.984  0.8231 -0.8553  0.0364
    2MPD1    C314051   4.551   0.436  17.058 -0.2206 -0.5594  0.3016
    2MPD1    C414052   4.628   0.389  17.165  0.2315  0.0789 -0.6867
    2MPD1    C514053   4.734   0.463  17.205 -0.5868  0.8883 -0.4159
    2MPD1     H14054   4.548   0.571  16.893  0.5739 -1.8748 -0.1275
    2MPD1    H114055   4.600   0.302  17.224  0.2567 -0.6719 -1.7998
    2MPD1    H214056   0.134   0.619  17.175  0.5010 -0.8179  0.4798
    2MPD1    H314057   0.039   0.424  17.297 -1.2734  1.3790  0.1000
    2MPD1     N14058   4.427   0.374  17.018 -0.0982 -0.1831 -0.5709
    2MPD1    H514059   4.387   0.410  16.933  0.0401 -0.3193 -0.6933
    2MPD1    N114060   0.023   0.727  16.952  0.1200  0.2388 -0.3350
    2MPD1    H614061   4.679   0.776  16.911 -1.7436 -1.3972  1.3570
    2MPD1    H714062   0.070   0.686  16.872  0.0789  1.8854 -1.1984
    3TMC3    C114063   4.237   0.218  17.022  0.3629 -1.2043 -0.4137
    3TMC3    C214064   4.195   0.091  17.067 -0.4768 -0.5505 -0.8247
    3TMC3    C314065   4.086   0.038  17.002 -0.6409  0.2885 -0.1558
    3TMC3    C414066   4.170   0.285  16.926 -0.7023  0.7222  0.1106
    3TMC3    C514067   4.068   0.223  16.867  0.3065 -0.1013  0.0986
    3TMC3    C614068   4.020   0.099  16.903 -0.1718 -1.0336 -0.4040
    3TMC3     C14069   4.357   0.269  17.085  0.5387 -0.2573 -0.3886
    3TMC3     O14070   4.391   0.215  17.192 -0.1771 -0.2878  0.0253
    3TMC3     H14071   4.245   0.047  17.153  1.9238  1.3384 -1.2423
    3TMC3    H114072   4.195   0.389  16.910  0.1293  0.2496 -1.6433
    3TMC3    H214073   3.948   0.044  16.843 -1.8477  0.4494  0.2296
    3TMC3    C714074   3.998   0.306  16.772  0.0823  0.1321  0.2213
    3TMC3    C814075   4.046   4.634  17.031 -0.5987  0.4776 -0.0211
    3TMC3    O114076   3.877   0.282  16.764 -0.3304 -0.2605 -0.0896
    3TMC3    O214077   3.937   4.595  16.995 -0.4195  0.5744  0.3160
    4MPD1     C14078   4.158   4.206  17.306 -0.7553 -0.1743  0.3374
    4MPD1    C114079   4.277   4.274  17.273  0.1003  0.3084  0.3213
    4MPD1    C214080   4.263   4.398  17.219 -0.2328 -0.4726 -0.1955
    4MPD1    C314081   4.148   4.446  17.162 -0.4381 -0.5890 -0.1077
    4MPD1    C414082   4.034   4.371  17.185  0.4547  0.1567  0.3536
    4MPD1    C514083   4.039   4.258  17.255 -0.7256 -0.5842  0.9182
    4MPD1     H14084   4.348   4.465  17.211 -1.1375  0.5494 -1.2967
    4MPD1    H114085   3.938   4.408  17.151 -0.1990 -0.2917  1.6976
    4MPD1    H214086   4.159   4.107  17.350 -0.5364  0.3266  1.4676
    4MPD1    H314087   3.944   4.206  17.261 -0.2510 -1.2978  2.2421
    4MPD1     N14088   4.151   4.570  17.094 -0.0479 -0.5490  0.0094
    4MPD1    H514089   4.244   4.610  17.097 -0.2065 -0.3274  2.3010
    4MPD1    N114090   4.401   4.238  17.330  0.1041  0.0466  0.0076
    4MPD1    H614091   4.482   4.289  17.297 -0.4218  1.5422  1.0287
    4MPD1    H714092   4.424   4.140  17.317  1.1195  0.3223 -0.2797
    1TCq1    O114093   4.419   0.088  10.690 -0.2798  0.2565 -0.2601
    1TCq1    C114094   4.308   0.093  10.618 -0.2017 -0.1771  0.0918
    1TCq1    O214095   4.288   0.168  10.528  0.1966  0.5853 -0.3118
    1TCq1    C214096   4.215   0.028  10.698  0.1736 -0.7880 -1.1505
    1TCq1    C314097   4.086   0.073  10.704  0.9009 -0.0634 -0.0892
    1TCq1    C414098   3.997   0.012  10.785 -0.3881  0.3747  0.3142
    1TCq1    C514099   4.034   4.642  10.863  0.5444  0.1961 -0.3065
    1TCq1    C614100   4.155   4.581  10.834 -0.0905  0.5041  0.1046
    1TCq1    C714101   4.245   4.647  10.755 -0.5552 -0.1288  0.0453
    1TCq1    C814102   4.214   4.474  10.915  0.0506 -0.0847 -0.6999
    1TCq1    O414103   4.324   4.427  10.874  0.1390 -0.4866 -0.5395
    1TCq1    C914104   3.879   0.091  10.814  0.1988 -0.0043  0.0824
    1TCq1    O514105   3.801   0.055  10.906 -0.9687  0.0790 -0.5604
    1TCq1    O614106   3.839   0.162  10.716 -0.3931  0.0586  0.4937
    1TCq1    H114107   4.403   0.049  10.779  1.3051 -0.3682 -0.2331
    1TCq1    H214108   4.055   0.166  10.660 -0.6651  0.2696  1.7119
    1TCq1    H314109   3.972   4.613  10.947 -0.2684  0.8224 -0.6835
    1TCq1    H414110   4.345   4.608  10.742 -0.4159 -0.4438  2.0821
    2MPD1     C14111   4.216   4.105  11.258  0.0549  0.0978 -1.3372
    2MPD1    C114112   4.156   4.211  11.318 -0.1838  0.2942  0.2164
    2MPD1    C214113   4.136   4.326  11.245 -0.5970  0.1395  0.3635
    2MPD1    C314114   4.176   4.341  11.111 -0.0449  0.6932 -0.1764
    2MPD1    C414115   4.243   4.231  11.057  0.1919  0.3533 -0.2838
    2MPD1    C514116   4.257   4.119  11.127 -0.6173 -0.5679 -0.0369
    2MPD1     H14117   4.080   4.408  11.287 -0.1682  1.1125 -0.9657
    2MPD1    H114118   4.282   4.227  10.956 -0.5303 -0.7226 -0.5156
    2MPD1    H214119   4.222   4.004  11.297 -2.0582 -0.3625 -2.1782
    2MPD1    H314120   4.312   4.030  11.099  1.6556  0.8219 -0.0199
    2MPD1     N14121   4.141   4.449  11.029 -0.8607  0.1964  0.1252
    2MPD1    H514122   4.077   4.521  11.062 -0.7677  0.5635 -0.4876
    2MPD1    N114123   4.072   4.186  11.426 -0.0927 -0.4530 -0.4473
    2MPD1    H614124   4.113   4.120  11.493 -1.6473 -0.0857  0.8733
    2MPD1    H714125   4.067   4.271  11.482 -2.3029 -0.4802 -0.6252
    1TMC1    C114126   1.353   4.122   0.487  0.2200 -0.8099 -0.5004
    1TMC1    C214127   1.253   4.049   0.427 -0.6542  0.9442  0.0495
    1TMC1    C314128   1.161   3.992   0.511  0.2976 -0.3886 -0.3251
    1TMC1    C414129   1.367   4.135   0.620 -0.2644 -0.1007 -0.7726
    1TMC1    C514130   1.278   4.065   0.696  0.1648 -0.5177 -0.1669
    1TMC1    C614131   1.166   3.997   0.651 -0.0009 -0.5836 -0.3649
    1TMC1     C14132   1.447   4.191   0.411 -0.6144  0.1050 -0.2714
    1TMC1     O14133   1.515   4.274   0.469 -0.5675 -0.2405 -0.2462
    1TMC1     H14134   1.228   4.042   0.322  1.5241  0.8599 -0.4726
    1TMC1    H114135   1.453   4.193   0.652 -0.2566 -1.0821  0.9820
    1TMC1    H214136   1.110   3.921   0.703 -0.4508 -2.2031 -3.2163
    1TMC1    C714137   1.321   4.039   0.833 -0.4476 -0.0171 -0.2627
    1TMC1    C814138   1.050   3.920   0.463  0.4523  0.3128  0.5349
    1TMC1    O114139   1.346   3.925   0.863  0.2345 -0.0911  0.4886
    1TMC1    O214140   1.040   3.881   0.347 -0.0533  0.7621  0.6369
    1TMC1    O314141   1.381   4.148   0.889  0.0977 -0.1795  0.9473
    1TMC1    H314142   1.349   4.232   0.849 -0.2121  0.0363  1.6328
    1TMC1    O514143   0.948   3.981   0.531  0.4229  0.3642  0.0354
    1TMC1    H514144   0.985   4.056   0.582  1.8759  0.7655 -1.5732
    2MPD1     C14145   1.701   4.285  17.719  0.0519  0.6814 -0.1536
    2MPD1    C114146   1.671   4.149  17.718 -0.1427 -0.4562  0.0892
    2MPD1    C214147   1.595   4.104   0.083  0.3420 -0.0489  0.5223
    2MPD1    C314148   1.548   4.184   0.189 -0.2047  0.6099 -0.8424
    2MPD1    C414149   1.592   4.315   0.183 -0.2892  0.1967 -0.3273
    2MPD1    C514150   1.666   4.362   0.081  0.0803 -0.2699  0.3412
    2MPD1     H14151   1.557   4.003   0.074 -1.0754  0.3437  2.1161
    2MPD1    H114152   1.574   4.385   0.264  0.2816 -0.4161  0.3344
    2MPD1    H214153   1.763   4.326  17.640  1.2387  0.4410  0.6363
    2MPD1    H314154   1.699   4.465   0.068 -1.3531  0.1474 -0.0189
    2MPD1     N14155   1.453   4.142   0.280  0.4915  0.3242 -0.3513
    2MPD1    H514156   1.405   4.053   0.272 -2.6466  1.9371  0.6013
    2MPD1    N114157   1.716   4.054  17.620 -0.4419 -0.7976  0.3822
    2MPD1    H614158   1.711   4.102  17.530  0.2285  1.2390  1.4412
    2MPD1    H714159   1.664   3.967  17.613 -1.9575 -0.0603  2.5526
    1MPD1     C14160   4.552   4.106  11.342  0.0485 -0.2985 -0.0350
    1MPD1    C114161   4.600   4.219  11.274 -0.1530 -0.3096 -0.4440
    1MPD1    C214162   4.729   4.262  11.306  0.1059  0.0257  0.1719
    1MPD1    C314163   0.081   4.188  11.378  0.5536 -0.0437  0.1232
    1MPD1    C414164   0.035   4.068  11.440 -0.7939 -0.6710 -0.1408
    1MPD1    C514165   4.638   4.030  11.424  0.0687 -0.2563 -0.3280
    1MPD1     H14166   0.019   4.358  11.265  1.0601  0.9789  3.0386
    1MPD1    H114167   0.091   3.996  11.498 -0.7427 -0.0038  0.6370
    1MPD1    H214168   4.449   4.072  11.335  0.6543 -2.0183 -0.5720
    1MPD1    H314169   4.584   3.948  11.470 -1.5318  0.1468 -1.5092
    1MPD1     N14170   0.197   4.255  11.428 -0.0878 -0.6833  0.3009
    1MPD1    H514171   0.211   4.349  11.390  0.6162  0.3862  3.2274
    1MPD1    N114172   4.508   4.306  11.218 -0.2860  0.5234 -0.1220
    1MPD1    H614173   4.536   4.378  11.152 -2.1146  0.7209 -0.6722
    1MPD1    H714174   4.423   4.255  11.194  0.6298  1.3114 -4.9504
    2MPD1     C14175   0.609   0.908  10.444 -0.1232  0.1254  0.5411
    2MPD1    C114176   0.563   0.783  10.421 -0.5987  0.5277 -0.2271
    2MPD1    C214177   0.654   0.681  10.420 -0.7334  0.2907 -0.2546
    2MPD1    C314178   0.794   0.701  10.436  0.2385 -0.0600  0.3922
    2MPD1    C414179   0.839   0.828  10.435  0.1366 -0.4699  0.2795
    2MPD1    C514180   0.745   0.928  10.433  0.5408  0.2806 -0.7789
    2MPD1     H14181   0.616   0.579  10.414  0.7968 -0.1976 -1.5332
    2MPD1    H114182   0.944   0.856  10.440 -0.2872  0.7957  2.3438
    2MPD1    H214183   0.544   0.994  10.440  1.3355  1.2435  0.8340
    2MPD1    H314184   0.766   1.034  10.425 -1.2087  0.8265  1.9427
    2MPD1     N14185   0.890   0.595  10.435 -0.5115 -0.1616  0.2995
    2MPD1    H514186   0.983   0.623  10.404 -0.6820  2.7870  2.3335
    2MPD1    N114187   0.426   0.761  10.422 -0.2453  0.2910 -0.3054
    2MPD1    H614188   0.374   0.837  10.379 -0.3663  0.3544 -0.0446
    2MPD1    H714189   0.402   0.671  10.380 -0.0091 -0.0806  0.3522
    3MPD1     C14190   1.208   0.535   9.681  0.0224 -0.4042  0.1908
    3MPD1    C114191   1.081   0.554   9.721  0.1618  0.1759 -1.0138
    3MPD1    C214192   1.058   0.528   9.857  0.6282  0.4572 -0.3527
    3MPD1    C314193   1.150   0.471   9.937  0.7128  0.3052 -0.2224
    3MPD1    C414194   1.282   0.466   9.898  0.2070  0.5419  0.3015
    3MPD1    C514195   1.313   0.499   9.768 -0.8431 -0.0411  0.0752
    3MPD1     H14196   0.954   0.532   9.890  1.4767  0.8920  2.2355
    3MPD1    H114197   1.363   0.430   9.959  0.0296  0.0522  0.2443
    3MPD1    H214198   1.234   0.532   9.575 -0.1122  1.1681  0.1072
    3MPD1    H314199   1.413   0.472   9.736 -0.0412  0.2114  2.3408
    3MPD1     N14200   1.111   0.430  10.064  0.0947 -0.5057 -0.0134
    3MPD1    H514201   1.013   0.445  10.084  0.4426 -0.7061  1.8406
    3MPD1    N114202   0.972   0.563   9.636  0.1028  0.1040 -0.0509
    3MPD1    H614203   0.896   0.607   9.688  0.1749 -2.9844  2.6548
    3MPD1    H714204   0.977   0.623   9.554  1.1401  3.0272  2.1604
    4MPD2     C14205   0.601   0.085  11.393 -0.1133 -0.1922  0.4808
    4MPD2    C114206   0.668   4.731  11.471  0.1846  0.4141  0.5643
    4MPD2    C214207   0.802   0.000  11.483  0.3139  0.0335 -0.4098
    4MPD2    C314208   0.880   0.072  11.391 -0.1466  0.2453  0.2552
    4MPD2    C414209   0.811   0.166  11.317  0.0395  0.0172  0.9644
    4MPD2    C514210   0.677   0.177  11.323 -0.2468 -0.4715 -1.3513
    4MPD2     H14211   0.854   4.673  11.554  0.6551  0.4761 -0.2588
    4MPD2    H114212   0.854   0.240  11.251  0.5539 -0.7995  0.3730
    4MPD2    H214213   0.494   0.075  11.385 -0.3314  1.9767  0.7412
    4MPD2    H314214   0.623   0.245  11.257 -1.0076  0.0690 -0.1837
    4MPD2     N14215   1.017   0.051  11.374 -0.1739 -0.0978  0.0829
    4MPD2    H514216   1.060   0.098  11.295 -1.4366  0.8859 -0.0244
    4MPD2    N114217   0.598   4.640  11.557  0.0828  0.0059  0.5148
    4MPD2    H714218   0.663   4.577  11.604 -0.1277  0.0147  0.8132
    5TMC3    C114219   0.432   4.507  11.663 -0.3270 -0.3985  0.8236
    5TMC3    C214220   0.343   4.425  11.599 -0.7816  0.0375  0.2313
    5TMC3    C314221   0.381   4.299  11.587  0.0834 -0.2087 -0.4426
    5TMC3    C414222   0.538   4.457  11.730  0.7566  0.4114  0.1322
    5TMC3    C514223   0.576   4.331  11.706 -1.1465 -0.3704  0.4177
    5TMC3    C614224   0.491   4.251  11.643  0.5062 -0.3289 -0.4753
    5TMC3     C14225   0.462   4.631  11.590  0.4063 -0.8457 -0.0450
    5TMC3     O14226   0.373   4.693  11.534 -0.4713  0.2262  0.2021
    5TMC3     H14227   0.262   4.467  11.541  1.4164  2.9902 -0.7488
    5TMC3    H114228   0.603   4.524  11.785  0.3154  1.8014 -1.0362
    5TMC3    H214229   0.517   4.154  11.602  0.4143 -1.2776  1.7410
    5TMC3    C714230   0.719   4.320  11.674 -0.3752  0.1016 -0.0282
    5TMC3    C814231   0.291   4.204  11.516 -0.0857  0.3742  0.1720
    5TMC3    O114232   0.769   4.433  11.661 -0.7171 -0.4175 -0.2990
    5TMC3    O214233   0.299   4.089  11.557 -0.7150 -0.2809  0.2316
    6TMC3    C114234   0.961   0.374  10.408  0.2064 -0.4868  0.3436
    6TMC3    C214235   1.033   0.421  10.309  0.2591 -0.6840 -0.4693
    6TMC3    C314236   1.128   0.331  10.273 -0.0905 -0.0928  0.1068
    6TMC3    C414237   0.990   0.255  10.478  0.4084  0.1080 -0.4278
    6TMC3    C514238   1.097   0.176  10.443  0.0966  0.1117 -0.1032
    6TMC3    C614239   1.161   0.217  10.334 -0.1546 -0.0904  0.1518
    6TMC3     C14240   0.854   0.464  10.459 -0.4431 -0.8028 -0.0630
    6TMC3     O14241   0.766   0.416  10.533  0.4935 -0.0626  0.6979
    6TMC3     H14242   1.003   0.512  10.258 -1.6100 -0.6082  0.7733
    6TMC3    H114243   0.930   0.242  10.568  1.4554  0.4692  0.3181
    6TMC3    H214244   1.244   0.160  10.294 -0.7997 -1.1485  0.3206
    6TMC3    C714245   1.143   0.069  10.528  0.1053 -0.0897  0.2031
    6TMC3    C814246   1.194   0.361  10.149 -0.2530 -0.2966  0.0326
    6TMC3    O114247   1.071   0.038  10.622  0.7561  0.2169  0.6168
    6TMC3    O214248   1.303   0.311  10.137 -0.6532 -0.1174 -0.0735
    7MPD2     C14249   1.151   4.107  11.507 -0.0470 -0.6872 -0.1819
    7MPD2    C114250   1.116   4.240  11.529 -0.4516 -0.1924 -0.1930
    7MPD2    C214251   0.997   4.271  11.588 -0.1568 -0.1337  0.9279
    7MPD2    C314252   0.910   4.165  11.622 -0.8252  0.8625 -0.2172
    7MPD2    C414253   0.939   4.035  11.596  0.2011  0.7349 -0.4128
    7MPD2    C514254   1.057   4.011  11.533 -0.4324 -0.8700  0.1617
    7MPD2     H14255   0.979   4.373  11.619  1.7710  0.4454  0.1564
    7MPD2    H114256   0.860   3.962  11.603  0.6370  0.1737 -1.2970
    7MPD2    H214257   1.246   4.077  11.465 -0.1284 -1.6725  0.3352
    7MPD2    H314258   1.089   3.907  11.527  2.1509 -0.0357 -0.7105
    7MPD2     N14259   0.777   4.194  11.660  0.4420 -0.3074  0.6254
    7MPD2    H514260   0.717   4.113  11.673  0.1320  0.4139  3.6607
    7MPD2    N114261   1.191   4.348  11.484  0.2806  0.4553 -0.5789
    7MPD2    H714262   1.163   4.439  11.517  1.5129  0.3633  0.7468
    8TMC3    C114263   1.338   4.473  11.352  0.3570 -0.4607  0.0105
    8TMC3    C214264   1.332   4.483  11.215  0.6726 -0.1555  0.6840
    8TMC3    C314265   1.273   4.591  11.157  0.4833  0.0636 -0.4951
    8TMC3    C414266   1.291   4.582  11.428 -0.2858 -0.1265  0.4146
    8TMC3    C514267   1.225   4.684  11.371 -0.0844  0.4448  0.7487
    8TMC3    C614268   1.215   4.687  11.235 -0.6018 -0.2526 -0.3548
    8TMC3     C14269   1.300   4.340  11.403  0.3964  0.0660 -1.0756
    8TMC3     O14270   1.350   4.243  11.343  0.0273 -0.2797  0.3296
    8TMC3     H14271   1.368   4.404  11.149  1.8715 -0.6340  1.9186
    8TMC3    H114272   1.299   4.581  11.536  0.1504 -0.1562  0.3832
    8TMC3    H214273   1.174   0.042  11.194 -1.0210 -0.2735  0.0246
    8TMC3    C714274   1.098   4.695  11.432 -1.0638 -0.2602 -0.2546
    8TMC3    C814275   1.273   4.618  11.015  0.0585 -0.7484 -0.1890
    8TMC3    O114276   1.073   4.604  11.514  0.2627 -0.5945  0.0474
    8TMC3    O214277   1.173   4.693  10.988  0.1789 -0.1039  0.7917
    9MPD2     C14278   1.528   4.557  10.762 -0.0642 -0.7293 -0.4769
    9MPD2    C114279   1.409   4.602  10.809 -0.5109  0.2112  0.4692
    9MPD2    C214280   1.324   4.677  10.726 -0.4323 -0.1072  0.5233
    9MPD2    C314281   1.363   4.717  10.599 -0.1326  0.0813 -0.1954
    9MPD2    C414282   1.490   4.684  10.560 -0.4592 -0.7692  0.4814
    9MPD2    C514283   1.567   4.602  10.638 -0.0071 -0.7046 -0.5747
    9MPD2     H14284   1.227   4.710  10.762 -0.6088  0.0563 -0.1037
    9MPD2    H114285   1.514   4.714  10.459 -0.2648 -1.0032  0.4574
    9MPD2    H214286   1.593   4.493  10.821  1.3484  0.9475 -0.1853
    9MPD2    H314287   1.656   4.557  10.597  0.0712 -1.1592  0.1054
    9MPD2     N14288   1.278   0.052  10.515  0.0756  0.4252  0.0329
    9MPD2    H514289   1.326   0.086  10.432  2.6089 -1.5243  0.7006
    9MPD2    N114290   1.384   4.586  10.945  0.2686  0.4821 -0.1581
    9MPD2    H714291   1.456   4.540  10.999  0.5081  0.4168 -0.5361
    1MPD1     C14292   0.687   3.367  16.525 -0.2984 -0.2281 -1.0984
    1MPD1    C114293   0.613   3.368  16.643  0.5909 -0.5304 -0.3331
    1MPD1    C214294   0.535   3.253  16.673  0.2814  0.1306  0.1813
    1MPD1    C314295   0.572   3.134  16.614 -0.4498  0.6491  0.2377
    1MPD1    C414296   0.666   3.131  16.515  0.4057  0.0343  0.2233
    1MPD1    C514297   0.725   3.248  16.477 -0.5140  0.0030  0.3802
    1MPD1     H14298   0.449   3.261  16.739 -1.0126 -2.9954 -1.1278
    1MPD1    H114299   0.707   3.033  16.493 -0.6560 -0.7389  1.6793
    1MPD1    H214300   0.745   3.452  16.489 -1.1837  0.5895 -0.6048
    1MPD1    H314301   0.796   3.243  16.396 -0.6834 -0.5008  0.2626
    1MPD1     N14302   0.494   3.026  16.629  0.1862 -0.0251  0.2048
    1MPD1    H514303   0.508   2.966  16.549 -1.2304  0.3168 -0.2969
    1MPD1    N114304   0.587   3.493  16.698 -0.0093 -0.5496  0.5840
    1MPD1    H614305   0.669   3.553  16.698 -0.0444 -0.5055 -0.6215
    1MPD1    H714306   0.547   3.493  16.792 -0.3076  1.3742  0.4627
    2TMC2    C114307   0.225   2.731  16.534  0.2265  0.3216  0.8280
    2TMC2    C214308   0.138   2.677  16.627  0.2923 -0.5325 -0.4483
    2TMC2    C314309   0.165   2.715  16.758  0.1499 -0.0460  0.6545
    2TMC2    C414310   0.324   2.827  16.565 -0.2495 -0.0930 -0.7005
    2TMC2    C514311   0.334   2.874  16.696 -0.7981  1.0832 -0.4445
    2TMC2    C614312   0.249   2.821  16.788  0.2361  0.2594  0.0414
    2TMC2     C14313   0.260   2.632  16.436  0.3225 -0.4308 -0.0198
    2TMC2     O14314   0.232   2.516  16.456  0.2334 -0.1029  0.2680
    2TMC2     H14315   0.068   2.598  16.604 -0.1013  0.0009 -1.1055
    2TMC2    H114316   0.395   2.868  16.493  1.3318 -1.1479  0.2447
    2TMC2    H214317   0.250   2.867  16.886 -0.1619 -1.0368  0.6558
    2TMC2    C714318   0.398   2.998  16.728  0.2647  0.0096 -0.8164
    2TMC2    C814319   0.045   2.705  16.842 -0.1881 -0.3021 -0.9806
    2TMC2    O114320   0.373   3.047  16.835 -0.5627  0.4163 -0.0293
    2TMC2    O214321   4.713   2.799  16.882 -0.2649  0.4158  0.3891
    2TMC2    O514322   4.729   2.579  16.829 -0.2117 -0.5068 -0.5520
    2TMC2    H514323   0.063   2.520  16.792  0.3847  0.1725 -0.4992
    3MPD1     C14324   0.436   2.492  15.991 -0.6682 -0.0270 -0.0246
    3MPD1    C114325   0.362   2.414  16.078 -0.0698  0.8847 -0.2290
    3MPD1    C214326   0.329   2.481  16.196  0.3674  0.6294 -0.5803
    3MPD1    C314327   0.374   2.607  16.226  0.3005  0.4775 -0.8499
    3MPD1    C414328   0.450   2.678  16.135  0.4971  0.4688 -0.6638
    3MPD1    C514329   0.479   2.620  16.020 -0.0601 -0.5908  0.1195
    3MPD1     H14330   0.269   2.421  16.263  1.1939  1.4790  0.9298
    3MPD1    H114331   0.482   2.780  16.157 -2.0865  1.2717 -0.6206
    3MPD1    H214332   0.455   2.459  15.890  0.2187 -0.6446  0.3437
    3MPD1    H314333   0.532   2.674  15.942  0.4331  0.0268  0.8835
    3MPD1     N14334   0.333   2.681  16.334 -0.6564 -0.2759  0.1129
    3MPD1    H514335   0.357   2.780  16.334  1.1520 -0.7013  1.0796
    3MPD1    N114336   0.297   2.301  16.030 -0.5077  0.2918 -0.1731
    3MPD1    H614337   0.281   2.230  16.101 -1.6018  2.4454  1.7456
    3MPD1    H714338   0.352   2.253  15.959 -1.5083  0.0310 -0.7761
    1TMC1    C114339   3.526   2.260  13.089  0.1167 -0.1888 -0.4532
    1TMC1    C214340   3.486   2.140  13.149  0.1762  0.4428 -0.7434
    1TMC1    C314341   3.368   2.088  13.103  0.1712 -0.0248 -0.4952
    1TMC1    C414342   3.445   2.327  13.000  0.8156  0.2298  0.0238
    1TMC1    C514343   3.335   2.263  12.953 -0.6417 -0.1475 -1.0068
    1TMC1    C614344   3.290   2.149  13.004  0.2606  0.1736  0.5246
    1TMC1     C14345   3.624   2.348  13.164 -0.0429  0.4819 -0.0294
    1TMC1     O14346   3.661   2.454  13.112 -0.1099  0.7889 -0.1779
    1TMC1     H14347   3.560   2.077  13.196  1.6400  1.7359 -1.3474
    1TMC1    H114348   3.469   2.431  12.978 -1.5479  0.9290  0.7740
    1TMC1    H214349   3.217   2.086  12.955 -0.2425  0.9541  0.2848
    1TMC1    C714350   3.245   2.323  12.860  0.1111 -0.1964 -0.2238
    1TMC1    C814351   3.348   1.943  13.125  0.4034 -0.2230  0.0453
    1TMC1    O114352   3.127   2.292  12.859 -1.0810  0.2241 -0.5071
    1TMC1    O214353   3.256   1.878  13.079  0.0301  0.7860 -0.6224
    1TMC1    O314354   3.303   2.434  12.814  0.1806  0.4444  0.6737
    1TMC1    H314355   3.400   2.425  12.800 -0.5348 -2.9681 -2.1977
    1TMC1    O514356   3.393   1.918  13.252  0.6971  0.0728  0.1740
    1TMC1    H514357   3.460   1.980  13.288  0.0568  1.0914 -0.3786
    2MPD2     C14358   3.888   2.381  13.288  0.0909  0.6281 -0.3871
    2MPD2    C114359   3.776   2.338  13.346 -0.3596 -0.1529 -0.6299
    2MPD2    C214360   3.776   2.316  13.484 -0.1399  1.1462  0.4278
    2MPD2    C314361   3.894   2.336  13.558  0.1983  0.5148 -0.5110
    2MPD2    C414362   4.002   2.391  13.490  0.2113  0.3715 -0.6934
    2MPD2    C514363   3.999   2.419  13.355  0.4329 -0.7054 -0.7311
    2MPD2     H14364   3.687   2.278  13.532  0.5934 -2.5479 -1.1676
    2MPD2    H114365   4.099   2.409  13.535 -0.2863  1.8313 -0.2174
    2MPD2    H214366   3.898   2.379  13.180 -2.4832  0.4399 -0.6246
    2MPD2    H314367   4.085   2.460  13.304  0.6099 -1.5885 -1.1411
    2MPD2     N14368   3.890   2.291  13.693 -0.1476  0.4704 -0.2132
    2MPD2    H514369   3.811   2.234  13.723 -1.3272  0.9210 -2.4792
    2MPD2    N114370   3.667   2.295  13.276  0.4076 -0.0130  0.8136
    2MPD2    H714371   3.605   2.221  13.309  2.1033 -1.6097  0.3872
    3TCq1    O114372   3.756   1.906  14.118 -0.1532  0.2599  0.1805
    3TCq1    C114373   3.744   2.016  14.046  1.0361  0.6126 -0.2107
    3TCq1    O214374   3.650   2.091  14.039  0.4555 -0.4264  0.8241
    3TCq1    C214375   3.881   2.059  14.018 -0.6800 -0.0640 -0.1337
    3TCq1    C314376   3.992   1.982  14.047  0.5348  0.8807  0.2177
    3TCq1    C414377   4.111   2.015  13.985  0.6295 -0.5048 -0.0887
    3TCq1    C514378   4.117   2.125  13.908  0.3227 -0.1604 -0.6953
    3TCq1    C614379   4.004   2.195  13.872 -0.0242 -0.7879  0.2809
    3TCq1    C714380   3.884   2.160  13.935 -0.0167 -0.8346  0.0087
    3TCq1    C814381   4.006   2.295  13.771 -0.1264 -0.7393 -0.4408
    3TCq1    O414382   4.104   2.367  13.767 -0.0645 -0.0257  0.2157
    3TCq1    C914383   4.233   1.956  14.033 -0.6823 -0.3102  0.1578
    3TCq1    O514384   4.343   2.012  14.005 -0.2669  0.2207  0.3820
    3TCq1    O614385   4.214   1.837  14.064 -0.3059 -0.3917  0.6186
    3TCq1    H114386   3.834   1.848  14.102 -0.1032  0.2941  0.2965
    3TCq1    H214387   4.003   1.928  14.141 -4.5076  0.7352  0.7314
    3TCq1    H314388   4.212   2.140  13.858  0.5616 -0.0240 -0.1943
    3TCq1    H414389   3.791   2.211  13.910  1.3362  1.0694 -1.0532
    1MPD2     C14390   2.223   3.535  14.697  0.1454 -0.2120 -0.2128
    1MPD2    C114391   2.194   3.491  14.825  0.0346 -0.3552  0.3158
    1MPD2    C214392   2.079   3.412  14.850 -0.1978 -1.0213 -0.3650
    1MPD2    C314393   1.986   3.395  14.752  0.0985  0.3028  0.3519
    1MPD2    C414394   2.021   3.428  14.620  0.2141  0.7575  0.2291
    1MPD2    C514395   2.142   3.496  14.596  0.7124 -0.0166  0.1027
    1MPD2     H14396   2.050   3.382  14.950  0.5309 -0.9832 -0.1382
    1MPD2    H114397   1.957   3.402  14.537  1.2440 -0.3444 -0.2125
    1MPD2    H214398   2.309   3.596  14.671  0.5602 -0.2889  1.0027
    1MPD2    H314399   2.172   3.522  14.495 -0.9436 -1.8804 -0.8685
    1MPD2     N14400   1.863   3.343  14.801  0.0813  0.4003  0.2263
    1MPD2    H514401   1.860   3.317  14.899 -0.9542  0.8664  0.3184
    1MPD2    N114402   2.282   3.536  14.925 -0.7266 -0.4418  0.2730
    1MPD2    H714403   2.355   3.603  14.902 -0.7130 -0.8330 -0.8462
    2TMC3    C114404   2.359   3.564  15.145  0.3090 -0.0251 -0.7847
    2TMC3    C214405   2.369   3.511  15.268  0.5306 -0.3122  0.0941
    2TMC3    C314406   2.366   3.592  15.381 -0.0898 -0.3365 -0.2651
    2TMC3    C414407   2.352   3.701  15.135  0.6602  0.4045 -0.0734
    2TMC3    C514408   2.355   3.778  15.246 -1.1517 -0.5148 -0.5406
    2TMC3    C614409   2.362   3.732  15.374 -0.1787 -0.1042  0.3067
    2TMC3     C14410   2.274   3.492  15.056 -0.2924 -0.7885  0.3714
    2TMC3     O14411   2.220   3.390  15.107  0.5140 -0.3430 -0.4199
    2TMC3     H14412   2.375   3.403  15.277  0.9626 -0.2818  0.1914
    2TMC3    H114413   2.341   3.750  15.039 -0.3047 -0.9603 -0.6574
    2TMC3    H214414   2.351   3.790  15.464  1.9574  1.0000 -0.1431
    2TMC3    C714415   2.400   3.908  15.229 -0.4434  0.6412  0.2373
    2TMC3    C814416   2.261   3.547  15.466  0.3068  0.2494 -0.3121
    2TMC3    O114417   2.343   3.999  15.289  0.4977  0.6278 -0.1652
    2TMC3    O214418   2.255   3.585  15.582 -0.1833 -0.8828  0.9203
    3TCq1    O114419   3.147   4.090  14.328  0.3752 -0.1154 -0.1364
    3TCq1    C114420   3.185   3.966  14.370 -0.1786  0.4662 -0.0864
    3TCq1    O214421   3.256   3.885  14.312 -0.3197  0.2188  0.0948
    3TCq1    C214422   3.148   3.962  14.510 -0.3798 -0.4606 -0.0115
    3TCq1    C314423   3.236   3.888  14.586  0.7073 -0.3431  0.1802
    3TCq1    C414424   3.221   3.893  14.723  0.3992  0.1896 -0.0950
    3TCq1    C514425   3.125   3.968  14.776 -0.4994  0.3151  0.3329
    3TCq1    C614426   3.043   4.047  14.700 -0.4498  0.5609 -0.3152
    3TCq1    C714427   3.058   4.051  14.566 -0.7272 -0.0380 -0.1511
    3TCq1    C814428   2.926   4.111  14.752  0.5112  0.5406 -0.0860
    3TCq1    O414429   2.878   4.206  14.687 -0.3413 -0.2170  0.0210
    3TCq1    C914430   3.307   3.811  14.809 -0.0539  0.4349 -0.1122
    3TCq1    O514431   3.314   3.843  14.933 -0.2894  0.6751  0.1108
    3TCq1    O614432   3.330   3.694  14.763 -0.1148  0.2103 -0.0379
    3TCq1    H114433   3.111   4.133  14.409  0.9286  1.5885 -0.8169
    3TCq1    H214434   3.307   3.821  14.539 -0.8225  0.0386 -2.6232
    3TCq1    H314435   3.118   3.981  14.884 -0.0107 -0.5302  0.4667
    3TCq1    H414436   2.975   4.087  14.505 -0.8113 -0.6802 -0.4145
    4MPD2     C14437   2.715   4.214  14.938 -0.1198 -0.5773  0.6624
    4MPD2    C114438   2.751   4.081  14.920  0.1460  0.0539 -1.2150
    4MPD2    C214439   2.683   3.984  14.985  0.8725 -0.4186 -0.7230
    4MPD2    C314440   2.575   4.011  15.066 -0.2087  0.9483 -0.4186
    4MPD2    C414441   2.532   4.137  15.083  0.3210 -0.2235 -0.1248
    4MPD2    C514442   2.609   4.237  15.026 -0.2046  0.2303 -0.4965
    4MPD2     H14443   2.713   3.882  14.965  1.6281 -0.2664 -0.3703
    4MPD2    H114444   2.458   4.156  15.160  0.6321 -2.0529  0.6361
    4MPD2    H214445   2.776   4.291  14.893 -0.2762 -1.7624 -1.5859
    4MPD2    H314446   2.584   4.336  15.062  1.6736  0.3304  0.5252
    4MPD2     N14447   2.504   3.900  15.135  0.4648  0.4707  0.2339
    4MPD2    H514448   2.542   3.808  15.115 -0.4692 -0.0133  0.6627
    4MPD2    N114449   2.869   4.037  14.847 -0.1945  0.1515 -0.5474
    4MPD2    H714450   2.902   3.943  14.868 -0.1459  0.1655 -0.5603
    5TMC2    C114451   1.666   3.228  15.043  0.4348  0.7792 -1.1280
    5TMC2    C214452   1.559   3.307  15.065  0.7218 -0.4004  0.4157
    5TMC2    C314453   1.495   3.344  14.950 -0.1813  0.0477  0.3356
    5TMC2    C414454   1.710   3.189  14.915  0.9402 -0.1828 -0.7410
    5TMC2    C514455   1.653   3.245  14.807 -0.8432 -0.4466  0.4911
    5TMC2    C614456   1.541   3.325  14.823  0.2497 -0.4803  0.3644
    5TMC2     C14457   1.775   3.240  15.139 -0.3171  0.1102  0.0023
    5TMC2     O14458   1.883   3.246  15.082  0.1789  0.1913  0.3606
    5TMC2     H14459   1.523   3.337  15.163  1.3252 -2.9844  1.4468
    5TMC2    H114460   1.795   3.122  14.908  0.8136 -0.3070 -1.1284
    5TMC2    H214461   1.502   3.391  14.746  0.5124  0.6629  1.2132
    5TMC2    C714462   1.752   3.316  14.730 -0.1446  0.5301  0.8391
    5TMC2    C814463   1.379   3.432  14.969 -0.0089 -0.2950  0.4301
    5TMC2    O114464   1.717   3.365  14.627 -0.3475  0.2229 -0.1157
    5TMC2    O214465   1.376   3.516  15.058 -0.5211 -0.4723  0.4491
    5TMC2    O514466   1.296   3.440  14.862  0.3705  0.5075  0.1915
    5TMC2    H514467   1.286   3.353  14.817  0.1071  0.0862  1.0617
    6MPD2     C14468   2.003   3.422  15.560  0.1371  0.0571  0.3988
    6MPD2    C114469   2.049   3.423  15.432  0.0930  0.9515  0.4429
    6MPD2    C214470   1.960   3.367  15.338 -0.3540 -0.2942  0.4078
    6MPD2    C314471   1.836   3.311  15.370  0.5268 -0.8201  0.1789
    6MPD2    C414472   1.796   3.302  15.503 -0.8605  0.2762 -0.5749
    6MPD2    C514473   1.885   3.362  15.594  0.6089  0.0140  0.3569
    6MPD2     H14474   1.993   3.376  15.235 -0.7341 -0.3237  0.2808
    6MPD2    H114475   1.696   3.270  15.532  0.2614 -1.5363  1.2531
    6MPD2    H214476   2.058   3.476  15.636 -1.0494  1.2474  0.4136
    6MPD2    H314477   1.860   3.362  15.700 -0.5158 -3.1866  0.0960
    6MPD2     N14478   1.742   3.269  15.270 -0.9123  0.0987 -0.2335
    6MPD2    H514479   1.646   3.257  15.302 -0.7253 -0.5549  0.0928
    6MPD2    N114480   2.169   3.477  15.390 -0.2109 -0.3729 -0.1134
    6MPD2    H714481   2.177   3.480  15.289 -1.9373  0.3870 -0.2325
  945NH4     N114482   3.847   1.616   1.378  0.1837 -0.1279 -0.1634
  945NH4     H214483   3.839   1.705   1.433 -1.7740  0.0367 -0.7122
  945NH4     H314484   3.798   1.535   1.421  0.1359  0.5450  1.0776
  945NH4     H414485   3.949   1.596   1.375  0.8455  2.7293  2.1769
  945NH4     H514486   3.806   1.643   1.286  0.0045  0.9660  0.2382
  946SOD     NA14487   1.927   4.649   8.487  0.0884  0.0343 -0.1419
  947SOD     NA14488   2.329   3.004  14.604  0.0733 -0.0276 -0.2161
  948SOD     NA14489   1.745   0.460  13.983 -0.4539 -0.0672 -0.1874
  949SOD     NA14490   2.115   0.509   3.217  0.1841 -0.3293 -0.0807
  950SOD     NA14491   3.274   1.440  11.465 -0.5075 -0.1366  0.0744
  951SOD     NA14492   2.555   3.786  11.247 -0.3155  0.2901 -0.2282
  952SOD     NA14493   3.663   0.222  10.579 -0.0873  0.1498  0.0577
  953SOL     OW14494   2.504   1.336   9.007 -0.3330  0.8222  0.2300
  953SOL    HW114495   2.453   1.396   8.952  2.4038  0.7603 -2.3201
  953SOL    HW214496   2.430   1.277   9.020 -0.9338  1.2390 -1.2388
  954SOL     OW14497   2.097   3.814   2.362  0.2660  0.6510  0.1958
  954SOL    HW114498   2.155   3.782   2.431 -0.5025  1.4568  1.1997
  954SOL    HW214499   2.103   3.744   2.296  1.0314  0.2686  0.6774
  955SOL     OW14500   0.214   1.637   7.376  0.2321 -0.0605  0.2279
  955SOL    HW114501   0.119   1.635   7.359  0.2319 -0.1009  0.2348
  955SOL    HW214502   0.196   1.625   7.469 -1.3952 -1.3449 -0.2385
  956SOL     OW14503   4.122   1.165   2.491  0.1728  0.4829 -0.6948
  956SOL    HW114504   4.184   1.105   2.450 -0.6529 -0.8236 -0.0436
  956SOL    HW214505   4.036   1.131   2.468 -0.4694 -0.3569  2.9755
  957SOL     OW14506   0.011   4.423   0.156 -0.5006 -0.4749  0.3147
  957SOL    HW114507   4.669   4.435   0.209  0.0935 -2.7129  1.7295
  957SOL    HW214508   0.019   4.508   0.112 -2.1222 -1.0213 -1.0417
  958SOL     OW14509   3.457   1.739   2.311  0.0187  0.1849 -0.4702
  958SOL    HW114510   3.446   1.834   2.311  1.2823  0.3384 -0.6695
  958SOL    HW214511   3.547   1.720   2.338 -0.1895  0.1670  0.2085
  959SOL     OW14512   2.900   0.789   2.020  0.0930  0.0114  0.0362
  959SOL    HW114513   2.965   0.725   1.991  1.0199  1.3881 -0.9095
  959SOL    HW214514   2.819   0.741   2.001 -1.1872  1.6036  1.5068
  960SOL     OW14515   0.754   2.719   5.752 -0.0990  0.2004 -0.0248
  960SOL    HW114516   0.709   2.799   5.723 -0.2482 -0.0658 -0.5362
  960SOL    HW214517   0.684   2.684   5.808 -0.3498  0.1659 -0.3585
  961SOL     OW14518   4.371   1.060   6.155 -0.5193 -0.1943  0.1059
  961SOL    HW114519   4.456   1.090   6.186 -0.4365  0.9860 -1.2364
  961SOL    HW214520   4.386   1.007   6.077  0.9998  1.1742 -0.5201
  962SOL     OW14521   1.445   2.543  15.936  0.2907  1.0545 -0.1189
  962SOL    HW114522   1.359   2.514  15.905  0.0020 -1.1241  2.7384
  962SOL    HW214523   1.507   2.484  15.892  0.4225  1.8560 -1.0004
  963SOL     OW14524   4.323   1.732  14.269  0.4177 -0.5775  0.0189
  963SOL    HW114525   4.287   1.771  14.190 -0.0701 -0.3000  0.3814
  963SOL    HW214526   4.263   1.659  14.281  0.3153  0.0932  3.7715
  964SOL     OW14527   4.058   2.538   2.066  0.0128 -0.0465 -0.3957
  964SOL    HW114528   4.153   2.535   2.061  0.0699  1.1958 -0.0711
  964SOL    HW214529   4.040   2.620   2.019 -0.5878 -0.2887 -0.5907
  965SOL     OW14530   2.973   0.251  10.418 -0.1643 -0.2321  0.3420
  965SOL    HW114531   3.030   0.177  10.441  0.2809  0.2301  0.7219
  965SOL    HW214532   2.930   0.267  10.502 -0.7699 -1.2576  0.2279
  966SOL     OW14533   4.013   2.915   7.747 -0.4668 -0.6107 -0.0700
  966SOL    HW114534   4.001   2.850   7.815  0.1825 -1.6481 -0.9458
  966SOL    HW214535   4.108   2.912   7.733 -0.4020 -3.1915  0.9110
  967SOL     OW14536   0.940   3.864   2.305  0.3132  0.0100 -0.0172
  967SOL    HW114537   0.857   3.831   2.271  0.7824  1.3952 -2.4670
  967SOL    HW214538   0.908   3.944   2.347  2.3345  0.3806  0.8319
  968SOL     OW14539   4.070   4.146   7.556  0.4017  0.3133  0.0483
  968SOL    HW114540   4.008   4.163   7.486  0.1420 -2.1331 -0.3074
  968SOL    HW214541   4.158   4.128   7.525  1.0829 -2.8475  3.7773
  969SOL     OW14542   0.901   0.513   8.608 -0.2267 -0.2323 -0.1001
  969SOL    HW114543   0.993   0.526   8.631 -0.7297 -0.1271  1.8765
  969SOL    HW214544   0.881   0.430   8.653  1.0945  0.6323  2.0928
  970SOL     OW14545   2.162   1.905   1.795 -0.4903  0.1077 -0.5178
  970SOL    HW114546   2.165   1.927   1.888  0.6950 -0.2051 -0.4807
  970SOL    HW214547   2.236   1.845   1.804  0.5921  1.5044 -0.0763
  971SOL     OW14548   3.710   4.467  17.033 -0.1247  0.6970 -0.5882
  971SOL    HW114549   3.743   4.380  17.010  0.5295  1.1239 -1.2625
  971SOL    HW214550   3.783   4.527  17.020 -0.5353  1.1746 -0.6895
  972SOL     OW14551   3.006   1.517  10.233 -0.0664 -1.1145 -0.0806
  972SOL    HW114552   2.955   1.473  10.301 -0.8904 -1.3082 -0.8373
  972SOL    HW214553   3.092   1.476  10.244  0.4944 -0.1986 -1.1129
  973SOL     OW14554   1.547   1.645   7.015  0.0333 -0.1446 -0.7084
  973SOL    HW114555   1.544   1.732   7.053 -0.3852 -0.9030  0.9932
  973SOL    HW214556   1.542   1.667   6.922 -0.4577 -1.1285 -0.9158
  974SOL     OW14557   4.552   3.482  13.007  0.3010 -0.1123  0.1651
  974SOL    HW114558   4.558   3.414  13.075  2.0513 -3.1992 -3.0615
  974SOL    HW214559   4.516   3.554  13.058  2.9026 -0.8617  3.1043
  975SOL     OW14560   3.717   4.457  14.507 -0.8555 -0.0029  0.4125
  975SOL    HW114561   3.689   4.377  14.463  1.2983 -0.3262 -0.3405
  975SOL    HW214562   3.789   4.487  14.451 -1.1166 -1.8973 -0.9604
  976SOL     OW14563   3.565   1.030   3.900 -0.2001 -0.6238 -0.0635
  976SOL    HW114564   3.637   1.057   3.844 -0.2142  3.5756  1.9595
  976SOL    HW214565   3.504   1.103   3.892 -0.6047 -0.7862  1.4028
  977SOL     OW14566   4.427   1.316   5.816  0.4012  0.4914  0.0400
  977SOL    HW114567   4.363   1.312   5.745 -0.6456  1.6662  0.9359
  977SOL    HW214568   4.513   1.321   5.773  1.4103 -0.8264  1.8766
  978SOL     OW14569   0.374   4.518   7.246 -0.1112  0.5813 -0.3172
  978SOL    HW114570   0.421   4.522   7.162 -0.9732 -1.1258 -0.8655
  978SOL    HW214571   0.429   4.466   7.305  0.3591 -0.8434 -1.9844
  979SOL     OW14572   2.891   1.596   5.481 -0.8690  0.5145  0.3568
  979SOL    HW114573   2.847   1.618   5.398 -2.4745 -3.2044  0.1733
  979SOL    HW214574   2.889   1.500   5.487  0.0903  0.4716  0.0157
  980SOL     OW14575   2.743   3.268   5.843  0.4187  0.1895 -0.4268
  980SOL    HW114576   2.769   3.192   5.790  1.3084  0.4163 -0.3143
  980SOL    HW214577   2.767   3.227   5.926 -0.1151  0.3457 -0.1963
  981SOL     OW14578   3.226   3.963   4.277  0.4057 -0.0105  0.0883
  981SOL    HW114579   3.316   3.932   4.266  1.2237  2.8970 -1.5132
  981SOL    HW214580   3.237   4.054   4.307  0.7999 -0.0667  0.1118
  982SOL     OW14581   4.707   4.207   5.879 -0.2371 -0.0865  0.1052
  982SOL    HW114582   4.624   4.233   5.838  0.2279 -1.1124 -1.4897
  982SOL    HW214583   4.709   4.257   5.960  0.1720 -0.1293  0.1197
  983SOL     OW14584   3.760   2.783   0.683 -0.2929  0.0741 -0.1079
  983SOL    HW114585   3.725   2.695   0.698 -2.1286  0.6479 -0.9669
  983SOL    HW214586   3.823   2.789   0.755 -1.9396 -0.9985  1.4330
  984SOL     OW14587   0.719   4.315   5.872  0.4622 -0.3499  0.2036
  984SOL    HW114588   0.662   4.267   5.812  2.8101 -1.0023 -1.5093
  984SOL    HW214589   0.738   4.249   5.939  2.4691  0.6419  0.5942
  985SOL     OW14590   1.374   2.326   7.339 -0.4912 -0.4886  0.1725
  985SOL    HW114591   1.465   2.304   7.319 -0.4787 -1.8120  1.6722
  985SOL    HW214592   1.374   2.288   7.427  1.0549  2.0480  1.2917
  986SOL     OW14593   2.734   3.078  11.231 -0.6432  0.4972 -0.0953
  986SOL    HW114594   2.785   3.020  11.175  1.3733  1.0529  1.1376
  986SOL    HW214595   2.764   3.164  11.203  0.1023  1.0562  2.3563
  987SOL     OW14596   2.162   3.942   6.852 -0.3723  0.0073 -0.1747
  987SOL    HW114597   2.136   4.033   6.864  0.2588  0.3685 -1.5427
  987SOL    HW214598   2.128   3.904   6.933  0.7973 -0.6859 -0.0137
  988SOL     OW14599   1.520   3.719  16.639  0.0393  0.3830 -0.1519
  988SOL    HW114600   1.520   3.814  16.625  2.9305  0.0232 -2.4760
  988SOL    HW214601   1.511   3.722  16.734 -0.5773 -0.4959 -0.1824
  989SOL     OW14602   4.278   0.108  11.756  0.6669 -0.2495 -0.1788
  989SOL    HW114603   4.288   0.107  11.661  2.2574  1.8827 -0.0317
  989SOL    HW214604   4.330   0.033  11.784 -0.2914 -0.7063  0.4140
  990SOL     OW14605   3.064   4.244   5.667  0.5230  0.5857 -0.0362
  990SOL    HW114606   2.988   4.301   5.653 -0.1709 -0.8167 -1.9869
  990SOL    HW214607   3.130   4.312   5.679 -0.3042  0.9404  2.5191
  991SOL     OW14608   0.491   4.041   3.008 -0.6820 -0.3186  0.2572
  991SOL    HW114609   0.402   4.019   3.034 -0.5578 -0.6198  0.4285
  991SOL    HW214610   0.513   4.001   2.924  2.1051  0.3220  0.6752
  992SOL     OW14611   3.429   3.114   3.147  0.5529  0.4797 -0.2626
  992SOL    HW114612   3.337   3.090   3.162  0.1990  2.2902  0.4661
  992SOL    HW214613   3.469   3.149   3.227  2.3230  2.1297 -1.8836
  993SOL     OW14614   1.647   1.486  16.588 -0.1540  0.4092  0.2786
  993SOL    HW114615   1.557   1.505  16.614  0.5497  1.3404  2.0824
  993SOL    HW214616   1.678   1.418  16.648  3.6228  0.0057 -2.1353
  994SOL     OW14617   0.076   0.386   2.783 -1.1254  0.7112 -0.1216
  994SOL    HW114618   0.084   0.440   2.704  1.5939  2.5612  1.4497
  994SOL    HW214619   0.022   0.448   2.832 -1.0493  0.0125  0.8373
  995SOL     OW14620   1.861   0.341  17.139 -1.0614 -0.4841  0.3856
  995SOL    HW114621   1.846   0.423  17.186 -0.6877  0.1132 -0.5326
  995SOL    HW214622   1.775   0.300  17.141 -1.2137 -0.2633 -1.7238
  996SOL     OW14623   2.479   0.339   0.834  0.1994  0.4864 -0.5680
  996SOL    HW114624   2.516   0.402   0.772  1.3066 -0.1388 -0.5272
  996SOL    HW214625   2.534   0.261   0.834 -1.0094 -0.3557 -2.9516
  997SOL     OW14626   0.620   0.905   3.778  0.1169 -0.4281 -0.4996
  997SOL    HW114627   0.610   0.915   3.683  0.9915  0.1348 -0.5360
  997SOL    HW214628   0.622   0.993   3.815  1.6614  0.1017 -1.8393
  998SOL     OW14629   2.258   3.202   3.528  0.3673 -0.2223 -0.3207
  998SOL    HW114630   2.277   3.234   3.440  1.1848 -1.1378 -0.4763
  998SOL    HW214631   2.169   3.234   3.540  0.7804  1.0619 -0.7409
  999SOL     OW14632   1.004   0.536  12.500  0.2752  0.6224 -0.3608
  999SOL    HW114633   1.030   0.628  12.494 -0.1729  0.7366 -0.4961
  999SOL    HW214634   1.034   0.509  12.587  0.7595 -1.5656 -1.1906
 1000SOL     OW14635   0.037   3.275   4.061 -0.2047  0.4134  0.1600
 1000SOL    HW114636   0.015   3.284   4.154  1.8683 -0.5577  0.7418
 1000SOL    HW214637   0.046   3.180   4.060  0.7502  0.4968  0.3095
 1001SOL     OW14638   0.188   1.842   8.513  0.6862 -0.2038 -0.2571
 1001SOL    HW114639   0.256   1.894   8.556  1.7530  0.2219 -2.4765
 1001SOL    HW214640   0.195   1.885   8.428 -1.0311 -0.8884 -0.7426
 1002SOL     OW14641   1.052   1.295   1.591 -0.2384  0.0885  0.4170
 1002SOL    HW114642   1.044   1.312   1.497 -1.2041  0.7764  0.6200
 1002SOL    HW214643   1.043   1.199   1.596  2.3501  0.0107  3.4857
 1003SOL     OW14644   2.328   1.396   7.334  0.3447 -0.0991 -0.1378
 1003SOL    HW114645   2.407   1.445   7.356  0.3557 -0.8257  1.4179
 1003SOL    HW214646   2.322   1.338   7.409 -1.8646  0.8645  0.4125
 1004SOL     OW14647   2.437   1.032  12.060 -0.1163 -0.2972 -0.0463
 1004SOL    HW114648   2.395   0.951  12.030  3.2072 -1.2120 -2.2559
 1004SOL    HW214649   2.465   1.068  11.976  0.1041 -2.2508 -0.8106
 1005SOL     OW14650   3.849   2.143  11.649  0.2220  0.2839  0.7393
 1005SOL    HW114651   3.868   2.072  11.588 -2.7163 -0.8366  1.0933
 1005SOL    HW214652   3.763   2.163  11.613  1.0535  0.5693 -1.0866
 1006SOL     OW14653   1.619   4.404   4.337  0.2149 -0.2213  0.6095
 1006SOL    HW114654   1.559   4.415   4.411 -0.9533  0.9607 -0.4958
 1006SOL    HW214655   1.561   4.382   4.264 -0.0649  0.3906  0.6457
 1007SOL     OW14656   3.456   3.330   3.716  0.2325 -0.1363 -0.4025
 1007SOL    HW114657   3.527   3.291   3.767  0.4906  2.1463  0.9899
 1007SOL    HW214658   3.431   3.406   3.769 -1.9196  0.0808 -1.7327
 1008SOL     OW14659   2.369   0.330   8.773 -0.1287  0.3201  0.0468
 1008SOL    HW114660   2.290   0.382   8.753  0.3287  1.2064  0.5405
 1008SOL    HW214661   2.442   0.392   8.766  1.3369 -1.5369 -0.9785
 1009SOL     OW14662   3.074   1.947   9.458 -0.1405  0.7088 -0.5257
 1009SOL    HW114663   3.128   1.961   9.536 -0.4756 -0.0557 -0.1565
 1009SOL    HW214664   2.998   1.898   9.490  2.0366 -2.0352  0.4988
 1010SOL     OW14665   0.035   0.749   6.548 -0.1224 -0.2011 -0.2384
 1010SOL    HW114666   0.095   0.760   6.475  2.1062 -1.7494  1.3836
 1010SOL    HW214667   4.693   0.720   6.500 -1.0225  0.4604  0.8237
 1011SOL     OW14668   0.241   0.890   2.138 -0.2423 -0.4251  0.5791
 1011SOL    HW114669   0.221   0.852   2.223 -1.9188  2.2872  1.4049
 1011SOL    HW214670   0.294   0.815   2.112  2.1766  1.1652  0.9939
 1012SOL     OW14671   0.277   2.971   1.604 -0.3723 -0.1712  0.0670
 1012SOL    HW114672   0.297   3.061   1.631 -0.7027  0.3470 -1.4173
 1012SOL    HW214673   0.225   2.946   1.680 -2.9077 -0.5296 -1.7935
 1013SOL     OW14674   2.871   3.611   8.367 -0.0375  0.1088  0.0616
 1013SOL    HW114675   2.921   3.616   8.286  0.0915  2.0528  0.2435
 1013SOL    HW214676   2.829   3.525   8.370  1.3492 -0.5276  1.1228
 1014SOL     OW14677   3.191   3.848   4.648  0.0624  0.3276  0.2628
 1014SOL    HW114678   3.197   3.795   4.569  0.6982  0.6333  0.1039
 1014SOL    HW214679   3.139   3.923   4.617 -1.2298 -0.8463 -0.4027
 1015SOL     OW14680   0.583   2.487   5.737  0.2501  0.4562  0.2204
 1015SOL    HW114681   0.677   2.472   5.747  0.3668 -0.1139 -1.7169
 1015SOL    HW214682   0.549   2.411   5.784  0.2299  0.6021  0.4395
 1016SOL     OW14683   0.037   1.247   6.603 -0.2344  0.2313  0.0987
 1016SOL    HW114684   0.035   1.335   6.642 -2.9200  0.0861  0.2847
 1016SOL    HW214685   0.016   1.265   6.511  1.2164  1.1151 -0.0692
 1017SOL     OW14686   1.311   0.701   7.167 -0.1809  0.3286  0.6013
 1017SOL    HW114687   1.284   0.788   7.138  2.1287 -0.2499 -3.1655
 1017SOL    HW214688   1.222   0.664   7.170  0.9990 -2.6413 -1.0837
 1018SOL     OW14689   2.923   3.855   3.476 -0.2616 -0.1177  0.3813
 1018SOL    HW114690   2.990   3.890   3.418  0.1683 -0.1847  0.8354
 1018SOL    HW214691   2.954   3.765   3.488  0.3528 -0.1366 -1.3435
 1019SOL     OW14692   1.183   0.536   5.580  0.2652  0.3999 -0.0529
 1019SOL    HW114693   1.254   0.551   5.517  0.0102 -0.2481 -0.4826
 1019SOL    HW214694   1.158   0.447   5.558  1.9070 -0.2338  0.6457
 1020SOL     OW14695   0.272   4.422  12.013  0.1776  0.0850 -0.5222
 1020SOL    HW114696   0.254   4.508  11.976  0.5451 -0.0770 -1.0801
 1020SOL    HW214697   0.368   4.418  12.016  0.2672  1.8586 -1.2110
 1021SOL     OW14698   2.449   0.458   2.417 -0.3658 -0.0493 -0.5611
 1021SOL    HW114699   2.356   0.479   2.406 -0.7469 -1.3901  0.0856
 1021SOL    HW214700   2.461   0.420   2.329  0.5068  2.2497 -1.4315
 1022SOL     OW14701   3.049   3.016   0.886 -0.0789 -0.0784 -0.0245
 1022SOL    HW114702   3.143   2.998   0.893  0.5637  1.8031 -3.9840
 1022SOL    HW214703   3.026   2.985   0.798 -0.0955  1.1678 -0.4502
 1023SOL     OW14704   0.235   3.900   2.606 -0.3653  0.2447 -0.4179
 1023SOL    HW114705   0.301   3.895   2.675  0.5974  1.4286 -1.2479
 1023SOL    HW214706   0.171   3.945   2.661 -0.2585 -2.1021  1.6371
 1024SOL     OW14707   1.427   0.009   5.510  0.0294  0.2942 -0.6230
 1024SOL    HW114708   1.362   0.069   5.473  0.1248  1.3525  0.9246
 1024SOL    HW214709   1.492   0.029   5.442 -0.8382  2.4738 -0.8179
 1025SOL     OW14710   2.731   4.223  10.660 -0.3405 -0.3521 -0.2146
 1025SOL    HW114711   2.765   4.163  10.727  3.1758  2.2683  0.3389
 1025SOL    HW214712   2.688   4.287  10.716  1.3014 -0.2813  0.9598
 1026SOL     OW14713   2.734   0.307   5.113  0.1577 -0.5181 -0.3956
 1026SOL    HW114714   2.665   0.302   5.180 -0.3008  0.5875 -0.7969
 1026SOL    HW214715   2.698   0.382   5.066  1.3364 -0.2188 -0.8081
 1027SOL     OW14716   0.513   2.278   6.307 -0.5944 -0.3893  0.4766
 1027SOL    HW114717   0.473   2.202   6.349 -2.2279 -0.1063 -0.5760
 1027SOL    HW214718   0.439   2.327   6.272  0.0471  0.3327  0.1092
 1028SOL     OW14719   1.800   0.439   9.849  0.2120 -0.0598 -0.3166
 1028SOL    HW114720   1.785   0.480   9.935 -2.2124 -1.5749 -0.0137
 1028SOL    HW214721   1.840   0.364   9.892 -0.3772  1.1108  2.3159
 1029SOL     OW14722   2.598   2.878  15.404  0.4322  0.4140  0.3048
 1029SOL    HW114723   2.598   2.969  15.434 -1.4192 -0.0764  1.8065
 1029SOL    HW214724   2.690   2.857  15.388  0.1943 -0.2911 -0.0987
 1030SOL     OW14725   2.616   3.146   4.011  0.3904  0.7932  0.4538
 1030SOL    HW114726   2.617   3.051   4.025 -2.5943  0.5198 -1.2290
 1030SOL    HW214727   2.631   3.147   3.916  0.9002  1.7062  0.5462
 1031SOL     OW14728   1.897   3.420   7.591  0.8670 -0.4671 -0.0648
 1031SOL    HW114729   1.888   3.343   7.648 -3.1200 -0.9933 -1.4677
 1031SOL    HW214730   1.980   3.400   7.549 -0.4050 -2.0243 -1.7816
 1032SOL     OW14731   2.336   1.755   5.680  0.2031  0.2827 -0.5379
 1032SOL    HW114732   2.427   1.771   5.705  0.8626 -1.5435 -1.7167
 1032SOL    HW214733   2.318   1.667   5.713  1.0716 -0.3106 -1.6525
 1033SOL     OW14734   2.003   1.423   4.223  0.1672  0.0543 -0.3554
 1033SOL    HW114735   2.021   1.332   4.245 -0.8869  0.0065  0.3106
 1033SOL    HW214736   1.925   1.444   4.275  1.3191 -0.1369  1.4570
 1034SOL     OW14737   0.570   2.292   5.982 -0.0956 -0.2217 -0.4413
 1034SOL    HW114738   0.621   2.249   6.051  0.7964 -0.7797 -1.4501
 1034SOL    HW214739   0.500   2.336   6.032  1.7734 -0.7289  2.6280
 1035SOL     OW14740   2.702   4.482   2.365  0.0200  0.4986  0.0808
 1035SOL    HW114741   2.696   4.504   2.458  0.8242 -0.6005  0.3865
 1035SOL    HW214742   2.770   4.415   2.361  1.0108  1.5029  0.1055
 1036SOL     OW14743   4.231   2.905  14.886 -0.4163  0.0591  0.2538
 1036SOL    HW114744   4.273   2.953  14.816  0.2317  0.0920  0.6668
 1036SOL    HW214745   4.250   2.812  14.870  0.2258  0.2445 -0.0280
 1037SOL     OW14746   0.101   3.806   7.684 -0.5815  0.3943 -0.7065
 1037SOL    HW114747   0.107   3.879   7.622 -0.7520  0.4332 -0.6780
 1037SOL    HW214748   0.081   3.741   7.617 -0.6454  0.1122 -0.4138
 1038SOL     OW14749   1.586   4.674   8.726  0.2073 -0.0950 -0.1595
 1038SOL    HW114750   1.544   4.680   8.812  1.4112 -0.8030  0.4753
 1038SOL    HW214751   1.557   0.015   8.677  0.1870  1.6984  2.6991
 1039SOL     OW14752   2.300   3.907   8.537  0.1108  0.5875  0.1838
 1039SOL    HW114753   2.266   3.992   8.511 -1.0905  0.4910  1.4351
 1039SOL    HW214754   2.224   3.859   8.570  0.2562  0.7977  0.8432
 1040SOL     OW14755   3.149   4.167  11.278 -0.1011 -0.3389 -0.0761
 1040SOL    HW114756   3.159   4.156  11.372  0.2352  0.1504 -0.0554
 1040SOL    HW214757   3.129   4.076  11.255 -0.2271 -0.8028  1.9367
 1041SOL     OW14758   0.351   3.014  15.500  0.3736  0.1939  0.5102
 1041SOL    HW114759   0.319   2.944  15.557  0.7648 -0.4197 -0.0233
 1041SOL    HW214760   0.445   2.995  15.495  0.1637  0.2244 -3.3755
 1042SOL     OW14761   0.307   2.954  14.347 -0.1863  0.0749  0.6383
 1042SOL    HW114762   0.312   2.913  14.260  1.2961  0.4171  0.5720
 1042SOL    HW214763   0.364   3.026  14.319 -0.0624  0.3892  1.7185
 1043SOL     OW14764   1.747   3.372  16.570  0.0650 -0.4426 -0.1425
 1043SOL    HW114765   1.702   3.314  16.631 -0.2849 -0.1289 -0.1044
 1043SOL    HW214766   1.699   3.360  16.488 -0.0776  0.9014 -0.2602
 1044SOL     OW14767   0.504   1.729   8.834  0.0254  0.2754  0.1112
 1044SOL    HW114768   0.535   1.803   8.782 -1.2859  1.3555  0.8838
 1044SOL    HW214769   0.447   1.681   8.774 -0.0221 -0.8286  1.0367
 1045SOL     OW14770   2.907   3.664  12.375  0.1016  0.4166  0.2020
 1045SOL    HW114771   2.941   3.604  12.441 -0.5272  0.8402  0.9144
 1045SOL    HW214772   2.945   3.747  12.406  1.1993  0.1013 -0.3109
 1046SOL     OW14773   1.870   2.475  13.336  0.2596 -0.3675  0.2446
 1046SOL    HW114774   1.917   2.394  13.316  0.3520 -0.2167 -0.1608
 1046SOL    HW214775   1.917   2.537  13.280 -0.9756  0.6183  0.3157
 1047SOL     OW14776   3.452   2.150   3.319  0.3045 -0.6595 -0.6827
 1047SOL    HW114777   3.472   2.081   3.383  0.8785 -0.1844 -0.3573
 1047SOL    HW214778   3.515   2.140   3.248  0.3869  2.3130 -1.0197
 1048SOL     OW14779   1.670   2.351   5.712 -0.4734  0.6036 -0.0034
 1048SOL    HW114780   1.762   2.342   5.738 -0.3865  1.6372  0.0854
 1048SOL    HW214781   1.654   2.441   5.742 -0.8751  0.5973 -0.2049
 1049SOL     OW14782   2.209   2.697   6.748 -0.5792  0.1984 -0.0215
 1049SOL    HW114783   2.221   2.609   6.785  0.3353 -0.4233 -1.8183
 1049SOL    HW214784   2.284   2.743   6.787 -0.7827 -0.2008  0.8592
 1050SOL     OW14785   3.876   2.735   6.735  0.3775 -0.3050  0.5503
 1050SOL    HW114786   3.875   2.683   6.655  0.3472 -0.8881  0.9271
 1050SOL    HW214787   3.796   2.787   6.733 -1.1149 -2.5668  0.8537
 1051SOL     OW14788   3.796   3.107   5.369  0.1859  0.2292  0.5534
 1051SOL    HW114789   3.824   3.090   5.459  0.9711 -0.7682  0.1084
 1051SOL    HW214790   3.730   3.038   5.365  0.4231 -0.0854  2.0244
 1052SOL     OW14791   4.695   2.110   6.635 -0.0818 -0.8759 -0.3784
 1052SOL    HW114792   4.607   2.097   6.671  0.4652 -3.8723 -0.1468
 1052SOL    HW214793   4.708   2.039   6.572  0.0854 -2.1771  1.1123
 1053SOL     OW14794   0.227   2.886   6.967  0.9632 -0.4047  0.9322
 1053SOL    HW114795   0.284   2.820   7.006 -0.0468 -2.2453 -0.7412
 1053SOL    HW214796   0.264   2.886   6.879  0.0165 -1.2161  0.5378
 1054SOL     OW14797   3.835   3.345   3.346 -0.0173  0.6792 -0.4851
 1054SOL    HW114798   3.869   3.349   3.435  2.3196 -0.6166 -1.3009
 1054SOL    HW214799   3.880   3.270   3.307 -2.0525 -0.7401 -0.1014
 1055SOL     OW14800   1.309   3.144   6.836  0.3836 -0.3212  0.3153
 1055SOL    HW114801   1.394   3.156   6.880  1.3798  1.0013 -1.9847
 1055SOL    HW214802   1.260   3.126   6.916  0.6135  0.1480  0.5598
 1056SOL     OW14803   2.578   2.339  11.558  1.0101 -0.5371  0.1293
 1056SOL    HW114804   2.574   2.388  11.640  0.3697 -1.5563  0.7018
 1056SOL    HW214805   2.622   2.412  11.514 -0.8222 -0.1184 -1.0241
 1057SOL     OW14806   1.188   2.716   6.054 -0.0659 -0.5429 -0.8460
 1057SOL    HW114807   1.123   2.682   6.116 -0.9258  1.2493 -0.7830
 1057SOL    HW214808   1.231   2.635   6.025 -0.9127 -1.4797  0.5149
 1058SOL     OW14809   4.105   0.530   4.511  0.5295 -0.1375 -0.3209
 1058SOL    HW114810   4.043   0.473   4.557  0.4276 -1.8525 -2.5923
 1058SOL    HW214811   4.069   0.617   4.529 -2.2157 -1.3988  0.2743
 1059SOL     OW14812   0.243   2.896  14.066 -0.1472  0.2543  0.0126
 1059SOL    HW114813   0.246   2.991  14.053 -0.5463  0.4372  1.2474
 1059SOL    HW214814   0.155   2.885  14.030 -0.3090 -0.7067  0.6888
 1060SOL     OW14815   3.696   3.439   7.799 -0.4147  0.3313  0.4246
 1060SOL    HW114816   3.668   3.377   7.732  1.7968 -1.3423  1.0525
 1060SOL    HW214817   3.633   3.509   7.782 -1.5026 -0.5048  1.0891
 1061SOL     OW14818   3.049   0.675   1.486  0.3005  0.1934 -0.4161
 1061SOL    HW114819   3.119   0.650   1.426 -1.3083  0.2986 -2.3343
 1061SOL    HW214820   2.983   0.607   1.470 -1.2952  1.4061  1.0754
 1062SOL     OW14821   4.139   2.047   6.252 -0.1533 -0.0028  0.0410
 1062SOL    HW114822   4.146   2.094   6.334  0.8431 -0.6837  0.3445
 1062SOL    HW214823   4.118   1.961   6.290 -1.1072  0.5758  0.8032
 1063SOL     OW14824   1.971   2.988   6.812 -0.1001  0.4900  0.3788
 1063SOL    HW114825   2.051   2.982   6.760 -1.3407 -0.2389 -1.4115
 1063SOL    HW214826   1.994   2.961   6.901 -2.2979 -0.1864  0.7223
 1064SOL     OW14827   3.475   1.845   2.703 -0.2887  0.8140  0.4878
 1064SOL    HW114828   3.380   1.845   2.697 -0.1649 -0.5469 -1.8051
 1064SOL    HW214829   3.489   1.936   2.677 -1.1637  0.4426 -1.2510
 1065SOL     OW14830   4.709   3.891   7.917 -0.2855  0.5177 -0.8428
 1065SOL    HW114831   0.021   3.879   7.836 -0.2375  1.4937 -0.9550
 1065SOL    HW214832   0.037   3.852   7.976  0.2646  0.8867 -1.2019
 1066SOL     OW14833   3.046   0.172   4.022  0.3434  0.1708  0.1283
 1066SOL    HW114834   3.067   0.129   3.939  1.2769 -0.0101  0.4565
 1066SOL    HW214835   3.068   0.263   4.001  0.1500  0.0858 -0.4190
 1067SOL     OW14836   3.540   2.884   3.073  0.3584 -0.5848 -0.3597
 1067SOL    HW114837   3.507   2.891   2.984 -0.8359 -2.8079 -0.0891
 1067SOL    HW214838   3.503   2.968   3.101 -2.0484 -1.5657 -0.5987
 1068SOL     OW14839   2.888   0.895   4.828 -0.1132  0.5540  0.0418
 1068SOL    HW114840   2.816   0.849   4.785  1.2953 -2.1965  0.6638
 1068SOL    HW214841   2.947   0.895   4.753  0.0392 -0.3915  0.1631
 1069SOL     OW14842   3.291   3.840   0.654 -0.0524 -0.4600 -0.2214
 1069SOL    HW114843   3.327   3.924   0.623 -0.8130  0.1169  0.4513
 1069SOL    HW214844   3.345   3.775   0.610 -0.4412  0.8467 -2.6118
 1070SOL     OW14845   3.765   1.353   2.031 -0.1072  0.3136  0.1782
 1070SOL    HW114846   3.784   1.415   2.101  0.5967  1.0290 -0.6516
 1070SOL    HW214847   3.672   1.371   2.015 -0.3101 -0.2774  0.6851
 1071SOL     OW14848   0.611   2.602   6.147  0.2522 -0.3985 -0.0014
 1071SOL    HW114849   0.602   2.647   6.231 -2.2053 -1.3744  0.2650
 1071SOL    HW214850   0.645   2.671   6.091 -1.1671  1.7741  1.8075
 1072SOL     OW14851   4.302   3.799   6.405  0.0710 -0.2268  0.3374
 1072SOL    HW114852   4.294   3.718   6.455  0.4534  0.3335  1.3247
 1072SOL    HW214853   4.308   3.859   6.480 -0.7298 -0.3752  0.5173
 1073SOL     OW14854   1.935   0.146   1.108 -0.0397 -0.2096 -0.3038
 1073SOL    HW114855   1.948   0.217   1.046 -2.0292 -0.6277 -1.2094
 1073SOL    HW214856   1.911   0.199   1.184  0.2296 -0.5583  0.0240
 1074SOL     OW14857   3.205   0.744   3.473 -0.9392  0.2645  0.7291
 1074SOL    HW114858   3.132   0.800   3.499 -0.8666  0.0406  1.4212
 1074SOL    HW214859   3.193   0.748   3.378 -0.3884  0.3450  0.6653
 1075SOL     OW14860   2.579   2.864   4.416  0.5045 -0.0695 -0.0633
 1075SOL    HW114861   2.590   2.798   4.484  1.0519 -1.1310 -1.1785
 1075SOL    HW214862   2.520   2.816   4.359  3.3306 -2.1202 -1.2730
 1076SOL     OW14863   4.677   0.342   4.609 -0.1530  0.3350 -0.1964
 1076SOL    HW114864   0.010   0.294   4.654 -0.1848 -3.3376 -4.0810
 1076SOL    HW214865   4.602   0.305   4.655  0.1852 -1.8509 -1.4296
 1077SOL     OW14866   0.453   3.963   7.535  0.2072 -0.0289  0.3599
 1077SOL    HW114867   0.425   3.876   7.509 -1.9855  0.7154  0.1997
 1077SOL    HW214868   0.397   3.975   7.612  0.2769  0.0780  0.3940
 1078SOL     OW14869   0.279   3.663  14.624 -0.0549  0.6731 -0.2694
 1078SOL    HW114870   0.196   3.617  14.615 -0.1115  0.2818  2.0747
 1078SOL    HW214871   0.263   3.712  14.705  1.7864 -1.2450  1.2442
 1079SOL     OW14872   0.266   0.343   6.317  0.6623 -0.0753  0.0539
 1079SOL    HW114873   0.360   0.347   6.300  1.0365  0.3872  2.1821
 1079SOL    HW214874   0.259   0.262   6.368 -1.1384  0.4759  0.6739
 1080SOL     OW14875   2.920   0.704   4.577  0.8569 -0.4980  0.2338
 1080SOL    HW114876   2.970   0.648   4.517  0.8073  1.0982 -1.2890
 1080SOL    HW214877   2.885   0.774   4.522 -0.0851 -2.5246 -1.7730
 1081SOL     OW14878   0.838   2.788  15.455  0.4995 -0.8112 -0.2590
 1081SOL    HW114879   0.788   2.858  15.496  1.6445 -0.1772  0.0522
 1081SOL    HW214880   0.847   2.727  15.528 -3.7100 -0.4690  0.5195
 1082SOL     OW14881   3.274   0.495   9.469 -0.2580 -0.2207 -0.0827
 1082SOL    HW114882   3.337   0.554   9.425  2.6457 -3.0047  0.3562
 1082SOL    HW214883   3.242   0.546   9.543 -3.0105 -1.5653 -0.3423
 1083SOL     OW14884   4.603   1.863   2.770 -0.1314 -0.0045  0.1115
 1083SOL    HW114885   4.515   1.881   2.804 -0.3748 -1.8439  0.4352
 1083SOL    HW214886   4.660   1.931   2.807  0.7669 -0.6798 -0.0439
 1084SOL     OW14887   1.508   0.064  15.197  0.3657  0.4093  0.2019
 1084SOL    HW114888   1.486   0.144  15.245 -1.8877 -0.0678 -0.0060
 1084SOL    HW214889   1.599   0.077  15.170 -0.4715  0.7998 -2.4954
 1085SOL     OW14890   0.935   4.201   6.464  0.1446  0.1734 -0.8041
 1085SOL    HW114891   1.028   4.193   6.443  0.6319 -1.7539  2.0786
 1085SOL    HW214892   0.910   4.242   6.382 -1.8696 -0.1662 -0.3570
 1086SOL     OW14893   3.492   3.635   9.128 -0.3482  0.2609 -0.3769
 1086SOL    HW114894   3.461   3.600   9.045 -1.8904  1.2175 -0.2180
 1086SOL    HW214895   3.466   3.564   9.186  2.9313  0.5867  1.4868
 1087SOL     OW14896   3.901   0.293   4.472 -0.3192 -0.1114  0.7325
 1087SOL    HW114897   3.814   0.253   4.482 -0.6371 -0.1998 -2.3550
 1087SOL    HW214898   3.957   0.216   4.481 -0.1890  0.0109  0.9590
 1088SOL     OW14899   3.578   2.478  11.625 -0.0642  0.0702  0.0742
 1088SOL    HW114900   3.665   2.513  11.606 -0.7169  1.6889  0.0749
 1088SOL    HW214901   3.537   2.470  11.539  0.2039 -2.2193  0.1617
 1089SOL     OW14902   3.564   3.939  14.171 -0.1023  0.2855  0.1847
 1089SOL    HW114903   3.577   3.852  14.132  1.4060  0.5093  0.2203
 1089SOL    HW214904   3.582   3.921  14.263  0.2415 -1.4205 -0.2111
 1090SOL     OW14905   4.370   3.935   5.750  0.2327  0.6320 -0.4833
 1090SOL    HW114906   4.405   3.852   5.782 -1.0377 -0.1714 -1.1999
 1090SOL    HW214907   4.303   3.905   5.688  1.8898 -1.4922 -1.2522
 1091SOL     OW14908   0.264   3.474   4.705 -0.0215 -0.0835  0.1760
 1091SOL    HW114909   0.258   3.387   4.744  0.6315 -0.8809 -1.4805
 1091SOL    HW214910   0.183   3.516   4.733  0.6551  1.5962 -0.3666
 1092SOL     OW14911   3.192   3.422  11.300  0.2386 -0.0978  0.0023
 1092SOL    HW114912   3.242   3.482  11.244 -0.4617 -0.4594 -1.0086
 1092SOL    HW214913   3.185   3.345  11.243  2.3217 -0.9290  0.8519
 1093SOL     OW14914   3.251   2.749   8.057  0.3381 -0.5777  0.0297
 1093SOL    HW114915   3.312   2.682   8.088  1.5708  0.9547  0.9197
 1093SOL    HW214916   3.246   2.815   8.126  0.9670 -0.9316  0.4178
 1094SOL     OW14917   0.212   1.206   7.944  0.1167 -0.5056  0.7735
 1094SOL    HW114918   0.117   1.206   7.957  0.1306 -0.4989  0.8811
 1094SOL    HW214919   0.217   1.268   7.872 -0.0437 -0.1669  1.0499
 1095SOL     OW14920   3.271   2.690  17.458 -0.4845  0.0350  0.2492
 1095SOL    HW114921   3.270   2.765  17.518 -1.6670 -0.7775  1.2430
 1095SOL    HW214922   3.258   2.614  17.514 -0.1155 -0.1961  0.0177
 1096SOL     OW14923   4.389   1.722  16.997  0.4913 -0.1533 -0.1779
 1096SOL    HW114924   4.443   1.650  17.030  0.7386 -0.7360 -1.8234
 1096SOL    HW214925   4.397   1.788  17.066 -0.5736  1.3470 -1.4973
 1097SOL     OW14926   3.373   0.944   0.807 -0.4324 -0.9194  0.0771
 1097SOL    HW114927   3.340   0.977   0.724 -0.1021 -1.0315 -0.0990
 1097SOL    HW214928   3.333   0.859   0.822  0.5551 -1.2533  0.8739
 1098SOL     OW14929   3.968   2.367   8.133  0.9426  0.2562  0.1582
 1098SOL    HW114930   3.944   2.356   8.225 -0.7079  0.3068 -0.2538
 1098SOL    HW214931   3.944   2.280   8.102  1.0594 -0.5427  2.3194
 1099SOL     OW14932   3.476   0.134   7.448 -0.2556 -0.1991  0.0347
 1099SOL    HW114933   3.473   0.052   7.399 -0.9294  0.1510 -0.5111
 1099SOL    HW214934   3.430   0.092   7.521 -2.3765  0.8142 -0.7332
 1100SOL     OW14935   0.201   3.371  17.431 -0.1194 -0.1976 -0.3558
 1100SOL    HW114936   0.110   3.397  17.413  0.6604  2.1064 -0.9874
 1100SOL    HW214937   0.176   3.289  17.472 -1.3551  0.6365  0.5845
 1101SOL     OW14938   3.011   3.601   7.859  0.0064  0.5577  0.1129
 1101SOL    HW114939   2.975   3.603   7.771 -1.3058 -1.3988  0.6097
 1101SOL    HW214940   3.000   3.507   7.873  2.1675  0.1884 -0.6526
 1102SOL     OW14941   2.303   0.368   3.265  0.2969 -0.3802 -0.1969
 1102SOL    HW114942   2.292   0.296   3.326  1.5807 -0.4734 -0.0743
 1102SOL    HW214943   2.370   0.332   3.207 -1.1306  0.8705 -2.6519
 1103SOL     OW14944   3.914   0.181  12.336 -0.0416 -1.0291 -0.3186
 1103SOL    HW114945   3.837   0.238  12.340  0.5503 -0.2462 -0.0462
 1103SOL    HW214946   3.934   0.206  12.246  0.6926 -1.7082 -0.3499
 1104SOL     OW14947   3.501   3.751   6.843 -0.0041 -0.0214  0.2105
 1104SOL    HW114948   3.424   3.778   6.894  0.7017  1.0237  0.7382
 1104SOL    HW214949   3.564   3.763   6.914  2.6787 -1.8163 -1.9170
 1105SOL     OW14950   3.866   1.724   7.417  0.2083  0.1731 -0.6150
 1105SOL    HW114951   3.906   1.802   7.456  1.4696  0.0587 -1.6741
 1105SOL    HW214952   3.859   1.749   7.324  0.6146 -0.9008 -0.9258
 1106SOL     OW14953   1.950   0.878   3.691 -0.7788 -0.9207 -0.0689
 1106SOL    HW114954   1.968   0.784   3.696 -0.4986 -0.9106 -0.8469
 1106SOL    HW214955   1.911   0.882   3.603  0.3695 -1.3749 -0.5899
 1107SOL     OW14956   4.099   2.849   5.112 -0.3489 -0.2238 -0.2991
 1107SOL    HW114957   4.187   2.823   5.139 -0.5353  0.0862  0.6071
 1107SOL    HW214958   4.103   2.867   5.018  0.2331  0.4037 -0.1520
 1108SOL     OW14959   1.597   3.897   2.687 -0.2981 -0.0126  0.4450
 1108SOL    HW114960   1.609   3.950   2.608  0.0624 -2.3390 -1.0588
 1108SOL    HW214961   1.536   3.833   2.650 -1.9631  1.6564  0.2504
 1109SOL     OW14962   1.893   3.509  13.888 -0.0844  0.0567  0.2759
 1109SOL    HW114963   1.959   3.453  13.847  1.1656  0.5757  1.5666
 1109SOL    HW214964   1.955   3.580  13.907 -0.1405  0.0252  0.5825
 1110SOL     OW14965   0.712   4.250  13.039  0.5199  0.2068  0.0465
 1110SOL    HW114966   0.617   4.244  13.030  0.7342  0.4928 -2.4764
 1110SOL    HW214967   0.731   4.171  12.988 -0.4627  0.4539 -0.6802
 1111SOL     OW14968   4.111   2.285   8.695  0.0533 -0.0343 -0.1883
 1111SOL    HW114969   4.133   2.222   8.626  3.0253 -1.0126  1.6541
 1111SOL    HW214970   4.018   2.275   8.712 -0.0952 -1.6260 -1.9381
 1112SOL     OW14971   2.937   3.312  11.226  0.0321  0.1352  0.1970
 1112SOL    HW114972   2.957   3.346  11.139  2.6170  1.1067  1.1791
 1112SOL    HW214973   3.004   3.348  11.284 -1.0070 -1.2928  2.2755
 1113SOL     OW14974   3.471   2.906  11.279  0.0326 -0.3392  0.1697
 1113SOL    HW114975   3.473   2.879  11.370 -1.3651 -3.5387 -0.7386
 1113SOL    HW214976   3.445   2.997  11.296 -2.4457 -1.4117  2.1822
 1114SOL     OW14977   2.300   1.722   1.936 -0.2770 -0.4770 -0.2655
 1114SOL    HW114978   2.334   1.742   2.023  2.6036  0.1165 -1.5343
 1114SOL    HW214979   2.330   1.631   1.941 -0.4379 -0.5757 -1.1368
 1115SOL     OW14980   4.692   2.724  12.358 -0.0848 -0.5606 -0.5333
 1115SOL    HW114981   4.716   2.802  12.309 -0.9247  1.2579  1.9957
 1115SOL    HW214982   0.012   2.748  12.432 -0.2152  1.0438 -0.9738
 1116SOL     OW14983   1.253   0.723   4.296 -0.2727  0.4902 -0.0145
 1116SOL    HW114984   1.205   0.662   4.352 -0.3337  2.9755  2.6465
 1116SOL    HW214985   1.333   0.726   4.349  0.5401  0.1396 -1.2475
 1117SOL     OW14986   0.567   0.374  17.050 -1.0405 -0.0468  0.5309
 1117SOL    HW114987   0.554   0.386  17.144 -0.4515  0.4701  0.5523
 1117SOL    HW214988   0.628   0.446  17.032 -0.2910 -0.1048  2.8255
 1118SOL     OW14989   3.695   0.340   1.478 -0.1339 -0.5096 -0.1233
 1118SOL    HW114990   3.671   0.413   1.421 -0.8310 -0.7681 -0.1624
 1118SOL    HW214991   3.714   0.385   1.561  1.8748 -0.1364 -0.8143
 1119SOL     OW14992   1.699   1.816   1.440  0.1319  0.3947 -0.0609
 1119SOL    HW114993   1.620   1.823   1.494 -0.8988 -1.1460 -1.3637
 1119SOL    HW214994   1.649   1.865   1.374 -0.6771 -1.4299 -0.8161
 1120SOL     OW14995   1.923   3.020   0.624 -0.4774 -0.2706  0.5189
 1120SOL    HW114996   2.013   3.047   0.638 -1.0651  2.6210 -1.3000
 1120SOL    HW214997   1.932   2.981   0.537 -0.6632  1.0097 -0.0688
 1121SOL     OW14998   4.096   4.383   3.860 -0.1086  0.0012  0.3118
 1121SOL    HW114999   4.009   4.421   3.877 -0.7493 -0.9487 -0.8638
 1121SOL    HW215000   4.118   4.437   3.783  0.8297 -0.1225  0.4931
 1122SOL     OW15001   2.292   2.557   5.647  0.1151  0.6219  0.1893
 1122SOL    HW115002   2.223   2.622   5.639 -0.8172 -0.2741  0.8728
 1122SOL    HW215003   2.314   2.564   5.740  2.1719  0.7741 -0.2951
 1123SOL     OW15004   4.728   1.115   5.613  0.2479 -0.2010 -0.1349
 1123SOL    HW115005   4.661   1.178   5.585  1.8187  1.4517 -0.1656
 1123SOL    HW215006   4.699   1.029   5.582 -0.0383 -0.6553  1.4134
 1124SOL     OW15007   4.169   1.989  16.330 -0.0809  0.1343 -0.8315
 1124SOL    HW115008   4.128   2.044  16.264 -1.1344  1.3079  0.7992
 1124SOL    HW215009   4.192   2.058  16.393  0.6139  0.3319 -1.3136
 1125SOL     OW15010   1.467   0.094   6.078  0.4723  0.2692 -0.0638
 1125SOL    HW115011   1.539   0.153   6.101  0.5931  0.3682 -0.6938
 1125SOL    HW215012   1.524   0.024   6.046 -2.4626 -1.5906 -1.1964
 1126SOL     OW15013   2.214   3.873  14.867  0.0017 -0.1443  0.7564
 1126SOL    HW115014   2.224   3.964  14.894  0.7605  0.0870 -0.3283
 1126SOL    HW215015   2.307   3.858  14.849  0.0333 -0.0896  0.8710
 1127SOL     OW15016   2.763   3.708   1.088 -0.2213 -0.3650 -0.0534
 1127SOL    HW115017   2.851   3.718   1.123  0.5723  1.7086 -2.6459
 1127SOL    HW215018   2.777   3.626   1.040 -1.1274 -0.1934 -0.6105
 1128SOL     OW15019   0.064   0.470   5.832 -0.2408  0.5092  0.0624
 1128SOL    HW115020   0.018   0.397   5.790  1.0454  0.7657 -1.7841
 1128SOL    HW215021   0.087   0.425   5.913  0.3339  3.2684  1.4195
 1129SOL     OW15022   0.003   1.595   0.282  0.0700  0.2098 -0.1000
 1129SOL    HW115023   0.070   1.554   0.337  0.4952  2.3350  0.9504
 1129SOL    HW215024   4.685   1.522   0.253  1.5800 -0.6590 -0.7459
 1130SOL     OW15025   4.714   2.642   6.441  0.2044  0.6058 -0.4786
 1130SOL    HW115026   0.055   2.656   6.386  0.5859 -2.0371 -0.6299
 1130SOL    HW215027   0.009   2.652   6.531 -1.5158 -0.8611  0.2750
 1131SOL     OW15028   1.454   0.262   4.152  0.0992  0.5611 -0.0662
 1131SOL    HW115029   1.386   0.273   4.086  0.2874  0.9403 -0.1966
 1131SOL    HW215030   1.511   0.193   4.116 -1.1204 -0.1587 -0.6141
 1132SOL     OW15031   4.149   0.658   6.589  0.4325 -0.1377  0.0574
 1132SOL    HW115032   4.237   0.687   6.565 -0.1543  1.1207 -0.5823
 1132SOL    HW215033   4.165   0.638   6.681  1.0863  0.9323  0.1713
 1133SOL     OW15034   1.874   2.084   3.123  0.3169 -0.2585 -0.7501
 1133SOL    HW115035   1.867   1.992   3.148  0.1404 -0.5948 -2.0416
 1133SOL    HW215036   1.889   2.133   3.203 -1.6656  1.8174 -1.6487
 1134SOL     OW15037   4.419   1.724   8.411  0.1792  0.3693  0.9281
 1134SOL    HW115038   4.436   1.758   8.499  0.4366  2.2778  0.1524
 1134SOL    HW215039   4.470   1.643   8.407  0.6812  0.9443 -4.3172
 1135SOL     OW15040   2.784   3.852  11.293 -0.4052  0.3376  0.1149
 1135SOL    HW115041   2.870   3.866  11.253 -0.9343 -0.5849 -1.3523
 1135SOL    HW215042   2.804   3.884  11.381  0.4000 -2.2537  0.8752
 1136SOL     OW15043   3.158   2.661  16.709  0.3142 -0.0386 -0.2788
 1136SOL    HW115044   3.198   2.587  16.662 -0.1980 -0.7153  0.3541
 1136SOL    HW215045   3.175   2.627  16.796 -2.5609  0.1351  0.3451
 1137SOL     OW15046   4.099   4.607   6.474  0.6934  0.1553 -0.6409
 1137SOL    HW115047   4.036   4.678   6.458 -0.2479 -0.7559 -0.9781
 1137SOL    HW215048   4.064   4.552   6.404 -1.1107 -1.1466  1.2882
 1138SOL     OW15049   3.368   3.628   5.829 -0.2399  0.2297 -0.5546
 1138SOL    HW115050   3.364   3.613   5.735 -0.8300 -1.4079 -0.2700
 1138SOL    HW215051   3.399   3.718   5.837 -0.0979 -0.0795  2.5588
 1139SOL     OW15052   3.500   3.079   6.946 -0.3560 -0.0746 -0.2272
 1139SOL    HW115053   3.543   3.090   7.031  2.6332 -0.7303 -1.6551
 1139SOL    HW215054   3.432   3.015   6.968 -1.7314  1.6909  0.6911
 1140SOL     OW15055   1.984   3.564   5.291  0.1414 -0.4298  0.5453
 1140SOL    HW115056   1.935   3.534   5.367  0.7925  0.1981  1.2121
 1140SOL    HW215057   1.935   3.643   5.267  0.7360  0.0943  1.0703
 1141SOL     OW15058   0.236   1.402   8.490 -0.6466 -0.2648 -0.1424
 1141SOL    HW115059   0.157   1.393   8.544  0.2657  0.9822  1.3677
 1141SOL    HW215060   0.210   1.332   8.430  2.9038 -0.4743 -1.4176
 1142SOL     OW15061   3.115   2.106   2.668  0.1942 -0.1044 -0.2094
 1142SOL    HW115062   3.190   2.112   2.608 -1.5038  0.1355 -2.3020
 1142SOL    HW215063   3.061   2.177   2.633  1.2465  1.2702  0.9234
 1143SOL     OW15064   0.369   3.199   5.517 -0.0361 -0.1165  0.4460
 1143SOL    HW115065   0.353   3.110   5.548  2.5531 -1.3696 -1.8153
 1143SOL    HW215066   0.317   3.196   5.437  0.6766  0.0637 -0.0218
 1144SOL     OW15067   0.526   1.326  16.329  0.1488 -0.5234  0.0106
 1144SOL    HW115068   0.472   1.247  16.334 -0.4102 -0.1005  0.6217
 1144SOL    HW215069   0.603   1.286  16.289 -0.1951 -2.9298  1.7446
 1145SOL     OW15070   0.686   3.136   8.643 -0.1017 -0.1299 -0.0115
 1145SOL    HW115071   0.604   3.157   8.597 -0.1555 -0.8850 -0.2592
 1145SOL    HW215072   0.747   3.099   8.579  0.7280  3.2188 -1.1735
 1146SOL     OW15073   3.910   2.532   0.279 -0.2914 -0.0082  0.3834
 1146SOL    HW115074   3.911   2.443   0.243 -1.9173  0.4941 -0.9442
 1146SOL    HW215075   3.998   2.548   0.312 -0.1441  0.3591 -0.1935
 1147SOL     OW15076   1.156   1.701   5.043  0.0460 -0.4270  0.1102
 1147SOL    HW115077   1.208   1.637   5.092  1.3277 -0.0909 -0.8288
 1147SOL    HW215078   1.090   1.714   5.111 -0.5324 -2.4357 -0.0406
 1148SOL     OW15079   0.903   0.140   1.519  0.1586 -0.2027  0.1056
 1148SOL    HW115080   0.854   0.124   1.438 -1.0383  1.1662  0.5762
 1148SOL    HW215081   0.992   0.135   1.482  0.1977  3.0473 -0.2480
 1149SOL     OW15082   4.130   4.315   3.011 -0.5603  0.0376 -0.2587
 1149SOL    HW115083   4.208   4.262   2.996  1.0581  2.3123  0.0713
 1149SOL    HW215084   4.103   4.325   2.920  0.7887  1.1426 -0.5391
 1150SOL     OW15085   4.697   4.633  12.658  0.6051 -0.1848 -0.1687
 1150SOL    HW115086   0.005   4.580  12.724 -2.7125 -0.3107  1.9671
 1150SOL    HW215087   0.025   4.703  12.649 -0.8783  1.3323  1.1912
 1151SOL     OW15088   4.509   4.567   2.568 -0.1464 -0.2844 -0.3216
 1151SOL    HW115089   4.490   4.629   2.497 -1.4605 -0.2744  0.0477
 1151SOL    HW215090   4.425   4.548   2.609 -0.4637 -0.0024 -0.8381
 1152SOL     OW15091   3.499   1.875   4.821 -0.1010 -0.2740  0.2549
 1152SOL    HW115092   3.476   1.803   4.763  3.0579 -1.7359  0.8536
 1152SOL    HW215093   3.540   1.926   4.751 -0.3885 -2.0000 -1.1785
 1153SOL     OW15094   2.946   2.631   8.926  0.4893 -0.0613 -0.5174
 1153SOL    HW115095   2.988   2.545   8.917  0.3706 -0.0013 -1.6856
 1153SOL    HW215096   3.021   2.691   8.922  0.7560 -0.3308  0.4563
 1154SOL     OW15097   0.858   2.247   4.806 -1.0867 -0.7274 -0.2346
 1154SOL    HW115098   0.789   2.241   4.873 -0.8240 -2.5378 -0.1191
 1154SOL    HW215099   0.906   2.167   4.827 -1.5633 -1.1899 -0.8780
 1155SOL     OW15100   1.738   1.541   2.025  0.2694  0.3336 -0.0925
 1155SOL    HW115101   1.677   1.585   2.083 -1.7813 -2.0633 -0.4401
 1155SOL    HW215102   1.706   1.452   2.037 -0.0546  0.0502 -2.9430
 1156SOL     OW15103   1.374   3.459   9.913  0.0412  0.2256 -0.2840
 1156SOL    HW115104   1.290   3.484   9.875 -0.3731  0.1396  0.5867
 1156SOL    HW215105   1.418   3.545   9.912 -1.2379  0.9048  1.8383
 1157SOL     OW15106   2.920   2.644   0.253 -0.5128 -0.6084  0.5630
 1157SOL    HW115107   2.968   2.583   0.197  0.8903  1.2096 -0.2186
 1157SOL    HW215108   2.829   2.620   0.233 -0.4412  0.2258 -0.7406
 1158SOL     OW15109   1.771   0.724   9.388 -0.5024 -0.2507 -0.7344
 1158SOL    HW115110   1.689   0.772   9.373 -1.1924 -1.1570  0.1234
 1158SOL    HW215111   1.746   0.702   9.478 -0.6426  0.5356 -0.5749
 1159SOL     OW15112   2.309   3.342   5.607  0.2780 -0.2127  0.5543
 1159SOL    HW115113   2.224   3.332   5.650 -0.6096 -0.1932 -1.1801
 1159SOL    HW215114   2.299   3.406   5.536 -1.0609 -3.4888 -2.2140
 1160SOL     OW15115   2.489   4.490   6.469 -0.6297 -0.3182  0.0554
 1160SOL    HW115116   2.533   4.526   6.546  0.4931  1.0179 -1.2236
 1160SOL    HW215117   2.454   4.411   6.510 -0.2588 -0.9152 -0.7930
 1161SOL     OW15118   0.928   1.326   8.047  0.1213  0.0331 -0.1338
 1161SOL    HW115119   0.922   1.419   8.067  0.9145 -0.1055  0.7081
 1161SOL    HW215120   0.987   1.304   8.119  0.4538  1.1057 -0.0708
 1162SOL     OW15121   2.499   3.087  11.673 -0.2007  0.0360  0.0591
 1162SOL    HW115122   2.560   3.033  11.724  0.4936 -0.1744 -0.9809
 1162SOL    HW215123   2.530   3.064  11.585  0.7438  0.6301  0.2306
 1163SOL     OW15124   0.334   0.109   6.464  0.3347 -0.0940  0.0205
 1163SOL    HW115125   0.242   0.086   6.480  0.0968 -1.3484 -3.0598
 1163SOL    HW215126   0.339   0.037   6.400  1.2923 -1.3722  1.5267
 1164SOL     OW15127   0.615   2.590  10.116  0.0185  0.1603 -0.3677
 1164SOL    HW115128   0.561   2.601  10.195  2.9901  2.5205  1.3315
 1164SOL    HW215129   0.643   2.501  10.136  0.7511  0.6891  0.9361
 1165SOL     OW15130   2.583   4.632   0.566 -0.1720  0.5569 -0.0544
 1165SOL    HW115131   2.540   4.549   0.581  0.6807  0.1266  0.0239
 1165SOL    HW215132   2.658   4.639   0.625  0.2793  0.7952 -0.6555
 1166SOL     OW15133   0.323   2.089   5.033 -0.0200  0.6632  0.8900
 1166SOL    HW115134   0.310   2.059   5.123  0.1422 -1.5200  0.1913
 1166SOL    HW215135   0.418   2.083   5.026 -0.2013  0.2132 -0.9288
 1167SOL     OW15136   4.507   1.509  12.730 -0.1741 -0.2482 -0.0826
 1167SOL    HW115137   4.421   1.519  12.770  0.0111  1.4642 -0.0750
 1167SOL    HW215138   4.522   1.432  12.785  0.3151 -0.2740 -0.2464
 1168SOL     OW15139   2.429   4.495   9.441  0.8135 -0.2162 -0.0276
 1168SOL    HW115140   2.339   4.496   9.473  1.5346 -0.9072  2.0309
 1168SOL    HW215141   2.436   4.444   9.360 -1.9281 -1.4738  0.5456
 1169SOL     OW15142   1.563   0.804   3.581  0.2804 -1.2811  0.0274
 1169SOL    HW115143   1.533   0.773   3.666  1.7460 -0.6247  0.7923
 1169SOL    HW215144   1.508   0.756   3.519 -1.0683  2.9819 -2.0484
 1170SOL     OW15145   2.724   2.644   6.822 -0.0956  0.0018 -0.2137
 1170SOL    HW115146   2.684   2.665   6.738 -3.5533 -1.3674  1.1025
 1170SOL    HW215147   2.735   2.549   6.818  0.5642  0.1125 -1.1018
 1171SOL     OW15148   4.166   0.452   7.736 -0.0285  0.1024 -0.0917
 1171SOL    HW115149   4.203   0.449   7.647 -3.3260  2.5616 -1.5456
 1171SOL    HW215150   4.241   0.436   7.794 -0.6946  2.0526  1.2942
 1172SOL     OW15151   3.999   0.754   4.606 -0.2640 -0.3963  0.0387
 1172SOL    HW115152   4.043   0.774   4.689  4.9237  0.6312 -2.9536
 1172SOL    HW215153   3.953   0.678   4.642 -0.0233 -0.9244 -0.7443
 1173SOL     OW15154   4.538   1.789   8.138 -0.4026  0.2029 -0.1534
 1173SOL    HW115155   4.476   1.787   8.065  2.3852  0.2201 -2.5265
 1173SOL    HW215156   4.483   1.810   8.213 -0.7402  1.2127 -0.6753
 1174SOL     OW15157   0.274   2.862   2.446  0.0950 -0.2703 -0.4552
 1174SOL    HW115158   0.304   2.827   2.362  0.5423 -1.1515  0.0696
 1174SOL    HW215159   0.186   2.891   2.420  1.4220  3.1346 -1.1450
 1175SOL     OW15160   1.638   3.288  12.130  0.2909 -0.1822  0.1985
 1175SOL    HW115161   1.595   3.204  12.148 -2.2675  0.5986 -2.3013
 1175SOL    HW215162   1.671   3.315  12.216  1.4586 -1.4485  0.1410
 1176SOL     OW15163   3.917   1.881   9.343 -0.0803  0.0334 -0.1812
 1176SOL    HW115164   3.897   1.864   9.435 -0.3217 -1.8585 -0.5733
 1176SOL    HW215165   3.978   1.953   9.358 -0.5677  0.1274  1.4033
 1177SOL     OW15166   0.260   4.420   9.627 -0.1081 -0.0563 -0.2647
 1177SOL    HW115167   0.257   4.362   9.551  0.9845 -0.1881 -0.2115
 1177SOL    HW215168   0.222   4.498   9.587 -0.1530 -0.8956 -1.8511
 1178SOL     OW15169   3.041   3.078   1.652 -0.4897  0.4771 -0.1263
 1178SOL    HW115170   3.047   3.168   1.618 -0.2914 -1.1372 -4.3455
 1178SOL    HW215171   2.952   3.053   1.628  0.0180  0.2578 -1.7367
 1179SOL     OW15172   2.944   4.660   5.209  0.2153  0.0746 -0.4223
 1179SOL    HW115173   2.877   4.680   5.275 -1.8690 -1.3638 -2.1024
 1179SOL    HW215174   2.960   4.728   5.144 -2.0095 -1.5956 -2.7006
 1180SOL     OW15175   0.032   1.841   9.190 -0.6218  0.4984  0.4791
 1180SOL    HW115176   4.701   1.820   9.126  0.0521 -0.8588  0.2034
 1180SOL    HW215177   0.035   1.935   9.173 -1.1437  0.1210 -1.6513
 1181SOL     OW15178   2.323   3.321   6.890  0.4052  0.2215 -0.2504
 1181SOL    HW115179   2.283   3.407   6.879 -0.0716  0.3112  2.1218
 1181SOL    HW215180   2.337   3.326   6.985 -1.7222  0.2080  0.0796
 1182SOL     OW15181   4.075   2.937   4.813  0.2824 -0.3088  0.2218
 1182SOL    HW115182   4.071   3.031   4.795  0.4330 -0.1791  0.8875
 1182SOL    HW215183   3.981   2.916   4.805 -0.1956  1.8405  0.2880
 1183SOL     OW15184   0.008   2.978   2.371  0.5280  0.1549 -0.3486
 1183SOL    HW115185   4.724   3.048   2.309  0.0562 -0.7935 -1.2662
 1183SOL    HW215186   4.718   3.018   2.454  0.9942 -0.2081 -0.0292
 1184SOL     OW15187   2.924   0.384   2.696  0.8524  0.3164 -0.2488
 1184SOL    HW115188   2.875   0.466   2.694 -0.0976 -0.2088  1.3761
 1184SOL    HW215189   2.860   0.326   2.738  0.6791 -1.5329 -3.1050
 1185SOL     OW15190   0.346   4.469   8.029 -0.0559 -0.0943  0.1367
 1185SOL    HW115191   0.273   4.421   8.067 -2.5921  2.7143 -1.1101
 1185SOL    HW215192   0.360   4.544   8.087  0.5651 -0.1973  0.1130
 1186SOL     OW15193   2.179   0.564   7.883  0.1860  0.8019  0.4910
 1186SOL    HW115194   2.119   0.536   7.813  0.3552  1.0738  0.2332
 1186SOL    HW215195   2.227   0.482   7.894 -1.0622 -0.1796 -1.1914
 1187SOL     OW15196   0.117   1.194  12.043 -0.2609  0.3304  0.2136
 1187SOL    HW115197   0.151   1.108  12.067 -0.9885 -0.0922 -0.2793
 1187SOL    HW215198   0.177   1.252  12.090 -0.0374  2.1089 -2.3107
 1188SOL     OW15199   0.261   2.050   2.116  0.3802 -0.0624 -0.1576
 1188SOL    HW115200   0.230   2.040   2.026 -0.4967  1.3821 -0.0210
 1188SOL    HW215201   0.281   2.143   2.106 -2.2711  0.5151 -0.1294
 1189SOL     OW15202   3.399   2.934   4.201 -0.0978 -0.3079 -0.1090
 1189SOL    HW115203   3.335   2.863   4.190  2.7821 -2.8248 -0.4117
 1189SOL    HW215204   3.339   3.008   4.210 -0.1000 -0.2878 -0.2861
 1190SOL     OW15205   4.517   4.087  17.671  0.0807  0.4226 -0.2106
 1190SOL    HW115206   4.516   4.054  17.581 -0.4903  0.2842 -0.1491
 1190SOL    HW215207   4.442   4.145  17.662 -1.3816 -1.3437  0.5380
 1191SOL     OW15208   2.615   2.831   3.709  0.2907  0.1559  0.3474
 1191SOL    HW115209   2.574   2.910   3.675 -1.4180 -0.7756  0.2223
 1191SOL    HW215210   2.547   2.777   3.751 -1.4399 -0.3259 -3.1156
 1192SOL     OW15211   3.078   4.072   0.318  0.3594 -0.4418  1.0497
 1192SOL    HW115212   3.138   4.023   0.262  1.2209  2.0440 -0.2451
 1192SOL    HW215213   3.015   4.002   0.332 -2.3494  1.6397 -0.6899
 1193SOL     OW15214   1.051   0.708  16.584  0.2110 -0.2925  0.9174
 1193SOL    HW115215   1.012   0.771  16.644 -0.3453 -1.6304  1.9696
 1193SOL    HW215216   0.999   0.706  16.504  1.3072 -2.1708  0.2367
 1194SOL     OW15217   4.195   3.519   2.718  0.1291  0.3275 -0.5063
 1194SOL    HW115218   4.152   3.484   2.640  0.0263  1.0145 -0.7550
 1194SOL    HW215219   4.125   3.569   2.759 -0.3169 -0.7031  0.0016
 1195SOL     OW15220   3.371   1.931   3.526 -0.3263 -0.0171  0.0486
 1195SOL    HW115221   3.345   1.854   3.475 -1.7885 -1.4744  2.9491
 1195SOL    HW215222   3.288   1.979   3.528  1.2613  2.7151  1.0273
 1196SOL     OW15223   1.500   0.792   8.029 -0.3028  0.3270  0.0494
 1196SOL    HW115224   1.500   0.709   7.981 -0.5597 -0.3690  1.2369
 1196SOL    HW215225   1.590   0.815   8.008 -0.0754  0.3309  1.0400
 1197SOL     OW15226   3.249   4.015   3.787  0.0874 -0.0401 -0.6420
 1197SOL    HW115227   3.334   3.990   3.750 -1.1274 -0.9704 -2.8494
 1197SOL    HW215228   3.270   4.097   3.830 -1.2021 -1.1514  2.1335
 1198SOL     OW15229   2.694   2.032   5.466  0.3632  0.3728  0.3845
 1198SOL    HW115230   2.758   1.973   5.505  0.7544  0.2675 -0.4081
 1198SOL    HW215231   2.629   2.041   5.536 -1.5352 -0.4761 -1.2588
 1199SOL     OW15232   2.968   0.397   3.662  0.0016 -0.4487 -0.4878
 1199SOL    HW115233   3.028   0.471   3.674 -1.1546  0.4600 -0.2949
 1199SOL    HW215234   3.026   0.326   3.634  0.8633  0.0500  0.0116
 1200SOL     OW15235   3.141   2.061   5.086 -0.5202 -0.4078 -0.1991
 1200SOL    HW115236   3.169   2.017   5.006 -0.9810 -0.3148 -0.4116
 1200SOL    HW215237   3.209   2.115   5.127 -1.2206  1.3420 -1.3394
 1201SOL     OW15238   1.220   4.630   2.399  0.2620 -0.0572  0.3967
 1201SOL    HW115239   1.253   4.541   2.387  2.5586  0.9162 -0.5708
 1201SOL    HW215240   1.279   4.677   2.458 -0.3211  0.8548  0.2414
 1202SOL     OW15241   3.446   1.941  12.045 -0.6402  0.1034  0.4065
 1202SOL    HW115242   3.496   1.955  11.964  0.5568  0.1363  1.1523
 1202SOL    HW215243   3.509   1.888  12.093 -0.0657  0.6685  0.2874
 1203SOL     OW15244   2.686   3.913   7.851 -0.6985 -0.0000 -0.1563
 1203SOL    HW115245   2.705   3.882   7.763 -0.9573  2.6272 -1.1314
 1203SOL    HW215246   2.644   3.834   7.886  0.1760 -0.0147  0.8790
 1204SOL     OW15247   0.498   2.104   9.237 -0.0327  0.2255  0.4565
 1204SOL    HW115248   0.588   2.087   9.267  0.3114 -1.2391 -1.3895
 1204SOL    HW215249   0.512   2.083   9.145 -0.3443  1.3824  0.1534
 1205SOL     OW15250   4.642   1.284  14.927 -0.1124 -0.0653 -0.1911
 1205SOL    HW115251   4.599   1.200  14.941  2.7491 -1.5343 -0.1367
 1205SOL    HW215252   4.599   1.319  14.850  3.3072 -0.8353 -2.4646
 1206SOL     OW15253   1.701   4.202  17.101 -0.0171  0.5002  0.3038
 1206SOL    HW115254   1.747   4.133  17.054  0.0674 -0.0321  1.1664
 1206SOL    HW215255   1.741   4.284  17.072 -1.8583  1.2204 -0.2251
 1207SOL     OW15256   1.006   2.419   9.741  0.7518  0.1264 -0.4428
 1207SOL    HW115257   0.938   2.363   9.702  0.7035  0.7569 -1.2582
 1207SOL    HW215258   0.972   2.431   9.830  1.8286  3.0699 -0.4288
 1208SOL     OW15259   1.434   4.677   7.216  1.0337  0.3955 -0.0007
 1208SOL    HW115260   1.347   4.675   7.177  1.3221  0.3658 -0.6297
 1208SOL    HW215261   1.457   0.034   7.215  1.2081  0.3621  0.5748
 1209SOL     OW15262   0.167   0.060  12.602 -0.2813 -0.0831  0.2257
 1209SOL    HW115263   0.196   0.087  12.515 -3.0180  2.3849  0.0636
 1209SOL    HW215264   0.228   0.109  12.658 -2.1776  2.1938  0.3238
 1210SOL     OW15265   1.630   1.318   3.544 -0.3241 -0.6782 -0.2243
 1210SOL    HW115266   1.626   1.223   3.557 -0.7199 -0.4615  1.1755
 1210SOL    HW215267   1.687   1.329   3.468  0.2135  0.1982  0.3099
 1211SOL     OW15268   0.519   1.101  13.130 -0.1275  0.0353 -0.3419
 1211SOL    HW115269   0.426   1.115  13.145 -0.0737  0.1212 -0.0959
 1211SOL    HW215270   0.508   1.032  13.064 -1.1695 -0.2357  0.1279
 1212SOL     OW15271   3.924   3.269   2.034 -0.6215 -0.0159 -0.1386
 1212SOL    HW115272   3.881   3.200   1.982  0.5662 -1.0255  0.2176
 1212SOL    HW215273   3.909   3.348   1.983 -0.2426 -0.7106 -1.3295
 1213SOL     OW15274   4.070   1.682  14.465 -0.4515 -0.3600  0.2473
 1213SOL    HW115275   4.103   1.609  14.412  1.5593 -0.0684  1.0892
 1213SOL    HW215276   4.106   1.669  14.553 -1.7090 -0.1501  0.7937
 1214SOL     OW15277   0.635   3.884   5.740  0.3164 -0.2314 -0.2132
 1214SOL    HW115278   0.703   3.926   5.688  0.9980 -0.1327  0.7478
 1214SOL    HW215279   0.576   3.955   5.766  0.2893 -1.2188  2.4631
 1215SOL     OW15280   4.459   0.268   3.259  0.2863  0.1324 -0.6264
 1215SOL    HW115281   4.437   0.302   3.172 -1.2139  2.3461  0.6243
 1215SOL    HW215282   4.532   0.329   3.270 -0.4125  0.9006 -0.2796
 1216SOL     OW15283   2.982   1.744   3.233  0.4322 -0.6136  0.0503
 1216SOL    HW115284   2.928   1.806   3.283  2.3132  2.1139 -1.3030
 1216SOL    HW215285   3.072   1.750   3.264  0.6138  2.1371 -1.0068
 1217SOL     OW15286   2.080   2.480   7.569  0.1680  0.1218 -0.5882
 1217SOL    HW115287   2.163   2.457   7.611  0.2360  0.4864 -0.5262
 1217SOL    HW215288   2.027   2.401   7.569 -0.3027  0.4301 -1.7905
 1218SOL     OW15289   1.618   4.640   0.452 -0.0175 -0.2293  0.2319
 1218SOL    HW115290   1.689   4.605   0.399 -1.9108  0.1180 -2.5121
 1218SOL    HW215291   1.656   4.675   0.532  0.7773  1.2119 -0.7756
 1219SOL     OW15292   3.764   2.778  10.018  0.6461  0.3609 -0.4920
 1219SOL    HW115293   3.677   2.801  10.051  1.0033 -1.9970  2.0895
 1219SOL    HW215294   3.819   2.830  10.076 -0.3797  0.3881  0.4626
 1220SOL     OW15295   2.305   2.601   8.600 -0.2012  0.3373  0.2033
 1220SOL    HW115296   2.312   2.695   8.581  0.0683  0.4216  0.7308
 1220SOL    HW215297   2.245   2.599   8.674  1.0788 -0.8148  1.2006
 1221SOL     OW15298   3.478   3.840   4.509  0.3727 -0.4204 -0.9294
 1221SOL    HW115299   3.542   3.867   4.444  1.4506 -0.0417  0.2861
 1221SOL    HW215300   3.541   3.802   4.570 -0.0474  0.3674 -0.0070
 1222SOL     OW15301   4.068   3.267  10.907  0.7518 -0.4373  0.1758
 1222SOL    HW115302   4.132   3.287  10.975 -1.3093  3.5089  0.9139
 1222SOL    HW215303   4.102   3.302  10.825 -1.5545  0.0351 -0.5690
 1223SOL     OW15304   0.720   0.045   4.530 -0.1149  0.3019  0.0557
 1223SOL    HW115305   0.769   0.044   4.613  0.5074 -1.9927 -0.3428
 1223SOL    HW215306   0.662   0.121   4.538 -0.1634  0.2199  0.5387
 1224SOL     OW15307   3.001   2.721   3.955  0.6275  0.1432 -0.2272
 1224SOL    HW115308   2.910   2.698   3.937  0.1711  0.6055  1.4492
 1224SOL    HW215309   3.026   2.804   3.914 -0.4440  1.8449  2.5835
 1225SOL     OW15310   2.263   1.836  12.857  0.5066  0.5881  0.6416
 1225SOL    HW115311   2.327   1.904  12.840  0.0303  1.1117  0.9407
 1225SOL    HW215312   2.210   1.841  12.778  0.0082 -1.1873  0.8572
 1226SOL     OW15313   0.926   0.699  15.503  0.1433  0.3651  0.2082
 1226SOL    HW115314   0.973   0.732  15.580  3.1652  0.2803 -1.6066
 1226SOL    HW215315   0.898   0.776  15.454 -0.6327  1.3141  2.1386
 1227SOL     OW15316   4.618   2.835   0.203 -0.4026 -0.3544 -0.0998
 1227SOL    HW115317   4.591   2.867   0.289  1.7294  0.6304  0.2077
 1227SOL    HW215318   4.587   2.902   0.142 -1.7068 -1.5801 -0.7685
 1228SOL     OW15319   3.902   1.405  17.071 -0.7117 -0.1760 -0.5419
 1228SOL    HW115320   3.837   1.425  17.003  0.1082 -2.4746 -1.9957
 1228SOL    HW215321   3.967   1.474  17.061 -0.7344 -0.1379 -0.4189
 1229SOL     OW15322   3.136   0.743   7.837  0.2640  0.6302  0.4976
 1229SOL    HW115323   3.225   0.708   7.836 -0.4397 -1.1563  0.4166
 1229SOL    HW215324   3.131   0.765   7.930  1.3695  2.4713  0.1348
 1230SOL     OW15325   1.076   0.926   7.903  0.0923  0.1347 -0.5325
 1230SOL    HW115326   1.117   0.930   7.817  0.4378  2.5115 -0.2642
 1230SOL    HW215327   1.054   1.019   7.910 -0.0509  0.1095 -0.6494
 1231SOL     OW15328   2.245   3.005  14.820  0.4034  0.1358  0.7076
 1231SOL    HW115329   2.183   3.055  14.873 -1.6023  0.4371 -1.9690
 1231SOL    HW215330   2.216   2.915  14.830 -1.4370  0.6497 -0.1544
 1232SOL     OW15331   1.786   0.527   5.474 -0.2122  0.1354  0.0776
 1232SOL    HW115332   1.779   0.621   5.464 -1.3095  0.2592  1.9374
 1232SOL    HW215333   1.704   0.502   5.517 -0.7613  1.9452  0.0541
 1233SOL     OW15334   3.774   0.961   7.489  0.1505 -0.6689 -0.4668
 1233SOL    HW115335   3.744   1.006   7.410  0.0880  0.5071  0.2265
 1233SOL    HW215336   3.746   1.023   7.557  0.7456 -0.3867 -0.4795
 1234SOL     OW15337   2.198   0.316  11.327 -0.2888 -0.5682 -0.5724
 1234SOL    HW115338   2.180   0.269  11.245 -1.5007  3.2990 -2.5205
 1234SOL    HW215339   2.194   0.246  11.392 -1.3376 -0.7722 -0.8574
 1235SOL     OW15340   1.560   2.156   2.947 -0.3169 -0.7453 -0.2997
 1235SOL    HW115341   1.633   2.097   2.929  1.1448  1.2191 -0.8423
 1235SOL    HW215342   1.549   2.193   2.859  0.8496 -2.6631 -1.2498
 1236SOL     OW15343   2.046   0.900   7.435 -0.1103  0.0585  0.0948
 1236SOL    HW115344   1.956   0.871   7.420 -0.1543 -0.5328  1.5341
 1236SOL    HW215345   2.099   0.820   7.442  1.6452  1.0006 -2.0697
 1237SOL     OW15346   1.286   3.109   2.753  0.3469 -0.4723 -0.0947
 1237SOL    HW115347   1.236   3.044   2.704 -1.5942  1.0693 -0.1662
 1237SOL    HW215348   1.276   3.185   2.697  1.6618 -0.7389 -0.6824
 1238SOL     OW15349   3.339   3.811   1.015 -0.1705  0.6463  0.0518
 1238SOL    HW115350   3.278   3.864   0.964 -0.5452 -0.4632 -0.6541
 1238SOL    HW215351   3.409   3.795   0.952 -0.0832 -0.1824  0.3546
 1239SOL     OW15352   2.523   1.562  12.046 -0.5830 -0.7916  0.0909
 1239SOL    HW115353   2.428   1.575  12.053 -0.9725 -2.6719 -1.6210
 1239SOL    HW215354   2.537   1.574  12.140 -0.2718 -1.2188  0.0953
 1240SOL     OW15355   3.554   3.524   6.477 -0.0071 -0.3142  0.1235
 1240SOL    HW115356   3.507   3.554   6.399 -1.0659 -0.9886  0.5066
 1240SOL    HW215357   3.638   3.508   6.434  0.0180 -0.6625  0.2988
 1241SOL     OW15358   0.473   2.895   2.884 -0.1200 -0.2094  0.2184
 1241SOL    HW115359   0.548   2.892   2.825 -1.4048  0.0376 -1.4327
 1241SOL    HW215360   0.433   2.979   2.861 -1.8039 -1.0429  0.0730
 1242SOL     OW15361   0.054   0.380   4.337 -0.3471  0.3099  0.1830
 1242SOL    HW115362   0.050   0.355   4.430 -1.6835  0.6119  0.2044
 1242SOL    HW215363   0.025   0.471   4.342 -2.9326 -0.3561 -3.1491
 1243SOL     OW15364   1.055   4.541   9.715 -0.2708  0.7008  0.0564
 1243SOL    HW115365   1.127   4.487   9.747 -0.9442 -1.2104 -1.6148
 1243SOL    HW215366   1.006   4.572   9.791  0.3282 -1.4095  1.2755
 1244SOL     OW15367   4.004   3.545  17.573  0.3145  0.2281  0.3965
 1244SOL    HW115368   4.085   3.565  17.619  1.1237 -0.7317 -0.6226
 1244SOL    HW215369   4.033   3.473  17.518  0.2193  1.4577 -1.2654
 1245SOL     OW15370   4.408   4.685   0.901 -0.3388  0.0310  0.1056
 1245SOL    HW115371   4.460   4.623   0.850 -0.7736 -1.5896  1.6730
 1245SOL    HW215372   4.342   4.632   0.944 -0.1642 -1.2842 -1.2335
 1246SOL     OW15373   4.350   2.544   0.142  0.1631  0.2166  0.4257
 1246SOL    HW115374   4.412   2.575   0.075 -0.8947  3.9818  1.1698
 1246SOL    HW215375   4.283   2.609   0.120 -1.0579 -1.0068  0.5864
 1247SOL     OW15376   0.507   4.297   3.662  0.1959 -0.5610 -0.4391
 1247SOL    HW115377   0.498   4.213   3.708 -3.0071  0.8919  1.5200
 1247SOL    HW215378   0.579   4.273   3.604  0.0898 -0.0922 -0.7620
 1248SOL     OW15379   1.501   0.339   5.920 -0.0467 -0.0003  0.4882
 1248SOL    HW115380   1.540   0.262   5.880 -0.4363  0.0058  0.1014
 1248SOL    HW215381   1.507   0.412   5.858 -2.5457  0.4564  0.7990
 1249SOL     OW15382   1.265   2.955  13.782  0.2988  0.1614 -0.0443
 1249SOL    HW115383   1.228   2.906  13.856 -0.0828  2.8923  1.5800
 1249SOL    HW215384   1.354   2.964  13.817 -0.5325 -1.8340  2.6586
 1250SOL     OW15385   4.320   0.140  12.252 -0.3355 -0.0924 -1.1170
 1250SOL    HW115386   4.311   0.064  12.311  1.0333  0.6812  0.0854
 1250SOL    HW215387   4.357   0.097  12.175  1.2520  0.9951 -0.9565
 1251SOL     OW15388   3.620   2.492   5.287 -0.2410  0.3599 -0.6166
 1251SOL    HW115389   3.655   2.505   5.198  2.7463 -1.3166  0.2985
 1251SOL    HW215390   3.663   2.558   5.341  1.8243 -2.1897  0.8627
 1252SOL     OW15391   4.321   1.914   5.400  0.3308  0.1746  0.4169
 1252SOL    HW115392   4.372   1.869   5.466  0.8015 -0.8058 -0.6141
 1252SOL    HW215393   4.237   1.902   5.445  0.8824  2.1781  1.9788
 1253SOL     OW15394   3.414   1.628   6.669 -0.3608 -0.2866  0.2988
 1253SOL    HW115395   3.365   1.681   6.732  0.1417  2.6031 -1.7439
 1253SOL    HW215396   3.354   1.639   6.596  0.2897  0.1510 -0.1700
 1254SOL     OW15397   3.786   4.700   8.199 -0.1312 -0.2010  0.4333
 1254SOL    HW115398   3.794   4.613   8.159 -1.0194 -0.1123  0.0507
 1254SOL    HW215399   3.708   4.723   8.147  0.1256 -2.3983 -0.9476
 1255SOL     OW15400   1.947   0.957   2.505  0.2658 -0.1495 -0.8546
 1255SOL    HW115401   1.960   0.867   2.532  0.2123  0.7626  2.1922
 1255SOL    HW215402   2.023   0.976   2.451  0.1263  0.6192 -0.7904
 1256SOL     OW15403   0.561   1.285  17.045 -0.0335  0.5884  0.6845
 1256SOL    HW115404   0.481   1.243  17.078 -0.4655 -1.1353 -2.5795
 1256SOL    HW215405   0.610   1.312  17.122  1.8264 -0.2354 -0.2199
 1257SOL     OW15406   1.999   0.995   1.634 -0.0981  0.3338 -0.1250
 1257SOL    HW115407   1.992   0.928   1.702  3.3371 -1.8484 -1.9492
 1257SOL    HW215408   1.927   1.045   1.673 -0.7619 -2.3639  2.1513
 1258SOL     OW15409   3.859   3.822  11.126 -0.4426 -0.0287 -0.1101
 1258SOL    HW115410   3.837   3.813  11.219  2.9132 -1.2740  0.5612
 1258SOL    HW215411   3.909   3.743  11.109 -0.4382  0.4573 -2.3027
 1259SOL     OW15412   1.693   3.349  14.003  0.1292 -0.6547  0.1816
 1259SOL    HW115413   1.630   3.413  14.036  0.3576 -0.2907 -0.0880
 1259SOL    HW215414   1.769   3.398  13.971  1.2125 -2.2331  0.3866
 1260SOL     OW15415   4.444   3.329  11.830  0.3693 -0.0694 -0.1331
 1260SOL    HW115416   4.385   3.399  11.860  2.4642  2.2643 -1.4327
 1260SOL    HW215417   4.412   3.319  11.740 -1.0967  2.4834  0.0989
 1261SOL     OW15418   2.641   0.703   9.923  0.7508  0.4872 -0.1797
 1261SOL    HW115419   2.662   0.611   9.941  0.4106  0.6550  1.0766
 1261SOL    HW215420   2.698   0.757   9.977 -1.1034  1.1979  1.0771
 1262SOL     OW15421   3.901   1.494   1.821 -0.5378  0.4903  0.0343
 1262SOL    HW115422   3.859   1.433   1.760 -0.5026 -1.5705  2.0494
 1262SOL    HW215423   3.874   1.453   1.904  0.7766 -0.1061  0.1726
 1263SOL     OW15424   2.715   4.668   9.865  0.3841 -0.3346 -0.1127
 1263SOL    HW115425   2.649   4.736   9.849 -0.7033 -1.0040  1.5380
 1263SOL    HW215426   2.660   4.615   9.922  1.5606 -1.7935 -0.3543
 1264SOL     OW15427   0.296   4.472   3.967 -0.0037  0.4049 -0.7707
 1264SOL    HW115428   0.358   4.404   3.941 -1.5412 -0.5076 -2.0564
 1264SOL    HW215429   0.226   4.409   3.948  1.8007 -1.7144 -0.3456
 1265SOL     OW15430   1.451   3.921   8.675  0.1117  0.9648 -0.1294
 1265SOL    HW115431   1.503   3.849   8.640  0.9980  1.8764 -0.6829
 1265SOL    HW215432   1.502   3.999   8.651 -2.4251  2.8236  0.5734
 1266SOL     OW15433   1.741   4.654  16.763  0.2290  0.2809  0.3729
 1266SOL    HW115434   1.829   4.641  16.728  1.0322  1.2366  2.0249
 1266SOL    HW215435   1.684   4.639  16.687 -1.5771  1.1282  1.5509
 1267SOL     OW15436   1.087   3.555   1.439  0.1902  0.1310 -0.4574
 1267SOL    HW115437   1.155   3.603   1.392 -0.6628  1.2935 -0.4849
 1267SOL    HW215438   1.038   3.627   1.479  1.4798  0.8836 -0.2378
 1268SOL     OW15439   3.279   3.487  15.142  0.3774 -0.4189  0.0425
 1268SOL    HW115440   3.269   3.392  15.143  0.8055 -0.4244  2.5648
 1268SOL    HW215441   3.356   3.499  15.086  0.2139 -0.8753 -0.2768
 1269SOL     OW15442   1.310   3.833   5.958 -0.3668  0.7189  0.8952
 1269SOL    HW115443   1.269   3.872   5.881  2.7074  0.2633 -0.9290
 1269SOL    HW215444   1.231   3.823   6.012 -0.1899  0.5625  1.1282
 1270SOL     OW15445   3.863   3.383   7.471  0.3193  0.0525  0.4008
 1270SOL    HW115446   3.840   3.305   7.422 -0.4745  0.7020 -0.2491
 1270SOL    HW215447   3.958   3.375   7.482  0.2606 -0.0819  0.7992
 1271SOL     OW15448   1.488   1.631   1.780  0.2084  0.2385 -0.1198
 1271SOL    HW115449   1.464   1.643   1.688  1.0088 -2.6500 -0.6872
 1271SOL    HW215450   1.487   1.536   1.786 -2.5649  0.1937 -1.3015
 1272SOL     OW15451   2.428   2.006   2.708  0.3141  0.8529  0.4347
 1272SOL    HW115452   2.344   1.989   2.751 -1.7798  2.6225 -2.9352
 1272SOL    HW215453   2.491   1.980   2.775  0.7489  0.8584  0.0325
 1273SOL     OW15454   1.006   0.727   2.865 -1.0025  0.2448 -0.3504
 1273SOL    HW115455   0.929   0.711   2.920 -0.2211  1.2764  1.0272
 1273SOL    HW215456   0.991   0.816   2.833  1.7476  0.9778  0.5011
 1274SOL     OW15457   1.562   2.405   1.962 -0.7938 -0.1943 -0.2148
 1274SOL    HW115458   1.620   2.330   1.952  0.8299  0.8426  1.3530
 1274SOL    HW215459   1.617   2.467   1.914 -0.9416  1.7579  2.0922
 1275SOL     OW15460   3.519   4.305  17.581 -0.0522 -0.4405  0.1867
 1275SOL    HW115461   3.613   4.304  17.564 -0.0548  3.7816 -0.1302
 1275SOL    HW215462   3.492   4.393  17.607  0.9452  0.0428 -0.4028
 1276SOL     OW15463   0.757   0.674   2.099 -0.2583 -0.3270 -0.2195
 1276SOL    HW115464   0.848   0.650   2.084 -0.3943 -1.9536  1.6477
 1276SOL    HW215465   0.740   0.715   2.014 -1.4819  0.2210  0.2857
 1277SOL     OW15466   1.340   2.623   5.386  0.0049  0.6668 -0.1886
 1277SOL    HW115467   1.282   2.595   5.315  0.6134 -0.6003 -0.1791
 1277SOL    HW215468   1.285   2.689   5.428 -1.8769 -0.9131 -0.1319
 1278SOL     OW15469   1.584   4.448   2.690  0.2933 -0.5500  0.3211
 1278SOL    HW115470   1.635   4.454   2.770 -0.4328 -2.3825  0.9169
 1278SOL    HW215471   1.535   4.368   2.708 -1.8266  0.6687  0.0927
 1279SOL     OW15472   3.153   4.644   0.623 -0.5242 -0.3986  0.7755
 1279SOL    HW115473   3.211   4.618   0.551  0.3769 -0.1934  1.4267
 1279SOL    HW215474   3.178   4.735   0.640 -0.7598 -0.4277  1.2781
 1280SOL     OW15475   3.466   1.491   0.524  0.6018  0.0592 -0.1917
 1280SOL    HW115476   3.488   1.487   0.617  0.2388  2.1260 -0.0093
 1280SOL    HW215477   3.551   1.508   0.484  1.4150 -0.6879  1.1966
 1281SOL     OW15478   0.862   2.135   8.203  0.1660 -0.6034 -0.3339
 1281SOL    HW115479   0.884   2.057   8.253 -0.3246 -0.1400  0.6079
 1281SOL    HW215480   0.782   2.172   8.240  0.0978 -2.7746  1.6745
 1282SOL     OW15481   3.820   1.867   1.262  0.0606  0.2079  0.3719
 1282SOL    HW115482   3.746   1.923   1.237  0.4687 -0.4708 -2.3285
 1282SOL    HW215483   3.859   1.929   1.323  1.7488  0.6927 -1.2090
 1283SOL     OW15484   0.464   1.528   8.366 -0.4298 -1.2455 -0.2665
 1283SOL    HW115485   0.390   1.491   8.414 -0.0004 -0.8008  0.7427
 1283SOL    HW215486   0.512   1.562   8.441  1.0687 -0.8766 -1.4050
 1284SOL     OW15487   2.067   0.158   0.277  0.5628  0.1543 -0.2663
 1284SOL    HW115488   2.100   0.072   0.250 -0.3165 -0.0595 -0.6363
 1284SOL    HW215489   2.152   0.200   0.291 -0.0242  1.0650  0.5840
 1285SOL     OW15490   2.066   0.152  13.103  0.1672  0.6793 -0.3938
 1285SOL    HW115491   2.093   0.136  13.193 -1.3705 -3.2859 -0.6678
 1285SOL    HW215492   2.068   0.064  13.067 -0.6712 -0.6128  2.7006
 1286SOL     OW15493   3.583   1.384   4.055  0.2885  0.0937  0.7694
 1286SOL    HW115494   3.593   1.452   4.121 -0.2479 -0.7959  1.7724
 1286SOL    HW215495   3.502   1.421   4.020  1.6200  1.9090 -0.3808
 1287SOL     OW15496   1.307   2.509   1.862 -0.0152 -0.2044 -0.4230
 1287SOL    HW115497   1.360   2.505   1.782  0.6531  0.5889 -0.0302
 1287SOL    HW215498   1.241   2.443   1.842  0.7715 -0.5032 -2.0690
 1288SOL     OW15499   0.974   2.726   0.695  0.5007 -1.0330  0.4247
 1288SOL    HW115500   0.962   2.679   0.612 -0.7543 -2.1403  1.2486
 1288SOL    HW215501   0.890   2.711   0.736  0.4516 -1.5740  0.1374
 1289SOL     OW15502   1.286   1.865   6.022 -0.1020  0.0419 -0.4121
 1289SOL    HW115503   1.277   1.960   6.031  0.9533  0.0625  0.3889
 1289SOL    HW215504   1.197   1.830   6.015 -0.3158  0.7398 -1.1414
 1290SOL     OW15505   1.800   1.173   2.603 -0.4056  0.0885  0.9387
 1290SOL    HW115506   1.864   1.110   2.570 -2.3048 -0.6010 -1.4215
 1290SOL    HW215507   1.760   1.218   2.529  0.3334  0.4102  0.7361
 1291SOL     OW15508   0.177   2.960   1.873  0.0277 -0.1046  0.5422
 1291SOL    HW115509   0.196   2.952   1.967 -1.2462  0.0231  0.8000
 1291SOL    HW215510   0.093   2.914   1.874  0.7779 -1.5001 -0.4512
 1292SOL     OW15511   2.087   4.414   3.390  0.4415  0.0217  0.2440
 1292SOL    HW115512   2.147   4.472   3.437 -0.5212  0.2579  1.1713
 1292SOL    HW215513   2.008   4.440   3.437 -2.3486 -2.2147 -3.2105
 1293SOL     OW15514   1.643   3.717   8.599  0.4860 -0.5537 -0.4683
 1293SOL    HW115515   1.670   3.681   8.514 -1.2016 -3.0756  0.0555
 1293SOL    HW215516   1.620   3.643   8.655 -3.1867  0.3949 -0.6832
 1294SOL     OW15517   4.303   4.297   3.588  0.2613  0.5207 -0.3648
 1294SOL    HW115518   4.277   4.300   3.496 -1.6594  0.6099  0.2025
 1294SOL    HW215519   4.311   4.388   3.614  0.9241  0.1118  0.8701
 1295SOL     OW15520   4.547   3.253   0.427  0.3071 -0.1954  0.2559
 1295SOL    HW115521   4.496   3.264   0.347  0.3944  0.4710  0.2935
 1295SOL    HW215522   4.510   3.176   0.470  2.4036 -0.8414  0.9225
 1296SOL     OW15523   1.785   4.162   9.039  0.2749  0.3166 -0.4107
 1296SOL    HW115524   1.798   4.097   8.970 -1.1353 -0.2945 -0.1173
 1296SOL    HW215525   1.832   4.130   9.116 -1.4263 -2.3050 -0.4422
 1297SOL     OW15526   1.089   2.654   1.981  0.1516  0.4802  0.4939
 1297SOL    HW115527   1.156   2.608   1.931 -1.1409  0.8050 -1.5129
 1297SOL    HW215528   1.141   2.704   2.044 -1.1080 -0.1236  2.0119
 1298SOL     OW15529   4.149   3.157   5.708 -0.3429  0.6473 -0.3064
 1298SOL    HW115530   4.129   3.225   5.773 -2.3746 -0.1592 -0.0900
 1298SOL    HW215531   4.222   3.186   5.653  1.4707 -4.1027 -0.3853
 1299SOL     OW15532   4.424   4.200   5.772  0.3358 -0.3749  0.1233
 1299SOL    HW115533   4.417   4.217   5.866  0.5473  0.2651  0.0215
 1299SOL    HW215534   4.392   4.109   5.768  0.1891 -0.3901  1.3988
 1300SOL     OW15535   1.735   3.384  13.678 -1.0180  0.5469  0.0864
 1300SOL    HW115536   1.665   3.319  13.682 -0.6096  0.0590 -0.8948
 1300SOL    HW215537   1.766   3.391  13.769  3.4410  1.7350 -1.5383
 1301SOL     OW15538   1.761   0.249   7.730 -0.1421 -0.0839 -0.2151
 1301SOL    HW115539   1.828   0.198   7.684  0.3243 -1.1072  1.6113
 1301SOL    HW215540   1.724   0.188   7.794 -0.5353  0.2671 -0.1073
 1302SOL     OW15541   2.479   2.372   1.597  0.0019  0.3200  0.1731
 1302SOL    HW115542   2.391   2.379   1.560  0.4919  2.7137 -0.5857
 1302SOL    HW215543   2.498   2.285   1.564  1.1007  0.2735  0.9445
 1303SOL     OW15544   2.967   0.249   0.424  0.3530  0.4563 -0.1582
 1303SOL    HW115545   2.992   0.196   0.348 -0.0676 -0.3802  0.2806
 1303SOL    HW215546   3.042   0.306   0.434 -0.7377  1.4661  2.1500
 1304SOL     OW15547   1.087   4.192  12.397  0.1607 -0.5564  0.6863
 1304SOL    HW115548   1.046   4.166  12.479 -1.0446 -1.4792 -0.1966
 1304SOL    HW215549   1.018   4.157  12.340  0.0471  2.3254 -0.9831
 1305SOL     OW15550   1.279   0.444  10.659 -0.2289 -0.3896  0.3727
 1305SOL    HW115551   1.203   0.427  10.716 -0.7837  0.7649 -0.0057
 1305SOL    HW215552   1.340   0.495  10.711  1.7611 -0.4956 -1.8880
 1306SOL     OW15553   3.787   3.825   8.456  0.3984  0.1969 -0.1206
 1306SOL    HW115554   3.704   3.786   8.428 -0.9118  2.0397  1.2172
 1306SOL    HW215555   3.787   3.913   8.418  0.7341  0.2039 -0.1067
 1307SOL     OW15556   2.394   3.339  17.361 -0.5492 -0.2124  0.2443
 1307SOL    HW115557   2.458   3.378  17.301 -0.8408  3.1057  2.0925
 1307SOL    HW215558   2.346   3.289  17.295 -2.8572  2.7899 -0.3346
 1308SOL     OW15559   0.654   2.492   9.499 -0.0478 -0.0836 -0.7888
 1308SOL    HW115560   0.666   2.427   9.568 -2.3194 -0.7976 -1.0674
 1308SOL    HW215561   0.707   2.567   9.528 -0.4970  0.1242 -0.4992
 1309SOL     OW15562   3.380   4.246   4.819  0.1570 -0.3614 -0.0583
 1309SOL    HW115563   3.447   4.307   4.851  0.0460  0.1817 -0.8581
 1309SOL    HW215564   3.303   4.245   4.876  2.1408  0.4530  2.6959
 1310SOL     OW15565   0.718   1.515   4.522 -0.0241 -0.4030 -0.1077
 1310SOL    HW115566   0.715   1.422   4.499  3.1012 -0.1696 -1.5289
 1310SOL    HW215567   0.792   1.535   4.464  0.7774 -1.3947  0.5861
 1311SOL     OW15568   2.873   2.892  12.105  0.1949  0.2413 -0.1755
 1311SOL    HW115569   2.812   2.855  12.042  0.6122 -0.1953 -0.3207
 1311SOL    HW215570   2.854   2.825  12.170  3.4737  0.3836  0.9153
 1312SOL     OW15571   4.001   1.998   7.519  0.2048 -0.4978  0.6823
 1312SOL    HW115572   4.006   2.091   7.542 -0.7524 -0.1148 -0.6359
 1312SOL    HW215573   4.040   1.995   7.432 -0.6095  2.3097  0.2352
 1313SOL     OW15574   3.318   3.120   3.613  0.0373  0.0555 -0.3250
 1313SOL    HW115575   3.386   3.119   3.546  3.3743  0.0185  3.0218
 1313SOL    HW215576   3.372   3.173   3.672  0.3916  0.9572 -1.4506
 1314SOL     OW15577   2.479   0.011   4.785 -0.3955  0.5732 -0.6907
 1314SOL    HW115578   2.419   4.677   4.759  2.7481 -2.1584 -0.6121
 1314SOL    HW215579   2.408   0.065   4.818 -0.1221  0.0939  0.6709
 1315SOL     OW15580   4.246   0.114   0.599  0.4478 -0.2553  0.0834
 1315SOL    HW115581   4.328   0.123   0.550 -0.2319  2.2967 -0.6018
 1315SOL    HW215582   4.242   0.199   0.643 -1.1633  0.2319 -1.0091
 1316SOL     OW15583   0.881   2.101   7.921  0.2780  0.0360  0.0556
 1316SOL    HW115584   0.873   2.083   8.015  1.1854 -0.5331  0.0198
 1316SOL    HW215585   0.855   2.016   7.886 -0.8206  0.5546 -0.4006
 1317SOL     OW15586   2.471   1.034   3.997 -0.7585  0.1155  0.9603
 1317SOL    HW115587   2.566   1.025   4.006 -1.1127 -3.1992  1.5678
 1317SOL    HW215588   2.447   1.080   4.078 -1.7649  0.0459  0.7033
 1318SOL     OW15589   2.010   2.572   8.406 -0.2789  0.5583 -0.7851
 1318SOL    HW115590   2.091   2.577   8.354  1.0088 -1.9856  0.9979
 1318SOL    HW215591   2.050   2.519   8.475  0.9373  2.0128 -0.3747
 1319SOL     OW15592   2.050   4.026  14.071  0.6408  0.0450 -0.4256
 1319SOL    HW115593   2.023   4.024  14.162  0.2625 -0.3369 -0.5469
 1319SOL    HW215594   2.142   4.051  14.078  0.3715  1.5825 -2.0739
 1320SOL     OW15595   0.384   0.391   2.088  0.0586 -0.5984  0.0645
 1320SOL    HW115596   0.368   0.297   2.093  2.2934 -0.8958  1.3560
 1320SOL    HW215597   0.470   0.397   2.130 -0.6835  1.6983  1.2741
 1321SOL     OW15598   2.428   1.099  14.761  0.1783 -0.3543 -0.2163
 1321SOL    HW115599   2.361   1.166  14.748 -0.4379 -0.7384  0.9591
 1321SOL    HW215600   2.465   1.111  14.848  0.6401 -1.4918 -0.2605
 1322SOL     OW15601   1.869   1.930   5.815 -0.2402  0.3711  0.8128
 1322SOL    HW115602   1.959   1.949   5.842 -0.2473  0.3327  0.8627
 1322SOL    HW215603   1.844   1.875   5.889  1.9892 -1.8812 -0.1130
 1323SOL     OW15604   1.055   4.088   8.958  0.0670 -0.4070  0.1906
 1323SOL    HW115605   1.142   4.068   8.925  0.2731  0.7742  0.0451
 1323SOL    HW215606   1.009   4.041   8.888  1.3845 -0.2654 -0.7530
 1324SOL     OW15607   4.168   0.961   6.769  0.6016  0.3888 -0.5219
 1324SOL    HW115608   4.183   0.869   6.790  0.6382  0.6087  0.4264
 1324SOL    HW215609   4.165   0.991   6.860 -1.9536 -1.7428  0.1077
 1325SOL     OW15610   0.962   3.558  10.431  0.0060 -0.3921  0.0460
 1325SOL    HW115611   1.000   3.631  10.478 -1.0140  1.5977 -2.2183
 1325SOL    HW215612   1.037   3.531  10.378  0.2854 -0.3097  0.3995
 1326SOL     OW15613   1.620   2.684   9.294  0.6245 -0.7612  0.3774
 1326SOL    HW115614   1.585   2.756   9.242  1.5788 -0.6486 -0.1064
 1326SOL    HW215615   1.538   2.636   9.312 -0.8340  0.5808 -2.6679
 1327SOL     OW15616   2.300   1.920   3.087 -0.1017  0.4718 -0.0444
 1327SOL    HW115617   2.280   2.014   3.083  1.0512  0.6491 -1.5155
 1327SOL    HW215618   2.238   1.887   3.152  2.3944 -0.4180  1.8517
 1328SOL     OW15619   3.930   1.341   6.291  0.2884  0.1703  0.0431
 1328SOL    HW115620   4.016   1.346   6.333 -0.0727  2.0285  0.5759
 1328SOL    HW215621   3.950   1.296   6.209 -2.3523 -0.6331 -0.1522
 1329SOL     OW15622   3.051   3.256   3.072 -0.1507  0.4634  0.1461
 1329SOL    HW115623   3.113   3.294   3.135  0.6441  1.5982 -1.3073
 1329SOL    HW215624   3.085   3.167   3.067  0.0512  0.2604  5.2194
 1330SOL     OW15625   4.112   3.556   8.584  0.6271 -0.0893  0.2433
 1330SOL    HW115626   4.150   3.507   8.511  0.3685 -2.2632  1.5568
 1330SOL    HW215627   4.159   3.517   8.658  0.3154 -0.0580  0.4581
 1331SOL     OW15628   2.921   2.997   9.053 -0.4355  0.0826 -0.3180
 1331SOL    HW115629   2.996   3.057   9.055 -0.4931  0.1832 -1.2771
 1331SOL    HW215630   2.959   2.909   9.056 -0.5926 -0.0003 -0.7751
 1332SOL     OW15631   4.573   0.981   2.243  0.3753  0.1740  0.4061
 1332SOL    HW115632   4.570   0.987   2.148  2.0965  0.2024  0.3512
 1332SOL    HW215633   4.557   1.074   2.263  0.7378 -0.0462  1.7470
 1333SOL     OW15634   0.025   1.530   5.928  0.0954 -0.0313 -0.0012
 1333SOL    HW115635   4.721   1.535   6.015  0.5336  0.0462  0.1998
 1333SOL    HW215636   0.009   1.440   5.901 -2.4357  0.6871 -0.8531
 1334SOL     OW15637   2.733   0.344   4.220 -0.0823  0.1269 -0.2290
 1334SOL    HW115638   2.711   0.337   4.127 -2.8060 -0.4807  0.4428
 1334SOL    HW215639   2.719   0.258   4.261  0.9845 -0.0732 -0.2937
 1335SOL     OW15640   2.523   3.475   1.696  0.3047  0.3350 -0.3055
 1335SOL    HW115641   2.516   3.514   1.608  0.9920  1.1070 -0.0188
 1335SOL    HW215642   2.436   3.435   1.697  0.8796 -0.8785  1.4373
 1336SOL     OW15643   2.477   4.277   0.962 -0.0333  0.3308  0.2878
 1336SOL    HW115644   2.389   4.316   0.963 -0.6029 -1.0190  1.9007
 1336SOL    HW215645   2.489   4.271   1.057 -2.3119  0.0506  0.5665
 1337SOL     OW15646   1.772   0.799   8.089 -0.1906 -0.2050 -0.2838
 1337SOL    HW115647   1.820   0.718   8.107  2.5570  1.5007 -0.0030
 1337SOL    HW215648   1.732   0.809   8.175 -0.1431 -1.3056 -0.1361
 1338SOL     OW15649   3.174   3.240   3.967 -0.3266  0.5026 -0.0305
 1338SOL    HW115650   3.257   3.194   3.980 -0.2965  1.0162  1.6164
 1338SOL    HW215651   3.150   3.237   4.060 -1.8872  1.5036 -0.3909
 1339SOL     OW15652   2.533   4.513   2.893 -0.5597  0.3159  0.2376
 1339SOL    HW115653   2.594   4.439   2.889 -0.4585  0.4604 -0.8863
 1339SOL    HW215654   2.471   4.485   2.825 -0.2764  0.9607 -0.2788
 1340SOL     OW15655   4.504   0.749   7.040  0.4866 -0.4315  0.1597
 1340SOL    HW115656   4.563   0.750   6.965 -0.1318 -1.1739 -0.3396
 1340SOL    HW215657   4.476   0.840   7.037  0.2402 -0.4677  1.3723
 1341SOL     OW15658   0.978   4.217   2.173  0.0066 -0.3120  0.1092
 1341SOL    HW115659   0.997   4.183   2.261 -0.1851 -0.2801  0.1639
 1341SOL    HW215660   1.063   4.253   2.146 -0.5605  2.4327  1.9790
 1342SOL     OW15661   2.112   2.076   9.494 -0.6002  0.0955  0.0890
 1342SOL    HW115662   2.166   2.145   9.456 -0.5662 -1.9366 -3.5712
 1342SOL    HW215663   2.080   2.106   9.579 -1.2693 -0.0102 -0.1222
 1343SOL     OW15664   3.842   3.485   6.303 -0.7961  0.4007 -0.2867
 1343SOL    HW115665   3.875   3.453   6.387 -3.5773  1.7883  1.3095
 1343SOL    HW215666   3.908   3.447   6.245  1.3038  1.5204  1.3756
 1344SOL     OW15667   3.725   3.101   9.832 -0.0049  0.5641  0.3148
 1344SOL    HW115668   3.813   3.065   9.824 -0.6053 -1.0680  1.1758
 1344SOL    HW215669   3.697   3.071   9.919  1.7026 -0.9353  0.3356
 1345SOL     OW15670   0.566   4.340   2.967 -0.1897  0.8007 -0.1426
 1345SOL    HW115671   0.536   4.330   2.877  1.1726  0.5660 -0.5713
 1345SOL    HW215672   0.532   4.258   3.001  0.0234  1.1122  0.8081
 1346SOL     OW15673   2.665   1.619  10.583  0.5747 -0.0824 -0.0023
 1346SOL    HW115674   2.747   1.573  10.601  1.0511 -0.2612 -2.6887
 1346SOL    HW215675   2.676   1.638  10.490 -0.4660 -0.1784 -0.1457
 1347SOL     OW15676   3.199   2.300   6.220 -0.3659 -0.5548  0.0357
 1347SOL    HW115677   3.116   2.257   6.244  0.2684 -0.9801  1.4344
 1347SOL    HW215678   3.262   2.229   6.230 -0.2331 -0.5774 -0.9562
 1348SOL     OW15679   1.842   0.302   3.447 -0.6338 -0.0286 -0.0426
 1348SOL    HW115680   1.856   0.255   3.365  1.7253 -0.1512  0.4364
 1348SOL    HW215681   1.831   0.226   3.504 -1.0964  1.9486  2.4986
 1349SOL     OW15682   4.339   2.926  13.999  0.4041  0.0322  0.0715
 1349SOL    HW115683   4.350   2.884  14.084 -0.9675  2.5283  1.4983
 1349SOL    HW215684   4.301   3.010  14.026  0.9501 -0.1641  1.4288
 1350SOL     OW15685   0.760   2.379   6.349 -0.0504  0.2217 -0.0720
 1350SOL    HW115686   0.669   2.353   6.336  0.4378 -1.5583 -0.0237
 1350SOL    HW215687   0.769   2.434   6.271  1.4933 -1.8155 -1.3335
 1351SOL     OW15688   2.745   0.200   7.852  0.4327 -0.3272  0.5700
 1351SOL    HW115689   2.724   0.112   7.822  0.1129  0.3811 -1.3440
 1351SOL    HW215690   2.694   0.260   7.798  1.1607  0.3203  0.5949
 1352SOL     OW15691   1.422   0.821  10.976  0.3006 -0.3509  0.2845
 1352SOL    HW115692   1.375   0.786  11.052  1.1045  1.7258  1.7510
 1352SOL    HW215693   1.505   0.848  11.015  1.2295 -0.8520 -1.3302
 1353SOL     OW15694   1.329   2.005   2.992  0.3238  0.3620 -0.2479
 1353SOL    HW115695   1.411   2.053   2.978 -0.1375  1.2204 -0.0117
 1353SOL    HW215696   1.280   2.060   3.053 -1.2834 -1.2053 -0.1273
 1354SOL     OW15697   0.095   2.320  10.239 -0.2071  0.2884 -0.1424
 1354SOL    HW115698   0.142   2.344  10.319 -1.3861  0.5852  0.4610
 1354SOL    HW215699   0.166   2.283  10.187 -0.6553  0.5817 -0.9714
 1355SOL     OW15700   4.135   2.126   8.464  0.1355 -0.5602 -0.4490
 1355SOL    HW115701   4.229   2.144   8.472 -0.1645  0.8043  0.0718
 1355SOL    HW215702   4.119   2.142   8.371  1.0313  0.8476 -0.3582
 1356SOL     OW15703   2.669   4.628   3.834  0.3145  0.5068  0.2730
 1356SOL    HW115704   2.667   4.533   3.845  1.7543  0.4381  0.0349
 1356SOL    HW215705   2.687   4.632   3.739 -4.7298 -1.2152 -0.7291
 1357SOL     OW15706   3.694   0.692   5.399 -0.3340  0.4178 -0.3846
 1357SOL    HW115707   3.657   0.716   5.484 -1.4615 -1.8022 -0.2688
 1357SOL    HW215708   3.752   0.767   5.381 -2.0446  2.3019  1.9110
 1358SOL     OW15709   2.892   1.291   3.632  0.0958  0.6481  0.1545
 1358SOL    HW115710   2.972   1.250   3.664  0.4906  1.4207  0.1615
 1358SOL    HW215711   2.839   1.214   3.610 -0.9411  0.4698  3.3566
 1359SOL     OW15712   1.870   3.158   7.714 -0.2505  0.5893  0.2695
 1359SOL    HW115713   1.810   3.092   7.749  1.0801 -1.0339 -0.5040
 1359SOL    HW215714   1.903   3.110   7.638 -0.0098  1.3461 -0.1079
 1360SOL     OW15715   1.767   1.521   6.058 -0.3798  0.1289 -0.5214
 1360SOL    HW115716   1.712   1.544   6.133 -1.2573  0.5501 -1.2854
 1360SOL    HW215717   1.715   1.456   6.011 -0.0092 -0.2517 -0.4057
 1361SOL     OW15718   1.183   2.770   2.303 -0.3309  0.5562 -0.0025
 1361SOL    HW115719   1.203   2.720   2.383  1.7655  2.2492  0.5418
 1361SOL    HW215720   1.113   2.822   2.342  0.5500  2.0842 -0.4875
 1362SOL     OW15721   0.423   0.636   1.762 -0.0393 -0.6325  0.3296
 1362SOL    HW115722   0.422   0.728   1.735 -2.4870 -0.7805 -0.0920
 1362SOL    HW215723   0.338   0.611   1.727  0.3304  0.0124 -1.0256
 1363SOL     OW15724   0.581   2.032   5.332 -0.2429  0.0168  0.2100
 1363SOL    HW115725   0.525   2.063   5.404  0.1270 -0.1730  0.5819
 1363SOL    HW215726   0.519   1.974   5.288  0.2537  1.4244 -2.2807
 1364SOL     OW15727   2.332   3.811  11.183  0.1877 -0.1796 -0.0400
 1364SOL    HW115728   2.254   3.815  11.238 -1.2280 -0.9813 -2.0379
 1364SOL    HW215729   2.306   3.767  11.102 -0.7314  0.2814  0.0087
 1365SOL     OW15730   2.812   4.271   4.185 -1.0560 -1.2617  0.1193
 1365SOL    HW115731   2.806   4.195   4.242 -2.4253 -1.1615  0.1153
 1365SOL    HW215732   2.845   4.236   4.102  1.3424 -1.6442  1.2487
 1366SOL     OW15733   1.086   2.387   6.352 -0.1454  0.5571  0.1499
 1366SOL    HW115734   1.066   2.296   6.372  0.6086  0.3074 -0.2000
 1366SOL    HW215735   1.097   2.425   6.439 -1.3182 -1.2952  1.1027
 1367SOL     OW15736   0.773   1.045   5.152 -0.0874 -0.0009 -0.4814
 1367SOL    HW115737   0.764   1.006   5.239  1.5969  1.3887  0.3120
 1367SOL    HW215738   0.684   1.065   5.122 -0.1303 -0.6300 -0.7732
 1368SOL     OW15739   2.109   3.209   7.103  0.2271 -0.3959  0.4676
 1368SOL    HW115740   2.047   3.264   7.151  0.8049  1.6899 -1.1784
 1368SOL    HW215741   2.092   3.238   7.013  0.0515  0.4369  0.7623
 1369SOL     OW15742   3.169   3.493   9.138  0.5315  0.0090  0.0246
 1369SOL    HW115743   3.116   3.541   9.201 -0.2991 -0.1839 -0.5307
 1369SOL    HW215744   3.217   3.428   9.190 -3.1578 -2.8345 -0.0949
 1370SOL     OW15745   2.287   2.306   4.483  0.1880 -0.2436 -0.0387
 1370SOL    HW115746   2.192   2.307   4.493 -0.0433 -0.6490 -2.0773
 1370SOL    HW215747   2.305   2.388   4.437  1.7311 -1.0465 -0.8759
 1371SOL     OW15748   2.889   3.238   7.839  0.3940 -0.4069 -0.4834
 1371SOL    HW115749   2.861   3.214   7.927  1.0877 -2.9911 -0.9747
 1371SOL    HW215750   2.974   3.277   7.857  0.6233 -0.5481 -1.2327
 1372SOL     OW15751   4.550   3.443  16.916 -0.2300 -0.1224  0.3382
 1372SOL    HW115752   4.563   3.348  16.917  1.7150  0.1566  1.3225
 1372SOL    HW215753   4.614   3.460  16.985 -0.2826  2.2887 -0.2305
 1373SOL     OW15754   3.982   4.204   9.087 -0.4552 -0.3587 -0.5939
 1373SOL    HW115755   3.938   4.280   9.125  2.5483  0.9658  0.3005
 1373SOL    HW215756   3.921   4.173   9.021 -0.0929 -0.7035 -0.7694
 1374SOL     OW15757   4.125   2.105   5.646 -0.0620 -0.1411 -0.4342
 1374SOL    HW115758   4.150   2.170   5.712 -1.4149 -0.5603  0.4886
 1374SOL    HW215759   4.145   2.029   5.700 -2.2203 -0.0316  0.5274
 1375SOL     OW15760   2.356   3.057  14.195  0.0836 -0.0834  0.4293
 1375SOL    HW115761   2.376   3.149  14.213 -2.3020  0.2324  1.5247
 1375SOL    HW215762   2.395   3.017  14.272  0.7315 -1.0678 -0.4156
 1376SOL     OW15763   0.065   4.351  14.878 -0.1816 -0.9936 -0.1570
 1376SOL    HW115764   0.052   4.260  14.906 -2.6522 -1.0790 -1.5993
 1376SOL    HW215765   0.079   4.347  14.783  0.1712 -1.2514 -0.0946
 1377SOL     OW15766   0.783   4.341   4.786  0.1971  0.4347 -0.4038
 1377SOL    HW115767   0.715   4.397   4.747  0.5080  2.1484  1.4822
 1377SOL    HW215768   0.827   4.396   4.852  1.7688 -1.2893 -0.0021
 1378SOL     OW15769   4.719   2.231   5.733 -0.1983 -0.4530 -0.1278
 1378SOL    HW115770   4.642   2.231   5.676 -0.0389  0.3032 -0.3340
 1378SOL    HW215771   4.679   2.214   5.819  0.0621 -0.7542 -0.0665
 1379SOL     OW15772   3.755   4.459   2.722  0.2373 -0.0097 -0.6983
 1379SOL    HW115773   3.775   4.438   2.631  1.4748 -3.5253  0.3392
 1379SOL    HW215774   3.703   4.539   2.725 -0.6057 -0.5438 -1.2550
 1380SOL     OW15775   0.441   4.560   5.751  0.6591 -0.1827  0.2755
 1380SOL    HW115776   0.423   4.477   5.796 -1.5285 -0.0355 -0.3304
 1380SOL    HW215777   0.417   4.529   5.664  0.3209  0.9116 -0.0243
 1381SOL     OW15778   4.144   0.622  14.489 -0.0560 -0.1286  0.1521
 1381SOL    HW115779   4.090   0.567  14.433  0.0690  1.7256 -1.7860
 1381SOL    HW215780   4.150   0.704  14.439 -0.4825  0.0220  0.3463
 1382SOL     OW15781   0.895   1.879   6.245 -0.2214 -0.3284  0.3273
 1382SOL    HW115782   0.886   1.974   6.254  0.0816 -0.0510 -2.4144
 1382SOL    HW215783   0.927   1.867   6.335 -3.9047 -1.4403  1.4956
 1383SOL     OW15784   0.601   2.080   1.388 -0.4987  0.5364 -0.4957
 1383SOL    HW115785   0.528   2.032   1.425  0.3299  0.8900  1.5987
 1383SOL    HW215786   0.597   2.038   1.302 -0.0438  1.6354 -1.0562
 1384SOL     OW15787   2.988   0.102   8.271 -0.3495  0.3535  0.2251
 1384SOL    HW115788   2.967   0.076   8.182  0.1320  0.7133  0.0072
 1384SOL    HW215789   2.915   0.055   8.312  0.4509  0.2001  1.4645
 1385SOL     OW15790   3.900   0.528   4.723  0.2131  0.0637  0.3870
 1385SOL    HW115791   3.805   0.528   4.729  0.2485  0.1062  0.9688
 1385SOL    HW215792   3.910   0.446   4.771  1.3412  0.4916  0.9021
 1386SOL     OW15793   3.543   0.719   8.511  0.1959  0.8728 -0.7675
 1386SOL    HW115794   3.561   0.686   8.599 -1.1215  0.5682 -0.6192
 1386SOL    HW215795   3.578   0.808   8.517  0.1015  0.9109 -0.7894
 1387SOL     OW15796   0.180   2.233   6.064 -1.3598 -0.0944  0.6732
 1387SOL    HW115797   0.132   2.205   6.142 -1.5013 -0.3372  0.4987
 1387SOL    HW215798   0.108   2.287   6.031 -0.0975  0.6057 -0.9301
 1388SOL     OW15799   3.592   2.616   3.965  0.5601 -0.2080  0.1936
 1388SOL    HW115800   3.666   2.570   3.926  1.3376  0.4371  0.9038
 1388SOL    HW215801   3.521   2.554   3.978  0.8059 -0.5251  0.0134
 1389SOL     OW15802   1.839   2.611  13.989  0.3884  0.3241 -0.6727
 1389SOL    HW115803   1.818   2.568  13.907  0.7324  1.6172 -1.4475
 1389SOL    HW215804   1.852   2.539  14.050 -1.5447 -0.1257 -0.7970
 1390SOL     OW15805   2.416   2.360   8.642  0.0676  0.3507  0.0063
 1390SOL    HW115806   2.377   2.446   8.631 -0.5576  0.1469  0.6065
 1390SOL    HW215807   2.498   2.374   8.595 -0.0052  1.4594  0.2218
 1391SOL     OW15808   0.534   0.133   0.251  0.1264  0.2713  0.6274
 1391SOL    HW115809   0.488   0.118   0.333 -1.1083 -1.1800 -0.3311
 1391SOL    HW215810   0.617   0.089   0.270  0.0503 -0.0459  0.2259
 1392SOL     OW15811   1.208   1.046  15.122  0.7903 -0.0524  0.0674
 1392SOL    HW115812   1.138   1.087  15.172 -0.1150 -0.0020 -1.2337
 1392SOL    HW215813   1.175   1.074  15.037  0.8376 -0.6055 -0.1372
 1393SOL     OW15814   2.794   4.383   7.159  0.0133 -0.4390 -0.2210
 1393SOL    HW115815   2.731   4.359   7.227 -2.2654  1.5353 -1.6503
 1393SOL    HW215816   2.812   4.472   7.191 -2.1668 -0.1525  0.1700
 1394SOL     OW15817   1.240   4.109   7.357  0.3278  0.5380 -0.7031
 1394SOL    HW115818   1.174   4.064   7.304  0.0532  1.6418 -1.3060
 1394SOL    HW215819   1.179   4.167   7.402 -0.1426 -1.1185  0.7668
 1395SOL     OW15820   1.646   1.871   6.173 -0.2940 -0.3769  0.1190
 1395SOL    HW115821   1.590   1.860   6.249 -0.3551 -0.2565  0.0913
 1395SOL    HW215822   1.638   1.965   6.156 -0.3684 -0.9090 -2.8675
 1396SOL     OW15823   3.541   4.233   2.376  0.1823  0.1706  0.2191
 1396SOL    HW115824   3.533   4.327   2.393 -0.9960 -0.0122  0.6333
 1396SOL    HW215825   3.611   4.208   2.437 -0.3524 -0.0172  0.7523
 1397SOL     OW15826   0.500   1.346   8.800 -0.4827 -0.3146 -0.4390
 1397SOL    HW115827   0.562   1.296   8.747  0.3652 -0.2700  0.5114
 1397SOL    HW215828   0.516   1.325   8.892  1.1225  1.8682 -0.2295
 1398SOL     OW15829   0.527   4.287   8.312  0.2704  0.0962 -0.0562
 1398SOL    HW115830   0.465   4.358   8.331 -0.3085  0.1357 -2.0670
 1398SOL    HW215831   0.573   4.313   8.232  2.3182 -2.6949  0.2416
 1399SOL     OW15832   2.233   1.227  14.226  0.4205 -0.4222 -0.2955
 1399SOL    HW115833   2.193   1.145  14.255  1.2484 -0.4961  0.6533
 1399SOL    HW215834   2.161   1.271  14.181  0.6272 -0.4895 -0.6860
 1400SOL     OW15835   1.578   2.934   3.267  0.0081 -0.2259  0.5491
 1400SOL    HW115836   1.503   2.876   3.253  1.2582 -1.6148 -0.3638
 1400SOL    HW215837   1.646   2.875   3.233  1.3680  0.4659  2.0328
 1401SOL     OW15838   2.193   0.853   5.327 -0.2808  0.3080  0.0925
 1401SOL    HW115839   2.131   0.905   5.275 -0.3714 -1.4594 -1.5605
 1401SOL    HW215840   2.213   0.917   5.395  0.7303  1.0835 -0.9379
 1402SOL     OW15841   1.958   2.946   7.316  0.1493  0.2956  0.2668
 1402SOL    HW115842   1.985   3.006   7.385 -1.1262  0.0181  1.0127
 1402SOL    HW215843   1.991   2.865   7.354 -1.4034 -0.5502 -0.1962
 1403SOL     OW15844   2.800   1.387  16.749 -0.0370  0.4783  0.4405
 1403SOL    HW115845   2.766   1.361  16.664  2.2728  1.9512 -0.9403
 1403SOL    HW215846   2.746   1.463  16.769  1.1726  1.8938 -1.7598
 1404SOL     OW15847   0.403   3.189  14.251  0.2437  0.5408  0.3668
 1404SOL    HW115848   0.354   3.265  14.283  1.9703  2.2047 -0.9503
 1404SOL    HW215849   0.352   3.177  14.171 -0.9560 -0.3008  1.2663
 1405SOL     OW15850   1.223   1.409   8.493 -0.2925  0.4967 -0.3137
 1405SOL    HW115851   1.191   1.467   8.424  0.8166  1.4934  0.0107
 1405SOL    HW215852   1.211   1.468   8.567 -0.4471 -0.0336  0.0888
 1406SOL     OW15853   0.361   1.847   2.930  0.0166  0.7336 -0.1472
 1406SOL    HW115854   0.362   1.937   2.963  0.4622  1.2292 -1.4901
 1406SOL    HW215855   0.453   1.822   2.941 -0.0206  1.3659  1.5760
 1407SOL     OW15856   3.287   4.676   8.383 -0.1808 -0.2513  0.6505
 1407SOL    HW115857   3.289   0.008   8.316 -0.9543 -2.3090 -1.5090
 1407SOL    HW215858   3.351   4.610   8.356  0.3874  1.0742 -1.2686
 1408SOL     OW15859   0.681   3.659   8.794 -0.4502 -0.6466  0.6191
 1408SOL    HW115860   0.621   3.604   8.844 -1.3942 -0.0292  0.1642
 1408SOL    HW215861   0.742   3.682   8.864 -0.1075  1.0958 -0.2695
 1409SOL     OW15862   0.046   2.564   7.635  0.4663  0.9951 -0.5147
 1409SOL    HW115863   0.006   2.477   7.636 -0.2080  1.3210  0.3547
 1409SOL    HW215864   0.085   2.570   7.547 -1.2187 -1.4842 -1.4325
 1410SOL     OW15865   2.888   0.530  10.291  0.1121  0.0755 -0.2003
 1410SOL    HW115866   2.902   0.436  10.298 -1.3632 -0.2435 -1.6571
 1410SOL    HW215867   2.857   0.544  10.380 -0.4699  0.6250 -0.4830
 1411SOL     OW15868   0.200   0.245   3.182 -0.1395  0.1036  0.5507
 1411SOL    HW115869   0.257   0.185   3.230  0.8830 -0.5062 -1.4486
 1411SOL    HW215870   0.259   0.312   3.147  2.1826 -2.9770 -1.3916
 1412SOL     OW15871   2.414   3.034   6.185 -0.2937  0.0674  0.3387
 1412SOL    HW115872   2.324   3.059   6.165  0.8796  1.4027 -3.2647
 1412SOL    HW215873   2.456   3.017   6.101 -2.8583 -1.3180 -0.6366
 1413SOL     OW15874   3.587   3.616   1.078 -0.4594 -0.1660  0.4071
 1413SOL    HW115875   3.650   3.566   1.129 -1.5134 -0.4099  1.4768
 1413SOL    HW215876   3.511   3.559   1.088 -0.9339  0.7096  1.8693
 1414SOL     OW15877   4.079   3.091   7.971 -0.5517 -0.8168  0.2285
 1414SOL    HW115878   4.004   3.105   7.914 -0.2957  1.7245  0.4896
 1414SOL    HW215879   4.032   3.073   8.053  0.7155  0.4354  1.2292
 1415SOL     OW15880   4.554   3.556  14.351  0.1883 -0.5010 -0.4605
 1415SOL    HW115881   4.635   3.534  14.305  0.7458 -0.4057  0.4657
 1415SOL    HW215882   4.508   3.473  14.341 -1.7757  0.5410  0.0077
 1416SOL     OW15883   2.830   1.050   9.820  0.2338  0.0385 -0.0745
 1416SOL    HW115884   2.844   1.049   9.915 -0.2125  2.6042 -0.0030
 1416SOL    HW215885   2.922   1.052   9.793  0.4200  0.1311  0.5824
 1417SOL     OW15886   2.213   3.702   2.679  0.5562 -0.8586 -0.0566
 1417SOL    HW115887   2.218   3.625   2.736 -1.7789 -0.8464  0.1660
 1417SOL    HW215888   2.270   3.676   2.607  1.4053  0.5456  0.1027
 1418SOL     OW15889   2.552   3.602  11.395  0.3728 -0.2082  0.0535
 1418SOL    HW115890   2.553   3.509  11.369  1.1536 -0.3644  0.6359
 1418SOL    HW215891   2.528   3.581  11.485  2.1921 -2.0015  0.1228
 1419SOL     OW15892   1.986   1.646   7.002  0.5339 -0.2810  0.5526
 1419SOL    HW115893   2.036   1.577   7.046 -1.7056 -1.3901  1.3082
 1419SOL    HW215894   2.025   1.649   6.914 -0.3353 -1.0049  0.1396
 1420SOL     OW15895   3.853   1.774   4.058 -0.0609 -0.0212 -0.0429
 1420SOL    HW115896   3.868   1.852   4.005  1.8945  0.1649  0.8129
 1420SOL    HW215897   3.764   1.759   4.026 -0.1500 -1.6687  0.9924
 1421SOL     OW15898   3.662   4.695  16.672  0.2188  0.1662  0.1327
 1421SOL    HW115899   3.668   0.018  16.746 -0.3048  0.9496 -0.4550
 1421SOL    HW215900   3.644   0.020  16.600  1.5001  0.2177 -0.1427
 1422SOL     OW15901   4.455   0.780   5.184  0.3440  0.2898  0.8663
 1422SOL    HW115902   4.404   0.845   5.232 -0.6782  0.5672 -0.5745
 1422SOL    HW215903   4.395   0.705   5.191  0.8502 -0.3020 -1.1189
 1423SOL     OW15904   3.556   1.167   4.235  0.1713 -0.0686  0.0295
 1423SOL    HW115905   3.576   1.227   4.163 -1.2777  0.6056  0.1800
 1423SOL    HW215906   3.646   1.144   4.256 -0.4858 -1.9019  0.8317
 1424SOL     OW15907   2.896   2.587   4.520  0.3005 -0.4185 -0.1152
 1424SOL    HW115908   2.870   2.677   4.541 -3.4212 -1.6547  0.6221
 1424SOL    HW215909   2.932   2.588   4.431 -2.6319  3.4741 -1.2861
 1425SOL     OW15910   3.137   0.968   9.309  0.1360 -0.2727  0.2346
 1425SOL    HW115911   3.051   0.929   9.292 -0.4759  1.0264  0.3611
 1425SOL    HW215912   3.189   0.891   9.288 -2.1097 -2.5127  2.9553
 1426SOL     OW15913   0.580   2.708   6.430  0.0572 -0.3197  0.0988
 1426SOL    HW115914   0.670   2.717   6.398  0.7740  0.6191  2.3504
 1426SOL    HW215915   0.592   2.722   6.524 -1.1029  1.1072  0.0374
 1427SOL     OW15916   2.666   0.233   9.474  0.3506 -0.0628  0.5941
 1427SOL    HW115917   2.602   0.293   9.512  1.1224  1.7635 -0.9694
 1427SOL    HW215918   2.699   0.189   9.552  0.1460 -3.4411 -1.2227
 1428SOL     OW15919   1.075   1.608   5.608  0.0049 -0.5640 -0.1370
 1428SOL    HW115920   0.980   1.609   5.620  0.4019  1.0785  2.6873
 1428SOL    HW215921   1.112   1.645   5.688  1.5590  0.4969 -1.3466
 1429SOL     OW15922   4.172   4.040   2.913 -0.1869 -0.2268 -0.0581
 1429SOL    HW115923   4.101   3.989   2.951 -0.1070 -0.2474  0.0646
 1429SOL    HW215924   4.249   3.989   2.939 -1.1934 -2.4741 -1.5056
 1430SOL     OW15925   1.803   4.445   2.909 -0.2679  0.3958 -0.0337
 1430SOL    HW115926   1.784   4.361   2.952  0.3560  0.2359 -0.0693
 1430SOL    HW215927   1.892   4.470   2.934  0.1994  0.2825 -1.6188
 1431SOL     OW15928   2.405   1.255   3.107 -0.1983 -0.6265 -0.0034
 1431SOL    HW115929   2.403   1.307   3.187  2.0484  0.2337 -0.5063
 1431SOL    HW215930   2.350   1.303   3.046 -1.1620 -2.1829 -0.3677
 1432SOL     OW15931   4.420   4.193  12.201 -0.0176 -0.4357 -0.3327
 1432SOL    HW115932   4.495   4.174  12.145  1.4812  2.4530  0.7123
 1432SOL    HW215933   4.384   4.108  12.225  0.0569 -0.5784 -0.7280
 1433SOL     OW15934   0.839   2.391   5.693  0.9699 -0.3927  0.5422
 1433SOL    HW115935   0.906   2.460   5.698  0.3575  0.2706 -0.4602
 1433SOL    HW215936   0.803   2.404   5.605 -0.2329  0.2541  1.1363
 1434SOL     OW15937   3.126   1.133  14.885  0.1237  0.3067 -0.3233
 1434SOL    HW115938   3.036   1.139  14.853 -0.1463  0.2439  0.4394
 1434SOL    HW215939   3.168   1.070  14.826 -0.1411 -0.1667 -0.0051
 1435SOL     OW15940   1.183   4.439   0.569 -0.0483  0.6991  0.3069
 1435SOL    HW115941   1.101   4.486   0.553 -1.1135 -1.6937 -1.1545
 1435SOL    HW215942   1.247   4.508   0.549 -0.0791  0.4980 -0.4825
 1436SOL     OW15943   3.182   3.196  11.149 -0.3625  0.2075  0.2576
 1436SOL    HW115944   3.221   3.126  11.096 -2.0016  0.5213 -1.3754
 1436SOL    HW215945   3.090   3.182  11.127 -0.6223  0.0869  1.4736
 1437SOL     OW15946   1.684   3.147   0.542 -0.3739 -0.2261  0.0059
 1437SOL    HW115947   1.763   3.104   0.575 -0.9513 -0.9397  0.4590
 1437SOL    HW215948   1.654   3.084   0.476 -0.8550  2.1286 -2.0097
 1438SOL     OW15949   3.328   2.662   4.704 -0.1848 -0.2766  0.0129
 1438SOL    HW115950   3.419   2.693   4.712 -0.9821  2.4190 -1.2634
 1438SOL    HW215951   3.297   2.751   4.719  1.2444  0.3025 -0.4115
 1439SOL     OW15952   0.441   0.805   8.129 -0.3416 -0.3102  0.1048
 1439SOL    HW115953   0.443   0.866   8.202 -1.5124  0.5378 -0.5741
 1439SOL    HW215954   0.355   0.792   8.088 -0.0623  1.1653 -0.9420
 1440SOL     OW15955   4.694   0.312  11.159 -0.2134  0.4737  0.1743
 1440SOL    HW115956   4.650   0.332  11.077  1.7631  0.2372 -0.9512
 1440SOL    HW215957   4.662   0.385  11.213 -0.2699  1.1061 -0.7138
 1441SOL     OW15958   1.738   0.353  12.865 -0.2515 -0.2142  0.1123
 1441SOL    HW115959   1.786   0.282  12.822 -0.6825 -0.3616 -0.1221
 1441SOL    HW215960   1.805   0.422  12.864 -1.1082  0.6605  1.9809
 1442SOL     OW15961   0.205   4.637  17.032  0.2644 -0.3555  0.2505
 1442SOL    HW115962   0.249   4.552  17.041 -0.0775 -0.7169 -1.4794
 1442SOL    HW215963   0.275   4.702  17.026 -1.3126  1.0642 -2.4401
 1443SOL     OW15964   2.260   0.229   7.503  0.0153 -0.1674  0.4785
 1443SOL    HW115965   2.229   0.255   7.417  0.5411  1.2462  0.7100
 1443SOL    HW215966   2.354   0.245   7.498 -0.1017  0.2626 -0.3020
 1444SOL     OW15967   3.679   3.190   8.564 -0.1225 -0.3821  0.3604
 1444SOL    HW115968   3.694   3.189   8.469  0.5725 -0.9432  0.4815
 1444SOL    HW215969   3.594   3.235   8.560 -0.2199 -0.7931 -2.1563
 1445SOL     OW15970   2.294   2.530   0.279  0.4226 -0.0202 -0.3999
 1445SOL    HW115971   2.379   2.488   0.290  0.0670 -0.3363  1.2155
 1445SOL    HW215972   2.327   2.618   0.261 -0.2409  0.3325  0.0893
 1446SOL     OW15973   3.752   3.702   8.989 -0.8808  0.0774  0.1746
 1446SOL    HW115974   3.717   3.706   8.900  0.4098 -2.6317 -0.4518
 1446SOL    HW215975   3.696   3.643   9.040 -2.4300  2.8659  1.6958
 1447SOL     OW15976   2.497   2.229   8.382 -0.2558 -0.0413  0.6699
 1447SOL    HW115977   2.444   2.172   8.327 -1.9166  1.3399  0.8095
 1447SOL    HW215978   2.525   2.167   8.449 -0.7264 -1.4670 -0.4544
 1448SOL     OW15979   0.231   0.156   7.450 -0.1542  0.5093  0.6357
 1448SOL    HW115980   0.217   0.227   7.512 -1.1215  0.5251  0.4035
 1448SOL    HW215981   0.317   0.180   7.417  0.0620 -1.7268 -0.4724
 1449SOL     OW15982   1.449   3.283   0.571 -0.2947 -1.1644 -0.4349
 1449SOL    HW115983   1.440   3.306   0.664 -1.0109 -2.7010 -0.1243
 1449SOL    HW215984   1.535   3.242   0.557 -0.4987 -1.2271 -1.5035
 1450SOL     OW15985   1.803   3.427  17.514 -0.2410 -0.1317  0.0236
 1450SOL    HW115986   1.764   3.509  17.545  0.1429  0.1358 -0.1995
 1450SOL    HW215987   1.895   3.450  17.527 -0.1384 -0.7018  0.2776
 1451SOL     OW15988   1.537   2.016  15.036  0.2020 -0.2863  0.3348
 1451SOL    HW115989   1.599   2.077  15.076 -1.7202  0.7803  1.7594
 1451SOL    HW215990   1.598   1.946  15.018 -0.8347 -1.4107  1.1827
 1452SOL     OW15991   2.373   0.121   9.135  0.0330  0.5017 -0.4680
 1452SOL    HW115992   2.462   0.135   9.166  0.3001 -0.6520 -0.7290
 1452SOL    HW215993   2.325   0.123   9.218  0.8633  3.0635 -0.0793
 1453SOL     OW15994   2.420   2.310   2.205 -0.8418  0.3826 -0.1724
 1453SOL    HW115995   2.447   2.237   2.261 -0.5957  0.5915 -0.0140
 1453SOL    HW215996   2.421   2.272   2.118 -3.1966  0.3667 -0.1970
 1454SOL     OW15997   0.503   3.260   3.970  0.0539  0.4252  0.5642
 1454SOL    HW115998   0.580   3.235   4.020  0.1093  0.8117  0.6711
 1454SOL    HW215999   0.528   3.350   3.953 -0.3936  0.8767  2.3386
 1455SOL     OW16000   2.080   0.154   7.730 -0.1330 -0.6510 -0.2338
 1455SOL    HW116001   2.137   0.152   7.653 -0.6849 -0.4724 -0.6440
 1455SOL    HW216002   2.027   0.078   7.708 -1.5468 -0.1836  1.5832
 1456SOL     OW16003   1.195   3.382   7.149  0.1982  0.6687  0.0818
 1456SOL    HW116004   1.148   3.418   7.074  0.8008 -2.7522 -1.9376
 1456SOL    HW216005   1.285   3.406   7.127 -0.0131  1.3239 -0.0822
 1457SOL     OW16006   2.664   2.165   7.264 -0.0412 -0.0004 -0.9718
 1457SOL    HW116007   2.579   2.122   7.252  0.5986 -1.7342  0.6694
 1457SOL    HW216008   2.650   2.251   7.224 -3.1134 -1.6622 -3.5245
 1458SOL     OW16009   0.342   2.340  13.586 -0.9609 -0.6163 -0.6587
 1458SOL    HW116010   0.251   2.367  13.592  0.5228  4.3321 -0.5453
 1458SOL    HW216011   0.381   2.370  13.668  0.0160  1.1065 -1.7453
 1459SOL     OW16012   2.178   0.631   5.097  0.5418  0.1220  0.0505
 1459SOL    HW116013   2.101   0.615   5.042  1.0764  1.0208 -0.9694
 1459SOL    HW216014   2.146   0.683   5.171  0.2685 -1.1829  0.8525
 1460SOL     OW16015   3.807   3.412   6.761  0.6425 -0.1186  0.2888
 1460SOL    HW116016   3.762   3.381   6.683  2.2269 -1.8559  0.0750
 1460SOL    HW216017   3.864   3.339   6.784  1.1591 -0.1453 -1.0768
 1461SOL     OW16018   4.074   4.679  15.722  0.0493 -0.0869 -0.1735
 1461SOL    HW116019   4.015   4.655  15.651  0.9279  2.4167 -1.7392
 1461SOL    HW216020   4.019   0.007  15.767 -1.3393 -1.2150 -0.2441
 1462SOL     OW16021   0.722   1.184  16.845  0.1522  0.8316  0.0173
 1462SOL    HW116022   0.730   1.101  16.892  0.2400  1.4262  1.0573
 1462SOL    HW216023   0.661   1.229  16.904  1.2942  2.6021 -0.1616
 1463SOL     OW16024   2.722   4.246  14.339 -0.0579  0.1022 -0.0590
 1463SOL    HW116025   2.683   4.215  14.257 -1.0156 -0.1306  0.4779
 1463SOL    HW216026   2.747   4.335  14.314 -0.5876  0.6378  1.3210
 1464SOL     OW16027   0.425   0.625   2.892  0.2384  0.5428  0.4677
 1464SOL    HW116028   0.375   0.619   2.811 -0.0707 -0.2976  0.7176
 1464SOL    HW216029   0.513   0.653   2.866 -0.3602  2.4372  0.5348
 1465SOL     OW16030   4.323   0.760   4.840  0.0381 -0.5370 -0.1186
 1465SOL    HW116031   4.378   0.687   4.810  2.9378  0.3385  3.1197
 1465SOL    HW216032   4.234   0.728   4.826  0.2678 -1.7644  1.2642
 1466SOL     OW16033   4.544   4.118   9.558 -0.7005  0.0053 -0.3084
 1466SOL    HW116034   4.572   4.181   9.625 -0.4506 -0.3565 -0.0738
 1466SOL    HW216035   4.513   4.048   9.616  0.1211 -0.5109 -0.5006
 1467SOL     OW16036   2.590   2.588   3.049 -0.0205  0.2920 -0.2643
 1467SOL    HW116037   2.517   2.572   2.989 -0.9846  2.2340  0.4256
 1467SOL    HW216038   2.586   2.682   3.063  0.3320  0.5915 -2.1712
 1468SOL     OW16039   2.770   0.794  15.988  0.6105 -0.0820 -0.3926
 1468SOL    HW116040   2.816   0.713  16.010  0.4319 -0.0333  0.1342
 1468SOL    HW216041   2.835   0.844  15.937  1.9319 -2.1425 -0.7540
 1469SOL     OW16042   1.287   3.863   3.442  0.4182  0.1793  0.0779
 1469SOL    HW116043   1.265   3.773   3.417  0.2562 -0.2915  1.8855
 1469SOL    HW216044   1.259   3.884   3.531  1.4099 -1.8626  0.8667
 1470SOL     OW16045   3.299   1.366  15.480 -0.0785  0.2006  0.2308
 1470SOL    HW116046   3.275   1.453  15.448  0.7840  1.3320  2.7305
 1470SOL    HW216047   3.372   1.343  15.422  0.2259 -0.8534  1.0227
 1471SOL     OW16048   2.785   0.009  12.046  0.1441  0.2343 -0.0323
 1471SOL    HW116049   2.697   4.708  12.051 -0.1871  1.1428  0.8831
 1471SOL    HW216050   2.802   0.008  12.140  1.6686  0.6798 -0.3111
 1472SOL     OW16051   1.405   3.553   8.295  0.1836 -0.0230 -0.1549
 1472SOL    HW116052   1.316   3.545   8.263 -0.2294 -1.4288  1.3175
 1472SOL    HW216053   1.380   3.553   8.388 -0.2236  0.0567 -0.2664
 1473SOL     OW16054   1.782   2.257   4.549  0.2745 -0.9564 -0.1547
 1473SOL    HW116055   1.721   2.330   4.534  1.8721  0.3156 -0.4456
 1473SOL    HW216056   1.860   2.281   4.499 -0.4736  3.2753  0.7011
 1474SOL     OW16057   1.033   0.911   6.078 -0.5389 -0.0908 -0.3924
 1474SOL    HW116058   0.986   0.968   6.016  1.0371  1.5766 -0.0495
 1474SOL    HW216059   1.005   0.826   6.046 -1.2069 -0.3867  0.9732
 1475SOL     OW16060   3.351   1.330   7.283  0.1960  0.8827  0.7111
 1475SOL    HW116061   3.420   1.396   7.289 -0.5215  1.5604  1.5209
 1475SOL    HW216062   3.292   1.366   7.349 -0.4622 -3.3241  2.4578
 1476SOL     OW16063   3.219   3.814   2.638  0.1461  0.2462 -0.7447
 1476SOL    HW116064   3.190   3.903   2.660 -1.8088 -1.1857  2.4586
 1476SOL    HW216065   3.290   3.827   2.575 -0.2764 -0.7405 -1.4247
 1477SOL     OW16066   2.941   2.365   3.981 -0.2083 -0.0526 -0.3074
 1477SOL    HW116067   2.921   2.352   3.888 -0.5573  1.4697 -0.4344
 1477SOL    HW216068   2.856   2.394   4.013 -0.4469  0.6791 -1.6045
 1478SOL     OW16069   2.036   2.485   6.318  0.1025 -0.4607  0.3685
 1478SOL    HW116070   2.122   2.524   6.335 -0.1000 -0.4091  1.2953
 1478SOL    HW216071   2.003   2.524   6.237  1.4218  0.2282  0.1569
 1479SOL     OW16072   2.632   2.489   3.545  0.2358 -0.4191 -0.3424
 1479SOL    HW116073   2.567   2.489   3.475  1.3254  1.1031 -1.3374
 1479SOL    HW216074   2.589   2.445   3.619  0.3049 -1.8870 -1.1868
 1480SOL     OW16075   0.990   0.865  16.842  0.4618 -0.4113  0.0497
 1480SOL    HW116076   1.037   0.807  16.902 -0.4675 -0.3818  0.8032
 1480SOL    HW216077   0.913   0.890  16.893 -0.6482 -0.5446 -1.5764
 1481SOL     OW16078   3.243   0.652  17.125 -0.2760  0.0349 -0.0922
 1481SOL    HW116079   3.252   0.741  17.090 -0.9852  1.1940  2.6927
 1481SOL    HW216080   3.160   0.654  17.172 -0.7294  0.6881 -0.9118
 1482SOL     OW16081   2.881   3.794  10.963 -0.1042  0.1186 -0.7191
 1482SOL    HW116082   2.899   3.736  10.889 -1.2210 -1.0521 -0.0739
 1482SOL    HW216083   2.848   3.879  10.932  2.1824  0.6095 -1.8098
 1483SOL     OW16084   0.343   1.987   9.450 -0.1474 -0.2853 -0.5674
 1483SOL    HW116085   0.257   2.023   9.470  0.1586  2.3540 -4.0756
 1483SOL    HW216086   0.352   2.010   9.358  0.8574 -0.0060 -0.4013
 1484SOL     OW16087   0.592   3.168   0.573  0.1197  0.4279 -0.2515
 1484SOL    HW116088   0.588   3.132   0.485 -0.7198  0.0464 -0.0520
 1484SOL    HW216089   0.679   3.145   0.607 -0.1537 -0.2089  0.0178
 1485SOL     OW16090   0.206   3.444   8.390 -0.6617  0.2977 -0.2311
 1485SOL    HW116091   0.217   3.532   8.355  0.6768  0.8038  1.4335
 1485SOL    HW216092   0.294   3.422   8.423 -0.8543 -2.3167 -1.4434
 1486SOL     OW16093   0.894   2.363   6.012  0.0787 -0.0052 -0.2881
 1486SOL    HW116094   0.820   2.352   5.952 -0.9474  1.1848  0.7714
 1486SOL    HW216095   0.956   2.310   5.962 -2.6456 -0.7701 -2.8678
 1487SOL     OW16096   3.412   2.590   8.215  0.2490 -0.0089  0.1626
 1487SOL    HW116097   3.419   2.678   8.253 -0.7787  0.8119 -1.5047
 1487SOL    HW216098   3.438   2.538   8.290 -2.0513 -2.3512 -0.6994
 1488SOL     OW16099   4.346   0.379   6.805  0.3111  0.6434 -0.0042
 1488SOL    HW116100   4.379   0.424   6.727 -0.0750 -0.3249 -0.7330
 1488SOL    HW216101   4.379   0.290   6.794  1.0394  0.9851 -0.6455
 1489SOL     OW16102   0.120   2.642   9.306 -0.1726 -0.2508 -0.2518
 1489SOL    HW116103   0.042   2.651   9.251 -0.8158 -0.1599  0.6623
 1489SOL    HW216104   0.095   2.567   9.360 -1.4295 -0.3551 -0.9590
 1490SOL     OW16105   3.545   0.168   2.769  0.2128 -0.2874  0.4715
 1490SOL    HW116106   3.585   0.238   2.718 -1.0902 -0.8804 -1.3791
 1490SOL    HW216107   3.458   0.205   2.788  0.2771  0.0304  0.1613
 1491SOL     OW16108   1.020   0.424  11.153  0.0512  0.3108 -0.2184
 1491SOL    HW116109   1.073   0.370  11.212  1.1754  1.8328  0.1766
 1491SOL    HW216110   0.998   0.367  11.079 -1.2031  1.2223 -0.5425
 1492SOL     OW16111   2.990   0.338   6.155 -0.3326  0.4580  0.2816
 1492SOL    HW116112   2.997   0.433   6.163  1.1848  0.3912 -0.3783
 1492SOL    HW216113   3.004   0.316   6.063  1.9718  2.2711  0.2076
 1493SOL     OW16114   1.744   3.105   2.764 -0.4245  0.1934 -0.7214
 1493SOL    HW116115   1.806   3.047   2.720  0.8604  0.1687  1.1274
 1493SOL    HW216116   1.713   3.166   2.697  2.0732  1.0702 -1.0546
 1494SOL     OW16117   2.945   1.726   1.489  0.4258  0.5688  0.2403
 1494SOL    HW116118   2.874   1.664   1.469 -1.2069  2.8468 -0.9372
 1494SOL    HW216119   2.895   1.785   1.545 -2.7349 -0.8931 -1.0298
 1495SOL     OW16120   1.431   3.753   2.456  0.0074  0.0195 -0.1399
 1495SOL    HW116121   1.401   3.799   2.378 -0.2937  0.4030  0.2021
 1495SOL    HW216122   1.344   3.761   2.496 -0.7364 -2.1673 -1.2730
 1496SOL     OW16123   1.421   0.367  12.709  0.2569  0.2884 -0.6298
 1496SOL    HW116124   1.496   0.410  12.749  1.1227 -1.9905  0.2109
 1496SOL    HW216125   1.403   0.291  12.765  0.7802  0.8023  0.2344
 1497SOL     OW16126   3.398   3.238  10.331  0.5454 -0.1910 -0.2522
 1497SOL    HW116127   3.442   3.197  10.405 -0.3261 -0.5715  0.0550
 1497SOL    HW216128   3.457   3.311  10.314 -0.4746  0.7177  0.1125
 1498SOL     OW16129   1.562   1.441   6.387 -0.3086  0.3182 -0.7517
 1498SOL    HW116130   1.504   1.368   6.408 -1.1059  1.2924  0.4234
 1498SOL    HW216131   1.637   1.386   6.365 -1.5415 -1.4708 -0.4727
 1499SOL     OW16132   4.093   1.414   5.134  0.2881 -0.1422  0.0051
 1499SOL    HW116133   4.133   1.331   5.109  1.4229 -0.0592  1.5850
 1499SOL    HW216134   4.011   1.415   5.084  0.3767 -0.4206 -0.1476
 1500SOL     OW16135   0.157   2.500   4.181  0.1736 -0.2338 -0.1579
 1500SOL    HW116136   0.087   2.555   4.214  1.0872  0.2673  0.9349
 1500SOL    HW216137   0.125   2.483   4.092  0.3817 -0.0126 -0.2733
 1501SOL     OW16138   1.786   0.383   3.761 -0.0413  0.8127 -0.0322
 1501SOL    HW116139   1.715   0.384   3.697 -0.3960  1.2979  0.3603
 1501SOL    HW216140   1.823   0.297   3.745 -1.1012  0.8517 -2.6629
 1502SOL     OW16141   2.801   0.671   3.347  0.0938  0.2318 -0.3032
 1502SOL    HW116142   2.799   0.699   3.438  1.4123  2.1186 -0.8666
 1502SOL    HW216143   2.718   0.705   3.313 -0.5173 -1.4174 -0.4947
 1503SOL     OW16144   0.322   2.280   8.564  0.2590 -0.2719  0.6144
 1503SOL    HW116145   0.357   2.277   8.475 -0.2769 -1.1830  0.4301
 1503SOL    HW216146   0.265   2.357   8.562  0.9987  0.3042  2.1272
 1504SOL     OW16147   1.796   2.063   4.151  0.0305  0.3079  0.1386
 1504SOL    HW116148   1.845   2.117   4.088  0.3364 -2.7350 -2.2206
 1504SOL    HW216149   1.855   1.989   4.164  0.0536  0.3832  0.4563
 1505SOL     OW16150   2.015   1.647   8.239  0.7354 -0.0623  0.7381
 1505SOL    HW116151   1.993   1.694   8.319 -0.6831  2.7547 -1.2871
 1505SOL    HW216152   2.094   1.601   8.265  1.6361  0.5158 -0.9462
 1506SOL     OW16153   3.499   3.543   0.091 -0.1266 -0.2680  0.3634
 1506SOL    HW116154   3.551   3.581   0.162 -0.4979 -2.0145  1.5813
 1506SOL    HW216155   3.476   3.613   0.031 -0.6169 -2.3625 -1.9224
 1507SOL     OW16156   1.818   2.628   3.380 -0.2145  0.2718 -0.1168
 1507SOL    HW116157   1.792   2.678   3.303 -2.3679 -0.1781  0.3412
 1507SOL    HW216158   1.751   2.561   3.393 -1.1693  1.4109  0.8015
 1508SOL     OW16159   2.496   0.615   1.627  0.6470 -0.5008  0.1559
 1508SOL    HW116160   2.533   0.539   1.582 -0.0560 -1.4831  1.2461
 1508SOL    HW216161   2.418   0.630   1.574  1.9583 -0.3404 -1.7558
 1509SOL     OW16162   4.269   4.449   2.619 -0.1447 -0.2273 -0.3573
 1509SOL    HW116163   4.209   4.489   2.683  0.7121  0.7268 -0.1474
 1509SOL    HW216164   4.228   4.480   2.538  0.9268  1.2907 -0.3156
 1510SOL     OW16165   3.473   0.359   9.095 -0.5696 -0.2211 -0.3335
 1510SOL    HW116166   3.393   0.336   9.142  0.7730  2.0977  3.1247
 1510SOL    HW216167   3.478   0.286   9.034 -1.3754 -0.4311 -0.1478
 1511SOL     OW16168   3.879   1.553   2.573  0.3685 -0.0003 -0.2501
 1511SOL    HW116169   3.813   1.506   2.624 -0.3728  2.6151  1.1797
 1511SOL    HW216170   3.920   1.489   2.515  1.2411 -0.7717  1.2171
 1512SOL     OW16171   0.979   4.045   1.742  0.0781 -0.4130 -0.3077
 1512SOL    HW116172   0.973   4.136   1.711  1.8743  0.0732  0.7628
 1512SOL    HW216173   0.936   4.048   1.828  1.6349 -2.0215  0.5214
 1513SOL     OW16174   3.067   1.069  10.295 -0.1404 -0.8017  0.1075
 1513SOL    HW116175   3.142   1.088  10.352  1.8213 -3.5817 -1.5361
 1513SOL    HW216176   3.110   0.992  10.258 -1.0965  0.1294 -2.8942
 1514SOL     OW16177   1.860   1.914   2.004 -0.1155 -0.3403 -0.3156
 1514SOL    HW116178   1.783   1.866   1.974  0.6048 -2.0134  0.5117
 1514SOL    HW216179   1.910   1.856   2.062  0.1627  1.3949  1.2156
 1515SOL     OW16180   1.937   0.564  10.956  0.3961  0.3099 -0.4714
 1515SOL    HW116181   1.986   0.645  10.957 -0.0928  0.5898  1.6557
 1515SOL    HW216182   1.967   0.528  10.873 -2.9268 -0.4469 -1.3695
 1516SOL     OW16183   1.879   2.325   7.725  0.0008  0.4529  0.2354
 1516SOL    HW116184   1.901   2.394   7.789  2.6006  0.7560 -1.0033
 1516SOL    HW216185   1.817   2.382   7.680  2.3524  1.2763 -1.9623
 1517SOL     OW16186   3.300   1.659   5.158 -0.2272  0.0250 -0.1594
 1517SOL    HW116187   3.252   1.734   5.123  1.3829  1.3072  0.4406
 1517SOL    HW216188   3.235   1.613   5.212  1.5154 -1.3151  0.7865
 1518SOL     OW16189   3.094   4.645   7.102 -0.1273 -0.2593  0.0312
 1518SOL    HW116190   3.162   4.664   7.037  1.6879 -1.6507  1.5130
 1518SOL    HW216191   3.127   4.562   7.135  0.9477  0.1477 -0.0183
 1519SOL     OW16192   1.123   1.638   2.526 -0.0144  0.1834 -0.1256
 1519SOL    HW116193   1.180   1.677   2.592  0.8296 -4.6143  1.9457
 1519SOL    HW216194   1.088   1.721   2.493  1.4786  1.1264  0.7177
 1520SOL     OW16195   2.671   1.595   1.779 -0.4526  0.5804 -0.5068
 1520SOL    HW116196   2.718   1.512   1.773  1.4326  1.7086 -1.1232
 1520SOL    HW216197   2.723   1.645   1.842 -3.6761  2.9474  0.2565
 1521SOL     OW16198   2.173   3.531   8.509 -0.6322  0.2796 -0.0775
 1521SOL    HW116199   2.110   3.476   8.556 -0.0443  0.3410  0.8010
 1521SOL    HW216200   2.165   3.502   8.419  1.2465 -0.2053 -0.0820
 1522SOL     OW16201   1.871   3.589   3.145  0.6324 -0.3396 -0.1428
 1522SOL    HW116202   1.785   3.598   3.102  1.2521  0.6251 -1.1740
 1522SOL    HW216203   1.835   3.538   3.217 -0.1025  0.6677  0.2049
 1523SOL     OW16204   1.603   1.075   3.669  0.4563 -0.1799 -0.7755
 1523SOL    HW116205   1.510   1.058   3.685  0.8088 -0.0701  1.3941
 1523SOL    HW216206   1.637   0.987   3.651 -0.8493 -0.3819 -2.2608
 1524SOL     OW16207   4.707   2.827   1.465  0.1560  0.9273 -0.0619
 1524SOL    HW116208   4.642   2.862   1.526 -0.8708 -0.1573 -0.5325
 1524SOL    HW216209   4.697   2.894   1.397  0.7434  0.7392 -0.3287
 1525SOL     OW16210   4.562   3.012  17.729  0.0354  0.3618 -0.2664
 1525SOL    HW116211   4.515   2.961  17.662 -0.2541 -2.7692  2.2959
 1525SOL    HW216212   4.588   3.091  17.682  0.0754 -1.6504 -3.6957
 1526SOL     OW16213   2.639   4.137   0.284 -0.5818 -0.5744 -0.4939
 1526SOL    HW116214   2.552   4.136   0.325 -0.3105 -2.5279  0.0057
 1526SOL    HW216215   2.682   4.203   0.339 -0.6707 -2.1638  1.5093
 1527SOL     OW16216   2.234   2.780  17.361 -0.3092  0.3624 -0.5342
 1527SOL    HW116217   2.326   2.763  17.383 -0.1217  0.7185 -1.0430
 1527SOL    HW216218   2.202   2.694  17.337  0.7244 -0.4123  0.8479
 1528SOL     OW16219   3.564   1.557   5.605  0.4773  1.0798 -0.0285
 1528SOL    HW116220   3.573   1.644   5.566  2.7557  0.1112 -1.7082
 1528SOL    HW216221   3.503   1.514   5.545 -0.4568  3.0107 -0.4344
 1529SOL     OW16222   4.400   3.052   3.289  0.2728 -0.4630  0.8347
 1529SOL    HW116223   4.420   3.139   3.324  0.1330  0.2423 -0.8448
 1529SOL    HW216224   4.465   2.998   3.333  1.0559  0.5928  0.9580
 1530SOL     OW16225   3.830   0.928   5.357  0.1840 -0.0987  0.3502
 1530SOL    HW116226   3.776   0.971   5.423 -2.1850  0.8790 -2.2304
 1530SOL    HW216227   3.823   0.987   5.282 -0.8548  0.4716  0.9018
 1531SOL     OW16228   1.035   4.191  12.042  0.3960 -0.0300  0.3974
 1531SOL    HW116229   0.991   4.185  12.127  0.2216 -0.3434  0.2884
 1531SOL    HW216230   1.076   4.105  12.030  2.6444  1.1884 -0.4623
 1532SOL     OW16231   0.314   3.100   7.463  0.2483  0.4907  0.7121
 1532SOL    HW116232   0.295   3.017   7.507 -1.4348  1.6565  2.1783
 1532SOL    HW216233   0.291   3.072   7.375 -1.3239  0.9816  0.9661
 1533SOL     OW16234   1.850   3.054   8.098 -0.5206 -0.0568 -0.4562
 1533SOL    HW116235   1.821   3.132   8.145  0.3730 -0.0634  0.1005
 1533SOL    HW216236   1.766   3.013   8.078 -0.5785  0.6281 -1.5897
 1534SOL     OW16237   3.504   3.084   9.581  0.1321  0.2717  0.1377
 1534SOL    HW116238   3.547   3.155   9.629 -0.2692 -0.3189  1.3618
 1534SOL    HW216239   3.574   3.052   9.524  0.9906 -0.2730  1.5045
 1535SOL     OW16240   0.344   3.514   1.685 -0.7225 -0.0102  0.1954
 1535SOL    HW116241   0.386   3.431   1.709 -1.2526  0.6467  3.4206
 1535SOL    HW216242   0.409   3.555   1.629 -0.4472 -0.1349  0.4276
 1536SOL     OW16243   4.415   1.013   1.485 -0.1555  0.4102 -0.3247
 1536SOL    HW116244   4.467   1.066   1.424  0.7240  1.4930  1.3733
 1536SOL    HW216245   4.479   0.951   1.519  2.4798  2.9638 -0.6393
 1537SOL     OW16246   1.729   0.541  17.547  0.5133  0.6367 -0.0471
 1537SOL    HW116247   1.704   0.634  17.545 -2.2211 -0.1527 -2.6329
 1537SOL    HW216248   1.818   0.535  17.582  0.2836  0.5996  0.5350
 1538SOL     OW16249   3.643   0.454   9.455 -0.2282  0.5942 -0.0435
 1538SOL    HW116250   3.713   0.518   9.456  0.2825  0.0188  2.4723
 1538SOL    HW216251   3.662   0.422   9.367  0.4822  0.5193  0.1381
 1539SOL     OW16252   0.479   3.887  12.818  0.3667 -0.7644 -0.2547
 1539SOL    HW116253   0.479   3.791  12.821  2.5819 -0.7452  0.0081
 1539SOL    HW216254   0.438   3.883  12.732  0.3589 -1.6880 -0.2127
 1540SOL     OW16255   3.287   4.451   5.710 -0.2721  0.5990 -0.4283
 1540SOL    HW116256   3.257   4.476   5.798 -0.1065  1.1147 -0.5178
 1540SOL    HW216257   3.237   4.508   5.652  0.1147  0.0159 -1.3392
 1541SOL     OW16258   1.929   2.632  11.698 -0.3018 -0.3055  0.6103
 1541SOL    HW116259   2.014   2.591  11.712  0.1031  0.8532  1.5072
 1541SOL    HW216260   1.881   2.608  11.777 -2.4832 -1.4924 -1.0753
 1542SOL     OW16261   0.794   2.874   6.818 -0.0229  0.1485 -0.1067
 1542SOL    HW116262   0.834   2.799   6.860 -2.7858 -0.7893  0.8777
 1542SOL    HW216263   0.715   2.836   6.780  0.5260 -2.0491  0.9848
 1543SOL     OW16264   2.233   4.139   4.494 -0.5688  0.6527 -0.4875
 1543SOL    HW116265   2.205   4.226   4.467 -1.7616  0.4541  0.0890
 1543SOL    HW216266   2.247   4.155   4.587  0.9202 -0.7493 -0.4772
 1544SOL     OW16267   1.583   1.556   3.638 -0.6113 -0.4973 -0.1885
 1544SOL    HW116268   1.523   1.534   3.709 -1.3195 -2.3039 -1.3574
 1544SOL    HW216269   1.620   1.471   3.611  1.0746  0.9721 -2.4934
 1545SOL     OW16270   3.099   0.944   5.010 -0.2714 -0.0828 -0.2028
 1545SOL    HW116271   3.016   0.922   4.968 -0.4485 -1.5887  0.9169
 1545SOL    HW216272   3.084   0.898   5.093  0.6850 -0.1509 -0.0708
 1546SOL     OW16273   1.327   4.654   7.474 -0.3663  0.4769  0.3009
 1546SOL    HW116274   1.376   4.652   7.391 -0.1507 -1.9534  0.4867
 1546SOL    HW216275   1.303   0.010   7.477 -1.8558  0.0602  1.4309
 1547SOL     OW16276   1.097   1.159   0.843 -0.3613  0.2985  0.0813
 1547SOL    HW116277   1.130   1.069   0.846  1.9476  1.0589 -2.0769
 1547SOL    HW216278   1.005   1.151   0.868  0.3926 -2.2194  1.9775
 1548SOL     OW16279   2.771   1.933   9.141 -0.4357  0.3496  0.6276
 1548SOL    HW116280   2.820   1.853   9.161  0.3289  1.2572  2.4103
 1548SOL    HW216281   2.778   1.935   9.046 -0.5860 -2.2514  0.5711
 1549SOL     OW16282   1.070   2.058   5.484  0.0170  0.0993 -0.3459
 1549SOL    HW116283   1.025   2.133   5.523 -0.9689  0.1923 -1.6678
 1549SOL    HW216284   0.991   2.009   5.462 -0.6896  1.4306 -0.7575
 1550SOL     OW16285   0.414   0.343  17.513  0.6779  0.1941  0.2647
 1550SOL    HW116286   0.318   0.351  17.515  0.8097  2.4803 -2.8090
 1550SOL    HW216287   0.428   0.311  17.602 -2.3483 -2.6313 -0.2714
 1551SOL     OW16288   2.480   0.818  11.542  0.5376  0.0288 -0.6125
 1551SOL    HW116289   2.526   0.758  11.602  0.5880 -0.1177 -0.7977
 1551SOL    HW216290   2.529   0.821  11.460 -1.6817  0.9475 -1.8892
 1552SOL     OW16291   2.184   3.318  14.311  0.2510  0.2470 -0.5838
 1552SOL    HW116292   2.176   3.230  14.275 -2.1801  0.3969 -0.4071
 1552SOL    HW216293   2.096   3.347  14.288 -0.0194 -1.7672 -2.1056
 1553SOL     OW16294   3.708   4.291   7.875  0.5892  0.1316 -0.4587
 1553SOL    HW116295   3.663   4.209   7.856  1.9910 -0.2278 -2.2284
 1553SOL    HW216296   3.673   4.349   7.807  0.4345 -1.0624 -1.4056
 1554SOL     OW16297   3.556   2.675   6.468  0.1012  0.0448  0.1416
 1554SOL    HW116298   3.581   2.668   6.376 -0.9908 -1.3241 -0.0558
 1554SOL    HW216299   3.463   2.682   6.447  0.3401 -1.3242 -1.4170
 1555SOL     OW16300   4.169   2.147   3.549  0.4003  0.0566  0.6104
 1555SOL    HW116301   4.085   2.136   3.505  1.0265 -0.2436 -0.5060
 1555SOL    HW216302   4.222   2.114   3.477 -1.9643  0.4608 -1.3337
 1556SOL     OW16303   4.630   4.167   8.161 -0.2764  0.4646  0.3136
 1556SOL    HW116304   4.577   4.114   8.102  1.3730  0.4781 -1.1680
 1556SOL    HW216305   4.682   4.098   8.201  0.7506  1.2015  0.2564
 1557SOL     OW16306   0.852   3.744  17.275  0.1286  0.3624 -0.4427
 1557SOL    HW116307   0.851   3.736  17.371  0.0691 -1.1011 -0.5653
 1557SOL    HW216308   0.891   3.662  17.247  1.3499  0.8946 -0.2982
 1558SOL     OW16309   0.054   3.539  12.887  0.1531 -0.1072 -0.2463
 1558SOL    HW116310   0.007   3.613  12.849  0.9982  0.8331  0.5509
 1558SOL    HW216311   4.720   3.522  12.951  0.3418  1.6066  0.4040
 1559SOL     OW16312   2.101   2.416   7.891 -0.0120 -0.2597  0.3964
 1559SOL    HW116313   2.178   2.427   7.835  0.1901 -1.4703  0.4523
 1559SOL    HW216314   2.096   2.506   7.923 -1.0242 -1.0330  2.4156
 1560SOL     OW16315   2.828   0.129   5.405  0.3889  0.0270  0.1814
 1560SOL    HW116316   2.843   0.217   5.371 -0.0615 -0.3522 -1.0069
 1560SOL    HW216317   2.912   0.115   5.447  0.2618 -0.9584  0.1064
 1561SOL     OW16318   2.759   2.791  15.061 -0.4377 -0.2887 -0.3432
 1561SOL    HW116319   2.790   2.822  15.146 -0.7934 -3.0272  0.7733
 1561SOL    HW216320   2.829   2.729  15.041 -0.4622 -1.1087  2.0933
 1562SOL     OW16321   3.395   2.141   6.312 -0.0119  0.0490 -0.6066
 1562SOL    HW116322   3.489   2.156   6.299 -0.7113  2.6178 -2.6909
 1562SOL    HW216323   3.391   2.126   6.407 -0.0455  1.5132 -0.3868
 1563SOL     OW16324   2.543   0.097   0.347  0.1172 -0.3173 -0.1159
 1563SOL    HW116325   2.564   0.033   0.278 -1.6627  0.0517 -1.0039
 1563SOL    HW216326   2.549   0.040   0.423  0.6138  0.7339  0.6260
 1564SOL     OW16327   0.559   3.867   1.308 -0.0021 -0.1206 -0.6819
 1564SOL    HW116328   0.634   3.898   1.258  2.0030 -0.0909  2.3274
 1564SOL    HW216329   0.488   3.913   1.264 -0.6747 -3.1504 -2.7726
 1565SOL     OW16330   2.540   3.601  10.271 -0.1283 -0.8013  0.4719
 1565SOL    HW116331   2.497   3.549  10.202 -0.6689 -0.1447  0.3168
 1565SOL    HW216332   2.477   3.668  10.296 -0.1967 -0.8428  0.4153
 1566SOL     OW16333   4.643   2.589   4.636 -0.0716 -0.5158  0.7272
 1566SOL    HW116334   4.572   2.568   4.697 -0.2624 -1.5016  0.1644
 1566SOL    HW216335   4.710   2.631   4.691 -0.6067  2.8748 -1.2463
 1567SOL     OW16336   1.676   0.446   4.229 -0.1691  0.0603 -0.2850
 1567SOL    HW116337   1.603   0.395   4.194 -1.0588  0.6363  0.7596
 1567SOL    HW216338   1.703   0.389   4.301 -1.5813 -1.0791 -0.6660
 1568SOL     OW16339   2.019   3.790  14.721 -0.0863  0.1534 -0.4737
 1568SOL    HW116340   2.068   3.851  14.776 -1.6286  0.3118  0.7530
 1568SOL    HW216341   2.091   3.734  14.693 -0.1213  0.3284 -0.9100
 1569SOL     OW16342   1.597   2.211  11.391  0.2202 -0.2286 -0.3987
 1569SOL    HW116343   1.666   2.224  11.456 -0.0359 -1.7838  0.1806
 1569SOL    HW216344   1.527   2.222  11.457 -0.9927 -0.6344 -1.6175
 1570SOL     OW16345   1.478   3.514  12.360  0.1854  0.1850  0.3555
 1570SOL    HW116346   1.572   3.530  12.368  0.3809 -0.6854 -0.1580
 1570SOL    HW216347   1.436   3.599  12.353  0.2068  0.3422  1.9513
 1571SOL     OW16348   3.728   4.022   3.571  0.3569 -0.0623  0.4726
 1571SOL    HW116349   3.794   3.981   3.627  0.0553  0.1882  1.0044
 1571SOL    HW216350   3.783   4.090   3.531  1.5157 -0.5650  1.2272
 1572SOL     OW16351   4.261   0.982   2.317 -0.2927 -0.6645  0.1073
 1572SOL    HW116352   4.249   0.900   2.364  2.2934 -1.5444 -0.7256
 1572SOL    HW216353   4.235   0.951   2.230 -0.8450  0.6892 -0.2105
 1573SOL     OW16354   2.917   3.369   1.832  0.3283 -0.4529  0.0755
 1573SOL    HW116355   2.980   3.360   1.761 -1.8042  0.9147 -1.9792
 1573SOL    HW216356   2.945   3.454   1.868  0.9536 -0.4736 -0.3629
 1574SOL     OW16357   2.024   1.015   5.186 -0.3041  0.3939  0.3155
 1574SOL    HW116358   2.020   1.107   5.213 -0.8007  1.0658 -2.0105
 1574SOL    HW216359   1.933   0.996   5.163  0.1857  0.6914 -1.9021
 1575SOL     OW16360   1.104   3.981  10.317 -0.0998  0.1339  0.5763
 1575SOL    HW116361   1.071   4.038  10.387 -3.3851  1.1869 -1.8259
 1575SOL    HW216362   1.030   3.920  10.320 -1.6933  2.1255  1.6629
 1576SOL     OW16363   3.139   4.405   9.059 -0.2877  0.4267  0.6255
 1576SOL    HW116364   3.133   4.380   9.151 -2.5827  0.3742  0.4421
 1576SOL    HW216365   3.149   4.321   9.015 -0.7959 -0.8649  3.0157
 1577SOL     OW16366   1.033   3.393   8.537 -0.1893  0.3694 -0.1673
 1577SOL    HW116367   0.987   3.454   8.480 -0.3257  1.7754  1.4312
 1577SOL    HW216368   0.972   3.408   8.609  1.5150 -3.6501  2.1069
 1578SOL     OW16369   1.661   1.066   5.804  0.0080 -0.2015 -0.0734
 1578SOL    HW116370   1.713   1.022   5.737  0.4252  0.6566 -0.3122
 1578SOL    HW216371   1.579   1.018   5.816 -0.0606 -0.2592 -0.7889
 1579SOL     OW16372   3.496   0.892   4.146 -0.3969  0.3135 -0.2250
 1579SOL    HW116373   3.516   0.927   4.059  0.9264 -0.5766 -0.2662
 1579SOL    HW216374   3.501   0.976   4.192 -0.9018 -0.5046  1.3008
 1580SOL     OW16375   0.526   1.411   5.939 -0.5130  0.1506 -0.5089
 1580SOL    HW116376   0.504   1.366   6.021  1.1852 -2.3541 -1.4209
 1580SOL    HW216377   0.544   1.337   5.882  1.0172  0.7859 -0.8496
 1581SOL     OW16378   0.244   0.558   5.652 -0.1419  0.4236  1.0077
 1581SOL    HW116379   0.170   0.535   5.709  0.6575 -1.4079  1.2939
 1581SOL    HW216380   0.214   0.510   5.574  1.1868  0.5067  0.4450
 1582SOL     OW16381   2.375   2.833   6.503 -0.0359  0.1929  0.4526
 1582SOL    HW116382   2.414   2.773   6.566  1.5588  2.4196  1.5604
 1582SOL    HW216383   2.446   2.893   6.483  1.7290 -1.7126  0.9893
 1583SOL     OW16384   2.265   2.787   4.217  0.2185 -0.0035  0.8179
 1583SOL    HW116385   2.258   2.736   4.136 -1.9107 -1.1723  1.7498
 1583SOL    HW216386   2.199   2.855   4.202 -0.2464 -0.7325 -0.4483
 1584SOL     OW16387   2.063   2.020   9.242  0.0102  0.4659  0.1073
 1584SOL    HW116388   2.102   2.009   9.329 -0.9371  0.4855  0.5466
 1584SOL    HW216389   2.028   2.107   9.263 -0.1350  0.3500  0.3505
 1585SOL     OW16390   2.728   0.969   7.054 -0.6732 -0.0929 -0.2858
 1585SOL    HW116391   2.658   0.917   7.014  0.8912 -2.1001 -0.4075
 1585SOL    HW216392   2.769   1.008   6.976  0.3545  1.2193  0.9218
 1586SOL     OW16393   3.391   4.494   1.176  0.2531  0.2840  0.1397
 1586SOL    HW116394   3.351   4.441   1.107  0.7961 -1.9507  1.5616
 1586SOL    HW216395   3.449   4.441   1.230  0.3450  0.4280  0.1813
 1587SOL     OW16396   1.523   2.766   2.307 -0.1873 -0.2487  0.6490
 1587SOL    HW116397   1.481   2.738   2.225  2.0680 -0.4438 -0.4455
 1587SOL    HW216398   1.466   2.743   2.380 -1.8332 -0.5189 -0.6911
 1588SOL     OW16399   2.572   1.389  15.102  0.1686 -0.3591 -0.3565
 1588SOL    HW116400   2.557   1.476  15.065  2.4437  0.6204  1.0424
 1588SOL    HW216401   2.560   1.402  15.196 -3.1999 -1.9987 -0.5368
 1589SOL     OW16402   1.680   4.376   5.390 -0.1311 -0.2015 -0.0138
 1589SOL    HW116403   1.679   4.284   5.417 -0.0921  0.8519  3.5876
 1589SOL    HW216404   1.691   4.426   5.471 -1.2213 -1.2560  0.7925
 1590SOL     OW16405   2.225   0.414   9.451  0.4190 -0.2559 -0.0766
 1590SOL    HW116406   2.226   0.449   9.361 -3.0323 -0.4288 -0.1946
 1590SOL    HW216407   2.152   0.466   9.485  0.0081 -0.3854 -0.7506
 1591SOL     OW16408   2.050   0.708   2.576  0.4848 -0.5672  0.0185
 1591SOL    HW116409   2.145   0.715   2.586  0.6598 -1.1572 -1.2677
 1591SOL    HW216410   2.037   0.698   2.670 -0.6575  1.3772  0.0617
 1592SOL     OW16411   0.860   2.165   8.574 -0.4441 -0.1033  0.4797
 1592SOL    HW116412   0.933   2.197   8.521  0.6402 -2.4926  0.5312
 1592SOL    HW216413   0.867   2.230   8.643 -1.2922  0.6205 -0.1175
 1593SOL     OW16414   1.225   3.321   9.116 -0.7835 -0.1721  0.5137
 1593SOL    HW116415   1.196   3.231   9.132  0.5051 -0.4920  1.0763
 1593SOL    HW216416   1.177   3.371   9.182  0.5057  0.9978  0.5561
 1594SOL     OW16417   1.415   2.817  17.430 -0.5883 -0.6934 -0.0635
 1594SOL    HW116418   1.360   2.892  17.408 -0.1367 -0.0076  1.1412
 1594SOL    HW216419   1.447   2.836  17.518 -1.5677 -1.7143  0.5128
 1595SOL     OW16420   2.824   2.118   3.007 -0.2649  0.0629 -0.2304
 1595SOL    HW116421   2.787   2.191   2.957 -1.9141  0.6082  1.7736
 1595SOL    HW216422   2.916   2.111   2.982 -0.7791 -2.8688 -1.2894
 1596SOL     OW16423   0.393   4.664  17.727  0.1745 -0.0478 -0.2705
 1596SOL    HW116424   0.323   4.658  17.662 -1.2945 -2.5133  1.5299
 1596SOL    HW216425   0.430   4.577  17.736 -0.8236 -0.3870  0.5232
 1597SOL     OW16426   0.734   2.814   6.057  0.6503 -0.2438  0.3305
 1597SOL    HW116427   0.793   2.848   5.989 -2.7496  2.1185 -1.4587
 1597SOL    HW216428   0.687   2.894   6.080  0.6747 -0.0207 -0.3761
 1598SOL     OW16429   1.758   2.535  13.714  0.6339  0.2614  0.6515
 1598SOL    HW116430   1.672   2.576  13.726  0.8798  1.0023 -0.0686
 1598SOL    HW216431   1.748   2.489  13.630  0.2950  2.7478 -0.6705
 1599SOL     OW16432   2.894   0.192  16.067  0.3805 -0.0364  0.0912
 1599SOL    HW116433   2.896   0.224  16.157 -1.3402  3.0202 -0.9674
 1599SOL    HW216434   2.842   0.260  16.025 -2.4229 -2.2167 -0.0040
 1600SOL     OW16435   0.068   2.649  13.821  0.1414 -0.1424  0.3975
 1600SOL    HW116436   0.056   2.580  13.886  0.6845  2.4278  3.2180
 1600SOL    HW216437   0.041   2.727  13.869  1.2263 -0.3072  1.2955
 1601SOL     OW16438   3.862   0.535  15.531  0.1865  0.2538 -0.4155
 1601SOL    HW116439   3.915   0.615  15.528 -0.8831  1.0287  1.4718
 1601SOL    HW216440   3.790   0.565  15.476 -1.5101 -1.8371  0.6809
 1602SOL     OW16441   2.327   2.861  15.290  0.0480 -0.0789  0.4021
 1602SOL    HW116442   2.413   2.854  15.331 -0.3431  2.9042  1.6701
 1602SOL    HW216443   2.345   2.913  15.212  0.3622  0.8404  1.0978
 1603SOL     OW16444   3.592   4.053   7.811 -0.2121 -0.1889 -0.0634
 1603SOL    HW116445   3.517   4.020   7.762  1.0868 -2.5166 -0.4859
 1603SOL    HW216446   3.623   3.971   7.850 -0.7410 -0.5697 -0.4469
 1604SOL     OW16447   2.803   4.000   5.827  0.9640 -0.0555 -0.0708
 1604SOL    HW116448   2.890   4.035   5.808  1.0439  0.3932  1.1487
 1604SOL    HW216449   2.750   4.072   5.791 -0.3464 -0.2184  1.5157
 1605SOL     OW16450   3.247   0.988   2.418 -0.4242  0.4515  0.2929
 1605SOL    HW116451   3.319   1.026   2.467  1.4109 -1.3332 -1.0304
 1605SOL    HW216452   3.215   0.914   2.469  0.7718 -2.1472 -2.7204
 1606SOL     OW16453   3.099   2.570   8.254  0.0827  0.5819 -0.0044
 1606SOL    HW116454   3.129   2.614   8.174 -1.5707  1.9955  0.1473
 1606SOL    HW216455   3.034   2.628   8.293 -1.6979  0.9173 -3.4543
 1607SOL     OW16456   1.186   4.270   2.703 -0.3024 -0.2077 -0.5161
 1607SOL    HW116457   1.182   4.363   2.728 -2.2062 -0.2890 -0.4688
 1607SOL    HW216458   1.274   4.268   2.667 -0.0612  0.8989  0.0041
 1608SOL     OW16459   2.964   2.558  10.451 -0.1837 -0.4454  0.4105
 1608SOL    HW116460   2.973   2.466  10.427  2.2552 -0.2904  0.7561
 1608SOL    HW216461   2.932   2.590  10.367  0.8455  0.9697  0.5562
 1609SOL     OW16462   4.288   1.073  16.743  0.5305 -0.1343  1.0126
 1609SOL    HW116463   4.228   1.138  16.707 -0.6353 -0.7935  1.7635
 1609SOL    HW216464   4.220   1.008  16.761 -0.2087  1.5022  4.1531
 1610SOL     OW16465   3.983   0.379  13.746  0.6004 -0.0323 -0.3665
 1610SOL    HW116466   3.931   0.454  13.717 -1.6116 -2.3771 -2.4496
 1610SOL    HW216467   3.983   0.378  13.842 -1.2959 -1.6990 -0.4085
 1611SOL     OW16468   1.834   3.330   1.798  0.0034  0.2181  0.4700
 1611SOL    HW116469   1.841   3.297   1.708 -0.7039  0.3555  0.3702
 1611SOL    HW216470   1.792   3.414   1.785  0.6793  0.0013 -3.0709
 1612SOL     OW16471   0.495   2.173   8.042  0.0735  1.0809 -0.5694
 1612SOL    HW116472   0.452   2.181   7.957 -0.6808 -1.8183 -0.4658
 1612SOL    HW216473   0.574   2.227   8.037 -0.1575  1.3009 -1.7782
 1613SOL     OW16474   2.313   4.607  12.451 -0.2562 -0.1232  0.0232
 1613SOL    HW116475   2.227   4.629  12.417 -0.6696 -2.3984 -0.4265
 1613SOL    HW216476   2.310   4.511  12.448 -1.1289 -0.0098 -2.6129
 1614SOL     OW16477   3.191   1.992   9.711  0.4718 -0.4076  0.2005
 1614SOL    HW116478   3.133   1.958   9.779  1.3677 -1.1151  0.6122
 1614SOL    HW216479   3.246   2.058   9.752 -0.7602  0.7168  0.0462
 1615SOL     OW16480   1.496   3.561   7.397 -0.1922 -0.0779 -0.0763
 1615SOL    HW116481   1.400   3.557   7.400 -0.1839  0.0626  0.4203
 1615SOL    HW216482   1.516   3.654   7.412  0.1598 -0.1018 -0.3935
 1616SOL     OW16483   2.633   3.632   7.960 -0.2564  0.3694  0.6158
 1616SOL    HW116484   2.682   3.585   7.892  1.4817  0.9226  1.4790
 1616SOL    HW216485   2.628   3.562   8.025  0.8724 -1.7287 -1.5081
 1617SOL     OW16486   2.201   0.597   2.345  0.1712 -0.0414 -0.4268
 1617SOL    HW116487   2.178   0.671   2.289  1.9494 -0.1643 -1.3153
 1617SOL    HW216488   2.128   0.607   2.406  0.0834 -0.0065 -0.5388
 1618SOL     OW16489   2.701   0.413  12.158  0.0514  0.3147 -0.7306
 1618SOL    HW116490   2.754   0.340  12.191 -0.7508 -0.3829 -0.9897
 1618SOL    HW216491   2.644   0.362  12.101  1.5753 -2.9352  0.6502
 1619SOL     OW16492   0.227   4.559   7.785  0.1293  0.1922  0.5273
 1619SOL    HW116493   0.276   4.512   7.852 -0.1717 -1.0563 -0.1130
 1619SOL    HW216494   0.237   4.488   7.721 -2.3839  0.5686 -0.3099
 1620SOL     OW16495   0.629   1.505   4.769  0.6256  0.2757 -0.1583
 1620SOL    HW116496   0.705   1.494   4.827  0.1200  0.5252  0.5469
 1620SOL    HW216497   0.670   1.521   4.684  3.1584  1.1308  1.2039
 1621SOL     OW16498   3.482   2.210  17.393 -0.0568  0.2392 -0.0393
 1621SOL    HW116499   3.542   2.155  17.444  0.3929  1.4704  0.7381
 1621SOL    HW216500   3.520   2.224  17.307  0.2639  0.8146  0.2005
 1622SOL     OW16501   3.402   4.277   7.952  0.5801  0.0282 -0.0580
 1622SOL    HW116502   3.351   4.196   7.954  0.1963  0.3671  3.0042
 1622SOL    HW216503   3.490   4.259   7.985  0.9776  0.4705 -0.8833
 1623SOL     OW16504   2.249   1.537   8.293  0.1728  0.4526  0.2993
 1623SOL    HW116505   2.267   1.551   8.386  0.1732  0.2002  0.3374
 1623SOL    HW216506   2.322   1.587   8.258 -0.4955  0.7425 -0.6738
 1624SOL     OW16507   3.657   0.793  12.321 -0.3100  0.2171  0.2888
 1624SOL    HW116508   3.736   0.842  12.298 -1.5945  1.3936 -1.6132
 1624SOL    HW216509   3.686   0.711  12.282  1.1720  0.2065  1.4091
 1625SOL     OW16510   4.076   0.361   2.148 -0.1178 -0.0891 -0.4201
 1625SOL    HW116511   4.088   0.434   2.087  1.2846 -0.5089 -0.6500
 1625SOL    HW216512   4.117   0.383   2.232 -0.4983  0.5630 -0.4036
 1626SOL     OW16513   2.837   2.293  11.744  0.0102 -0.0752  0.0718
 1626SOL    HW116514   2.883   2.349  11.807 -2.0857  1.4909  0.2360
 1626SOL    HW216515   2.746   2.292  11.773 -0.0326  1.5141  0.0107
 1627SOL     OW16516   4.073   2.432   3.946 -0.1172 -0.1886 -0.0252
 1627SOL    HW116517   4.071   2.507   3.886 -1.0223  0.0226  0.2766
 1627SOL    HW216518   4.154   2.397   3.910  0.3263  0.4505  0.3556
 1628SOL     OW16519   1.158   1.283   9.193  0.1961  0.3445 -0.1117
 1628SOL    HW116520   1.155   1.257   9.100 -0.3091  0.8557 -0.2334
 1628SOL    HW216521   1.167   1.378   9.185 -2.2305  0.7639  2.2932
 1629SOL     OW16522   3.373   1.241   3.811  0.0270  0.9107  0.4090
 1629SOL    HW116523   3.331   1.322   3.781  0.9720  1.5956  0.9528
 1629SOL    HW216524   3.462   1.246   3.778 -0.6624  0.1797 -1.5822
 1630SOL     OW16525   1.319   1.291   0.900  0.0035  0.3466 -0.0271
 1630SOL    HW116526   1.372   1.266   0.824  1.9442  0.6575  1.2188
 1630SOL    HW216527   1.241   1.238   0.884  1.5830 -1.3559 -2.0757
 1631SOL     OW16528   2.010   2.888   6.313 -0.3629 -0.5817 -0.5139
 1631SOL    HW116529   2.079   2.827   6.291  0.1772  0.0494 -0.5726
 1631SOL    HW216530   1.986   2.908   6.223 -0.4185  0.3653 -0.2992
 1632SOL     OW16531   2.313   1.294   4.071 -0.2367 -0.1871 -0.1343
 1632SOL    HW116532   2.258   1.304   3.993 -1.2080  1.5091  0.7626
 1632SOL    HW216533   2.305   1.386   4.097  1.7469 -0.4026  1.2106
 1633SOL     OW16534   0.398   3.997   7.818 -0.0364  0.0831 -0.1384
 1633SOL    HW116535   0.416   3.920   7.871  0.6788  0.2627 -0.1237
 1633SOL    HW216536   0.314   4.025   7.855  0.4149  2.4041 -0.8424
 1634SOL     OW16537   3.876   0.494   1.881 -0.2126 -0.3031 -0.2143
 1634SOL    HW116538   3.954   0.541   1.850 -2.1185  1.5321 -2.1655
 1634SOL    HW216539   3.816   0.496   1.807  0.7119  0.1100 -0.9637
 1635SOL     OW16540   4.100   0.691   3.111 -0.4918 -0.7895 -0.2486
 1635SOL    HW116541   4.123   0.768   3.060  0.0862 -1.2196 -0.6404
 1635SOL    HW216542   4.029   0.714   3.171 -1.5860 -1.4832 -1.2832
 1636SOL     OW16543   2.727   4.264   7.605 -0.0321  0.1113  0.2920
 1636SOL    HW116544   2.752   4.199   7.671  1.7933 -0.2933 -0.7762
 1636SOL    HW216545   2.681   4.204   7.547 -1.4803  1.9071 -0.3898
 1637SOL     OW16546   1.532   4.272   9.015  0.0004  0.0695  0.0262
 1637SOL    HW116547   1.509   4.245   8.926 -0.0800  2.3527 -0.6295
 1637SOL    HW216548   1.623   4.242   9.012 -0.1128 -0.3074  0.3266
 1638SOL     OW16549   4.644   2.112   1.354 -0.2409  0.4342 -0.0610
 1638SOL    HW116550   4.596   2.168   1.293 -2.6891  0.1709  1.6051
 1638SOL    HW216551   4.595   2.137   1.433  0.3845  0.4620  0.3187
 1639SOL     OW16552   1.100   3.042   3.012 -0.6045 -0.5125 -0.4321
 1639SOL    HW116553   1.084   2.947   3.012 -4.3001  0.1345 -0.0563
 1639SOL    HW216554   1.148   3.046   2.930  0.1474 -0.5273  0.0037
 1640SOL     OW16555   0.743   3.369   6.489 -0.5600 -0.2642  0.1467
 1640SOL    HW116556   0.659   3.377   6.535 -1.3911 -1.0180 -1.2313
 1640SOL    HW216557   0.814   3.366   6.553 -0.7672 -1.7747  0.3019
 1641SOL     OW16558   3.464   0.936   8.170 -0.1739  0.1659  0.1937
 1641SOL    HW116559   3.560   0.937   8.166 -0.0466 -3.1814  2.3374
 1641SOL    HW216560   3.448   0.958   8.078 -0.5096 -1.0970 -0.0451
 1642SOL     OW16561   3.180   3.351   3.283 -0.5867 -0.2426  0.0217
 1642SOL    HW116562   3.257   3.319   3.329  0.1523  0.4738 -0.7055
 1642SOL    HW216563   3.126   3.392   3.351  1.3596 -0.4894  1.7405
 1643SOL     OW16564   0.018   2.432  16.363 -0.8356  0.4609 -0.1876
 1643SOL    HW116565   0.107   2.459  16.385 -0.6312  0.8798 -1.4970
 1643SOL    HW216566   0.020   2.354  16.418 -0.8746  0.3265 -0.3755
 1644SOL     OW16567   1.123   2.955   4.549  0.2062 -0.4756 -0.6744
 1644SOL    HW116568   1.161   2.929   4.465 -1.4837  0.5518 -1.7525
 1644SOL    HW216569   1.078   2.880   4.586  1.1967  1.0909  3.6898
 1645SOL     OW16570   2.457   0.014   9.573 -0.1962 -0.2861 -0.1207
 1645SOL    HW116571   2.520   0.022   9.502 -0.5581 -0.6456 -0.4817
 1645SOL    HW216572   2.424   4.661   9.559  0.4326 -0.8733  2.0964
 1646SOL     OW16573   0.645   0.800   6.104 -0.0248  0.0671 -0.4798
 1646SOL    HW116574   0.638   0.780   6.197 -0.6706 -0.2117 -0.5892
 1646SOL    HW216575   0.706   0.731   6.080  1.2265  0.6124  1.1236
 1647SOL     OW16576   1.219   1.968   4.946  0.1676  0.1903 -0.0018
 1647SOL    HW116577   1.304   1.945   4.982 -0.2250 -1.4029 -0.0845
 1647SOL    HW216578   1.166   1.889   4.954 -2.0008  1.7853  1.4329
 1648SOL     OW16579   2.192   1.710   4.873 -0.0283 -0.5215  0.1312
 1648SOL    HW116580   2.165   1.763   4.948 -0.3429  0.0424 -0.3843
 1648SOL    HW216581   2.256   1.766   4.829 -0.7289  0.0557 -0.1343
 1649SOL     OW16582   4.243   1.203   5.077  0.1302 -0.3019  0.0344
 1649SOL    HW116583   4.315   1.260   5.050 -0.5634  1.1587  1.3229
 1649SOL    HW216584   4.257   1.130   5.015  1.1866 -0.2324  0.1920
 1650SOL     OW16585   2.395   1.065   1.889 -0.1798  0.2367  0.0249
 1650SOL    HW116586   2.348   1.036   1.811 -0.0518 -0.0958  0.0718
 1650SOL    HW216587   2.454   0.994   1.914 -0.4537 -0.2082 -0.6175
 1651SOL     OW16588   4.675   1.359   1.216 -0.3138 -0.3690  0.4046
 1651SOL    HW116589   4.627   1.312   1.148  1.7190 -1.4081 -0.3231
 1651SOL    HW216590   4.656   1.448   1.185 -0.5460 -0.2706  0.8369
 1652SOL     OW16591   3.645   4.549   1.805  0.0746  0.1649 -0.3013
 1652SOL    HW116592   3.715   4.593   1.852 -0.0328 -2.4541  2.3187
 1652SOL    HW216593   3.571   4.567   1.864  1.1930  0.7429  0.9170
 1653SOL     OW16594   1.570   2.285   8.311  0.5030  0.4356  0.5661
 1653SOL    HW116595   1.525   2.363   8.277  0.7174  1.5036  2.7619
 1653SOL    HW216596   1.659   2.317   8.321  0.5728  0.8950 -1.5345
 1654SOL     OW16597   0.624   1.855   1.621 -0.0860  0.0750  0.0727
 1654SOL    HW116598   0.614   1.761   1.636  0.4047  0.4719  2.7651
 1654SOL    HW216599   0.545   1.883   1.573  1.0689  1.6757 -0.8958
 1655SOL     OW16600   0.512   1.537  15.404  0.1878  0.3345  0.0871
 1655SOL    HW116601   0.569   1.475  15.359 -0.7449 -2.0063  2.1360
 1655SOL    HW216602   0.480   1.479  15.472 -0.4265  2.2236  1.4121
 1656SOL     OW16603   3.600   4.254   0.573 -0.3843  0.6722 -0.4401
 1656SOL    HW116604   3.596   4.188   0.504 -1.3797 -0.5265  0.7732
 1656SOL    HW216605   3.570   4.204   0.649  0.0429  0.0724 -0.6725
 1657SOL     OW16606   0.995   4.122  12.649 -0.3303 -0.0488 -0.0303
 1657SOL    HW116607   0.918   4.065  12.655 -1.5959  1.6024 -0.3523
 1657SOL    HW216608   1.067   4.075  12.689 -1.0465 -1.9552 -0.9810
 1658SOL     OW16609   3.304   2.360   3.432  0.1977  0.2297  0.4078
 1658SOL    HW116610   3.372   2.423   3.456  1.9273 -1.1109 -0.9377
 1658SOL    HW216611   3.356   2.281   3.417  0.4143  0.1750  1.4766
 1659SOL     OW16612   2.419   1.157   4.270 -0.1848  0.0142  0.4425
 1659SOL    HW116613   2.489   1.217   4.295  1.0152 -0.6683 -1.2791
 1659SOL    HW216614   2.374   1.208   4.202  1.0514 -1.5087 -1.5094
 1660SOL     OW16615   2.680   1.919   0.583  0.4207  0.6865  0.5842
 1660SOL    HW116616   2.677   1.903   0.677  0.5265  0.0319  0.4734
 1660SOL    HW216617   2.637   2.005   0.581 -0.6817  0.1592  1.5600
 1661SOL     OW16618   0.155   3.096   8.900 -0.2993 -0.8163  0.0850
 1661SOL    HW116619   0.220   3.101   8.829  0.2707 -0.1155  0.6478
 1661SOL    HW216620   0.091   3.163   8.877  0.1649 -0.7696 -1.0919
 1662SOL     OW16621   2.391   0.388   9.862 -0.6921  0.0204  0.0764
 1662SOL    HW116622   2.424   0.443   9.933 -1.2542  1.5661 -0.8556
 1662SOL    HW216623   2.311   0.436   9.841 -1.4065 -1.2213  0.0037
 1663SOL     OW16624   2.047   2.108  16.783  0.7470  0.0929 -0.0628
 1663SOL    HW116625   2.018   2.068  16.701  0.4413  2.5813 -1.1704
 1663SOL    HW216626   2.065   2.196  16.749 -1.2585  1.2127  1.8019
 1664SOL     OW16627   3.746   4.026   4.913  0.1447 -0.0755  0.5672
 1664SOL    HW116628   3.733   4.091   4.982 -2.0556 -1.3621  1.3500
 1664SOL    HW216629   3.754   4.086   4.839  1.1564 -1.7041 -0.6523
 1665SOL     OW16630   0.714   3.016   7.108  0.2558  0.1255 -0.2608
 1665SOL    HW116631   0.714   3.107   7.138  1.3025  0.0303  0.0352
 1665SOL    HW216632   0.770   2.971   7.171  0.3533 -1.0393 -1.1777
 1666SOL     OW16633   4.436   2.981   3.820  0.2582 -0.1211  0.0491
 1666SOL    HW116634   4.475   3.056   3.776 -2.6531 -0.3613 -2.9239
 1666SOL    HW216635   4.454   2.998   3.913 -1.8583  0.3200  0.3758
 1667SOL     OW16636   1.205   2.170   0.452  0.3179  0.1649  0.6913
 1667SOL    HW116637   1.272   2.192   0.388 -0.0019  0.7492  0.5588
 1667SOL    HW216638   1.176   2.252   0.493 -0.7591 -0.9286  2.1589
 1668SOL     OW16639   2.616   1.662   5.721  0.1086  0.8770 -0.6212
 1668SOL    HW116640   2.643   1.617   5.800  2.2285 -0.6006 -2.1811
 1668SOL    HW216641   2.667   1.603   5.665  0.9925  0.8308  0.2243
 1669SOL     OW16642   0.109   2.584   7.377  0.0323 -0.0849  0.0442
 1669SOL    HW116643   0.018   2.572   7.347  0.6269 -1.6939 -1.1537
 1669SOL    HW216644   0.121   2.676   7.355  2.2995 -0.4983 -0.4422
 1670SOL     OW16645   4.356   0.815   4.476  0.3696 -0.1512 -0.4270
 1670SOL    HW116646   4.444   0.833   4.509  1.2678 -2.1025 -1.7563
 1670SOL    HW216647   4.329   0.741   4.529 -2.1724 -0.5392 -2.2830
 1671SOL     OW16648   0.052   3.325   7.678 -0.3348 -0.2250 -0.1112
 1671SOL    HW116649   0.135   3.315   7.724 -0.2856  1.5672  0.1921
 1671SOL    HW216650   0.070   3.364   7.593  0.6943 -2.2963 -0.8296
 1672SOL     OW16651   1.264   3.593   3.379 -0.4307  0.0250  0.2248
 1672SOL    HW116652   1.353   3.607   3.346 -0.6468  1.5248  0.2962
 1672SOL    HW216653   1.273   3.499   3.394 -1.8156 -0.2616 -0.7765
 1673SOL     OW16654   2.043   3.310   5.870 -0.4705  0.0787 -0.1019
 1673SOL    HW116655   1.963   3.319   5.921  0.2468 -1.0030  1.2257
 1673SOL    HW216656   2.110   3.354   5.924 -0.0944 -2.9899  1.9412
 1674SOL     OW16657   4.256   3.741   7.676  0.4856 -0.0534 -0.1281
 1674SOL    HW116658   4.186   3.685   7.643  2.3848 -1.1736 -2.2695
 1674SOL    HW216659   4.288   3.792   7.602  0.1372 -0.5122 -0.5991
 1675SOL     OW16660   2.252   4.029  13.278  0.5678  0.5364  0.1536
 1675SOL    HW116661   2.197   4.014  13.201 -0.1376  0.4917  0.6662
 1675SOL    HW216662   2.269   3.938  13.303 -0.4995  0.4565  0.6088
 1676SOL     OW16663   4.408   3.691  17.093  0.1769  0.3356 -0.0449
 1676SOL    HW116664   4.498   3.695  17.058  0.1788 -0.7087 -0.1678
 1676SOL    HW216665   4.359   3.689  17.011 -0.4325  1.3485  0.2942
 1677SOL     OW16666   3.611   2.205  17.069 -0.1174  0.2064 -0.3764
 1677SOL    HW116667   3.616   2.169  16.980  1.7176  0.3847 -0.3343
 1677SOL    HW216668   3.598   2.296  17.041  1.6859  0.9002  1.0156
 1678SOL     OW16669   4.250   1.407   6.828 -0.6996 -0.0057 -0.1102
 1678SOL    HW116670   4.308   1.482   6.825  1.1709 -1.3891  1.0059
 1678SOL    HW216671   4.159   1.437   6.827 -0.4441  0.7487 -0.0239
 1679SOL     OW16672   0.686   3.838  12.441 -0.5677 -0.1596  0.3663
 1679SOL    HW116673   0.716   3.856  12.531  2.1056 -0.9926 -0.3576
 1679SOL    HW216674   0.729   3.754  12.423  0.2417 -0.0830  1.9253
 1680SOL     OW16675   3.966   3.884   6.846  0.3331  0.2287  0.0397
 1680SOL    HW116676   3.925   3.965   6.876  0.8705  0.9972 -1.2948
 1680SOL    HW216677   3.946   3.816   6.909  0.0797 -0.0799 -0.3734
 1681SOL     OW16678   4.043   3.060   0.375  0.7863 -0.7984  0.4145
 1681SOL    HW116679   4.025   2.967   0.389  1.3001 -0.9851 -0.1278
 1681SOL    HW216680   4.075   3.099   0.456 -0.9750 -3.1802  2.2548
 1682SOL     OW16681   1.565   1.065  15.093  0.6748 -0.5910  0.5732
 1682SOL    HW116682   1.656   1.042  15.080  0.8006 -0.1683  0.6955
 1682SOL    HW216683   1.522   0.985  15.123  2.5924 -0.5123  3.5313
 1683SOL     OW16684   3.288   1.594   3.052 -0.5703  0.0185 -0.0583
 1683SOL    HW116685   3.216   1.629   2.999  0.2633 -1.5611 -2.2197
 1683SOL    HW216686   3.268   1.501   3.057  0.9208 -0.2469  0.8356
 1684SOL     OW16687   2.252   1.859  13.146 -0.4084  0.1398  0.4505
 1684SOL    HW116688   2.341   1.892  13.142 -1.0405  1.3666 -3.3219
 1684SOL    HW216689   2.257   1.826  13.056 -0.7544  0.0581  0.4594
 1685SOL     OW16690   2.387   3.115   7.436 -0.3315 -0.5166 -0.1637
 1685SOL    HW116691   2.375   3.037   7.381  0.2918 -0.3216 -0.5725
 1685SOL    HW216692   2.456   3.167   7.394 -1.1060 -0.8588 -1.8685
 1686SOL     OW16693   1.010   2.062  10.041  0.1747  0.3594  0.0119
 1686SOL    HW116694   1.063   2.002  10.095  1.5353  0.0579 -1.6711
 1686SOL    HW216695   0.976   2.125  10.104 -1.5957  0.4129 -0.9931
 1687SOL     OW16696   3.140   0.725   0.211 -0.0880  0.1711 -0.1143
 1687SOL    HW116697   3.175   0.636   0.201 -2.7094 -1.1171  2.4422
 1687SOL    HW216698   3.168   0.735   0.302 -1.0646 -0.8773  0.3035
 1688SOL     OW16699   2.208   2.135   7.531 -0.4049  0.2633 -0.8441
 1688SOL    HW116700   2.119   2.160   7.507 -0.4811  0.4625 -0.3616
 1688SOL    HW216701   2.193   2.102   7.620 -1.5842 -0.3489 -1.2754
 1689SOL     OW16702   0.059   1.006   5.878  0.1917  0.9676 -0.0020
 1689SOL    HW116703   0.076   0.980   5.787 -1.9833 -0.0254 -0.1326
 1689SOL    HW216704   0.025   0.926   5.919 -2.1055  1.2927 -1.2484
 1690SOL     OW16705   4.547   1.457   8.444 -0.6238 -0.0462  0.1069
 1690SOL    HW116706   4.490   1.462   8.521  1.3943  3.1123  1.4062
 1690SOL    HW216707   4.624   1.419   8.486 -0.0813  2.9984  1.9372
 1691SOL     OW16708   3.069   3.714  12.063  0.0964 -0.2331  1.0448
 1691SOL    HW116709   3.138   3.702  11.998 -1.4961  0.9168 -0.8674
 1691SOL    HW216710   3.002   3.646  12.049 -1.7322  1.6868  0.4855
 1692SOL     OW16711   2.137   2.980   6.560 -0.1327  0.5803 -0.1596
 1692SOL    HW116712   2.224   2.949   6.534 -0.6631  0.4240 -1.7300
 1692SOL    HW216713   2.080   2.953   6.488  1.7755  1.6115 -2.0670
 1693SOL     OW16714   1.846   3.239   6.607 -0.2085  0.1511  0.6478
 1693SOL    HW116715   1.862   3.213   6.517  2.4302 -1.3867  1.5542
 1693SOL    HW216716   1.809   3.155   6.635  1.0398  0.2610  2.6073
 1694SOL     OW16717   1.832   1.996   8.923 -0.7127  0.0469 -0.4514
 1694SOL    HW116718   1.811   1.904   8.908 -0.7441 -0.2633  1.5503
 1694SOL    HW216719   1.926   1.991   8.936 -0.7507  0.5883  0.0257
 1695SOL     OW16720   4.328   2.020   8.984  0.2067  0.2262  0.2130
 1695SOL    HW116721   4.364   2.072   8.913  0.4103  0.1848  0.2854
 1695SOL    HW216722   4.241   2.054   9.003 -0.0171 -0.1989 -0.0414
 1696SOL     OW16723   2.229   1.073  16.592 -0.7264 -0.7797  0.6185
 1696SOL    HW116724   2.316   1.067  16.552 -1.4885  2.4207 -1.5461
 1696SOL    HW216725   2.229   1.155  16.642 -1.8947 -0.2652 -0.2185
 1697SOL     OW16726   3.327   3.328   7.108  0.3063  0.2368  0.2015
 1697SOL    HW116727   3.376   3.398   7.064 -0.8349  0.6350 -0.4307
 1697SOL    HW216728   3.280   3.282   7.039  0.3373 -1.1699  1.1278
 1698SOL     OW16729   1.511   3.945  14.174 -0.1683  0.3610 -0.2123
 1698SOL    HW116730   1.483   4.036  14.177 -0.3201  0.3673 -2.1939
 1698SOL    HW216731   1.595   3.960  14.217 -0.7503  0.4886  0.8828
 1699SOL     OW16732   3.110   0.797  16.189 -0.0373 -0.3694 -0.3011
 1699SOL    HW116733   3.131   0.802  16.096  1.8487 -1.3800  0.0660
 1699SOL    HW216734   3.106   0.891  16.206 -0.4588 -0.2535 -1.0539
 1700SOL     OW16735   0.342   0.528  10.284  0.2041 -0.1287 -0.4125
 1700SOL    HW116736   0.305   0.479  10.357 -0.6801  0.7746 -0.2480
 1700SOL    HW216737   0.301   0.474  10.216 -1.7336  0.1997  0.4802
 1701SOL     OW16738   0.204   2.532   0.178 -0.0519 -0.6261 -0.6335
 1701SOL    HW116739   0.188   2.600   0.113  1.8008 -0.1748 -0.6112
 1701SOL    HW216740   0.126   2.477   0.184 -0.2873 -0.4843 -2.5962
 1702SOL     OW16741   2.764   3.730  10.153 -0.2090  0.2923 -0.2825
 1702SOL    HW116742   2.843   3.740  10.205  0.7836 -2.5948 -1.2140
 1702SOL    HW216743   2.711   3.670  10.207  2.6587 -2.5267 -0.6133
 1703SOL     OW16744   1.827   4.219   4.678 -0.0106  0.3009 -0.5158
 1703SOL    HW116745   1.868   4.195   4.760 -1.8351 -1.0154  0.0073
 1703SOL    HW216746   1.843   4.143   4.622 -2.7026  0.5464 -1.6097
 1704SOL     OW16747   1.450   3.089  12.190 -0.6975 -0.0109  0.4088
 1704SOL    HW116748   1.414   3.001  12.202 -2.2655  0.6927  0.8393
 1704SOL    HW216749   1.437   3.127  12.277 -0.4853  1.1247 -0.0553
 1705SOL     OW16750   0.168   1.479  11.794 -0.3892  0.1307  0.1818
 1705SOL    HW116751   0.191   1.402  11.845  3.3599 -0.5617 -2.5590
 1705SOL    HW216752   0.125   1.526  11.865  3.1221 -1.1000  3.1003
 1706SOL     OW16753   4.401   2.376  13.443  0.0876 -0.2803 -0.8547
 1706SOL    HW116754   4.375   2.467  13.453 -0.5263 -0.6840  1.0649
 1706SOL    HW216755   4.333   2.330  13.491 -0.0594 -1.7744 -2.4792
 1707SOL     OW16756   4.594   1.207  14.535  0.5484 -0.5365  0.2776
 1707SOL    HW116757   4.680   1.171  14.555  0.7634  0.1954  0.6902
 1707SOL    HW216758   4.539   1.140  14.574 -1.4183  1.7911  1.4937
 1708SOL     OW16759   0.622   2.868   5.549  0.2251  0.3624 -0.3442
 1708SOL    HW116760   0.552   2.904   5.603 -0.4889 -0.5009 -0.6911
 1708SOL    HW216761   0.592   2.781   5.523  1.3680 -0.0050 -0.4598
 1709SOL     OW16762   2.452   0.760   9.339 -0.0046 -0.5989 -0.2885
 1709SOL    HW116763   2.422   0.714   9.417 -1.1883  1.4235  0.4344
 1709SOL    HW216764   2.540   0.721   9.332 -0.5335 -1.4984 -1.9416
 1710SOL     OW16765   0.273   0.356  16.367  0.2313  0.1292  0.3778
 1710SOL    HW116766   0.200   0.375  16.426 -0.5966 -2.7140  0.3138
 1710SOL    HW216767   0.313   0.277  16.405  1.7960  0.5068 -0.5293
 1711SOL     OW16768   1.962   4.237   5.719  0.1862 -0.1057 -0.1532
 1711SOL    HW116769   1.935   4.172   5.653 -0.0896  0.9800 -1.1029
 1711SOL    HW216770   2.055   4.218   5.731 -0.3975 -0.9532  2.9989
 1712SOL     OW16771   1.199   3.237   4.141  0.4249 -0.3796  0.0451
 1712SOL    HW116772   1.162   3.228   4.229  0.0763 -1.3271 -0.1993
 1712SOL    HW216773   1.157   3.160   4.104  2.3278 -1.1050 -0.5749
 1713SOL     OW16774   2.969   0.782   9.591  0.1187 -0.1552  0.3802
 1713SOL    HW116775   2.941   0.836   9.518  0.1901 -1.5406 -0.6690
 1713SOL    HW216776   2.887   0.737   9.615 -0.5523  0.8355 -0.0622
 1714SOL     OW16777   2.776   3.663  16.092  0.6987 -0.2985  0.3278
 1714SOL    HW116778   2.760   3.579  16.051  0.4025  0.0705 -0.3105
 1714SOL    HW216779   2.866   3.675  16.062  0.5633  0.9518  0.3941
 1715SOL     OW16780   3.059   4.171   5.921  0.6513 -0.2923 -0.4264
 1715SOL    HW116781   3.089   4.206   5.837 -2.6038  0.9989 -1.0729
 1715SOL    HW216782   3.023   4.253   5.955  2.2122 -1.0536  3.0194
 1716SOL     OW16783   2.698   1.489   3.001 -0.2237 -1.0732 -0.2530
 1716SOL    HW116784   2.727   1.526   2.918 -0.6042  0.4933  0.3020
 1716SOL    HW216785   2.712   1.394   2.997  0.2373 -1.0329  0.3708
 1717SOL     OW16786   0.358   3.026   8.713 -0.1827 -0.2965  0.1358
 1717SOL    HW116787   0.440   3.005   8.758 -0.8978  0.2207  1.6665
 1717SOL    HW216788   0.385   3.061   8.627  2.7707 -2.6032  0.1338
 1718SOL     OW16789   4.613   0.148  11.525 -0.0090 -0.0887  0.6374
 1718SOL    HW116790   4.644   0.067  11.566 -2.8649 -1.6565 -0.3031
 1718SOL    HW216791   4.670   0.205  11.576 -1.0370  0.8002  0.7831
 1719SOL     OW16792   2.202   1.485   4.756 -0.0949  0.1572 -0.1738
 1719SOL    HW116793   2.110   1.459   4.753 -0.3198  0.9357 -0.2326
 1719SOL    HW216794   2.195   1.575   4.788  0.5663 -0.0125  0.4716
 1720SOL     OW16795   2.971   1.333   4.892  0.5767 -0.5126  0.1891
 1720SOL    HW116796   3.050   1.281   4.908  0.0591 -2.1623 -2.4933
 1720SOL    HW216797   2.971   1.338   4.797 -1.5794  2.7577  0.3551
 1721SOL     OW16798   2.582   1.024  11.002 -0.1339 -0.5317  0.0268
 1721SOL    HW116799   2.492   1.035  11.033 -0.8700 -1.8098 -1.6579
 1721SOL    HW216800   2.613   1.114  11.013 -2.2673 -0.1004  2.5451
 1722SOL     OW16801   3.308   1.111   7.540 -0.8803 -0.3799 -0.1419
 1722SOL    HW116802   3.220   1.149   7.542 -0.1081  1.3352  1.4521
 1722SOL    HW216803   3.284   1.028   7.499 -0.8432 -0.8776  0.8480
 1723SOL     OW16804   1.109   0.771  12.495 -0.5093  0.0730 -0.3427
 1723SOL    HW116805   1.137   0.791  12.405 -0.6966 -0.9096 -0.6169
 1723SOL    HW216806   1.175   0.816  12.549 -1.1255  0.3369  0.1875
 1724SOL     OW16807   4.273   4.309   3.327 -0.1050  0.1552 -0.1278
 1724SOL    HW116808   4.236   4.388   3.286 -0.3476  0.6180  1.0054
 1724SOL    HW216809   4.255   4.242   3.261  1.7625  0.0997 -0.5800
 1725SOL     OW16810   1.861   0.532   7.699 -0.8359  0.0839 -0.4588
 1725SOL    HW116811   1.824   0.448   7.727  0.9179  0.1161  1.9641
 1725SOL    HW216812   1.832   0.538   7.608 -0.7277  2.2932 -0.3424
 1726SOL     OW16813   3.109   3.502   2.991  0.5562  0.0552 -0.4377
 1726SOL    HW116814   3.095   3.408   3.002 -0.8824  0.2553 -0.5750
 1726SOL    HW216815   3.198   3.507   2.956  1.0271 -1.2525  0.5447
 1727SOL     OW16816   2.215   2.887   7.647 -0.2973  0.1284  0.4515
 1727SOL    HW116817   2.168   2.891   7.730 -1.9127  1.6487 -0.5239
 1727SOL    HW216818   2.279   2.957   7.659 -0.5242  0.5969 -0.9952
 1728SOL     OW16819   2.313   3.222  14.538 -0.0605 -0.2137  0.0145
 1728SOL    HW116820   2.263   3.272  14.473  2.6931 -0.9449 -2.6385
 1728SOL    HW216821   2.350   3.297  14.585 -0.5318 -0.7604  1.2365
 1729SOL     OW16822   1.866   3.611   5.812  0.1330 -0.4722  0.1889
 1729SOL    HW116823   1.942   3.652   5.772  0.6698  0.8714  2.5916
 1729SOL    HW216824   1.855   3.523   5.777 -1.6937  0.3028 -1.2127
 1730SOL     OW16825   1.056   0.010  12.994  0.8567  0.4217 -0.0648
 1730SOL    HW116826   1.076   4.653  13.008  1.2416  0.7088  1.3494
 1730SOL    HW216827   1.136   0.046  13.032  1.3578 -2.3750  1.5312
 1731SOL     OW16828   0.998   0.903   9.403 -0.2797 -0.0380  0.2590
 1731SOL    HW116829   1.053   0.924   9.327 -0.7667 -0.5370 -0.2299
 1731SOL    HW216830   1.051   0.927   9.479  0.8961 -1.0908 -0.2106
 1732SOL     OW16831   1.307   4.037   8.878 -0.0110  0.1831  0.8895
 1732SOL    HW116832   1.363   4.109   8.850  1.1595 -1.0755 -0.0063
 1732SOL    HW216833   1.331   3.964   8.822 -2.1750 -0.4439  0.7484
 1733SOL     OW16834   3.649   3.565  11.879 -0.1988 -0.6775 -0.2533
 1733SOL    HW116835   3.706   3.579  11.955 -0.1804 -1.4451 -0.1291
 1733SOL    HW216836   3.607   3.480  11.893 -0.5333 -0.8142 -2.0499
 1734SOL     OW16837   4.541   1.840   9.052 -0.1213 -0.1135 -0.4010
 1734SOL    HW116838   4.485   1.785   9.106  2.1046 -2.0002 -0.0094
 1734SOL    HW216839   4.474   1.890   9.005  0.2720  0.1004 -0.7337
 1735SOL     OW16840   3.851   1.910   4.515 -0.0566 -0.2256  0.9365
 1735SOL    HW116841   3.849   1.956   4.432  0.0861  1.0231  1.6215
 1735SOL    HW216842   3.924   1.955   4.559 -1.2311 -0.2770  2.9412
 1736SOL     OW16843   2.718   4.110   3.629 -0.1414  0.5228 -0.0956
 1736SOL    HW116844   2.811   4.098   3.647 -0.9375 -0.8259  3.2298
 1736SOL    HW216845   2.708   4.177   3.561  0.4694  0.3104 -0.3888
 1737SOL     OW16846   3.951   2.468   6.110 -0.1828  0.2696  0.0863
 1737SOL    HW116847   3.894   2.390   6.105 -0.7945  0.5616  2.3178
 1737SOL    HW216848   4.031   2.441   6.067 -0.2582 -0.4993  0.4229
 1738SOL     OW16849   0.907   0.599   4.753  0.4483 -0.0736  0.5071
 1738SOL    HW116850   0.921   0.506   4.737  0.8697  0.3249 -1.3579
 1738SOL    HW216851   0.998   0.627   4.741  0.1803 -0.7209 -2.9725
 1739SOL     OW16852   1.826   0.367   2.657  0.3339 -0.0697  0.6317
 1739SOL    HW116853   1.918   0.390   2.647  0.2238 -0.7328 -1.7757
 1739SOL    HW216854   1.834   0.296   2.721  1.1911 -1.3870 -0.9338
 1740SOL     OW16855   4.438   0.938   8.815 -0.0604  0.2264  0.3132
 1740SOL    HW116856   4.436   1.023   8.859 -2.2623  0.2321  0.1827
 1740SOL    HW216857   4.434   0.888   8.897 -0.1294  0.2810  0.3431
 1741SOL     OW16858   4.481   1.160   2.608 -0.3071 -0.0968  0.3214
 1741SOL    HW116859   4.569   1.126   2.592  0.4878  1.3453  1.6452
 1741SOL    HW216860   4.457   1.200   2.524 -0.6490  2.2933  1.5747
 1742SOL     OW16861   3.257   0.644  16.338  0.5190  0.3879  0.4682
 1742SOL    HW116862   3.222   0.656  16.426 -0.0871  0.6911  0.1835
 1742SOL    HW216863   3.209   0.711  16.289  0.5467 -1.4533 -2.0268
 1743SOL     OW16864   0.822   2.370   7.275  0.1491 -0.2247 -0.2728
 1743SOL    HW116865   0.851   2.292   7.228  2.8926  0.5720  0.0947
 1743SOL    HW216866   0.871   2.349   7.355  1.5780  1.1673 -0.7683
 1744SOL     OW16867   1.162   1.556   3.405  0.5203 -0.5561  0.4977
 1744SOL    HW116868   1.216   1.497   3.353 -0.1581  0.4810 -1.3552
 1744SOL    HW216869   1.224   1.626   3.425  1.0454 -0.5026 -1.3231
 1745SOL     OW16870   3.334   4.576  13.374  0.3468  0.3087  0.3387
 1745SOL    HW116871   3.392   4.563  13.299 -1.3765  2.1701 -1.3258
 1745SOL    HW216872   3.373   4.520  13.441  1.7474 -0.5125 -1.1704
 1746SOL     OW16873   1.098   4.641   9.480  0.1650 -0.3334  0.6432
 1746SOL    HW116874   1.077   4.603   9.566 -0.9819  0.0069  0.5135
 1746SOL    HW216875   1.186   4.604   9.472 -0.6893 -2.4836  1.1391
 1747SOL     OW16876   4.486   3.987  16.848 -0.0781 -0.2163 -0.4621
 1747SOL    HW116877   4.554   4.047  16.818 -1.0743  1.3534  0.3662
 1747SOL    HW216878   4.543   3.934  16.904  0.8372 -0.3265 -1.5078
 1748SOL     OW16879   1.273   0.669   7.482 -0.6328 -0.1163 -0.2945
 1748SOL    HW116880   1.215   0.718   7.540 -2.3486 -3.7663  1.0341
 1748SOL    HW216881   1.247   0.703   7.396 -0.0591  1.6858  0.2400
 1749SOL     OW16882   0.294   1.915   5.271  0.2677 -0.4740 -0.0679
 1749SOL    HW116883   0.211   1.957   5.292 -0.7307 -1.9801 -1.0338
 1749SOL    HW216884   0.283   1.822   5.289 -1.4325 -0.3078 -0.2719
 1750SOL     OW16885   1.535   3.138   0.934 -0.1888 -0.2430 -0.6390
 1750SOL    HW116886   1.481   3.069   0.895 -0.0550 -1.1179  0.7411
 1750SOL    HW216887   1.547   3.101   1.021  0.9194 -1.6630 -1.3885
 1751SOL     OW16888   1.698   1.764   1.856  0.0703 -0.2293 -0.0613
 1751SOL    HW116889   1.733   1.678   1.880 -0.4991 -0.5352 -0.3128
 1751SOL    HW216890   1.613   1.732   1.826  1.2262 -2.2956 -1.1838
 1752SOL     OW16891   3.280   3.579   8.421 -0.1863  0.2361  0.0791
 1752SOL    HW116892   3.212   3.565   8.487 -0.6787 -0.6035 -0.6205
 1752SOL    HW216893   3.304   3.660   8.466  2.2744 -0.9396  0.8848
 1753SOL     OW16894   4.299   3.162   0.070 -0.1230  0.0996  0.0482
 1753SOL    HW116895   4.327   3.199  17.731 -0.8598  1.7905  0.5371
 1753SOL    HW216896   4.356   3.212   0.129  0.1648 -0.1630 -0.0088
 1754SOL     OW16897   3.932   1.720   6.512  0.9037 -0.0904 -0.0047
 1754SOL    HW116898   4.013   1.682   6.546  1.2156 -0.2331 -0.9017
 1754SOL    HW216899   3.868   1.650   6.519  0.3769  0.0830 -2.8729
 1755SOL     OW16900   0.391   0.164   6.969  0.3423 -0.4509 -0.1017
 1755SOL    HW116901   0.389   0.069   6.963  3.4099 -0.5221  0.3343
 1755SOL    HW216902   0.300   0.194   6.976  0.8368  0.7453  1.2112
 1756SOL     OW16903   2.085   1.322   6.487  0.1178  0.1154  0.2217
 1756SOL    HW116904   2.143   1.289   6.418 -0.8849 -0.7613 -0.1927
 1756SOL    HW216905   2.127   1.404   6.515  0.3903  0.9952 -2.6676
 1757SOL     OW16906   2.716   0.188  10.085  0.4017  0.3951 -0.1269
 1757SOL    HW116907   2.724   0.139  10.003 -1.4186 -0.6575  0.3317
 1757SOL    HW216908   2.691   0.276  10.058  0.7159  0.5448  0.0641
 1758SOL     OW16909   0.856   1.348   1.783 -0.0858  0.0859 -0.1021
 1758SOL    HW116910   0.936   1.336   1.732 -1.5588  3.6703 -3.2975
 1758SOL    HW216911   0.794   1.358   1.711  0.6605 -1.3282 -0.9226
 1759SOL     OW16912   3.701   3.380   7.189 -0.5646 -0.0913  0.1163
 1759SOL    HW116913   3.652   3.401   7.109 -0.0688  2.0670  0.3771
 1759SOL    HW216914   3.638   3.318   7.227 -2.5414  0.4388 -2.3271
 1760SOL     OW16915   0.336   0.601   2.653 -0.0682  0.8551  0.4589
 1760SOL    HW116916   0.387   0.532   2.610 -2.3235 -0.2967 -0.4327
 1760SOL    HW216917   0.251   0.574   2.616  0.7864 -0.7878 -0.3168
 1761SOL     OW16918   2.532   0.722  14.355 -0.2933 -0.2883  0.3720
 1761SOL    HW116919   2.591   0.653  14.385 -0.1551  0.0575  0.9047
 1761SOL    HW216920   2.473   0.733  14.429  0.3076 -0.8495  0.9381
 1762SOL     OW16921   4.106   0.121   1.724  0.3110  0.1557 -0.2371
 1762SOL    HW116922   4.134   0.093   1.637 -0.7226  1.3888 -0.9681
 1762SOL    HW216923   4.039   0.058   1.749  1.0122 -0.5512 -0.1346
 1763SOL     OW16924   3.620   2.884  11.769  0.4420  0.5785 -0.1509
 1763SOL    HW116925   3.693   2.862  11.710 -0.0017 -1.4244  0.0332
 1763SOL    HW216926   3.645   2.974  11.789 -0.1629  0.3827  1.4876
 1764SOL     OW16927   1.955   0.336  13.899 -0.6330  0.4822 -0.1404
 1764SOL    HW116928   1.997   0.267  13.951 -2.4155  0.8613  1.8130
 1764SOL    HW216929   2.023   0.363  13.838 -1.2036 -0.0666 -1.0266
 1765SOL     OW16930   2.695   0.893   3.079  0.2154 -0.9837 -0.7450
 1765SOL    HW116931   2.707   0.918   2.988  1.0446 -0.7050 -0.5601
 1765SOL    HW216932   2.663   0.978   3.111 -1.6247 -1.7186 -0.6270
 1766SOL     OW16933   4.433   3.918   7.164 -0.0456 -0.7322  0.3031
 1766SOL    HW116934   4.437   4.014   7.164  2.6263 -0.8597 -1.0608
 1766SOL    HW216935   4.368   3.894   7.098 -1.5317 -3.1115  2.6001
 1767SOL     OW16936   0.584   0.873   9.034 -0.1494 -0.0428  0.2323
 1767SOL    HW116937   0.578   0.778   9.048  1.2995 -0.6283 -3.2688
 1767SOL    HW216938   0.628   0.877   8.949 -2.2130 -2.5367 -0.9416
 1768SOL     OW16939   0.923   4.625   9.957 -0.0486  0.4613 -0.0105
 1768SOL    HW116940   0.842   4.584   9.928 -0.1129 -0.8672  2.0420
 1768SOL    HW216941   0.901   4.711   9.922  1.1982  0.3117 -1.1693
 1769SOL     OW16942   2.701   1.603  11.824 -0.3308 -0.0776 -0.0304
 1769SOL    HW116943   2.679   1.692  11.798  0.6267  0.5512  1.3113
 1769SOL    HW216944   2.636   1.582  11.892  0.0217  2.8916  1.2197
 1770SOL     OW16945   2.074   0.679   8.147  0.3073  0.1483  0.2338
 1770SOL    HW116946   2.098   0.664   8.056 -1.8298  0.7462 -0.4260
 1770SOL    HW216947   2.122   0.761   8.159 -1.4485  1.4395 -1.8869
 1771SOL     OW16948   3.528   0.911  12.082 -0.1049  0.0537  0.0140
 1771SOL    HW116949   3.524   0.997  12.041 -1.9976 -1.0204 -2.0439
 1771SOL    HW216950   3.538   0.930  12.176 -0.7504 -2.2425  0.5431
 1772SOL     OW16951   1.302   3.542   3.734 -0.1874 -0.3804 -0.2401
 1772SOL    HW116952   1.329   3.461   3.692  2.7009  1.1288 -1.2380
 1772SOL    HW216953   1.216   3.525   3.774  0.9920 -2.0195  1.5645
 1773SOL     OW16954   3.769   0.731   4.132  0.1222  0.0778 -0.1209
 1773SOL    HW116955   3.739   0.736   4.222 -0.5807  0.1021 -0.3604
 1773SOL    HW216956   3.831   0.805   4.126 -0.4468  0.5619 -0.0444
 1774SOL     OW16957   1.878   4.681  12.127  0.2125 -0.0414 -0.2110
 1774SOL    HW116958   1.934   4.603  12.133 -0.0186 -0.5140 -3.7130
 1774SOL    HW216959   1.790   4.652  12.152  0.6708  0.7324  2.2028
 1775SOL     OW16960   3.592   3.464   6.958 -0.9111 -0.3098  0.6095
 1775SOL    HW116961   3.682   3.494   6.945 -1.4073  0.5977 -0.7584
 1775SOL    HW216962   3.562   3.448   6.869  0.1964 -0.0762  0.1835
 1776SOL     OW16963   4.358   2.446   5.533  0.5832 -0.3348 -0.4798
 1776SOL    HW116964   4.354   2.356   5.501 -0.7203  0.4721 -2.5714
 1776SOL    HW216965   4.275   2.471   5.492 -0.6861 -2.3297  0.9024
 1777SOL     OW16966   0.586   2.207   1.050  0.4729 -0.1479  0.1172
 1777SOL    HW116967   0.667   2.239   1.090  0.5352  0.6778 -0.6571
 1777SOL    HW216968   0.519   2.218   1.118  1.9323 -0.1121  1.5672
 1778SOL     OW16969   3.154   0.366   5.162 -0.0371  0.3690 -0.0175
 1778SOL    HW116970   3.141   0.399   5.073 -0.3097 -0.9512 -0.4622
 1778SOL    HW216971   3.113   0.280   5.154 -0.2187  0.4880 -0.3762
 1779SOL     OW16972   0.931   1.415   2.125  0.1507  0.7575 -0.3370
 1779SOL    HW116973   0.967   1.353   2.188  0.9618  0.5313 -1.0103
 1779SOL    HW216974   1.004   1.434   2.066 -0.1920 -0.4697 -1.1483
 1780SOL     OW16975   2.223   3.542  11.412  0.0761 -0.4108  0.4507
 1780SOL    HW116976   2.254   3.529  11.502 -0.4237  0.0339  0.6865
 1780SOL    HW216977   2.144   3.489  11.419 -0.0013 -0.2929  0.4764
 1781SOL     OW16978   0.833   3.363   4.899  0.2749 -0.0988 -0.1742
 1781SOL    HW116979   0.861   3.298   4.962  0.9744 -1.0756 -1.4846
 1781SOL    HW216980   0.779   3.305   4.845  0.4280  0.8691 -1.3796
 1782SOL     OW16981   1.990   2.281   5.639  0.6278 -0.2623 -0.1528
 1782SOL    HW116982   1.996   2.352   5.575 -2.5953  0.4470  0.3196
 1782SOL    HW216983   1.970   2.330   5.718  0.9850  2.5229 -1.7914
 1783SOL     OW16984   4.199   1.780  13.139 -0.5064 -0.6676 -0.0593
 1783SOL    HW116985   4.267   1.839  13.170 -0.2837 -0.3722 -1.1108
 1783SOL    HW216986   4.205   1.704  13.198 -1.0521 -1.5346 -1.1142
 1784SOL     OW16987   3.415   0.137   2.334 -0.0038  0.1438 -0.2707
 1784SOL    HW116988   3.417   0.113   2.241 -0.7916 -0.6992 -0.0641
 1784SOL    HW216989   3.424   0.232   2.321 -1.1250  0.1430 -1.0339
 1785SOL     OW16990   1.602   4.430   0.666  0.1852  0.5395  0.4490
 1785SOL    HW116991   1.552   4.397   0.591  1.3292 -0.1435 -0.0293
 1785SOL    HW216992   1.689   4.440   0.626  0.0251  0.3292  0.0447
 1786SOL     OW16993   2.437   1.763   8.432 -0.4705 -0.7882 -0.4002
 1786SOL    HW116994   2.431   1.683   8.485  1.6807 -0.2572  0.6208
 1786SOL    HW216995   2.460   1.728   8.345  1.9175 -1.1430  0.3692
 1787SOL     OW16996   2.351   3.832   6.021  0.2210  0.1673  0.0855
 1787SOL    HW116997   2.307   3.786   5.949  1.0248 -0.2185 -0.1588
 1787SOL    HW216998   2.289   3.811   6.090 -0.3237  0.1738 -0.4047
 1788SOL     OW16999   4.692   0.310   0.704 -0.6726 -0.8034  0.1250
 1788SOL    HW117000   4.631   0.266   0.764 -1.0729 -1.6392 -0.9035
 1788SOL    HW217001   0.013   0.237   0.684  0.1072 -0.4898  1.2053
 1789SOL     OW17002   3.320   3.875   7.161 -0.4971  0.4310 -0.0266
 1789SOL    HW117003   3.314   3.916   7.248  1.7796  2.2889 -0.7327
 1789SOL    HW217004   3.230   3.850   7.143 -0.6663 -0.1367  1.5617
 1790SOL     OW17005   1.184   0.419   0.652  0.5019  0.7662  0.2231
 1790SOL    HW117006   1.238   0.392   0.578  0.1571  0.5734  0.0409
 1790SOL    HW217007   1.140   0.496   0.616  0.8773  0.9123  0.0801
 1791SOL     OW17008   3.910   0.741  14.697  0.6905 -0.3084 -0.8702
 1791SOL    HW117009   3.968   0.666  14.687 -0.5695 -1.0912 -2.3562
 1791SOL    HW217010   3.830   0.719  14.649 -0.0637  1.8302 -0.6214
 1792SOL     OW17011   3.332   0.242   3.262 -0.0874  0.1470 -0.2937
 1792SOL    HW117012   3.323   0.169   3.201 -2.1891 -0.8674  1.2342
 1792SOL    HW217013   3.425   0.243   3.284  0.1264 -0.6131 -1.1622
 1793SOL     OW17014   1.769   0.312  14.142  0.4668  0.5058  0.6058
 1793SOL    HW117015   1.730   0.226  14.128 -0.0152  0.6951  0.8236
 1793SOL    HW217016   1.840   0.291  14.203 -0.5787 -0.8751  1.3373
 1794SOL     OW17017   2.887   3.369   9.302  0.2530 -0.2992  0.0534
 1794SOL    HW117018   2.930   3.315   9.369  0.6930  0.4951  0.4117
 1794SOL    HW217019   2.893   3.460   9.332  2.8745 -0.7231  0.8052
 1795SOL     OW17020   1.452   1.695   9.582  0.0773 -0.1096 -0.2211
 1795SOL    HW117021   1.486   1.657   9.663  1.1085  0.4619 -0.3890
 1795SOL    HW217022   1.403   1.771   9.613  0.5308 -0.0745  0.4097
 1796SOL     OW17023   4.666   4.355   3.587  0.4428 -0.2614 -0.4352
 1796SOL    HW117024   4.584   4.399   3.569 -0.1470 -0.6475  1.3010
 1796SOL    HW217025   4.709   4.431   3.627 -1.0692 -0.3948  1.4471
 1797SOL     OW17026   2.371   1.541  15.349  0.2468  0.0072 -0.2256
 1797SOL    HW117027   2.353   1.447  15.356  2.0650 -0.3458 -0.3113
 1797SOL    HW217028   2.399   1.563  15.438  1.2186 -0.1896 -0.4843
 1798SOL     OW17029   4.512   2.808   2.596  0.1857  0.3658 -0.7657
 1798SOL    HW117030   4.507   2.766   2.682  0.4104  0.6708 -0.5991
 1798SOL    HW217031   4.532   2.725   2.553 -2.4687 -0.9632  0.6084
 1799SOL     OW17032   0.214   4.215   7.153 -0.1040  0.1680  0.2566
 1799SOL    HW117033   0.287   4.240   7.210 -1.1233  1.5230  0.9758
 1799SOL    HW217034   0.155   4.163   7.207  2.9071 -2.3164  1.1408
 1800SOL     OW17035   0.827   0.819   8.872  0.3052 -0.0039 -0.1352
 1800SOL    HW117036   0.869   0.882   8.814  1.3093 -0.8209 -0.2829
 1800SOL    HW217037   0.893   0.751   8.861  0.7592  0.4775 -0.3519
 1801SOL     OW17038   3.423   3.301   8.538 -0.7136  0.2612  0.4705
 1801SOL    HW117039   3.449   3.392   8.546  2.1536 -0.3741 -1.8020
 1801SOL    HW217040   3.396   3.282   8.628 -0.8121 -1.6737  0.0335
 1802SOL     OW17041   3.808   1.344  11.440  0.6007 -0.2519 -0.4775
 1802SOL    HW117042   3.871   1.314  11.375  0.4939 -0.7582 -0.3453
 1802SOL    HW217043   3.856   1.415  11.483 -0.5146  0.5392 -0.5545
 1803SOL     OW17044   3.156   1.353   3.023 -0.2855  0.3131  0.2819
 1803SOL    HW117045   3.141   1.294   3.097 -1.9678 -0.9349 -1.0283
 1803SOL    HW217046   3.068   1.367   2.987  0.2542 -2.3845 -2.1054
 1804SOL     OW17047   3.776   0.270  16.275  0.1422 -0.0158  0.2085
 1804SOL    HW117048   3.775   0.351  16.325  2.0309 -0.0260  0.2332
 1804SOL    HW217049   3.717   0.222  16.334 -0.4620 -0.4740 -0.7579
 1805SOL     OW17050   0.210   3.650   7.853  0.8003 -0.6592  0.3419
 1805SOL    HW117051   0.281   3.601   7.812  0.5213  1.2164 -2.3722
 1805SOL    HW217052   0.185   3.713   7.785 -0.2902  0.9011  2.2076
 1806SOL     OW17053   3.238   4.171   8.912 -0.2666  0.8047  0.5667
 1806SOL    HW117054   3.304   4.103   8.923  0.4976  1.3589 -0.6016
 1806SOL    HW217055   3.160   4.116   8.918 -0.9135  1.4494 -1.7738
 1807SOL     OW17056   2.838   2.886   4.864  0.1473  0.0651  0.3243
 1807SOL    HW117057   2.867   2.975   4.845  1.9674 -0.3829  1.0272
 1807SOL    HW217058   2.910   2.857   4.920 -1.8878 -1.1515  2.3343
 1808SOL     OW17059   1.819   4.205   3.028  0.2927  0.1709  0.3183
 1808SOL    HW117060   1.880   4.166   3.090 -1.6782 -1.4080  1.2620
 1808SOL    HW217061   1.780   4.123   2.997 -2.3179  1.5994 -0.2299
 1809SOL     OW17062   1.504   0.356   6.582  0.3967  0.0687  0.5964
 1809SOL    HW117063   1.544   0.303   6.513 -1.8326 -1.3704  0.4215
 1809SOL    HW217064   1.543   0.309   6.655 -0.6600 -2.0630 -0.1978
 1810SOL     OW17065   0.885   2.843   9.500 -0.4213  0.0270 -0.2331
 1810SOL    HW117066   0.861   2.858   9.592  0.1412 -2.7838  0.3754
 1810SOL    HW217067   0.949   2.772   9.504  0.9818  1.2967 -0.4926
 1811SOL     OW17068   3.806   4.099   5.856 -0.8328  0.2172 -0.3343
 1811SOL    HW117069   3.757   4.054   5.924  1.9207 -2.4900 -0.1482
 1811SOL    HW217070   3.839   4.178   5.898  1.3418 -1.2978  0.7685
 1812SOL     OW17071   1.750   0.557  17.269  0.7696  0.0148  0.2991
 1812SOL    HW117072   1.732   0.548  17.362 -1.3947  0.5956 -0.0697
 1812SOL    HW217073   1.803   0.635  17.283 -0.6644  1.3670 -1.9398
 1813SOL     OW17074   3.497   4.577   3.105  0.1216  0.2589  0.0677
 1813SOL    HW117075   3.550   4.612   3.176  0.7425  0.5319 -0.5351
 1813SOL    HW217076   3.433   4.645   3.086  0.1807  0.9047  2.2405
 1814SOL     OW17077   1.136   0.578  12.106  0.3740 -0.2735  0.1178
 1814SOL    HW117078   1.061   0.570  12.047 -0.9469  0.8860  1.6120
 1814SOL    HW217079   1.137   0.503  12.166  4.1303 -2.2365 -2.4199
 1815SOL     OW17080   4.478   0.780  11.757 -0.1025  0.1127 -0.3660
 1815SOL    HW117081   4.460   0.781  11.663  0.1893 -1.2260 -0.4372
 1815SOL    HW217082   4.410   0.736  11.806 -0.9747  2.2040  0.2895
 1816SOL     OW17083   3.844   2.355   4.939 -0.1450  0.1814 -0.1836
 1816SOL    HW117084   3.749   2.344   4.935 -0.1403  0.1005 -0.0856
 1816SOL    HW217085   3.847   2.422   5.007  1.3535  0.2474 -0.3235
 1817SOL     OW17086   1.402   2.730  15.731  0.5148  0.7932  0.1754
 1817SOL    HW117087   1.410   2.674  15.808  1.0075  1.0637  0.3240
 1817SOL    HW217088   1.315   2.705  15.702 -0.2658 -0.3230  3.5727
 1818SOL     OW17089   4.713   1.005   7.365  0.2322 -0.3857  0.7196
 1818SOL    HW117090   4.720   1.064   7.290 -1.6917  0.8976  1.5348
 1818SOL    HW217091   4.630   1.029   7.407  0.0116 -1.0764  0.6717
 1819SOL     OW17092   4.159   4.456   6.040  0.3816  0.3266  0.6543
 1819SOL    HW117093   4.223   4.416   6.099 -0.3474 -2.7740 -0.6601
 1819SOL    HW217094   4.207   4.446   5.958 -1.3623 -0.5962 -0.2554
 1820SOL     OW17095   3.877   1.248   4.495 -0.0893  0.0104 -0.7192
 1820SOL    HW117096   3.934   1.319   4.465  1.7162 -0.3697  1.7722
 1820SOL    HW217097   3.831   1.228   4.413 -2.5355  2.1012  0.1247
 1821SOL     OW17098   4.099   2.680   0.152  0.0374 -0.2571 -0.4688
 1821SOL    HW117099   4.004   2.665   0.151  0.3864 -2.3355 -2.9561
 1821SOL    HW217100   4.108   2.771   0.123 -1.0783 -0.5940 -1.8491
 1822SOL     OW17101   3.269   1.135   2.181 -0.0448 -0.3502 -0.3983
 1822SOL    HW117102   3.261   1.093   2.267 -0.0986  0.2303 -0.1234
 1822SOL    HW217103   3.352   1.180   2.196  0.1270 -0.4521 -1.0668
 1823SOL     OW17104   2.410   0.235  12.172 -0.9574 -0.4026 -0.0170
 1823SOL    HW117105   2.324   0.215  12.135 -1.3672 -0.3058  0.8892
 1823SOL    HW217106   2.463   0.256  12.095 -0.1911  1.2416  0.9688
 1824SOL     OW17107   4.615   0.268   7.976  0.7315 -0.1367  0.1837
 1824SOL    HW117108   4.707   0.244   7.961  1.5108  1.5579  2.2670
 1824SOL    HW217109   4.591   0.206   8.045 -0.9860 -0.8393 -1.0559
 1825SOL     OW17110   0.660   0.220   3.928 -0.2082 -0.1057 -0.3871
 1825SOL    HW117111   0.691   0.130   3.918 -2.8412 -1.1960  1.5128
 1825SOL    HW217112   0.589   0.206   3.991 -0.7306 -1.7029 -1.3394
 1826SOL     OW17113   4.613   1.757   4.294  0.1816  0.1938 -0.1980
 1826SOL    HW117114   4.634   1.848   4.269  2.6243 -0.1368  0.5953
 1826SOL    HW217115   4.634   1.766   4.387  0.8002 -1.0431 -0.2188
 1827SOL     OW17116   3.026   4.609   4.111 -0.0815 -0.1126 -0.5544
 1827SOL    HW117117   3.048   4.702   4.112  3.1904 -0.8954  0.0408
 1827SOL    HW217118   3.022   4.572   4.022 -1.7152 -2.7711  0.6084
 1828SOL     OW17119   0.664   3.127   9.577  0.1685 -0.0112  0.2155
 1828SOL    HW117120   0.586   3.079   9.551  0.3234  0.4487 -1.1218
 1828SOL    HW217121   0.698   3.073   9.649  1.0419  0.0403 -0.1512
 1829SOL     OW17122   3.195   0.671   8.841  0.0255 -0.7736  0.1381
 1829SOL    HW117123   3.194   0.745   8.780 -0.2530 -0.4586  0.5223
 1829SOL    HW217124   3.274   0.688   8.891 -2.0044  0.7315  2.8811
 1830SOL     OW17125   0.027   2.933  14.339 -0.5385 -0.6481 -0.1146
 1830SOL    HW117126   0.123   2.936  14.341 -0.6522  2.9777 -0.1404
 1830SOL    HW217127   4.731   2.973  14.258  2.0201 -0.2337 -0.9166
 1831SOL     OW17128   3.999   2.323   1.223  0.0374 -0.3525  0.3723
 1831SOL    HW117129   4.090   2.349   1.205 -0.0952  0.2783  0.6249
 1831SOL    HW217130   4.000   2.306   1.317 -0.5245 -1.9270  0.0934
 1832SOL     OW17131   2.265   3.376   1.662 -0.2733 -0.2609  0.0783
 1832SOL    HW117132   2.189   3.394   1.607 -2.4023  0.9665  3.4629
 1832SOL    HW217133   2.230   3.338   1.742  0.6936  1.6805  1.4275
 1833SOL     OW17134   3.001   2.456  12.697 -0.3543 -0.0288  0.0345
 1833SOL    HW117135   2.923   2.445  12.752 -0.2296 -0.8892  0.0346
 1833SOL    HW217136   3.047   2.377  12.723 -0.0998 -0.5291 -1.9413
 1834SOL     OW17137   3.378   1.078   9.161 -0.7756  0.0398  0.2585
 1834SOL    HW117138   3.329   1.088   9.079  0.8009  0.2666 -0.6562
 1834SOL    HW217139   3.313   1.039   9.219 -2.1655 -1.4381 -2.2857
 1835SOL     OW17140   4.064   3.340  17.395 -0.4575  0.1196  0.2478
 1835SOL    HW117141   4.119   3.267  17.422  0.2017  1.2048  1.8678
 1835SOL    HW217142   4.034   3.306  17.310  0.2553  0.0173  0.0365
 1836SOL     OW17143   1.460   0.097   0.364 -0.3004 -0.0875 -0.1361
 1836SOL    HW117144   1.488   0.143   0.284  1.2940 -1.4620 -0.3797
 1836SOL    HW217145   1.538   0.047   0.387  0.1793  1.4223  1.4628
 1837SOL     OW17146   0.647   2.885   4.876 -0.7925 -0.3393  0.0427
 1837SOL    HW117147   0.682   2.889   4.965 -1.6251 -0.1379  0.3602
 1837SOL    HW217148   0.645   2.791   4.855  1.2449 -0.5765  0.9608
 1838SOL     OW17149   3.700   2.247   3.057  0.4460 -0.3920  0.0221
 1838SOL    HW117150   3.739   2.201   3.131  0.3878 -1.4259 -0.6006
 1838SOL    HW217151   3.631   2.183   3.039  0.2010  0.5271 -2.3926
 1839SOL     OW17152   2.736   1.244   2.106  0.2371  0.4934 -0.5078
 1839SOL    HW117153   2.740   1.245   2.010  1.8344 -2.7248 -0.4877
 1839SOL    HW217154   2.816   1.290   2.131 -0.1604 -0.0909  1.8544
 1840SOL     OW17155   0.502   2.092   7.776 -0.3937 -0.2001 -0.1208
 1840SOL    HW117156   0.508   2.079   7.682  1.6771 -2.1730  0.2748
 1840SOL    HW217157   0.464   2.180   7.771  0.7838  0.3952  1.2852
 1841SOL     OW17158   3.248   2.372   6.566  0.6920 -0.1235 -0.3922
 1841SOL    HW117159   3.277   2.404   6.480  0.1894 -1.5430 -1.0852
 1841SOL    HW217160   3.315   2.417   6.618  0.1164  0.6784 -0.3447
 1842SOL     OW17161   1.518   3.489   4.406 -0.7651 -0.2611  0.4899
 1842SOL    HW117162   1.464   3.461   4.333  1.6601 -2.0734 -0.6121
 1842SOL    HW217163   1.489   3.580   4.403  1.3747  0.4839  1.5459
 1843SOL     OW17164   4.312   3.200   3.984  0.5505 -0.4404 -0.0258
 1843SOL    HW117165   4.366   3.278   3.972 -0.1257 -0.2115 -1.5388
 1843SOL    HW217166   4.330   3.186   4.077 -1.1330 -0.2082  0.3403
 1844SOL     OW17167   0.867   2.873   2.489 -0.2353 -0.3755  0.1583
 1844SOL    HW117168   0.946   2.874   2.542 -0.0523  1.7012 -0.1254
 1844SOL    HW217169   0.810   2.817   2.540 -0.0673 -2.9720 -2.4968
 1845SOL     OW17170   2.084   0.882   6.556 -0.6419  0.0159 -0.7907
 1845SOL    HW117171   2.139   0.804   6.564 -1.9444 -0.9779 -1.6348
 1845SOL    HW217172   2.005   0.840   6.590 -0.0332 -1.4824 -1.2522
 1846SOL     OW17173   0.689   0.426   9.121  0.2237  0.2198  0.0614
 1846SOL    HW117174   0.774   0.450   9.085  1.2473 -2.1029  0.9304
 1846SOL    HW217175   0.634   0.400   9.048 -0.1977 -0.9740  0.7969
 1847SOL     OW17176   4.620   3.742  12.862 -0.7919 -0.1458 -0.3169
 1847SOL    HW117177   4.594   3.754  12.954  1.0225 -1.7321  0.4128
 1847SOL    HW217178   4.578   3.817  12.821  2.3797  1.5042 -0.5643
 1848SOL     OW17179   1.945   0.875  11.906 -0.5087 -0.6145 -0.0639
 1848SOL    HW117180   1.866   0.926  11.889 -0.8570 -0.7835  1.0632
 1848SOL    HW217181   2.011   0.941  11.884 -1.1079  0.1658  0.5035
 1849SOL     OW17182   2.668   3.724  17.588 -0.1360 -0.0828  0.2600
 1849SOL    HW117183   2.713   3.660  17.534 -3.1993 -1.7135 -0.3339
 1849SOL    HW217184   2.734   3.794  17.591  0.4406 -0.4686 -2.9625
 1850SOL     OW17185   3.667   1.059  12.813  0.4370  0.5251  0.3347
 1850SOL    HW117186   3.716   0.992  12.859  1.3612  1.5265  0.8037
 1850SOL    HW217187   3.695   1.039  12.723  1.2311  0.5047  0.5939
 1851SOL     OW17188   1.563   1.655   6.677  0.2990 -0.5489 -0.0389
 1851SOL    HW117189   1.564   1.683   6.585 -3.0348  0.4465  0.2349
 1851SOL    HW217190   1.650   1.616   6.685  1.1570  1.0754 -1.2875
 1852SOL     OW17191   4.017   1.822   8.554  0.0521 -0.2242  0.3066
 1852SOL    HW117192   4.025   1.839   8.648  0.2405 -0.8382  0.3982
 1852SOL    HW217193   4.061   1.900   8.519  1.1846 -0.8748  0.2920
 1853SOL     OW17194   2.372   3.037   0.470  0.5997 -0.4774 -0.3725
 1853SOL    HW117195   2.463   3.056   0.445  0.4172  0.7615 -0.0603
 1853SOL    HW217196   2.341   3.011   0.383 -1.4503  1.2509 -0.1411
 1854SOL     OW17197   0.670   0.134   6.278 -0.0628  0.0422 -0.3299
 1854SOL    HW117198   0.755   0.094   6.260 -0.2941  1.0381 -3.6347
 1854SOL    HW217199   0.674   0.131   6.374  2.7870  2.3553 -0.3854
 1855SOL     OW17200   1.622   3.123   3.818 -0.0537  0.2640  0.6385
 1855SOL    HW117201   1.547   3.181   3.809  1.8771  2.3181 -2.2618
 1855SOL    HW217202   1.571   3.050   3.854 -1.6921  0.5889 -1.0297
 1856SOL     OW17203   0.313   3.347   2.650  0.4402 -0.0634  0.6653
 1856SOL    HW117204   0.356   3.376   2.730  3.8740  0.9742 -1.5693
 1856SOL    HW217205   0.318   3.252   2.657  1.9918 -0.1678 -2.0440
 1857SOL     OW17206   3.705   1.421   7.036 -1.1338  0.0003  0.2952
 1857SOL    HW117207   3.678   1.511   7.018  0.5663  0.1546 -1.4564
 1857SOL    HW217208   3.672   1.418   7.126  0.5207  1.0371  0.9376
 1858SOL     OW17209   4.485   2.767   0.847 -0.6005 -0.3893 -0.1720
 1858SOL    HW117210   4.506   2.859   0.867 -2.3076 -0.2483  0.9783
 1858SOL    HW217211   4.571   2.730   0.830 -0.7955 -1.1304  0.4824
 1859SOL     OW17212   0.194   2.575   6.948 -0.0080  0.3008  0.2096
 1859SOL    HW117213   0.173   2.504   7.009 -1.0812  0.7391  0.3563
 1859SOL    HW217214   0.289   2.566   6.945 -0.4841 -4.3599 -1.0156
 1860SOL     OW17215   2.810   3.474   6.492 -0.0204 -0.3888  0.3776
 1860SOL    HW117216   2.721   3.453   6.464  1.5723 -1.9492 -3.5566
 1860SOL    HW217217   2.851   3.497   6.408  0.6390  0.5581  0.9535
 1861SOL     OW17218   0.228   1.702   4.529 -0.0677  0.0502 -0.4183
 1861SOL    HW117219   0.244   1.672   4.618 -1.4949  0.7553  0.0723
 1861SOL    HW217220   0.221   1.615   4.488 -3.6873 -0.4798  1.2882
 1862SOL     OW17221   2.716   3.409  15.069  0.2802 -0.3649  0.0938
 1862SOL    HW117222   2.798   3.363  15.087  0.0516 -1.5735 -1.9907
 1862SOL    HW217223   2.660   3.341  15.107 -1.0435  0.8675  0.3484
 1863SOL     OW17224   1.903   0.836   0.861 -0.4861 -0.4050 -0.1624
 1863SOL    HW117225   1.855   0.902   0.813  0.7213  0.4851 -0.1473
 1863SOL    HW217226   1.874   0.750   0.831 -0.1169 -1.5807  2.8142
 1864SOL     OW17227   1.331   0.392   1.489  0.0929  0.1194 -0.0217
 1864SOL    HW117228   1.284   0.466   1.526  0.3542 -0.0992  0.7578
 1864SOL    HW217229   1.294   0.326   1.548 -0.1691  1.0675  0.8789
 1865SOL     OW17230   1.989   1.606   8.613 -0.0528  0.5966 -0.0032
 1865SOL    HW117231   1.923   1.552   8.570 -0.0608  0.5262  0.0972
 1865SOL    HW217232   1.965   1.592   8.705 -0.3953  0.7757 -0.0636
 1866SOL     OW17233   2.238   4.123  14.977  0.0015 -0.3883 -0.3548
 1866SOL    HW117234   2.204   4.122  15.067  2.0390 -1.2222  0.4191
 1866SOL    HW217235   2.241   4.217  14.960  1.1978 -0.3785 -0.1251
 1867SOL     OW17236   2.874   0.320  16.306  0.4667 -0.4899  0.6025
 1867SOL    HW117237   2.880   0.415  16.314 -1.1855 -0.1469 -2.0775
 1867SOL    HW217238   2.800   0.304  16.364  0.7129  0.3125  1.1411
 1868SOL     OW17239   4.128   2.551   4.852  0.0926  0.2920  0.2709
 1868SOL    HW117240   4.040   2.557   4.889  1.1370  0.7706  2.6703
 1868SOL    HW217241   4.104   2.498   4.776 -0.6210 -0.5490  1.0780
 1869SOL     OW17242   2.275   2.327   3.282 -0.4179 -0.1888  0.1217
 1869SOL    HW117243   2.201   2.382   3.308  0.1787  1.7272 -2.2340
 1869SOL    HW217244   2.340   2.397   3.280 -1.0373  0.3681 -0.6438
 1870SOL     OW17245   4.548   2.154  14.998 -0.4477  0.4352 -0.1574
 1870SOL    HW117246   4.559   2.113  14.912 -1.0028 -0.8684  0.3929
 1870SOL    HW217247   4.539   2.081  15.060 -1.4740  0.6886 -0.0105
 1871SOL     OW17248   0.334   3.973   3.283  0.3798 -0.2431 -0.0956
 1871SOL    HW117249   0.344   4.067   3.300  1.4018  0.4040 -4.3694
 1871SOL    HW217250   0.271   3.970   3.211  3.3192 -0.3469 -2.6633
 1872SOL     OW17251   1.127   2.727   8.270  0.4650  0.1206  0.1780
 1872SOL    HW117252   1.119   2.786   8.195  1.5807  0.1209  0.0559
 1872SOL    HW217253   1.189   2.769   8.330  0.4402 -0.9413  0.9457
 1873SOL     OW17254   2.350   2.384  14.366  0.5431 -0.0951  0.5571
 1873SOL    HW117255   2.286   2.372  14.436  0.5858  1.4321  0.8379
 1873SOL    HW217256   2.380   2.293  14.361 -0.0096 -0.2624  0.1585
 1874SOL     OW17257   4.233   2.865  13.761  0.3600 -0.0521  0.3412
 1874SOL    HW117258   4.270   2.874  13.848  0.1752 -0.4781  0.4622
 1874SOL    HW217259   4.211   2.772  13.766 -0.2724  0.0147 -1.1285
 1875SOL     OW17260   3.555   3.299  12.922 -0.3053  0.5555  0.5622
 1875SOL    HW117261   3.610   3.328  12.850  0.2409 -0.0789  0.7184
 1875SOL    HW217262   3.562   3.368  12.987  0.7785  0.3666  0.6400
 1876SOL     OW17263   2.408   0.718   1.233  0.4142  0.9747  0.1899
 1876SOL    HW117264   2.444   0.799   1.196  1.4758 -0.4711 -1.9113
 1876SOL    HW217265   2.340   0.686   1.173 -1.2598  3.2039  0.8782
 1877SOL     OW17266   2.615   0.373   3.965  0.1545 -0.2509 -0.4579
 1877SOL    HW117267   2.533   0.357   4.013  1.0332 -0.2526  1.0677
 1877SOL    HW217268   2.640   0.281   3.953  0.2928 -0.3685  0.6991
 1878SOL     OW17269   1.259   3.580   5.426 -1.2447 -0.2010  0.3315
 1878SOL    HW117270   1.165   3.581   5.444 -1.1670 -1.4807  0.8111
 1878SOL    HW217271   1.268   3.500   5.374  0.9314  0.1122  0.2054
 1879SOL     OW17272   4.323   0.830   6.261  0.6754 -0.4319 -0.0683
 1879SOL    HW117273   4.388   0.801   6.198  1.1494 -0.2414  0.3385
 1879SOL    HW217274   4.316   0.924   6.243 -0.9486 -0.1285  2.0850
 1880SOL     OW17275   3.153   2.198  10.682 -0.3852  0.2420  0.1390
 1880SOL    HW117276   3.232   2.179  10.733 -1.2986 -2.3737  0.5766
 1880SOL    HW217277   3.172   2.291  10.666  0.6078  0.2056  1.0769
 1881SOL     OW17278   0.087   3.964   2.261 -0.1170 -0.2084  0.1213
 1881SOL    HW117279   0.132   4.001   2.337 -1.2021  1.3118  0.0219
 1881SOL    HW217280   0.120   4.017   2.189 -0.4288  2.2804  1.8319
 1882SOL     OW17281   3.314   0.572   1.495  0.6401 -0.0075 -0.3027
 1882SOL    HW117282   3.298   0.494   1.548  0.5986  0.4247  0.3128
 1882SOL    HW217283   3.382   0.545   1.432 -0.1715  0.2146 -1.2837
 1883SOL     OW17284   1.345   3.116   3.216 -0.1196  0.4462 -0.1943
 1883SOL    HW117285   1.372   3.024   3.211  0.9470  0.7619 -0.3327
 1883SOL    HW217286   1.252   3.117   3.195 -0.2098 -2.2289  0.1063
 1884SOL     OW17287   3.602   1.175   6.945  0.2238  0.8234  0.4501
 1884SOL    HW117288   3.674   1.120   6.975  1.0174  2.1490  0.9434
 1884SOL    HW217289   3.648   1.258   6.934 -1.0960  1.1256 -2.7044
 1885SOL     OW17290   4.448   1.182   0.155  0.2575  0.4251 -0.4679
 1885SOL    HW117291   4.357   1.166   0.130  0.1772 -0.6177  0.4890
 1885SOL    HW217292   4.468   1.100   0.201 -1.1861  0.2885 -0.0889
 1886SOL     OW17293   2.941   4.578   4.905 -0.0045 -0.0443  0.0474
 1886SOL    HW117294   2.976   4.612   4.987  1.1401 -1.9548  0.3536
 1886SOL    HW217295   2.850   4.605   4.908  0.2067  0.5383  1.3781
 1887SOL     OW17296   0.454   3.631   5.732  0.2455 -0.5635 -0.0560
 1887SOL    HW117297   0.500   3.714   5.719  0.3857 -0.8546 -1.4846
 1887SOL    HW217298   0.423   3.617   5.642 -0.5474  0.9954 -0.0189
 1888SOL     OW17299   1.920   4.055   7.813  0.0994  0.1932  0.0248
 1888SOL    HW117300   1.888   4.055   7.903 -1.6169 -2.6909 -0.5820
 1888SOL    HW217301   1.877   4.134   7.780  0.2116  0.7387  1.1644
 1889SOL     OW17302   4.128   0.429  17.339  0.7277  0.5109 -0.2596
 1889SOL    HW117303   4.129   0.392  17.427 -0.3584  1.7460  0.2739
 1889SOL    HW217304   4.036   0.457  17.338  0.0628 -1.6784 -1.7459
 1890SOL     OW17305   2.670   1.897  17.035 -0.6806  0.1179  0.5975
 1890SOL    HW117306   2.694   1.853  16.953  0.3333  1.3273  0.2538
 1890SOL    HW217307   2.577   1.912  17.018 -0.4754  0.7394  0.0164
 1891SOL     OW17308   3.728   3.482   9.370 -0.2789 -0.4793  0.3587
 1891SOL    HW117309   3.746   3.575   9.361 -0.1539 -0.7447 -2.0575
 1891SOL    HW217310   3.678   3.482   9.452  1.3821 -0.8345  1.3655
 1892SOL     OW17311   3.707   4.343   8.390 -0.3023  0.3185  0.3736
 1892SOL    HW117312   3.796   4.345   8.425 -0.9785 -0.2821  2.1231
 1892SOL    HW217313   3.732   4.387   8.309  2.2351 -0.9092  0.4905
 1893SOL     OW17314   2.703   3.239   1.717  0.1956 -0.2454 -0.9195
 1893SOL    HW117315   2.661   3.318   1.682 -2.4552 -0.0842  2.7236
 1893SOL    HW217316   2.785   3.265   1.760 -1.2373  3.0225 -0.1626
 1894SOL     OW17317   1.229   3.118   8.341  0.1521 -0.4042  0.3107
 1894SOL    HW117318   1.200   3.161   8.422  1.0206 -0.1928  0.5167
 1894SOL    HW217319   1.277   3.041   8.373  1.8222  0.3202 -0.4341
 1895SOL     OW17320   2.946   3.361   1.282  0.4360 -0.0294 -0.2523
 1895SOL    HW117321   2.873   3.418   1.257 -1.3815 -1.4688  1.7520
 1895SOL    HW217322   2.946   3.302   1.206  3.0808 -1.4428  0.8381
 1896SOL     OW17323   3.863   4.610  15.580 -0.7607  0.1056 -0.1611
 1896SOL    HW117324   3.864   4.524  15.538  1.3216  0.2787 -0.4630
 1896SOL    HW217325   3.802   4.595  15.652  0.6628  0.0962  1.0334
 1897SOL     OW17326   0.565   2.082   9.589  0.3761  0.8612 -0.4376
 1897SOL    HW117327   0.526   2.112   9.671 -1.8420  3.7599 -2.5261
 1897SOL    HW217328   0.484   2.064   9.542  0.0952 -0.6717  0.6315
 1898SOL     OW17329   4.215   2.936   4.548 -0.0894 -0.2247 -0.0881
 1898SOL    HW117330   4.237   3.029   4.557  0.6025 -0.1510 -2.3391
 1898SOL    HW217331   4.265   2.912   4.470  0.4334  1.1510 -0.1676
 1899SOL     OW17332   3.225   3.709   6.604  0.6034  0.9113 -0.5919
 1899SOL    HW117333   3.168   3.740   6.534  1.0039  1.1570 -0.8095
 1899SOL    HW217334   3.182   3.731   6.687  1.6491 -0.9393  0.4570
 1900SOL     OW17335   2.979   2.201  13.072 -0.2866 -0.0587  0.0428
 1900SOL    HW117336   2.991   2.257  12.995  4.2630 -0.4243  0.4884
 1900SOL    HW217337   2.926   2.124  13.049  0.3285 -0.6602  0.6073
 1901SOL     OW17338   1.895   0.482   9.330 -0.5052  0.4496 -0.1238
 1901SOL    HW117339   1.979   0.500   9.288 -1.0786 -0.1097 -1.5179
 1901SOL    HW217340   1.857   0.567   9.349 -0.6905  0.5128 -0.7808
 1902SOL     OW17341   4.361   2.421  16.219  0.0766  0.2357 -0.4825
 1902SOL    HW117342   4.386   2.514  16.217 -1.8374  0.7247 -1.5599
 1902SOL    HW217343   4.381   2.403  16.311 -0.0035  2.1415 -0.0817
 1903SOL     OW17344   4.505   3.858  15.018 -0.1856  0.3851 -0.2428
 1903SOL    HW117345   4.434   3.917  14.992 -0.1549  0.9695  1.0075
 1903SOL    HW217346   4.514   3.811  14.935 -1.3113 -1.9875  0.9819
 1904SOL     OW17347   4.095   3.742   9.195  0.6987 -0.0440 -0.0743
 1904SOL    HW117348   4.066   3.694   9.117 -0.8940  1.2849 -0.3035
 1904SOL    HW217349   4.036   3.817   9.185 -0.8166 -0.9433  2.0832
 1905SOL     OW17350   4.457   1.051   7.456  0.3022  0.1313 -0.4244
 1905SOL    HW117351   4.434   1.141   7.479  0.6117 -0.1674  1.0156
 1905SOL    HW217352   4.399   0.999   7.511 -1.6994  0.5257 -2.1400
 1906SOL     OW17353   0.445   4.085   5.866 -0.5060 -0.4520 -0.2417
 1906SOL    HW117354   0.413   4.174   5.878 -0.8304 -0.2603 -2.4075
 1906SOL    HW217355   0.436   4.056   5.956 -2.9399 -0.0145 -0.3543
 1907SOL     OW17356   1.787   3.009  16.598  0.0724 -0.1626 -0.0920
 1907SOL    HW117357   1.744   3.086  16.636 -1.3594 -0.3529 -1.3268
 1907SOL    HW217358   1.808   2.961  16.679 -2.1549  2.7174  2.2120
 1908SOL     OW17359   0.873   1.173   8.844 -0.2165 -0.2483  0.4480
 1908SOL    HW117360   0.804   1.163   8.779  3.3500 -1.3578 -3.1884
 1908SOL    HW217361   0.944   1.129   8.797 -0.0952 -0.1466  0.5365
 1909SOL     OW17362   2.336   3.014   8.777 -0.2808 -0.1364  0.2393
 1909SOL    HW117363   2.338   2.934   8.829 -1.8421 -1.1534 -1.2622
 1909SOL    HW217364   2.285   3.072   8.834 -1.2252  0.0009 -0.7446
 1910SOL     OW17365   2.613   2.106   6.947 -0.1322 -0.1822  0.0634
 1910SOL    HW117366   2.583   2.045   6.879 -0.2441  0.1205 -0.1595
 1910SOL    HW217367   2.682   2.057   6.991 -1.0510 -1.0279  0.5678
 1911SOL     OW17368   0.835   2.111   6.359  0.1561  0.2504  0.2821
 1911SOL    HW117369   0.763   2.107   6.296 -1.5712 -1.4873  2.3649
 1911SOL    HW217370   0.843   2.205   6.374 -1.2246  0.1312  1.6573
 1912SOL     OW17371   2.698   0.666   9.357 -0.0621  0.1096 -0.4256
 1912SOL    HW117372   2.725   0.574   9.359  1.2485  0.4913 -0.1727
 1912SOL    HW217373   2.732   0.676   9.447 -3.0803  0.0973  0.6995
 1913SOL     OW17374   4.579   3.465   0.619 -0.0484 -0.1745 -0.6876
 1913SOL    HW117375   4.619   3.518   0.550 -0.9924 -0.1120 -1.1993
 1913SOL    HW217376   4.541   3.393   0.568 -0.4821 -0.5851  0.2268
 1914SOL     OW17377   0.810   1.874  10.352 -0.4968 -0.2457 -0.1516
 1914SOL    HW117378   0.721   1.839  10.349 -0.3861 -0.7598  1.9932
 1914SOL    HW217379   0.865   1.804  10.317 -0.9893 -0.6053 -0.2080
 1915SOL     OW17380   1.799   1.285   9.083 -0.2547 -0.3701  0.2791
 1915SOL    HW117381   1.764   1.339   9.013  2.7893 -0.0069 -0.9510
 1915SOL    HW217382   1.720   1.279   9.136 -1.6421 -0.1470 -1.7650
 1916SOL     OW17383   2.283   2.998   3.836  0.2027  0.1360  0.3463
 1916SOL    HW117384   2.248   3.087   3.824 -1.6114 -0.6879 -0.4664
 1916SOL    HW217385   2.355   2.988   3.775  1.0215  3.1164  0.8267
 1917SOL     OW17386   0.135   4.013  15.528 -0.3008  0.0184  0.0172
 1917SOL    HW117387   0.122   4.082  15.463  1.2559 -2.0155 -2.4366
 1917SOL    HW217388   0.231   4.013  15.531 -0.2319 -0.4137 -2.5923
 1918SOL     OW17389   2.945   2.842   2.344  0.2702 -0.3756  0.2302
 1918SOL    HW117390   2.885   2.791   2.290  0.7675  0.0833 -0.7497
 1918SOL    HW217391   2.896   2.837   2.426  1.1115  0.3741  0.7731
 1919SOL     OW17392   3.398   4.024   0.414  0.2085  0.2058 -0.2574
 1919SOL    HW117393   3.363   3.942   0.380 -0.1203  1.5579 -3.1775
 1919SOL    HW217394   3.471   4.046   0.357  0.0939  0.0512 -0.4636
 1920SOL     OW17395   1.987   0.169  11.589 -0.6052  0.2372 -0.3548
 1920SOL    HW117396   1.975   0.242  11.529 -0.0296 -0.0590 -0.8335
 1920SOL    HW217397   1.901   0.128  11.577 -1.0065  0.0862  2.8565
 1921SOL     OW17398   3.609   1.938  11.830 -0.1394 -0.7943  0.3492
 1921SOL    HW117399   3.686   1.894  11.793  0.2178 -0.5301  0.7839
 1921SOL    HW217400   3.570   1.946  11.743  3.2885 -0.7236 -1.2007
 1922SOL     OW17401   3.407   4.047   5.975 -0.1913  0.4804 -0.0894
 1922SOL    HW117402   3.326   4.018   6.017  0.4204  2.9559  2.7502
 1922SOL    HW217403   3.417   4.135   6.011 -1.4500 -0.0665  1.5585
 1923SOL     OW17404   1.922   2.816   1.931 -0.2477  1.0848 -0.0777
 1923SOL    HW117405   1.957   2.826   1.842  1.8369 -1.4486  0.4628
 1923SOL    HW217406   1.832   2.782   1.930  0.3835 -0.5318 -2.0480
 1924SOL     OW17407   2.197   3.596   1.839  0.3144  0.0625 -0.0985
 1924SOL    HW117408   2.246   3.519   1.867  0.5128 -0.3569 -1.5778
 1924SOL    HW217409   2.272   3.645   1.804  0.0310  0.9091  0.4704
 1925SOL     OW17410   0.239   2.159   2.407 -0.1309  0.0041  0.2300
 1925SOL    HW117411   0.170   2.102   2.441 -1.0010  0.9681  0.0556
 1925SOL    HW217412   0.193   2.176   2.325 -0.2296  0.7849  0.4453
 1926SOL     OW17413   0.410   1.700   4.264 -0.2226 -0.5074 -0.2383
 1926SOL    HW117414   0.476   1.734   4.324 -1.5342  0.1744  0.7959
 1926SOL    HW217415   0.421   1.605   4.276  1.1430 -0.1703  1.1768
 1927SOL     OW17416   3.981   1.498   4.047  0.2853 -0.3819 -0.0298
 1927SOL    HW117417   3.946   1.587   4.053  2.0825  0.4391 -1.4345
 1927SOL    HW217418   4.055   1.504   3.986  0.8122  3.0012  0.9144
 1928SOL     OW17419   4.060   0.799   8.940  0.1862  0.4639 -0.0628
 1928SOL    HW117420   4.076   0.705   8.939 -1.7132  0.1677 -2.1863
 1928SOL    HW217421   4.132   0.833   8.994 -0.8383  0.4516  1.2838
 1929SOL     OW17422   0.831   2.819   8.431 -0.0812  0.2698  0.2120
 1929SOL    HW117423   0.860   2.859   8.349 -1.4769  1.0098  0.0873
 1929SOL    HW217424   0.742   2.853   8.437 -0.4319 -0.6792  0.4818
 1930SOL     OW17425   4.057   1.689   1.961 -0.7174 -0.6612 -0.3884
 1930SOL    HW117426   4.006   1.631   1.904 -0.7171 -2.0511  0.9953
 1930SOL    HW217427   3.988   1.740   2.005  0.3830  0.3630  0.1356
 1931SOL     OW17428   4.149   0.727   2.338  0.1615 -0.2779  0.1629
 1931SOL    HW117429   4.055   0.710   2.347  0.1805  0.3718  1.4866
 1931SOL    HW217430   4.193   0.648   2.371  3.2722  1.4650  0.2114
 1932SOL     OW17431   0.702   1.357   3.041  0.1776 -0.0869  0.6930
 1932SOL    HW117432   0.714   1.350   3.135 -0.7855  0.0591  0.8300
 1932SOL    HW217433   0.678   1.449   3.030  1.4226  0.0698 -0.7566
 1933SOL     OW17434   1.533   1.732   6.411  0.4491 -0.0876  0.2302
 1933SOL    HW117435   1.444   1.745   6.380  0.8506  1.7546 -0.1897
 1933SOL    HW217436   1.555   1.647   6.373 -0.9354 -0.4452  0.2396
 1934SOL     OW17437   2.226   2.725   4.968 -0.6122  0.5075 -0.1292
 1934SOL    HW117438   2.234   2.669   4.891 -1.2788  1.4392 -0.8649
 1934SOL    HW217439   2.254   2.674   5.044 -2.4172 -1.2789 -0.6910
 1935SOL     OW17440   2.285   0.061   6.074  0.6538  0.2422 -0.0453
 1935SOL    HW117441   2.325   4.734   6.134 -0.9286 -1.1644 -0.4781
 1935SOL    HW217442   2.191   0.048   6.078  0.5322  1.4092  0.7440
 1936SOL     OW17443   2.421   0.070   5.345  0.3611  0.1360 -0.1706
 1936SOL    HW117444   2.469   0.011   5.287  0.2535  0.6256 -0.7579
 1936SOL    HW217445   2.479   0.146   5.354  0.1577  0.2997 -0.2425
 1937SOL     OW17446   0.485   2.758   2.278 -0.2015  0.5364 -0.2068
 1937SOL    HW117447   0.530   2.840   2.301 -1.3920  1.5520 -1.5890
 1937SOL    HW217448   0.556   2.718   2.227 -2.4003 -1.8855 -1.3214
 1938SOL     OW17449   3.003   3.314   5.182 -0.3248  0.0905 -0.2422
 1938SOL    HW117450   3.001   3.375   5.256  4.5183  0.1496 -0.1303
 1938SOL    HW217451   3.068   3.343   5.117  2.0303  0.8614  2.4275
 1939SOL     OW17452   1.399   1.544   1.517 -0.2669  0.1660 -0.2380
 1939SOL    HW117453   1.390   1.554   1.422 -2.1914  2.2295  0.1438
 1939SOL    HW217454   1.328   1.595   1.555 -0.9165 -1.0238  0.1580
 1940SOL     OW17455   3.129   0.147   7.323  0.1433 -0.0119 -0.1402
 1940SOL    HW117456   3.160   0.066   7.364 -0.3230 -0.3730 -0.5110
 1940SOL    HW217457   3.185   0.153   7.245 -1.0700  0.2820 -0.9792
 1941SOL     OW17458   2.792   1.884   5.080 -0.4171 -0.9445  0.4039
 1941SOL    HW117459   2.797   1.903   4.986  0.7044  0.8177  0.8189
 1941SOL    HW217460   2.726   1.946   5.111  0.5425 -0.4410  1.4406
 1942SOL     OW17461   0.840   0.939   6.970 -0.0166 -0.1053 -0.2835
 1942SOL    HW117462   0.809   0.983   7.050  1.3330 -0.1215  0.2616
 1942SOL    HW217463   0.764   0.964   6.918  1.3687  3.5783 -0.6104
 1943SOL     OW17464   3.994   2.966   6.784  0.3553  0.2751 -0.1122
 1943SOL    HW117465   3.956   2.880   6.804  0.5497 -0.3139 -2.1922
 1943SOL    HW217466   3.983   2.965   6.689 -0.2478 -0.3936 -0.0328
 1944SOL     OW17467   1.544   3.591   7.694 -0.0702  0.0667 -0.0155
 1944SOL    HW117468   1.590   3.568   7.613 -0.2046 -1.2515  0.2789
 1944SOL    HW217469   1.484   3.518   7.712  1.3102 -1.4498 -1.6653
 1945SOL     OW17470   1.615   4.511   1.120 -0.0717 -0.3258 -0.5004
 1945SOL    HW117471   1.632   4.531   1.212 -3.3165  2.4772 -0.5286
 1945SOL    HW217472   1.596   4.601   1.094  0.7941  0.1044  0.3606
 1946SOL     OW17473   2.716   0.706   5.243  0.2405  0.0600 -0.2273
 1946SOL    HW117474   2.720   0.672   5.154  0.2986  0.0145 -0.2074
 1946SOL    HW217475   2.625   0.733   5.254  0.1803  0.5875 -2.0648
 1947SOL     OW17476   1.273   2.947   2.041 -0.3299 -0.5247 -0.0833
 1947SOL    HW117477   1.180   2.966   2.035 -0.5845 -2.2878 -1.7593
 1947SOL    HW217478   1.284   2.907   2.127  0.3820 -1.0003 -0.3915
 1948SOL     OW17479   3.727   0.974   8.134 -0.1111  0.1156 -0.2118
 1948SOL    HW117480   3.776   1.033   8.191 -0.3014 -0.0027  0.0759
 1948SOL    HW217481   3.794   0.913   8.105  1.2950  2.0562 -1.0354
 1949SOL     OW17482   0.350   0.279  15.165  0.1453 -0.1464 -0.1466
 1949SOL    HW117483   0.314   0.359  15.126 -0.1610 -0.9473 -1.5245
 1949SOL    HW217484   0.396   0.227  15.099 -0.3836 -2.2044  1.0967
 1950SOL     OW17485   2.928   0.362   8.309 -0.0256 -0.0534 -0.0578
 1950SOL    HW117486   2.956   0.271   8.294 -0.8276 -0.6259  1.8615
 1950SOL    HW217487   2.921   0.387   8.217 -1.2033  1.0441  0.3336
 1951SOL     OW17488   1.330   2.081   7.496  0.4059 -0.1416 -0.1534
 1951SOL    HW117489   1.346   2.002   7.444 -1.4558 -0.8881  0.4324
 1951SOL    HW217490   1.236   2.085   7.483  0.0727 -1.9720  1.6019
 1952SOL     OW17491   3.251   2.608   5.620  0.0396 -0.3943 -0.1334
 1952SOL    HW117492   3.170   2.627   5.573  0.8267  1.1210 -0.8797
 1952SOL    HW217493   3.255   2.513   5.614 -0.8027 -0.2208 -3.4272
 1953SOL     OW17494   0.971   1.916   7.682  0.2024 -0.3069 -1.1511
 1953SOL    HW117495   0.884   1.896   7.718  0.0173 -1.6063 -2.2885
 1953SOL    HW217496   1.004   1.827   7.670  0.3964 -0.6044  1.5133
 1954SOL     OW17497   2.619   0.401   8.472 -0.3158 -0.5634 -0.4523
 1954SOL    HW117498   2.652   0.311   8.467  3.5749  0.9048 -1.0041
 1954SOL    HW217499   2.635   0.424   8.563  0.1949 -0.3292 -0.6027
 1955SOL     OW17500   3.592   2.133  13.710 -0.2173 -0.4160 -0.3589
 1955SOL    HW117501   3.526   2.084  13.759  0.1904  0.6931  1.2861
 1955SOL    HW217502   3.659   2.066  13.693 -0.1566 -0.4582  0.0643
 1956SOL     OW17503   1.460   2.266   5.164  0.3716  0.2386  0.1535
 1956SOL    HW117504   1.419   2.221   5.237 -0.9320  0.0433 -0.6991
 1956SOL    HW217505   1.496   2.341   5.211 -0.9026  1.3229 -0.5954
 1957SOL     OW17506   3.565   1.033   4.770  0.3769  0.1774  0.1362
 1957SOL    HW117507   3.552   1.059   4.679  1.6917  0.7043  0.1078
 1957SOL    HW217508   3.474   1.029   4.800  0.2695  2.5644  0.1407
 1958SOL     OW17509   2.614   0.283   6.929 -0.0643  0.0431 -0.3319
 1958SOL    HW117510   2.589   0.191   6.920 -1.9265  0.4918  0.3285
 1958SOL    HW217511   2.618   0.292   7.024 -0.6615 -0.0775 -0.2935
 1959SOL     OW17512   4.458   2.197  14.156 -0.0108  0.0147 -0.4600
 1959SOL    HW117513   4.400   2.136  14.112  1.4910 -1.4521 -0.4132
 1959SOL    HW217514   4.536   2.173  14.107  0.2673 -0.8306  0.3885
 1960SOL     OW17515   1.388   0.428   4.663  0.2152 -0.3098  0.8953
 1960SOL    HW117516   1.415   0.418   4.572 -1.2016  2.4382  0.1621
 1960SOL    HW217517   1.334   0.350   4.671  0.0160 -0.3153 -0.6165
 1961SOL     OW17518   1.252   0.400   1.943  0.1145 -0.1384  0.2746
 1961SOL    HW117519   1.343   0.386   1.969  0.2915  0.2814 -0.1066
 1961SOL    HW217520   1.204   0.331   1.989 -3.2017  1.4301 -0.7948
 1962SOL     OW17521   0.250   3.954   3.031 -0.8988 -0.2527 -0.3308
 1962SOL    HW117522   0.251   3.859   3.038  2.4585 -0.1385  0.7016
 1962SOL    HW217523   0.192   3.971   2.957 -2.1473 -3.8013 -0.1313
 1963SOL     OW17524   1.744   1.201   6.902  0.2989 -0.3731  0.0360
 1963SOL    HW117525   1.754   1.283   6.952 -0.2679  0.7091 -1.6297
 1963SOL    HW217526   1.648   1.198   6.900  0.3677 -0.6233 -2.5053
 1964SOL     OW17527   1.277   1.054   6.086  0.0044  0.0784 -0.1331
 1964SOL    HW117528   1.196   1.003   6.091  0.0429  0.2746  2.8085
 1964SOL    HW217529   1.323   1.002   6.153 -1.7052 -3.3330 -1.6042
 1965SOL     OW17530   1.931   2.827  14.129  0.3714 -0.3255 -0.4229
 1965SOL    HW117531   1.860   2.816  14.192 -0.5009 -0.1814 -1.3714
 1965SOL    HW217532   1.904   2.761  14.066 -3.0364  2.1913 -1.5900
 1966SOL     OW17533   3.272   3.137   4.699  0.0892  0.2791  0.1041
 1966SOL    HW117534   3.297   3.080   4.625  2.4106  1.1326  0.2230
 1966SOL    HW217535   3.269   3.224   4.660 -0.8168  0.3193  0.2697
 1967SOL     OW17536   1.490   1.368   8.457  0.3111  0.2673 -0.6321
 1967SOL    HW117537   1.458   1.407   8.376  1.7638  2.9500  0.0709
 1967SOL    HW217538   1.409   1.367   8.506  1.8706  0.3928  1.9576
 1968SOL     OW17539   2.915   2.282   2.607  0.2591  0.5824 -0.6187
 1968SOL    HW117540   2.867   2.208   2.644  0.6895 -0.4408 -2.1420
 1968SOL    HW217541   2.868   2.304   2.527 -0.6655 -0.5101 -0.3688
 1969SOL     OW17542   2.247   2.481  15.247  0.2021  0.7718 -0.3767
 1969SOL    HW117543   2.263   2.523  15.163 -0.5508 -0.4086 -1.1020
 1969SOL    HW217544   2.287   2.396  15.231  0.1536  0.7935 -0.6064
 1970SOL     OW17545   2.082   1.715   2.964  0.2269  0.2839  0.4174
 1970SOL    HW117546   2.176   1.729   2.975  0.4805 -0.0567 -1.3112
 1970SOL    HW217547   2.058   1.662   3.039  1.0171 -0.5695  0.0569
 1971SOL     OW17548   3.005   3.518  13.996 -0.0436  0.4925  0.2029
 1971SOL    HW117549   2.978   3.499  14.086  0.7201  0.2280  0.3818
 1971SOL    HW217550   3.038   3.608  13.990  3.3914 -0.8027 -0.5868
 1972SOL     OW17551   3.314   3.636   5.291  0.2638  0.5412  0.4737
 1972SOL    HW117552   3.300   3.712   5.348 -0.6243  0.0264  0.9490
 1972SOL    HW217553   3.399   3.657   5.253  0.3114 -1.1459 -0.3487
 1973SOL     OW17554   0.023   3.466  11.691  0.2692 -0.1967 -0.4765
 1973SOL    HW117555   4.736   3.557  11.709 -3.1326 -0.8241 -1.8028
 1973SOL    HW217556   0.091   3.455  11.758 -0.7405 -1.6949  0.3051
 1974SOL     OW17557   4.542   3.362   4.372 -0.0121  0.1477 -0.6222
 1974SOL    HW117558   4.636   3.380   4.365  0.0979  0.4831  1.9489
 1974SOL    HW217559   4.543   3.327   4.461 -1.5488 -1.3631 -1.1805
 1975SOL     OW17560   2.552   0.572   4.694  0.0528  0.4666 -0.2314
 1975SOL    HW117561   2.484   0.507   4.713 -0.1292  0.7765  0.1664
 1975SOL    HW217562   2.568   0.566   4.600 -2.6887  0.3217 -0.6970
 1976SOL     OW17563   4.009   2.868   7.084 -0.4711 -0.1750 -0.3245
 1976SOL    HW117564   3.937   2.805   7.092  0.3307 -0.9219  1.1394
 1976SOL    HW217565   3.966   2.921   7.017  1.7398  0.9904 -0.8212
 1977SOL     OW17566   0.669   4.103  14.554  0.1465  0.2123  0.7732
 1977SOL    HW117567   0.580   4.118  14.586 -0.5531 -1.2074 -0.5730
 1977SOL    HW217568   0.692   4.012  14.570 -1.8409 -0.2713  0.8027
 1978SOL     OW17569   3.468   2.427   2.238 -0.4295  0.1760  0.2924
 1978SOL    HW117570   3.537   2.398   2.297 -0.4139  0.6090  0.4869
 1978SOL    HW217571   3.516   2.503   2.205 -1.3433  0.4771 -0.3481
 1979SOL     OW17572   1.490   0.302   0.168  0.2752  0.3191 -0.3830
 1979SOL    HW117573   1.523   0.309   0.078 -1.4584  1.4985 -0.9329
 1979SOL    HW217574   1.433   0.379   0.166  0.0753  0.1634 -0.8030
 1980SOL     OW17575   3.867   1.250  17.311  0.3483 -0.2322 -0.1734
 1980SOL    HW117576   3.900   1.286  17.228 -0.5853  0.4118 -0.2634
 1980SOL    HW217577   3.844   1.161  17.283 -2.1624  0.6896 -0.9771
 1981SOL     OW17578   0.365   1.999   7.230 -0.5645  0.4460 -0.3071
 1981SOL    HW117579   0.294   1.987   7.293  1.4033 -1.3459  1.5447
 1981SOL    HW217580   0.393   1.913   7.198  0.3556  0.0392  1.6430
 1982SOL     OW17581   3.284   1.805   3.840 -0.5133  0.2770 -0.2917
 1982SOL    HW117582   3.342   1.750   3.787 -1.3312  0.7141 -1.6551
 1982SOL    HW217583   3.211   1.815   3.779 -0.3201 -1.4026 -0.8162
 1983SOL     OW17584   4.639   0.258   6.475 -0.3912  0.1174  0.2068
 1983SOL    HW117585   4.728   0.226   6.489 -0.9421 -0.5236  2.3066
 1983SOL    HW217586   4.634   0.265   6.380  1.7323 -4.5092 -0.2386
 1984SOL     OW17587   3.627   3.492   5.734  0.5284 -0.3371  0.3713
 1984SOL    HW117588   3.601   3.450   5.651  2.6475 -2.1592  0.6638
 1984SOL    HW217589   3.543   3.487   5.781  0.9247 -1.3573  0.9588
 1985SOL     OW17590   1.872   4.676  10.972  0.6396  0.4740 -0.3336
 1985SOL    HW117591   1.838   0.015  11.019  1.0533  0.9987 -0.8800
 1985SOL    HW217592   1.795   4.619  10.971 -0.2283  1.5705  2.8853
 1986SOL     OW17593   1.666   2.840  12.285 -0.6630  0.3668  0.3405
 1986SOL    HW117594   1.705   2.837  12.372  0.6375  0.8467 -0.2221
 1986SOL    HW217595   1.578   2.868  12.310 -1.5433 -1.5902 -0.6090
 1987SOL     OW17596   3.014   0.298   7.772 -0.2053  0.3703  0.0475
 1987SOL    HW117597   3.003   0.313   7.678  0.6082 -2.5343 -0.5283
 1987SOL    HW217598   2.936   0.245   7.786  1.7275 -2.6091 -0.3167
 1988SOL     OW17599   1.410   1.870   2.144 -0.2635  0.5027 -0.4118
 1988SOL    HW117600   1.486   1.928   2.153  0.0338 -0.1517  1.1702
 1988SOL    HW217601   1.338   1.931   2.128 -1.2874 -0.3517  0.9240
 1989SOL     OW17602   2.465   0.139   2.611  0.1293 -0.3653  0.5812
 1989SOL    HW117603   2.371   0.121   2.601  0.3443 -0.1305 -1.9204
 1989SOL    HW217604   2.467   0.227   2.650  0.4762  0.3457 -1.0300
 1990SOL     OW17605   1.418   2.972   3.502  0.5889  0.0863 -0.0322
 1990SOL    HW117606   1.505   2.977   3.461  0.6466 -0.4809  0.0240
 1990SOL    HW217607   1.401   2.878   3.497  1.7241 -0.3310  4.2692
 1991SOL     OW17608   1.615   2.880   0.106 -0.3878  0.5356  0.8757
 1991SOL    HW117609   1.636   2.927   0.025 -4.0733 -0.1696 -0.4851
 1991SOL    HW217610   1.529   2.844   0.083 -0.5824  1.7441 -0.2551
 1992SOL     OW17611   2.840   4.254   4.631  0.2074 -0.2730 -0.0610
 1992SOL    HW117612   2.856   4.237   4.539 -1.4056  0.0355 -0.3961
 1992SOL    HW217613   2.823   4.164   4.662 -2.2021 -0.5391 -2.2163
 1993SOL     OW17614   1.895   4.550   2.298  0.3492 -0.0236  0.6426
 1993SOL    HW117615   1.801   4.531   2.294  0.0365  0.7129  4.4929
 1993SOL    HW217616   1.914   4.524   2.388 -0.1689 -0.7548  0.5411
 1994SOL     OW17617   1.593   4.302   7.543 -0.3201  0.4803  0.2661
 1994SOL    HW117618   1.513   4.354   7.546  0.3286  1.4510  0.7409
 1994SOL    HW217619   1.559   4.214   7.524  1.0732 -0.0730  0.2789
 1995SOL     OW17620   2.178   2.020   7.782 -0.1270  1.0380  0.1717
 1995SOL    HW117621   2.232   2.016   7.862  0.6538 -2.5691 -0.5173
 1995SOL    HW217622   2.094   2.037   7.824 -0.9168  2.3414 -1.9427
 1996SOL     OW17623   2.409   2.944   6.997 -0.2801 -0.0513 -0.3882
 1996SOL    HW117624   2.423   2.859   6.956  0.5361 -0.9649  1.7848
 1996SOL    HW217625   2.360   2.939   7.078  1.0875 -0.7339  0.4070
 1997SOL     OW17626   4.529   0.457  16.501  0.5818  0.1689  0.1511
 1997SOL    HW117627   4.502   0.367  16.520  3.6284 -0.2262  2.6025
 1997SOL    HW217628   4.623   0.449  16.519  0.4993  0.1549  0.5837
 1998SOL     OW17629   3.901   2.407   0.990  0.3927 -0.0605 -0.1658
 1998SOL    HW117630   3.947   2.375   1.067 -0.5177  0.4459  0.5879
 1998SOL    HW217631   3.913   2.331   0.933  0.1073 -1.5422  1.7664
 1999SOL     OW17632   0.434   1.925   6.584  0.5303 -0.0608  0.2816
 1999SOL    HW117633   0.389   1.955   6.505  1.4355  2.2743  0.6649
 1999SOL    HW217634   0.516   1.894   6.544  0.0126  0.1796 -0.9759
 2000SOL     OW17635   4.243   4.280   4.052 -0.0150  0.2425 -0.0668
 2000SOL    HW117636   4.235   4.184   4.052 -0.2916  0.2679  0.7312
 2000SOL    HW217637   4.203   4.292   3.966  0.4423 -1.1478 -0.4911
 2001SOL     OW17638   1.544   1.906   7.098 -0.3742 -0.6711  0.2380
 2001SOL    HW117639   1.578   1.901   7.009  1.3655  0.6441  0.8417
 2001SOL    HW217640   1.489   1.984   7.092 -1.6030 -1.6553 -1.0385
 2002SOL     OW17641   1.073   4.599   8.591 -0.1802  0.5262 -0.3420
 2002SOL    HW117642   1.165   4.622   8.576  0.2027  0.0428  1.2154
 2002SOL    HW217643   1.073   4.543   8.669  2.4026  3.8557  2.0438
 2003SOL     OW17644   1.157   2.492   5.217  0.0192  0.9745 -0.8574
 2003SOL    HW117645   1.143   2.449   5.301  2.4628  0.2952 -0.7929
 2003SOL    HW217646   1.213   2.427   5.177 -1.7484 -1.1604  0.1337
 2004SOL     OW17647   0.969   2.356   6.823  0.8075  0.2299 -0.5368
 2004SOL    HW117648   1.048   2.314   6.788 -0.8220 -2.0403 -1.4707
 2004SOL    HW217649   0.922   2.376   6.743  0.3730  0.3045 -0.2600
 2005SOL     OW17650   2.843   3.502  16.426  0.1459  0.2130 -0.0573
 2005SOL    HW117651   2.911   3.542  16.480  1.4204  0.2933 -1.7137
 2005SOL    HW217652   2.868   3.409  16.427 -1.1331 -0.1369 -1.1317
 2006SOL     OW17653   2.189   3.791   9.793 -0.2689 -0.2262 -0.1064
 2006SOL    HW117654   2.279   3.815   9.771  1.1744 -1.5254  4.4829
 2006SOL    HW217655   2.148   3.763   9.710 -0.3436 -1.2007  0.2586
 2007SOL     OW17656   2.844   0.428   5.377  0.1684 -0.1639 -0.2028
 2007SOL    HW117657   2.806   0.416   5.290  0.0362 -2.0654  0.1171
 2007SOL    HW217658   2.769   0.441   5.435 -1.7004 -1.2528 -2.3917
 2008SOL     OW17659   0.296   3.299   5.764  0.2107 -0.1874  1.1242
 2008SOL    HW117660   0.218   3.351   5.745  1.3528  0.3237 -2.2431
 2008SOL    HW217661   0.306   3.250   5.682 -3.3631  2.8107 -1.0525
 2009SOL     OW17662   1.739   0.385   9.128  0.2001 -0.2841 -0.1044
 2009SOL    HW117663   1.803   0.415   9.062  0.3787  0.5831  0.4647
 2009SOL    HW217664   1.770   0.436   9.203  0.7285  1.0805 -1.2308
 2010SOL     OW17665   1.063   2.962   2.653  0.2498 -0.1684 -0.3412
 2010SOL    HW117666   1.023   3.033   2.704 -0.1217 -0.6090 -0.0165
 2010SOL    HW217667   1.116   2.913   2.717 -0.8072  1.0704  1.5060
 2011SOL     OW17668   1.642   3.490   6.343  0.1665  0.2727  0.0744
 2011SOL    HW117669   1.572   3.428   6.365 -0.3957  1.3897  1.4760
 2011SOL    HW217670   1.717   3.430   6.344  0.0833  0.1729  1.0951
 2012SOL     OW17671   4.354   1.519   8.682  0.2443 -0.7024  0.1445
 2012SOL    HW117672   4.319   1.603   8.712 -0.4570 -1.0200  0.1976
 2012SOL    HW217673   4.431   1.511   8.740  0.1548 -0.6166  0.2762
 2013SOL     OW17674   0.229   2.343   2.166  0.5675 -0.3864 -0.1704
 2013SOL    HW117675   0.316   2.313   2.141  0.8559 -0.5470  1.0571
 2013SOL    HW217676   0.235   2.423   2.112  0.9012 -1.1755 -1.3111
 2014SOL     OW17677   2.638   1.626  13.359  0.1795  0.0358 -0.4282
 2014SOL    HW117678   2.650   1.587  13.446 -0.7333 -0.2074 -0.4174
 2014SOL    HW217679   2.559   1.578  13.336 -0.1408  0.1712  0.3701
 2015SOL     OW17680   0.658   2.153   0.494 -0.2691 -0.4808 -0.3051
 2015SOL    HW117681   0.684   2.061   0.508 -2.1527 -0.6689  2.0042
 2015SOL    HW217682   0.736   2.195   0.459  0.1525 -1.0027 -0.0140
 2016SOL     OW17683   2.740   0.697  11.344  0.2504  0.2941 -0.5515
 2016SOL    HW117684   2.795   0.731  11.273 -0.1049 -0.3600 -1.1360
 2016SOL    HW217685   2.665   0.666  11.293  1.4531 -1.3549 -1.2918
 2017SOL     OW17686   2.240   4.681  16.430  0.3379  0.7521  0.4363
 2017SOL    HW117687   2.296   4.703  16.357 -1.3463  0.8901 -0.8210
 2017SOL    HW217688   2.153   4.705  16.398 -0.3528 -1.6595  0.5059
 2018SOL     OW17689   4.356   0.756  16.719  0.0331  0.1787 -0.1552
 2018SOL    HW117690   4.408   0.833  16.699 -0.0665 -0.4096 -2.6109
 2018SOL    HW217691   4.266   0.787  16.713 -0.4639 -1.6878 -2.1755
 2019SOL     OW17692   0.594   1.169   6.529  0.5692 -0.1299  0.2625
 2019SOL    HW117693   0.631   1.240   6.582  0.3494  1.1556 -1.3123
 2019SOL    HW217694   0.501   1.188   6.533  0.6480  0.4745 -0.8087
 2020SOL     OW17695   4.261   2.667  14.811 -0.6333 -0.0913  0.2885
 2020SOL    HW117696   4.195   2.615  14.766 -0.4846  0.3127 -0.3885
 2020SOL    HW217697   4.344   2.649  14.767 -0.9989 -0.9904 -0.0282
 2021SOL     OW17698   0.374   4.524   4.400  0.6874  0.1397  0.0123
 2021SOL    HW117699   0.385   4.510   4.305 -2.1412 -2.8891  0.1321
 2021SOL    HW217700   0.455   4.483   4.431 -0.2041 -0.3392  1.7116
 2022SOL     OW17701   1.610   3.656   6.548  0.3759  0.1101 -0.1484
 2022SOL    HW117702   1.645   3.590   6.609 -3.3248 -1.2328  0.5466
 2022SOL    HW217703   1.615   3.607   6.466 -0.3227  2.4669 -1.5783
 2023SOL     OW17704   2.206   0.356   5.229 -0.7125 -0.3370  0.4116
 2023SOL    HW117705   2.221   0.427   5.167 -1.6043 -0.8902 -0.4417
 2023SOL    HW217706   2.119   0.387   5.253 -1.0274 -1.0882  0.2464
 2024SOL     OW17707   0.316   4.137   6.312  0.4525 -0.1531 -0.8058
 2024SOL    HW117708   0.358   4.059   6.347 -0.6303  0.2371  1.3409
 2024SOL    HW217709   0.226   4.105   6.303 -0.2666  1.3770  0.9578
 2025SOL     OW17710   1.126   0.245   8.400 -0.0044  0.6736  0.1830
 2025SOL    HW117711   1.203   0.273   8.351  0.8529  0.4935  1.4299
 2025SOL    HW217712   1.073   0.212   8.327 -2.0618  1.4478  1.3143
 2026SOL     OW17713   1.490   3.663   3.252 -0.1598  0.1213  0.2245
 2026SOL    HW117714   1.551   3.724   3.295  0.6798  0.1059 -0.9622
 2026SOL    HW217715   1.468   3.712   3.173 -2.2403 -1.3577 -0.1149
 2027SOL     OW17716   0.435   0.676   2.093 -0.2378 -0.3395 -0.2305
 2027SOL    HW117717   0.527   0.650   2.096 -0.4305 -0.9420  0.3649
 2027SOL    HW217718   0.406   0.585   2.094  1.6988 -0.9121  2.6798
 2028SOL     OW17719   3.416   0.017   5.961 -0.5888 -0.3141  0.5120
 2028SOL    HW117720   3.418   4.731   6.054  1.4657 -1.9533  0.0689
 2028SOL    HW217721   3.510   0.033   5.956 -1.0234  1.6841 -0.9809
 2029SOL     OW17722   2.728   1.957   2.596 -0.4153  0.0448  0.4466
 2029SOL    HW117723   2.661   1.890   2.582 -1.8626  1.2169  1.7786
 2029SOL    HW217724   2.725   1.996   2.509  1.5275 -1.9621 -0.5161
 2030SOL     OW17725   3.243   2.494   9.029  0.1481  0.1269  0.6322
 2030SOL    HW117726   3.195   2.419   8.994  0.3177  0.0520  0.5583
 2030SOL    HW217727   3.186   2.525   9.100  1.9557 -1.7946  2.9160
 2031SOL     OW17728   2.763   4.273   6.301 -0.0093 -0.1973 -0.0114
 2031SOL    HW117729   2.777   4.342   6.236 -2.0155  0.7902  0.6326
 2031SOL    HW217730   2.782   4.192   6.254 -1.3575  0.2857 -1.4122
 2032SOL     OW17731   1.296   2.996   6.031  0.3996  0.4659  0.0885
 2032SOL    HW117732   1.328   2.905   6.030  2.0379  1.0445  0.1858
 2032SOL    HW217733   1.200   2.988   6.033  0.5661 -1.8222 -0.4609
 2033SOL     OW17734   3.487   3.548   8.639  0.4696 -0.0029  0.2868
 2033SOL    HW117735   3.550   3.523   8.707 -1.5159  0.7077  2.4102
 2033SOL    HW217736   3.414   3.577   8.694  1.6925  1.8001  0.9595
 2034SOL     OW17737   2.907   3.791   6.746 -0.5242 -0.2164 -0.1769
 2034SOL    HW117738   2.858   3.709   6.744  0.5647 -0.8513 -1.1219
 2034SOL    HW217739   2.873   3.840   6.671  2.2387 -0.6319 -1.7274
 2035SOL     OW17740   1.048   3.466   4.098  0.2472  0.0280  0.2563
 2035SOL    HW117741   1.037   3.484   4.192 -0.2123  0.3936  0.1343
 2035SOL    HW217742   1.080   3.376   4.100  2.1775  0.6867 -1.3851
 2036SOL     OW17743   3.708   0.275   5.123 -0.0450  0.2033  0.1442
 2036SOL    HW117744   3.735   0.339   5.189  0.4496  0.5031 -0.3487
 2036SOL    HW217745   3.616   0.259   5.145 -0.6731  2.7116 -0.5965
 2037SOL     OW17746   2.193   4.607   2.919 -0.4308  0.2328 -0.8257
 2037SOL    HW117747   2.226   4.696   2.934 -0.4464 -0.3674  2.8671
 2037SOL    HW217748   2.124   4.595   2.985  1.4027 -0.2295  1.0072
 2038SOL     OW17749   1.329   1.172   8.084  0.2355  0.2032 -0.6519
 2038SOL    HW117750   1.308   1.254   8.039  0.3831 -0.0127 -1.1117
 2038SOL    HW217751   1.418   1.159   8.051  0.2417  1.8582 -1.3295
 2039SOL     OW17752   2.260   4.655   7.590  0.1147  0.3565 -0.1119
 2039SOL    HW117753   2.261   0.006   7.553 -2.9269 -0.4440 -2.1271
 2039SOL    HW217754   2.347   4.645   7.627  0.3201  0.7373 -0.5011
 2040SOL     OW17755   4.172   1.464   8.237  0.4950  1.3258 -0.1526
 2040SOL    HW117756   4.148   1.474   8.329  1.5704 -1.2194  0.3983
 2040SOL    HW217757   4.100   1.408   8.209  0.9113 -0.4297  2.2693
 2041SOL     OW17758   1.124   4.497   5.112 -0.3094 -0.9366 -0.5301
 2041SOL    HW117759   1.212   4.534   5.119 -0.6433 -0.4918  1.4836
 2041SOL    HW217760   1.091   4.482   5.201 -1.3984  0.0374 -0.7693
 2042SOL     OW17761   4.360   3.962   8.457  0.0975  0.4037 -0.5528
 2042SOL    HW117762   4.367   4.023   8.383 -1.3385  0.4328 -0.6658
 2042SOL    HW217763   4.275   3.984   8.496  0.4488  1.4122 -0.3590
 2043SOL     OW17764   3.674   0.018   5.777 -0.8449 -0.0338  0.0768
 2043SOL    HW117765   3.756   4.712   5.802  0.3843  1.6109 -1.1881
 2043SOL    HW217766   3.680   4.733   5.684  1.7320  0.8983  0.0378
 2044SOL     OW17767   3.144   3.197   0.510  0.0467 -0.7213  0.0171
 2044SOL    HW117768   3.079   3.127   0.519 -0.7279 -0.1289 -0.9929
 2044SOL    HW217769   3.100   3.256   0.449 -1.0023  0.4638  1.9391
 2045SOL     OW17770   1.484   3.131   4.970 -0.1201  0.2156  0.1778
 2045SOL    HW117771   1.556   3.194   4.960  0.0060 -0.1522 -1.1640
 2045SOL    HW217772   1.478   3.075   4.893 -2.1378 -0.5580  0.9030
 2046SOL     OW17773   4.626   2.896   4.330  0.4016 -0.3762 -0.0300
 2046SOL    HW117774   4.649   2.805   4.312 -0.3709 -0.9302  1.7632
 2046SOL    HW217775   4.574   2.881   4.409  0.5980  1.5809  0.4718
 2047SOL     OW17776   1.723   1.105  10.195 -0.3815  0.6600  0.4880
 2047SOL    HW117777   1.635   1.100  10.230 -0.8186  0.3165 -0.6547
 2047SOL    HW217778   1.708   1.053  10.116 -1.3933 -0.5136  1.4572
 2048SOL     OW17779   3.334   0.802   9.251 -0.2862 -1.0428  0.3643
 2048SOL    HW117780   3.332   0.746   9.173  0.1662  2.6266 -2.2421
 2048SOL    HW217781   3.404   0.764   9.304  1.1528  2.6828  1.0876
 2049SOL     OW17782   0.626   3.851  13.542  1.1268  0.0776 -0.1942
 2049SOL    HW117783   0.632   3.912  13.616  1.5224 -0.2403  0.0409
 2049SOL    HW217784   0.707   3.862  13.491  0.8434  1.7690 -0.2762
 2050SOL     OW17785   3.426   2.884   5.828  0.3685  0.1075  0.4606
 2050SOL    HW117786   3.365   2.814   5.851  0.6458 -0.7657 -1.4305
 2050SOL    HW217787   3.388   2.964   5.865  0.3575  0.5132 -0.4312
 2051SOL     OW17788   3.385   4.682   7.683  0.4129 -0.4007  0.2573
 2051SOL    HW117789   3.340   4.629   7.749 -0.7344  0.9270  0.5361
 2051SOL    HW217790   3.475   4.649   7.688  0.2533 -1.0640 -1.0743
 2052SOL     OW17791   1.769   4.390   8.156 -0.2924  0.5726 -0.2473
 2052SOL    HW117792   1.675   4.407   8.153 -0.3452  0.6441  1.5302
 2052SOL    HW217793   1.801   4.419   8.071  0.1952  2.5757  0.6124
 2053SOL     OW17794   3.370   1.603   8.253 -0.2417  0.4042  0.5315
 2053SOL    HW117795   3.419   1.529   8.290  0.4091 -1.4926 -4.1223
 2053SOL    HW217796   3.385   1.600   8.159  1.7093  1.0735  0.8169
 2054SOL     OW17797   3.919   1.254   6.572  0.0178  0.0394  0.5874
 2054SOL    HW117798   3.846   1.210   6.616 -1.0694  2.4981  1.2870
 2054SOL    HW217799   3.978   1.180   6.558  0.4518  0.3672  0.6870
 2055SOL     OW17800   4.327   1.738   7.943  0.0045 -0.1774  0.0277
 2055SOL    HW117801   4.300   1.663   7.890 -0.9355 -0.4447  0.9042
 2055SOL    HW217802   4.246   1.736   7.993  0.1901 -2.7729  0.2358
 2056SOL     OW17803   0.170   3.060   3.946 -0.8364 -0.4826  0.4394
 2056SOL    HW117804   0.118   2.989   3.909  0.2769 -0.0421 -1.9777
 2056SOL    HW217805   0.187   3.027   4.034  0.4487 -1.7633 -0.2916
 2057SOL     OW17806   2.949   4.357   0.383 -0.3258  0.2408 -0.9589
 2057SOL    HW117807   2.986   4.269   0.394 -0.3593  0.0712 -2.1995
 2057SOL    HW217808   2.973   4.366   0.291 -2.2450  2.7519 -1.2325
 2058SOL     OW17809   1.042   1.790   6.455 -0.2574 -0.2354  0.0517
 2058SOL    HW117810   1.086   1.752   6.531  1.6665  0.4919 -0.7043
 2058SOL    HW217811   1.073   1.746   6.376 -0.8265 -3.3088  1.5302
 2059SOL     OW17812   3.980   0.762   4.905 -0.2948  0.1112  0.6036
 2059SOL    HW117813   3.929   0.688   4.938 -0.5705  0.3075  0.6234
 2059SOL    HW217814   3.918   0.813   4.853 -1.5705 -3.5089 -1.3882
 2060SOL     OW17815   0.282   3.280  11.833 -0.0255  0.4914 -0.1039
 2060SOL    HW117816   0.205   3.284  11.889  1.0099 -1.8951  1.4980
 2060SOL    HW217817   0.328   3.201  11.862 -2.1058 -0.8828 -0.6041
 2061SOL     OW17818   4.701   4.629   5.071 -0.4597  0.2561 -0.3960
 2061SOL    HW117819   0.056   4.649   5.089 -0.6458  1.2628 -0.5903
 2061SOL    HW217820   4.712   4.534   5.064  0.8636  0.3346  0.6419
 2062SOL     OW17821   1.022   3.005   2.096 -0.0509  0.3006  0.2077
 2062SOL    HW117822   0.963   2.932   2.114  1.5223 -0.7362  1.1443
 2062SOL    HW217823   1.005   3.060   2.173 -0.0806  2.3652 -1.2972
 2063SOL     OW17824   1.470   2.064   1.855 -0.0215  0.1244  0.0783
 2063SOL    HW117825   1.473   2.082   1.949 -5.6300 -1.0575  0.4882
 2063SOL    HW217826   1.557   2.086   1.822  0.1615 -0.6393  0.0524
 2064SOL     OW17827   3.388   0.520   3.793 -0.1140 -0.2263  0.0464
 2064SOL    HW117828   3.451   0.587   3.818  0.6106  0.8090 -4.6096
 2064SOL    HW217829   3.364   0.549   3.705 -0.3320 -0.4825  0.0203
 2065SOL     OW17830   2.444   3.740  16.453 -0.4972 -0.1235 -0.5854
 2065SOL    HW117831   2.523   3.748  16.399 -0.9745  1.2440 -1.0769
 2065SOL    HW217832   2.378   3.797  16.413 -1.7722 -1.3469 -0.2052
 2066SOL     OW17833   2.179   2.656   1.596  0.0750 -0.4520 -0.2891
 2066SOL    HW117834   2.264   2.684   1.563  0.1435 -1.3070 -0.8232
 2066SOL    HW217835   2.195   2.567   1.628  2.0333  0.2405  0.6257
 2067SOL     OW17836   0.193   0.172  11.468 -0.4155 -0.4845 -0.1878
 2067SOL    HW117837   0.249   0.104  11.506 -1.7815 -1.0196  0.8752
 2067SOL    HW217838   0.171   0.132  11.384  0.3356 -0.3548 -0.4407
 2068SOL     OW17839   3.546   4.359   1.340 -0.2441  0.5125 -0.1511
 2068SOL    HW117840   3.515   4.376   1.429  1.1827 -0.3967  0.4955
 2068SOL    HW217841   3.616   4.301   1.369 -1.0473  0.2426  1.2223
 2069SOL     OW17842   0.376   4.203   3.912 -0.1169  0.4972  0.4062
 2069SOL    HW117843   0.450   4.143   3.912 -1.1549 -0.7745  2.7086
 2069SOL    HW217844   0.313   4.141   3.876  2.6871 -2.3627  0.4680
 2070SOL     OW17845   0.960   2.072   7.427 -0.3821  0.1717 -0.6534
 2070SOL    HW117846   0.973   2.012   7.354  1.6928  0.1225 -0.2455
 2070SOL    HW217847   0.969   2.011   7.500  0.7476 -0.6667 -1.4954
 2071SOL     OW17848   1.392   4.625   3.189 -0.1498  0.4215  0.1341
 2071SOL    HW117849   1.304   4.627   3.227 -1.7049  2.7948 -3.6090
 2071SOL    HW217850   1.446   4.568   3.243 -0.8139 -0.0820  0.2658
 2072SOL     OW17851   0.969   4.235   5.479 -0.7456 -0.3382  0.1170
 2072SOL    HW117852   1.033   4.304   5.494  0.5943 -1.2872 -1.1954
 2072SOL    HW217853   0.919   4.303   5.434 -0.3012 -0.5491 -0.6871
 2073SOL     OW17854   0.091   3.314  12.023 -0.8515  0.3336 -0.3715
 2073SOL    HW117855   0.029   3.386  12.032  1.4791  2.4115 -0.6790
 2073SOL    HW217856   0.030   3.244  12.045 -0.8439  0.6627  0.6777
 2074SOL     OW17857   2.793   2.627   3.331  0.0637  0.8321 -0.1093
 2074SOL    HW117858   2.729   2.696   3.314  0.1718  0.6798 -1.1689
 2074SOL    HW217859   2.758   2.592   3.412 -1.0983  0.2237 -0.8733
 2075SOL     OW17860   2.303   2.624   4.466 -0.3262 -0.5220  0.4278
 2075SOL    HW117861   2.316   2.710   4.428 -3.5655 -0.3848 -0.3510
 2075SOL    HW217862   2.238   2.586   4.407  0.0708 -0.2099 -0.2089
 2076SOL     OW17863   2.373   3.391   8.369 -0.5520  0.0606 -0.3767
 2076SOL    HW117864   2.354   3.414   8.460 -0.3292  0.8321 -0.5282
 2076SOL    HW217865   2.386   3.478   8.331  1.4018 -0.5909 -1.1875
 2077SOL     OW17866   3.500   2.539   7.012  0.2820  0.3103  0.1159
 2077SOL    HW117867   3.534   2.602   7.076  0.5524 -0.8841  1.1514
 2077SOL    HW217868   3.452   2.594   6.951  2.8287  1.2488 -1.0136
 2078SOL     OW17869   1.284   4.023  12.352 -0.1023  0.5135 -0.6793
 2078SOL    HW117870   1.212   4.079  12.379 -2.2733 -1.4870 -2.2906
 2078SOL    HW217871   1.323   3.995  12.435 -1.2874 -0.2953 -0.3905
 2079SOL     OW17872   4.691   1.184   4.484  0.1269 -0.0870 -0.6983
 2079SOL    HW117873   0.037   1.146   4.515 -0.4218 -1.2668 -0.6829
 2079SOL    HW217874   4.633   1.156   4.555  0.3187 -0.3373 -0.6404
 2080SOL     OW17875   4.640   2.678   9.166 -0.6405  0.6744 -0.9122
 2080SOL    HW117876   4.627   2.598   9.116 -1.3192 -0.2476  0.7485
 2080SOL    HW217877   4.665   2.745   9.102 -0.1922  0.0440 -1.3884
 2081SOL     OW17878   0.796   0.897  14.695 -0.1060  0.1568 -0.4235
 2081SOL    HW117879   0.851   0.964  14.655  1.0580  0.2462  1.3408
 2081SOL    HW217880   0.711   0.913  14.655 -0.1455 -1.2905 -0.9217
 2082SOL     OW17881   0.711   4.188  17.209 -0.1877 -0.3273  0.4186
 2082SOL    HW117882   0.764   4.266  17.231 -1.6080  0.9018 -0.5199
 2082SOL    HW217883   0.779   4.120  17.211 -1.8602 -1.9404  1.6528
 2083SOL     OW17884   0.437   3.774   7.964 -0.6403  0.0932  0.2253
 2083SOL    HW117885   0.482   3.738   8.040 -0.3209  1.1982  0.5622
 2083SOL    HW217886   0.365   3.711   7.957 -0.2258 -0.1715 -1.6307
 2084SOL     OW17887   2.105   1.872   6.113  0.7430  0.1539  0.0588
 2084SOL    HW117888   2.020   1.840   6.083  0.0345  1.9895  0.0912
 2084SOL    HW217889   2.161   1.868   6.035  0.2079 -1.4723 -0.2404
 2085SOL     OW17890   1.869   0.413  12.163 -0.0919 -0.3292 -0.1986
 2085SOL    HW117891   1.844   0.334  12.117 -2.2817 -0.7018  1.6010
 2085SOL    HW217892   1.860   0.475  12.091 -0.5743 -1.2225 -0.9012
 2086SOL     OW17893   2.441   4.563   4.134  0.5201 -0.0350  0.1875
 2086SOL    HW117894   2.414   4.654   4.144  2.2346  0.5081 -0.0704
 2086SOL    HW217895   2.409   4.541   4.047  0.3157  0.8162  0.0489
 2087SOL     OW17896   1.679   1.438   8.900 -0.0582  0.0270 -0.6438
 2087SOL    HW117897   1.681   1.508   8.834  0.7631  1.8843  1.3213
 2087SOL    HW217898   1.587   1.431   8.924 -0.2464  0.4677 -1.2248
 2088SOL     OW17899   3.778   0.187   4.150 -0.0399 -0.5240  0.6922
 2088SOL    HW117900   3.687   0.201   4.176 -0.3767 -1.0782 -0.1785
 2088SOL    HW217901   3.793   0.254   4.083 -2.0826 -1.4425 -0.7033
 2089SOL     OW17902   2.573   0.244   7.198  0.5059 -0.1575 -0.1638
 2089SOL    HW117903   2.588   0.326   7.244  0.4467 -0.5783  0.6067
 2089SOL    HW217904   2.651   0.196   7.225 -0.8071 -2.0376  0.3045
 2090SOL     OW17905   1.424   0.177   8.946  0.3372 -0.3787 -0.6016
 2090SOL    HW117906   1.398   0.267   8.968 -0.3542 -0.5275 -0.8006
 2090SOL    HW217907   1.427   0.130   9.029  1.2140 -2.1439 -1.6312
 2091SOL     OW17908   0.202   4.058   4.755 -0.0352  0.1227 -0.0019
 2091SOL    HW117909   0.192   3.997   4.681  2.6423  0.2835 -0.5046
 2091SOL    HW217910   0.289   4.090   4.730 -0.9459  2.0058 -0.7304
 2092SOL     OW17911   1.598   0.778  10.153 -0.3762  0.2888 -0.1508
 2092SOL    HW117912   1.646   0.786  10.236 -0.6666 -0.3225  0.0751
 2092SOL    HW217913   1.511   0.770  10.191 -0.6325  3.0244 -0.1345
 2093SOL     OW17914   2.489   4.265   8.449 -0.0262 -0.1926  0.3333
 2093SOL    HW117915   2.523   4.274   8.360 -1.1388  1.6730  0.0939
 2093SOL    HW217916   2.443   4.349   8.455  1.7168  0.6819  1.3283
 2094SOL     OW17917   1.077   0.186  16.509 -0.2737  0.9400  0.2514
 2094SOL    HW117918   1.082   0.265  16.455  2.0206  0.7651  0.1786
 2094SOL    HW217919   1.152   0.194  16.569  0.3404 -0.4942 -0.3201
 2095SOL     OW17920   0.703   2.061   3.552  0.6650 -0.1841  0.0937
 2095SOL    HW117921   0.654   1.996   3.601 -1.3583  0.1923 -1.4169
 2095SOL    HW217922   0.657   2.137   3.589  2.8293  0.9491  0.4643
 2096SOL     OW17923   2.921   4.584  14.365 -0.1786 -0.1355 -0.5143
 2096SOL    HW117924   2.862   4.571  14.291 -1.5317 -2.0181  0.8954
 2096SOL    HW217925   3.005   4.599  14.322 -0.3659  0.2409 -0.7490
 2097SOL     OW17926   2.527   3.093   5.645  0.0104  0.1217 -0.1535
 2097SOL    HW117927   2.614   3.057   5.664 -0.5874 -0.7779  0.9283
 2097SOL    HW217928   2.540   3.114   5.553  0.7367 -0.3165 -0.1578
 2098SOL     OW17929   2.379   2.206   3.976 -0.4164  0.0983 -0.1153
 2098SOL    HW117930   2.452   2.177   3.921  1.1603  1.2676  1.3374
 2098SOL    HW217931   2.406   2.190   4.066 -0.5572 -0.0532 -0.1007
 2099SOL     OW17932   1.009   1.270   7.516  0.0720  0.4730 -0.1737
 2099SOL    HW117933   1.021   1.257   7.422 -2.0731  2.6217 -0.7557
 2099SOL    HW217934   0.913   1.261   7.518  0.2592 -1.7225 -1.1595
 2100SOL     OW17935   1.807   0.537   1.472  0.1269  0.0070 -0.3327
 2100SOL    HW117936   1.863   0.607   1.439  0.2086 -0.5719 -1.4585
 2100SOL    HW217937   1.767   0.505   1.391  1.8572  0.5682 -1.4121
 2101SOL     OW17938   2.438   2.902   5.420 -0.5441  0.4963  0.3608
 2101SOL    HW117939   2.435   2.811   5.449  1.9316 -0.2991 -1.9129
 2101SOL    HW217940   2.532   2.909   5.406 -0.7419  0.3677 -1.0301
 2102SOL     OW17941   1.151   3.495   8.179 -0.4721 -0.3402  0.2170
 2102SOL    HW117942   1.093   3.478   8.105 -1.4441  1.6718  0.5149
 2102SOL    HW217943   1.095   3.543   8.240 -0.2152  0.0847  0.1205
 2103SOL     OW17944   0.886   0.716   1.831  0.0689 -0.6826  0.3888
 2103SOL    HW117945   0.810   0.667   1.800 -0.2667 -1.1126  1.8664
 2103SOL    HW217946   0.938   0.728   1.752  0.6580 -0.0898  0.8633
 2104SOL     OW17947   1.629   4.162  11.231 -0.0140 -0.0385 -0.3569
 2104SOL    HW117948   1.540   4.195  11.236  0.2432  0.9108 -2.1252
 2104SOL    HW217949   1.624   4.070  11.203 -2.3580 -0.1078  0.2970
 2105SOL     OW17950   1.041   0.988   3.426  0.1065  0.4057 -0.1783
 2105SOL    HW117951   1.042   1.083   3.413  1.8471  0.4025 -0.0456
 2105SOL    HW217952   0.972   0.982   3.493 -2.3087 -1.7606 -2.8456
 2106SOL     OW17953   1.497   2.745   5.969  0.0311 -0.2671 -0.4672
 2106SOL    HW117954   1.552   2.810   6.013 -0.4909 -0.1398  0.0121
 2106SOL    HW217955   1.480   2.697   6.051 -0.4258 -1.0687 -1.0249
 2107SOL     OW17956   1.345   1.820   3.194  0.3677  0.1841  0.1807
 2107SOL    HW117957   1.350   1.870   3.113  0.7452  1.7661  1.1902
 2107SOL    HW217958   1.368   1.731   3.166 -2.1064 -0.3390 -0.1776
 2108SOL     OW17959   3.538   3.716   8.402  0.4324 -0.0851  0.2931
 2108SOL    HW117960   3.535   3.636   8.350  1.2231  1.4560 -2.1107
 2108SOL    HW217961   3.507   3.676   8.483  0.6267 -0.9877 -0.0689
 2109SOL     OW17962   1.914   3.767  13.001 -0.3461 -0.0426 -0.6835
 2109SOL    HW117963   1.888   3.713  13.076  2.7256 -0.2044  0.2518
 2109SOL    HW217964   1.958   3.700  12.949  1.7428 -0.2738  1.3976
 2110SOL     OW17965   4.101   4.275   4.292 -0.4632  0.4632 -0.0890
 2110SOL    HW117966   4.022   4.247   4.247  1.1346 -0.5859 -2.2605
 2110SOL    HW217967   4.171   4.283   4.227  0.0010  2.9427  0.7186
 2111SOL     OW17968   3.723   2.515   7.246  0.2782  0.2099  0.1417
 2111SOL    HW117969   3.713   2.526   7.151 -0.2157 -1.1855  0.0214
 2111SOL    HW217970   3.641   2.557   7.271 -0.9901 -1.4473 -1.2215
 2112SOL     OW17971   1.393   2.427  12.227  0.1292 -0.1729 -0.0738
 2112SOL    HW117972   1.445   2.496  12.267 -2.6305  2.3768 -0.8483
 2112SOL    HW217973   1.460   2.385  12.173 -1.1036 -1.7115 -0.4264
 2113SOL     OW17974   0.306   3.664  14.205  0.3825 -0.0031 -0.1630
 2113SOL    HW117975   0.375   3.653  14.270 -0.8998 -1.3774  0.9676
 2113SOL    HW217976   0.336   3.742  14.159  0.6634  0.2192  0.3978
 2114SOL     OW17977   3.647   1.068   9.460 -0.0483 -0.0395  0.0054
 2114SOL    HW117978   3.688   0.990   9.422  0.5336 -1.1947  2.9607
 2114SOL    HW217979   3.556   1.038   9.456  0.6463 -1.4896 -4.7206
 2115SOL     OW17980   2.320   1.504   6.145  0.0346 -0.1762  0.0441
 2115SOL    HW117981   2.228   1.488   6.125 -0.0329  1.2586 -0.8348
 2115SOL    HW217982   2.363   1.432   6.100  1.5710  0.6896  0.1302
 2116SOL     OW17983   2.279   0.765   2.841  0.1398  0.2539 -0.1676
 2116SOL    HW117984   2.215   0.834   2.855 -0.3690  0.4870 -3.7681
 2116SOL    HW217985   2.311   0.790   2.755  0.3415  2.1179  0.4539
 2117SOL     OW17986   0.786   0.342   2.947  0.0485 -0.4247 -0.2294
 2117SOL    HW117987   0.696   0.313   2.935 -0.4006  0.9046 -0.0554
 2117SOL    HW217988   0.769   0.406   3.016  0.3801 -1.2424  0.6012
 2118SOL     OW17989   2.656   1.315   4.306  0.3457  0.1952  0.5177
 2118SOL    HW117990   2.748   1.298   4.326  0.3228 -2.5806 -1.8112
 2118SOL    HW217991   2.645   1.358   4.391 -2.3227 -0.7936  0.6850
 2119SOL     OW17992   1.297   4.558   4.664 -0.0630  0.4040 -0.0794
 2119SOL    HW117993   1.298   4.546   4.759  0.3760 -1.6687 -0.3417
 2119SOL    HW217994   1.380   4.514   4.646  0.1901  0.3740  1.1655
 2120SOL     OW17995   0.922   2.339   5.114  0.5255 -0.0739 -0.1535
 2120SOL    HW117996   0.965   2.255   5.128  0.9289  0.1033 -0.3006
 2120SOL    HW217997   0.997   2.400   5.115  1.0875 -0.7422 -2.2093
 2121SOL     OW17998   3.950   0.737   7.003 -0.3254 -0.1564  0.1156
 2121SOL    HW117999   4.031   0.698   6.970  0.7999  1.1034  1.3995
 2121SOL    HW218000   3.963   0.753   7.096 -1.1562 -3.0115  0.7352
 2122SOL     OW18001   3.910   4.428  13.228  0.3870  0.1872  0.0845
 2122SOL    HW118002   3.931   4.440  13.320  1.5709 -0.5934 -0.0817
 2122SOL    HW218003   4.000   4.432  13.195  0.8317  1.3845  1.4534
 2123SOL     OW18004   1.768   2.993   8.618 -0.1208 -0.0792  0.0635
 2123SOL    HW118005   1.758   2.931   8.691 -0.8280  0.5828  0.5241
 2123SOL    HW218006   1.856   2.965   8.593 -0.0501  0.7837 -0.6330
 2124SOL     OW18007   1.975   2.361   4.230  0.0485 -0.2257  0.3869
 2124SOL    HW118008   1.911   2.432   4.234 -0.0113 -0.4031  2.5874
 2124SOL    HW218009   1.956   2.323   4.144 -1.0200 -0.6483  0.8226
 2125SOL     OW18010   3.988   3.426  11.915 -0.4293 -0.0085 -0.0030
 2125SOL    HW118011   3.993   3.406  11.822  1.1532  2.6861 -0.4845
 2125SOL    HW218012   3.985   3.343  11.964 -2.1530 -0.0291 -0.1228
 2126SOL     OW18013   1.801   1.448   8.222  0.4124 -0.0853  0.2658
 2126SOL    HW118014   1.857   1.392   8.169 -0.9024 -1.3764  0.2576
 2126SOL    HW218015   1.853   1.528   8.215 -0.2934  0.4652  1.3270
 2127SOL     OW18016   2.954   0.538  15.363  0.0888  0.1703  0.1505
 2127SOL    HW118017   3.033   0.487  15.346 -0.0680  0.1211 -0.4427
 2127SOL    HW218018   2.902   0.469  15.405  2.3107 -0.3373  2.0776
 2128SOL     OW18019   3.077   2.623   3.337 -0.4611 -0.1164 -0.2826
 2128SOL    HW118020   2.993   2.656   3.369 -1.7060 -1.4572 -2.1792
 2128SOL    HW218021   3.062   2.534   3.306 -0.0496  0.5584 -2.4237
 2129SOL     OW18022   1.271   1.471   9.634 -0.1984 -0.3914  0.4568
 2129SOL    HW118023   1.217   1.548   9.653 -1.7427 -1.7135  1.4935
 2129SOL    HW218024   1.346   1.493   9.579 -1.5871 -2.1629 -2.1852
 2130SOL     OW18025   0.082   4.283   3.896  0.1981  0.5911  0.0462
 2130SOL    HW118026   0.024   4.356   3.876 -0.0105  0.4484  0.1315
 2130SOL    HW218027   0.050   4.215   3.836  1.4536 -0.5102  0.6235
 2131SOL     OW18028   0.066   4.020   7.295  0.2104 -0.0040  0.6048
 2131SOL    HW118029   0.108   4.023   7.381 -0.6614 -0.4099  1.0501
 2131SOL    HW218030   0.001   3.952   7.314 -0.5077  0.2630 -0.9089
 2132SOL     OW18031   3.606   4.525   7.675 -0.3393  0.5822  0.3036
 2132SOL    HW118032   3.674   4.584   7.709 -0.1049  0.2438  0.4200
 2132SOL    HW218033   3.665   4.463   7.635  1.4120  1.7351  1.0926
 2133SOL     OW18034   3.603   2.935   8.623 -0.5026  0.5045  0.1022
 2133SOL    HW118035   3.645   3.021   8.619 -1.2049  0.9554  1.9499
 2133SOL    HW218036   3.623   2.904   8.712  2.4528 -1.1771 -1.1769
 2134SOL     OW18037   0.071   4.453   9.831  0.6141  0.1075 -0.1291
 2134SOL    HW118038   0.140   4.488   9.774 -1.2784  1.9378 -1.2796
 2134SOL    HW218039   0.048   4.385   9.768  1.6513  0.4942 -0.9112
 2135SOL     OW18040   3.591   2.935  15.371 -0.1823 -0.0020  0.1237
 2135SOL    HW118041   3.683   2.959  15.376  0.1407 -1.0254 -1.0152
 2135SOL    HW218042   3.590   2.848  15.332 -0.7996 -0.7106  1.7259
 2136SOL     OW18043   0.627   1.912   1.917  0.3162 -0.3633 -0.1428
 2136SOL    HW118044   0.711   1.882   1.882  1.1488  2.1764 -0.3229
 2136SOL    HW218045   0.567   1.843   1.889  1.0276 -1.0068 -0.0688
 2137SOL     OW18046   0.569   3.852   6.665 -0.1202 -0.0941  0.3183
 2137SOL    HW118047   0.555   3.940   6.701 -0.6110 -0.6003  1.3766
 2137SOL    HW218048   0.559   3.804   6.747 -1.8344  0.7998  0.6350
 2138SOL     OW18049   1.488   4.048  11.534 -0.2809 -0.1462  0.4403
 2138SOL    HW118050   1.498   4.131  11.487 -0.9321 -0.6433 -0.5832
 2138SOL    HW218051   1.442   4.000  11.465 -0.9572 -0.0265  0.8107
 2139SOL     OW18052   2.007   3.959   1.177 -0.2386 -0.1712 -0.8935
 2139SOL    HW118053   2.051   3.881   1.212 -4.3420 -1.8571  0.4812
 2139SOL    HW218054   2.071   3.988   1.113  0.2443 -1.7522 -1.1335
 2140SOL     OW18055   1.592   0.102   5.710  0.2217 -0.0815 -0.2886
 2140SOL    HW118056   1.517   0.045   5.692  0.3758 -0.8171  1.4180
 2140SOL    HW218057   1.601   0.147   5.625  0.4884  1.0851  0.3500
 2141SOL     OW18058   0.272   1.652  15.442 -0.3889  0.2793 -0.7472
 2141SOL    HW118059   0.259   1.731  15.390  1.7740  1.0438 -0.0970
 2141SOL    HW218060   0.351   1.623  15.397 -0.1340  0.4587 -0.4033
 2142SOL     OW18061   2.519   1.113  15.010  0.6125 -0.5321 -0.1462
 2142SOL    HW118062   2.565   1.082  15.088 -0.5834  0.1281  0.8360
 2142SOL    HW218063   2.527   1.207  15.024  0.1417 -0.2486 -1.8253
 2143SOL     OW18064   2.815   2.670   7.911  0.2135  0.0307 -0.2157
 2143SOL    HW118065   2.805   2.721   7.992  2.3507 -1.3733  0.9421
 2143SOL    HW218066   2.911   2.670   7.912  0.2213  0.2786 -1.0270
 2144SOL     OW18067   0.557   3.391   1.996  0.0566 -0.4801 -0.2052
 2144SOL    HW118068   0.651   3.384   2.013  0.0605 -2.7897 -1.2517
 2144SOL    HW218069   0.556   3.486   2.005  0.3179 -0.3646 -1.3574
 2145SOL     OW18070   4.168   2.279   8.974  0.3206 -0.0539  0.3532
 2145SOL    HW118071   4.185   2.258   8.882  0.8763  0.9367  0.2228
 2145SOL    HW218072   4.076   2.306   8.973  0.6335  0.9892 -0.3485
 2146SOL     OW18073   1.042   2.169   7.721 -0.1307 -0.2433 -0.2826
 2146SOL    HW118074   1.060   2.076   7.708 -0.9249 -0.5744  1.1065
 2146SOL    HW218075   0.986   2.170   7.798 -0.0389  0.8460 -0.2365
 2147SOL     OW18076   2.275   0.920  14.594 -0.4541 -0.1458  0.3543
 2147SOL    HW118077   2.337   0.957  14.657  0.1813 -0.4121 -0.1123
 2147SOL    HW218078   2.213   0.992  14.588  0.0135  0.1253 -1.1124
 2148SOL     OW18079   2.319   1.250   8.551  0.2842 -0.6863  0.4362
 2148SOL    HW118080   2.231   1.278   8.578 -0.3160 -5.1363  3.1258
 2148SOL    HW218081   2.288   1.206   8.472 -0.3041 -1.0369  0.8624
 2149SOL     OW18082   3.783   0.075  14.974 -0.1759  0.2449  0.0982
 2149SOL    HW118083   3.877   0.072  14.989 -0.0713 -1.0439 -0.7857
 2149SOL    HW218084   3.780   0.147  14.911  0.9470  0.7063  0.5877
 2150SOL     OW18085   2.706   3.428   8.128 -0.3678 -0.3342  0.6157
 2150SOL    HW118086   2.714   3.348   8.075 -1.5885  1.1033 -1.7414
 2150SOL    HW218087   2.709   3.385   8.213  1.4920 -2.2430 -0.4239
 2151SOL     OW18088   4.465   1.994   6.493  0.2945 -0.0145  0.3979
 2151SOL    HW118089   4.448   1.908   6.454 -0.3913 -1.1463  3.2577
 2151SOL    HW218090   4.513   2.031   6.419 -0.4699  1.7295  0.7924
 2152SOL     OW18091   3.298   4.600   6.911  0.6050 -0.4687  0.3180
 2152SOL    HW118092   3.323   4.539   6.980  0.2584 -1.4669 -0.4355
 2152SOL    HW218093   3.367   4.662   6.888  1.2460 -1.1630  0.3773
 2153SOL     OW18094   3.251   0.303   1.611 -0.8433  0.3424 -0.1114
 2153SOL    HW118095   3.209   0.274   1.530  0.2583 -2.9167  0.4750
 2153SOL    HW218096   3.182   0.287   1.675 -0.0048  1.4510  1.0734
 2154SOL     OW18097   1.353   2.765   5.746 -0.2496 -0.1177  0.2873
 2154SOL    HW118098   1.388   2.753   5.834  0.1807 -1.6361 -0.0866
 2154SOL    HW218099   1.318   2.679   5.722  0.6455 -0.7785  1.3677
 2155SOL     OW18100   2.750   1.309   1.823 -0.0729  0.1312  0.7273
 2155SOL    HW118101   2.733   1.241   1.757  2.0570  0.9449 -0.6611
 2155SOL    HW218102   2.843   1.324   1.813  0.0055 -0.4868  0.5007
 2156SOL     OW18103   2.676   2.489  11.329 -0.4158 -0.2538 -0.3651
 2156SOL    HW118104   2.610   2.446  11.274 -0.7151 -0.2481 -0.0125
 2156SOL    HW218105   2.752   2.443  11.294 -0.6023 -1.1036  0.3404
 2157SOL     OW18106   1.619   1.161  12.449  0.5030  0.5725 -0.1465
 2157SOL    HW118107   1.596   1.093  12.386  0.1632  0.2611  0.3073
 2157SOL    HW218108   1.617   1.115  12.533 -0.2710  0.5260 -0.1906
 2158SOL     OW18109   3.072   1.262   6.969  0.1295 -0.4240  0.0892
 2158SOL    HW118110   3.164   1.236   6.969 -0.2579 -1.7988  1.3616
 2158SOL    HW218111   3.076   1.346   7.015  1.2710 -1.3835  1.7515
 2159SOL     OW18112   1.260   3.459   0.483  0.0053  0.0654  0.3267
 2159SOL    HW118113   1.313   3.384   0.512 -0.3393  0.5192  2.0722
 2159SOL    HW218114   1.204   3.481   0.557  0.6884 -0.0691  0.8793
 2160SOL     OW18115   2.626   3.748   0.113 -1.0278  0.0284 -0.0668
 2160SOL    HW118116   2.621   3.735   0.019 -0.3989  0.1998 -0.1272
 2160SOL    HW218117   2.681   3.675   0.142  0.9217  1.2112 -0.7737
 2161SOL     OW18118   2.947   4.349   1.219  0.3225  0.0538  0.1393
 2161SOL    HW118119   2.941   4.289   1.145  3.5422  0.7235 -0.6427
 2161SOL    HW218120   2.987   4.417   1.165  2.3490  0.4805  2.1639
 2162SOL     OW18121   4.525   1.459   4.731 -0.2700 -0.6174  0.5861
 2162SOL    HW118122   4.465   1.531   4.711  0.1306 -1.1615 -2.5117
 2162SOL    HW218123   4.477   1.390   4.686  3.6693 -2.4735 -0.8333
 2163SOL     OW18124   2.679   3.799  11.595 -0.0432  0.4668  0.0638
 2163SOL    HW118125   2.729   3.718  11.589  1.9073  1.7837 -1.3653
 2163SOL    HW218126   2.720   3.839  11.671 -0.0252 -0.1919  0.4038
 2164SOL     OW18127   2.563   0.500   0.626 -0.0021  0.4062 -0.8683
 2164SOL    HW118128   2.620   0.436   0.584  0.2663  0.4954 -0.6380
 2164SOL    HW218129   2.611   0.583   0.613  1.4444 -0.4733 -1.1920
 2165SOL     OW18130   4.207   1.153   2.778 -0.7273  0.0699  0.1388
 2165SOL    HW118131   4.268   1.187   2.713  0.5607 -1.2456  0.6492
 2165SOL    HW218132   4.124   1.177   2.736  1.6169  0.3378 -4.3877
 2166SOL     OW18133   1.362   4.210   4.444 -0.0408  0.4156  0.3878
 2166SOL    HW118134   1.270   4.188   4.457 -0.7279  2.2047 -1.4686
 2166SOL    HW218135   1.361   4.248   4.357 -1.2454  1.8485  1.0344
 2167SOL     OW18136   3.612   0.962   8.976  0.4584 -0.8665 -0.1331
 2167SOL    HW118137   3.629   1.037   8.919  0.6784  0.0571  1.1580
 2167SOL    HW218138   3.554   0.994   9.045  1.6216 -0.7574  0.7940
 2168SOL     OW18139   3.721   1.537   9.113 -0.2254  0.2400  0.1137
 2168SOL    HW118140   3.734   1.571   9.202  1.8486  1.1978 -0.5592
 2168SOL    HW218141   3.673   1.459   9.142  2.5512 -0.6669  2.3447
 2169SOL     OW18142   4.571   0.818   4.665  0.2044  0.1868 -0.0695
 2169SOL    HW118143   4.539   0.907   4.681 -1.2634 -0.4332  0.4531
 2169SOL    HW218144   4.581   0.782   4.753  2.5397  3.3395  0.9359
 2170SOL     OW18145   4.680   4.591  14.854 -0.4487 -0.2736 -0.7773
 2170SOL    HW118146   0.000   4.518  14.881  1.0760  1.2864  0.2530
 2170SOL    HW218147   4.595   4.547  14.852 -1.6391  1.9205  1.3087
 2171SOL     OW18148   3.397   0.542   5.894  0.4883  0.1405  0.8068
 2171SOL    HW118149   3.384   0.452   5.923  1.8373 -0.6134 -0.9027
 2171SOL    HW218150   3.435   0.593   5.966 -0.3123  0.3081  1.1010
 2172SOL     OW18151   0.688   3.122   5.105 -0.1419 -0.3990 -0.0562
 2172SOL    HW118152   0.700   3.029   5.124  0.1536 -0.3979 -0.2371
 2172SOL    HW218153   0.770   3.156   5.141  0.8398 -0.9382 -1.7800
 2173SOL     OW18154   4.542   0.964   3.000  0.0644  0.0155  0.0255
 2173SOL    HW118155   4.629   0.992   3.030  0.1623  0.7025 -0.9001
 2173SOL    HW218156   4.498   0.953   3.084  1.1655  2.0707  0.8715
 2174SOL     OW18157   0.557   3.083  14.978 -0.3461  0.4152 -0.6608
 2174SOL    HW118158   0.489   3.019  14.962 -0.1172  0.4241 -1.6812
 2174SOL    HW218159   0.533   3.130  15.058  0.4887  2.5074 -1.6409
 2175SOL     OW18160   1.895   1.657   6.612  0.0149  0.4038 -0.3768
 2175SOL    HW118161   1.917   1.572   6.650 -1.2263 -0.0350 -0.6433
 2175SOL    HW218162   1.982   1.688   6.585 -0.6923  0.1253 -2.9187
 2176SOL     OW18163   1.081   0.884   4.124 -0.3426  0.2682  0.3122
 2176SOL    HW118164   1.128   0.828   4.186  0.6725 -0.5964 -1.2375
 2176SOL    HW218165   0.991   0.855   4.135 -0.7925  0.8888 -1.7164
 2177SOL     OW18166   1.744   2.727   3.132  0.1767 -0.0938 -0.4476
 2177SOL    HW118167   1.699   2.650   3.099 -0.4885 -0.1469  0.5803
 2177SOL    HW218168   1.790   2.751   3.051 -0.4126 -0.5730 -0.9162
 2178SOL     OW18169   1.075   3.623   2.686  0.0333  0.0100 -0.3529
 2178SOL    HW118170   1.141   3.682   2.650  2.5696 -2.8788 -0.4244
 2178SOL    HW218171   1.014   3.607   2.614 -2.7580  2.6413  1.4292
 2179SOL     OW18172   4.372   3.978   6.200  0.0720  0.0856  0.0456
 2179SOL    HW118173   4.421   3.904   6.163 -0.1810  0.6025 -1.3108
 2179SOL    HW218174   4.317   3.928   6.261  0.7475 -0.5491  0.1447
 2180SOL     OW18175   2.473   2.620   7.992 -0.0021 -0.2441  0.0329
 2180SOL    HW118176   2.473   2.676   7.915  0.6038 -1.2200 -0.6776
 2180SOL    HW218177   2.487   2.536   7.949 -0.1982  0.2302 -0.9489
 2181SOL     OW18178   4.632   0.776   2.587  0.3007  0.0467  0.8678
 2181SOL    HW118179   4.670   0.760   2.673  2.7660  2.2669  0.1942
 2181SOL    HW218180   4.537   0.773   2.594  0.1980  0.5888 -0.2479
 2182SOL     OW18181   0.662   1.101   8.406  0.2706  0.2167 -0.1995
 2182SOL    HW118182   0.692   1.151   8.330 -1.1679 -2.3818 -2.5003
 2182SOL    HW218183   0.727   1.030   8.412 -1.1802 -1.1719 -1.0964
 2183SOL     OW18184   3.956   1.590   3.691  0.2830 -0.0073  0.1051
 2183SOL    HW118185   3.986   1.604   3.601 -0.8216 -0.8101 -0.3870
 2183SOL    HW218186   4.015   1.645   3.743  0.9176 -0.7918  0.2029
 2184SOL     OW18187   2.974   2.904   0.648  0.1040  0.5448  0.2937
 2184SOL    HW118188   2.889   2.893   0.604  0.5458  0.5104 -0.5448
 2184SOL    HW218189   3.034   2.871   0.582 -0.3155 -0.9972  0.6973
 2185SOL     OW18190   4.273   0.725  13.317 -0.1959  0.2708 -0.4702
 2185SOL    HW118191   4.249   0.717  13.409 -0.7407  1.7327 -0.4899
 2185SOL    HW218192   4.346   0.785  13.330 -1.0982  0.7299  2.4203
 2186SOL     OW18193   0.850   3.072   9.070 -0.0846  0.3491 -0.0914
 2186SOL    HW118194   0.784   3.014   9.033  0.8532 -0.4288 -0.5305
 2186SOL    HW218195   0.931   3.030   9.042 -1.8691 -2.0425 -1.5855
 2187SOL     OW18196   1.419   4.066   6.298  0.5316 -0.0606  0.4078
 2187SOL    HW118197   1.451   4.044   6.211  0.7757  1.4237  0.1228
 2187SOL    HW218198   1.480   4.014   6.349 -0.9805 -2.7135 -0.4946
 2188SOL     OW18199   1.205   4.627   9.026 -0.6423  0.0350  0.3108
 2188SOL    HW118200   1.272   4.662   9.085 -1.2531 -0.9663  1.5899
 2188SOL    HW218201   1.180   4.542   9.062 -0.6872  0.6839  1.8030
 2189SOL     OW18202   4.092   1.578   8.503  0.3803  0.0079  0.5719
 2189SOL    HW118203   4.070   1.665   8.535  0.1140  0.3464 -0.5579
 2189SOL    HW218204   4.155   1.552   8.571  0.2854  0.4427  0.8283
 2190SOL     OW18205   0.424   2.079   3.064  0.2667 -0.0636  0.2936
 2190SOL    HW118206   0.385   2.119   3.141  0.3934 -1.0146  0.8528
 2190SOL    HW218207   0.394   2.135   2.993  1.0133 -1.6515 -1.2705
 2191SOL     OW18208   1.567   1.182   7.186  0.1970 -0.1930  0.4483
 2191SOL    HW118209   1.549   1.273   7.208 -1.0628 -0.2842 -0.1934
 2191SOL    HW218210   1.635   1.159   7.249 -0.2787  0.9002  1.3582
 2192SOL     OW18211   3.903   4.458   4.062  0.4588 -0.6692 -0.7486
 2192SOL    HW118212   3.820   4.506   4.066  0.7265 -0.4152  1.2874
 2192SOL    HW218213   3.864   4.376   4.091  2.1213 -1.8085 -1.7424
 2193SOL     OW18214   0.132   0.511   4.816 -0.1306 -0.2287  0.1670
 2193SOL    HW118215   0.037   0.507   4.823 -0.0905 -2.4064 -0.6521
 2193SOL    HW218216   0.168   0.473   4.896 -2.6239  0.2723  1.5180
 2194SOL     OW18217   3.454   4.441   6.324 -0.3156  0.4530  0.0955
 2194SOL    HW118218   3.481   4.410   6.410  1.6409 -1.0583 -1.0591
 2194SOL    HW218219   3.365   4.408   6.307 -0.1260  0.1218 -0.2680
 2195SOL     OW18220   0.795   1.574   6.774 -0.6481 -0.1084  0.0244
 2195SOL    HW118221   0.829   1.554   6.862  1.7495 -0.6234 -1.0074
 2195SOL    HW218222   0.755   1.659   6.792 -2.3312 -0.8444 -0.2537
 2196SOL     OW18223   4.190   3.113   6.345  0.3244 -0.2570 -0.4116
 2196SOL    HW118224   4.277   3.102   6.383  0.8112  0.8264 -1.2137
 2196SOL    HW218225   4.204   3.202   6.311 -1.6127  0.3044  0.2304
 2197SOL     OW18226   4.220   2.141   5.176  0.0949  0.3190  0.2500
 2197SOL    HW118227   4.192   2.050   5.174  0.5090  0.1737  1.6410
 2197SOL    HW218228   4.135   2.185   5.178  0.0646  0.2927 -0.2448
 2198SOL     OW18229   4.619   2.575   6.171  0.5908  0.2162  0.4397
 2198SOL    HW118230   4.659   2.565   6.257 -1.9382  0.1004  1.6038
 2198SOL    HW218231   4.643   2.668   6.164 -1.1567  0.6356 -0.0497
 2199SOL     OW18232   1.185   1.531  10.182 -0.3067 -0.6306 -0.1125
 2199SOL    HW118233   1.189   1.566  10.093 -0.1307 -0.3585  0.0004
 2199SOL    HW218234   1.122   1.459  10.178 -1.2258  0.1764 -0.1309
 2200SOL     OW18235   1.359   2.871  12.988  0.0511 -0.2229 -0.2850
 2200SOL    HW118236   1.278   2.851  12.941 -0.7318  0.7636  0.6529
 2200SOL    HW218237   1.322   2.935  13.049 -1.1630  0.4730 -1.7683
 2201SOL     OW18238   1.117   2.595   7.503  0.3953 -0.1992  0.1102
 2201SOL    HW118239   1.122   2.526   7.437 -1.8391 -0.4869  0.2491
 2201SOL    HW218240   1.126   2.543   7.583 -1.9777 -3.3366 -1.6643
 2202SOL     OW18241   1.794   4.266  11.403  0.3626  0.9973  0.0302
 2202SOL    HW118242   1.754   4.207  11.339 -2.0234  1.7890  0.8282
 2202SOL    HW218243   1.720   4.281  11.461  0.2683 -1.7556  0.6591
 2203SOL     OW18244   2.520   3.346   4.182  0.2022  0.1771 -0.1061
 2203SOL    HW118245   2.468   3.334   4.262 -1.2241  1.2617 -0.8621
 2203SOL    HW218246   2.517   3.269   4.125 -0.4348  0.9605 -1.1419
 2204SOL     OW18247   3.944   0.544  12.136  0.4912  0.7229  0.3849
 2204SOL    HW118248   3.952   0.449  12.143 -0.3731  0.7194  1.2716
 2204SOL    HW218249   3.855   0.557  12.169 -0.5989 -2.9343 -1.0802
 2205SOL     OW18250   3.386   2.327   1.704  0.2361  0.0395  0.8701
 2205SOL    HW118251   3.424   2.327   1.616  0.9834  0.8722  1.1885
 2205SOL    HW218252   3.350   2.239   1.715 -0.2223  0.0452 -0.6142
 2206SOL     OW18253   3.961   2.679  16.179 -0.1874 -0.1997  0.0544
 2206SOL    HW118254   3.938   2.618  16.108  0.4226 -2.0653  1.4685
 2206SOL    HW218255   4.002   2.748  16.127 -0.4728  1.3052  1.8392
 2207SOL     OW18256   4.433   0.615   7.606  0.0471  0.1799 -0.1943
 2207SOL    HW118257   4.355   0.564   7.584  0.0172 -0.4819  1.4561
 2207SOL    HW218258   4.446   0.655   7.520 -1.4058 -1.9828 -1.4150
 2208SOL     OW18259   3.867   2.956  17.645  0.1092  0.4211  0.6165
 2208SOL    HW118260   3.884   3.002  17.563  1.3711 -0.6176  0.2859
 2208SOL    HW218261   3.926   3.002  17.705  1.9818 -2.1630  0.7506
 2209SOL     OW18262   0.557   1.617   6.128  0.1551  0.2210 -0.1899
 2209SOL    HW118263   0.552   1.573   6.043 -2.4651  0.1635  0.0026
 2209SOL    HW218264   0.518   1.702   6.109  3.1362  1.6964  0.1660
 2210SOL     OW18265   4.527   1.240   4.150 -0.3313  0.4956 -0.2769
 2210SOL    HW118266   4.498   1.320   4.194 -2.8989 -0.6862  0.2483
 2210SOL    HW218267   4.467   1.175   4.188  0.4306 -0.5418 -0.8601
 2211SOL     OW18268   0.593   3.702   7.731 -0.2143 -0.0216  0.0363
 2211SOL    HW118269   0.629   3.790   7.739  1.9315 -1.1448  2.5264
 2211SOL    HW218270   0.536   3.677   7.804 -0.9438  1.2099 -0.1034
 2212SOL     OW18271   0.359   3.630   5.471  0.0990 -0.3952 -0.1090
 2212SOL    HW118272   0.320   3.610   5.385 -0.0270  0.2044 -0.1927
 2212SOL    HW218273   0.352   3.725   5.466 -0.3653 -0.5209 -2.1081
 2213SOL     OW18274   1.809   3.138  14.354 -0.3961  0.8581 -0.0485
 2213SOL    HW118275   1.845   3.217  14.314 -1.2537  0.4585 -1.6162
 2213SOL    HW218276   1.891   3.089  14.357  0.2754  2.0820  2.1597
 2214SOL     OW18277   1.244   3.046  17.446  0.5570 -0.6043 -0.3729
 2214SOL    HW118278   1.152   3.071  17.458  0.5801 -0.7334  0.0848
 2214SOL    HW218279   1.255   3.005  17.532  1.3230 -2.2237 -1.2417
 2215SOL     OW18280   3.409   0.844  12.885  0.5551 -0.2844  0.9630
 2215SOL    HW118281   3.356   0.877  12.812 -0.2719  0.8093  2.0683
 2215SOL    HW218282   3.495   0.831  12.845 -0.5351  2.4614 -2.3708
 2216SOL     OW18283   0.127   2.276  14.422 -0.0456  0.1849 -0.4595
 2216SOL    HW118284   0.061   2.300  14.357 -1.9316  0.4946  1.5807
 2216SOL    HW218285   0.128   2.181  14.409  0.4798  0.0738  0.4170
 2217SOL     OW18286   0.848   0.275   3.548 -0.0530 -1.1213  0.5997
 2217SOL    HW118287   0.813   0.329   3.619  1.2679  0.4423  0.0612
 2217SOL    HW218288   0.849   0.340   3.478  0.6045  0.0462  1.6907
 2218SOL     OW18289   3.219   3.820   0.261 -0.2561  0.0316 -0.3239
 2218SOL    HW118290   3.150   3.754   0.260 -0.8102  0.6156 -0.1974
 2218SOL    HW218291   3.277   3.785   0.193  0.5153 -1.3164  1.0417
 2219SOL     OW18292   3.884   0.463  11.408 -0.0123 -0.2715  0.3757
 2219SOL    HW118293   3.883   0.372  11.377 -0.2375  0.3277 -1.4014
 2219SOL    HW218294   3.815   0.464  11.474 -1.7217  1.9914 -1.4262
 2220SOL     OW18295   1.982   1.882   8.653  0.2245  0.5350  0.4805
 2220SOL    HW118296   1.974   1.795   8.614 -0.1795  1.3222 -1.1951
 2220SOL    HW218297   2.076   1.887   8.673  0.2035 -1.1719  0.9982
 2221SOL     OW18298   3.218   2.511  10.701  0.0292 -0.0352  0.0170
 2221SOL    HW118299   3.284   2.544  10.762 -2.0141 -0.3469  2.3872
 2221SOL    HW218300   3.266   2.519  10.618  1.8765 -0.1731  1.0803
 2222SOL     OW18301   0.156   3.397   0.784 -0.3269  0.6608 -0.6600
 2222SOL    HW118302   0.187   3.326   0.728 -0.4205 -1.6767  2.2684
 2222SOL    HW218303   0.063   3.375   0.792 -0.3315  0.3442 -1.5178
 2223SOL     OW18304   2.477   0.892   4.329  0.0904  0.0507 -0.3405
 2223SOL    HW118305   2.439   0.970   4.289  1.9062  1.8540  1.4538
 2223SOL    HW218306   2.400   0.855   4.372  1.0055  0.7205  1.8804
 2224SOL     OW18307   4.089   3.141   5.313 -0.5870  0.1177  0.3197
 2224SOL    HW118308   4.112   3.098   5.231  1.2036 -0.2921  1.0507
 2224SOL    HW218309   4.018   3.082   5.337  0.6359 -0.7307  1.7623
 2225SOL     OW18310   4.726   3.160   0.971 -0.4330 -0.4513 -0.3395
 2225SOL    HW118311   0.045   3.145   0.894 -1.7774 -1.2179 -1.1625
 2225SOL    HW218312   4.678   3.239   0.947  1.2967  1.2512  1.7578
 2226SOL     OW18313   1.239   4.333   4.809  0.2262 -0.2694 -0.4879
 2226SOL    HW118314   1.270   4.243   4.820  0.4711  0.0928  1.7593
 2226SOL    HW218315   1.243   4.360   4.901  2.6945  1.2001 -1.0217
 2227SOL     OW18316   0.473   1.996   4.495  0.0961  0.7165 -0.1927
 2227SOL    HW118317   0.482   1.968   4.586 -0.7171  1.2797  0.0575
 2227SOL    HW218318   0.521   1.932   4.443  2.3154  1.5852  0.7617
 2228SOL     OW18319   3.747   3.419   5.995 -0.2317 -0.0754  0.1286
 2228SOL    HW118320   3.775   3.364   6.068  0.2142  0.1747  0.1464
 2228SOL    HW218321   3.695   3.355   5.947  0.4570 -0.3275 -0.2841
 2229SOL     OW18322   2.856   3.612   1.430  0.3917 -0.3498  0.0833
 2229SOL    HW118323   2.881   3.524   1.459 -1.7493 -0.8838  0.3744
 2229SOL    HW218324   2.929   3.628   1.371  1.5738  1.9845  2.2345
 2230SOL     OW18325   3.407   2.363   7.315  0.1291  0.7012  0.0790
 2230SOL    HW118326   3.322   2.321   7.331 -1.0067  2.8561 -0.3364
 2230SOL    HW218327   3.406   2.381   7.221 -1.2393  1.6489  0.2705
 2231SOL     OW18328   3.845   2.624   8.199  0.4532  0.5465 -0.3457
 2231SOL    HW118329   3.888   2.539   8.201 -1.3802 -0.4046 -2.2871
 2231SOL    HW218330   3.902   2.673   8.259  0.2007  0.2687  0.1172
 2232SOL     OW18331   3.787   4.177   8.907  0.5116 -0.2004 -0.4869
 2232SOL    HW118332   3.853   4.159   8.840  0.8347  1.0830 -0.5315
 2232SOL    HW218333   3.745   4.252   8.865  0.2250 -0.2325 -0.2530
 2233SOL     OW18334   4.229   3.557  17.717 -0.1301  0.2924  0.0169
 2233SOL    HW118335   4.285   3.626  17.682 -0.2174 -0.6164 -1.8823
 2233SOL    HW218336   4.202   3.584   0.061 -0.8912  2.0705 -0.7639
 2234SOL     OW18337   0.548   3.838   3.992 -0.5726 -0.0007  0.3190
 2234SOL    HW118338   0.617   3.840   4.058  1.1189  0.1624 -1.4712
 2234SOL    HW218339   0.481   3.780   4.028 -0.1108 -0.5883  0.2160
 2235SOL     OW18340   2.504   0.345   5.290 -0.0846 -0.0433  0.1121
 2235SOL    HW118341   2.429   0.329   5.234  0.8558 -0.5661 -0.9951
 2235SOL    HW218342   2.460   0.400   5.355 -2.5970 -1.7518 -0.1433
 2236SOL     OW18343   2.735   4.282  12.332  0.2741 -0.4814  0.1137
 2236SOL    HW118344   2.693   4.352  12.381 -0.7643  0.4101 -2.0371
 2236SOL    HW218345   2.826   4.311  12.325  0.2275 -0.2928  0.3141
 2237SOL     OW18346   2.464   3.762   8.720 -0.4724 -0.4036  0.3424
 2237SOL    HW118347   2.523   3.702   8.674  0.9729  1.4457 -0.1993
 2237SOL    HW218348   2.410   3.795   8.648 -1.9404 -0.2322  1.5208
 2238SOL     OW18349   2.031   3.056   3.033  0.1458 -0.8839 -0.7050
 2238SOL    HW118350   1.956   3.101   3.072  1.5414 -0.9360  2.0239
 2238SOL    HW218351   1.992   2.985   2.983  0.6499 -1.0258 -0.8931
 2239SOL     OW18352   3.406   0.949  16.459 -0.4915 -0.7134 -0.5080
 2239SOL    HW118353   3.404   0.996  16.542  0.4521 -1.2137 -0.2103
 2239SOL    HW218354   3.453   1.014  16.406  0.2848 -0.3029  0.6925
 2240SOL     OW18355   2.704   4.053  12.171 -0.4718 -0.4319 -0.0022
 2240SOL    HW118356   2.779   3.994  12.168  0.3908  0.5652  1.8583
 2240SOL    HW218357   2.736   4.128  12.221  0.9357 -0.1122 -1.3952
 2241SOL     OW18358   2.311   3.623   3.062 -0.3544 -0.2002 -0.1114
 2241SOL    HW118359   2.380   3.570   3.102  1.5871  2.8454  0.5595
 2241SOL    HW218360   2.370   3.682   3.016 -1.1126  0.3861 -0.3272
 2242SOL     OW18361   3.229   0.646   3.026 -0.0638  0.0526  0.3536
 2242SOL    HW118362   3.151   0.649   3.081 -1.0427  1.8925 -1.1076
 2242SOL    HW218363   3.175   0.664   2.949  0.9053  0.0104 -0.3344
 2243SOL     OW18364   3.993   3.396   4.433 -0.3343 -0.4206 -0.3861
 2243SOL    HW118365   4.087   3.407   4.415 -0.2328 -1.7538 -0.6462
 2243SOL    HW218366   3.979   3.303   4.420  0.1676 -0.9549  2.9612
 2244SOL     OW18367   0.787   1.209   2.492  0.1210 -0.4631  0.3038
 2244SOL    HW118368   0.726   1.224   2.420 -0.9238  0.3062  1.3536
 2244SOL    HW218369   0.862   1.265   2.475  0.2886 -0.6337  0.4805
 2245SOL     OW18370   0.886   4.701   9.062  0.1883 -0.9070 -0.3072
 2245SOL    HW118371   0.916   0.039   9.010  0.5584 -1.2743 -0.6182
 2245SOL    HW218372   0.941   4.633   9.024  1.6696 -0.7958  1.6293
 2246SOL     OW18373   2.044   2.658   8.013 -0.2233 -0.5603 -0.6029
 2246SOL    HW118374   2.111   2.654   8.081 -1.0737  1.2238  0.3517
 2246SOL    HW218375   2.068   2.740   7.969 -1.1379 -0.5676 -1.1095
 2247SOL     OW18376   4.507   0.002   3.356  0.6321 -0.2073 -0.2555
 2247SOL    HW118377   4.511   0.097   3.349  4.2220 -0.2086  1.7727
 2247SOL    HW218378   4.580   4.714   3.298  0.7667  2.3305 -1.1220
 2248SOL     OW18379   4.555   1.209  12.744  0.2431  0.5467 -0.4562
 2248SOL    HW118380   4.632   1.229  12.690  2.5513  1.1579  3.0406
 2248SOL    HW218381   4.596   1.143  12.800 -0.4278  0.5447  0.0272
 2249SOL     OW18382   3.986   2.030   0.116 -0.0122 -0.0249  0.1770
 2249SOL    HW118383   4.078   2.030   0.144  0.1001 -0.7351 -0.1927
 2249SOL    HW218384   3.965   2.119   0.143 -0.3734 -0.4791  1.3754
 2250SOL     OW18385   0.250   4.547   2.828  0.7485  0.4054  0.6315
 2250SOL    HW118386   0.167   4.574   2.790  0.2922 -0.3110  1.1262
 2250SOL    HW218387   0.226   4.545   2.921 -2.6934  1.6844 -0.2346
 2251SOL     OW18388   3.249   1.988   3.162  0.5671  0.1391 -0.1143
 2251SOL    HW118389   3.219   2.022   3.078 -1.2958 -0.0631  0.4798
 2251SOL    HW218390   3.208   2.052   3.220  2.6774  0.3023  1.1903
 2252SOL     OW18391   4.191   1.434   5.636  0.0653 -0.1538  0.2200
 2252SOL    HW118392   4.191   1.350   5.590  1.1112  0.2127 -0.4385
 2252SOL    HW218393   4.203   1.500   5.568 -0.9048  0.9351  1.1068
 2253SOL     OW18394   2.291   0.168   3.429 -0.6538  0.1484  0.7220
 2253SOL    HW118395   2.363   0.187   3.488  0.3147  0.0437 -0.4205
 2253SOL    HW218396   2.322   0.091   3.380 -1.5064  1.2877 -1.6042
 2254SOL     OW18397   2.235   0.336  13.770 -0.5243 -0.2355  0.8496
 2254SOL    HW118398   2.301   0.288  13.720  0.4218 -1.2517  3.1101
 2254SOL    HW218399   2.225   0.417  13.720  0.1770  1.6881  3.8193
 2255SOL     OW18400   2.093   2.730   5.616  0.0458 -0.0626 -0.0499
 2255SOL    HW118401   2.168   2.790   5.615  0.8955 -1.1602 -1.0452
 2255SOL    HW218402   2.034   2.778   5.557 -1.5062 -1.7092  0.1651
 2256SOL     OW18403   4.420   2.092  15.358  0.9387 -0.1894  0.3686
 2256SOL    HW118404   4.434   2.046  15.275  2.1116 -2.3171  1.7500
 2256SOL    HW218405   4.331   2.127  15.358  0.1952 -2.0915  0.4648
 2257SOL     OW18406   0.465   1.715  13.612  0.0087 -0.1550  0.2438
 2257SOL    HW118407   0.487   1.682  13.699  0.6282  1.2803  0.6334
 2257SOL    HW218408   0.549   1.708  13.568  1.2984  1.0678  2.4868
 2258SOL     OW18409   0.889   3.181  14.081  0.0181  0.4644 -0.0257
 2258SOL    HW118410   0.950   3.254  14.070  1.4401 -0.7074  0.2158
 2258SOL    HW218411   0.824   3.211  14.144  0.1946  1.5960 -0.3774
 2259SOL     OW18412   2.977   2.165   6.306  0.0042  0.0851  0.4637
 2259SOL    HW118413   2.963   2.218   6.384  0.0769 -1.5172  1.5665
 2259SOL    HW218414   2.884   2.149   6.293 -0.0923  0.2940  0.9254
 2260SOL     OW18415   4.660   1.746   2.397 -0.4082 -0.4173  0.4303
 2260SOL    HW118416   4.724   1.773   2.331 -0.1575 -0.7282  0.5473
 2260SOL    HW218417   4.576   1.767   2.355  0.0639  2.6852  1.0267
 2261SOL     OW18418   3.706   2.897   2.148  0.6069  0.3360 -0.4898
 2261SOL    HW118419   3.747   2.878   2.232 -2.3107  2.2382  1.3583
 2261SOL    HW218420   3.642   2.963   2.176  0.4047  0.0934 -0.3885
 2262SOL     OW18421   3.865   3.368  11.063  0.8472 -0.3591 -0.1348
 2262SOL    HW118422   3.926   3.334  10.997  0.2313 -2.2170  0.2546
 2262SOL    HW218423   3.785   3.327  11.030 -0.3698  0.5827  1.6424
 2263SOL     OW18424   4.382   0.742   3.144  0.0512 -0.0595  0.5097
 2263SOL    HW118425   4.365   0.827   3.184 -0.1075  1.0417 -1.9271
 2263SOL    HW218426   4.314   0.689   3.186 -1.0811  1.2637  0.3586
 2264SOL     OW18427   3.814   4.632   7.181 -0.1976  0.3044 -0.4004
 2264SOL    HW118428   3.744   4.627   7.246 -1.1624  0.5731 -1.4354
 2264SOL    HW218429   3.797   4.552   7.130  1.8735  0.3220 -1.1336
 2265SOL     OW18430   0.278   3.557   3.339 -0.4853  0.0819 -0.4257
 2265SOL    HW118431   0.367   3.570   3.305 -0.2100 -1.2624 -0.2268
 2265SOL    HW218432   0.284   3.479   3.394  1.4127  2.0405  2.1551
 2266SOL     OW18433   0.252   0.036   4.402 -0.4523 -0.1442  0.5984
 2266SOL    HW118434   0.323   4.711   4.420  0.6722  0.5501 -1.4405
 2266SOL    HW218435   0.197   4.735   4.333 -0.6731  1.6922 -0.2076
 2267SOL     OW18436   1.725   4.556   9.636  0.5449 -0.0194  0.0936
 2267SOL    HW118437   1.638   4.515   9.630  0.4242  0.1907  0.3861
 2267SOL    HW218438   1.714   4.595   9.723  0.9071  1.0599 -0.3413
 2268SOL     OW18439   1.998   1.301  14.058 -0.3293 -0.0217  0.0559
 2268SOL    HW118440   2.070   1.339  14.008 -0.5306  0.5408  0.1995
 2268SOL    HW218441   1.979   1.376  14.114  0.1403 -0.1000  0.3210
 2269SOL     OW18442   1.872   3.985   4.516 -0.0293 -0.0072  0.4510
 2269SOL    HW118443   1.860   3.963   4.424 -1.5245 -0.6693  0.8115
 2269SOL    HW218444   1.903   3.903   4.555 -0.5899  0.3001  1.5481
 2270SOL     OW18445   1.651   1.714   4.433  0.1334 -0.4256  0.0024
 2270SOL    HW118446   1.592   1.724   4.359 -1.7023  0.7241  1.6481
 2270SOL    HW218447   1.689   1.628   4.413  1.6831  0.4830 -0.9768
 2271SOL     OW18448   4.323   3.113   8.360 -0.1997 -0.2750  0.2229
 2271SOL    HW118449   4.365   3.182   8.410 -2.5796  0.6581  0.9375
 2271SOL    HW218450   4.361   3.040   8.408 -3.6820 -0.7750  2.2250
 2272SOL     OW18451   4.615   3.772   4.847 -0.4475  0.1751  0.1228
 2272SOL    HW118452   4.582   3.855   4.881 -1.9399 -1.3442  2.3782
 2272SOL    HW218453   4.662   3.725   4.915 -0.5019 -0.7057 -0.4468
 2273SOL     OW18454   2.314   4.434   2.743 -0.0587 -0.2440 -0.4966
 2273SOL    HW118455   2.256   4.359   2.754 -0.5737  0.5326  2.1501
 2273SOL    HW218456   2.272   4.507   2.789  1.1875 -0.6664  1.3282
 2274SOL     OW18457   1.349   4.591   4.942  0.2966  0.3448 -0.1334
 2274SOL    HW118458   1.418   4.544   4.989 -1.0569  0.6423  2.1515
 2274SOL    HW218459   1.360   4.674   4.989 -0.2320  1.2081 -1.5507
 2275SOL     OW18460   2.556   3.367  10.704  0.1049 -0.4980  0.3127
 2275SOL    HW118461   2.529   3.414  10.626  1.8444 -1.8581 -1.1043
 2275SOL    HW218462   2.625   3.308  10.672  0.8424  0.6089 -0.1315
 2276SOL     OW18463   3.397   4.275  15.176  0.2367 -0.5970  0.7175
 2276SOL    HW118464   3.341   4.349  15.199  0.8415  0.4032 -1.0095
 2276SOL    HW218465   3.348   4.201  15.210 -0.1777  0.2669  1.9868
 2277SOL     OW18466   2.228   2.041   8.973  0.0584  0.3678 -0.2671
 2277SOL    HW118467   2.299   2.101   8.950 -0.2191  0.3917 -1.0493
 2277SOL    HW218468   2.171   2.109   9.008 -2.9233 -2.3463  0.1435
 2278SOL     OW18469   3.947   0.998   8.743 -0.3608  0.2266  0.2680
 2278SOL    HW118470   3.916   0.922   8.694 -1.9920  0.1359  1.4618
 2278SOL    HW218471   3.986   0.955   8.819 -0.0638 -1.6171 -0.9433
 2279SOL     OW18472   2.951   1.088   4.193  0.2718 -0.0992  0.8057
 2279SOL    HW118473   3.001   1.153   4.242  2.7399 -1.8392  0.6302
 2279SOL    HW218474   2.883   1.078   4.260 -0.8140 -0.7457 -0.3775
 2280SOL     OW18475   0.992   0.028   2.851  0.2252 -0.1337  0.6138
 2280SOL    HW118476   0.914   0.054   2.802 -0.3632 -0.0569  1.5939
 2280SOL    HW218477   1.014   0.111   2.894 -2.6912  0.7633  0.3986
 2281SOL     OW18478   3.995   4.109   6.473  0.3000  0.2509  0.2050
 2281SOL    HW118479   3.917   4.101   6.418  0.1577 -0.6261  0.5254
 2281SOL    HW218480   4.054   4.106   6.397 -1.0692  1.9342 -0.9173
 2282SOL     OW18481   2.910   1.371   5.143  0.1521  0.2434 -0.2376
 2282SOL    HW118482   2.958   1.358   5.061  0.3715 -1.3748  0.1435
 2282SOL    HW218483   2.846   1.302   5.127 -0.2669  0.4686  0.5188
 2283SOL     OW18484   4.591   1.858  11.493 -0.3407  0.2931 -0.4259
 2283SOL    HW118485   4.603   1.790  11.559  2.9411  1.5493  0.2372
 2283SOL    HW218486   4.669   1.840  11.441  1.2828 -0.1479  2.1726
 2284SOL     OW18487   2.147   0.193   9.727  0.1206  0.2252  0.1562
 2284SOL    HW118488   2.157   0.264   9.790 -1.3031 -0.4540  1.1559
 2284SOL    HW218489   2.082   0.224   9.664  3.8294 -0.4779 -3.9960
 2285SOL     OW18490   4.402   3.818   2.943  0.4332  0.1886  0.4439
 2285SOL    HW118491   4.473   3.770   2.901 -0.4137 -0.2504 -0.4966
 2285SOL    HW218492   4.347   3.742   2.960 -3.7645  2.3360 -3.4108
 2286SOL     OW18493   2.393   1.575   4.144  0.4280  0.1743  0.0107
 2286SOL    HW118494   2.483   1.558   4.116  1.0689  0.8474  1.6439
 2286SOL    HW218495   2.373   1.635   4.072 -1.6960  0.5607  0.9144
 2287SOL     OW18496   2.072   3.258   6.331  0.3608 -0.2189  0.2193
 2287SOL    HW118497   2.091   3.242   6.424  1.0972  3.0295  0.6212
 2287SOL    HW218498   2.065   3.353   6.335 -1.9719 -0.2309 -3.5009
 2288SOL     OW18499   1.171   2.350  12.357  0.1407  0.3761  0.0216
 2288SOL    HW118500   1.248   2.380  12.309  0.6684 -1.8205 -0.5288
 2288SOL    HW218501   1.191   2.404  12.433  1.8250  0.5941 -0.5819
 2289SOL     OW18502   1.248   2.152  12.534 -0.3181 -0.4842  0.3968
 2289SOL    HW118503   1.212   2.197  12.458  1.4218 -1.0148 -0.7253
 2289SOL    HW218504   1.340   2.168  12.518 -1.1082  0.8475 -2.7329
 2290SOL     OW18505   0.045   2.528   3.944  0.0365  0.1766  0.2981
 2290SOL    HW118506   4.729   2.603   3.915  0.8763  0.0594 -1.4832
 2290SOL    HW218507   0.014   2.449   3.900  0.1169  0.2358  0.1353
 2291SOL     OW18508   4.588   1.356   5.559  0.1961  0.5526 -0.6227
 2291SOL    HW118509   4.522   1.408   5.514 -4.8445 -2.0388  3.7602
 2291SOL    HW218510   4.663   1.413   5.572  0.3859  0.2494 -0.3757
 2292SOL     OW18511   3.117   3.566  16.516  0.5263  0.5277 -0.0249
 2292SOL    HW118512   3.167   3.485  16.521  1.0526  0.8488 -0.1207
 2292SOL    HW218513   3.178   3.635  16.491 -0.7283  1.1549 -1.3655
 2293SOL     OW18514   1.933   3.734   4.570 -0.2809 -0.2294 -0.2216
 2293SOL    HW118515   1.930   3.652   4.618 -1.6171  0.4711  0.9169
 2293SOL    HW218516   1.980   3.707   4.491  1.7877  1.7062  0.3586
 2294SOL     OW18517   0.126   1.483  15.638 -0.0710 -0.4821  0.2578
 2294SOL    HW118518   0.187   1.528  15.580 -0.3745 -0.2981  0.0826
 2294SOL    HW218519   0.138   1.532  15.719 -0.5494 -1.1262  0.7261
 2295SOL     OW18520   3.961   4.045  11.001 -0.2289  0.4912  0.0728
 2295SOL    HW118521   3.926   3.971  11.050  2.1536 -0.5312  0.2544
 2295SOL    HW218522   4.001   4.102  11.067 -1.8616  1.0503  0.5821
 2296SOL     OW18523   2.599   1.851   6.069 -0.0643 -0.1449  0.0033
 2296SOL    HW118524   2.532   1.913   6.042  0.0200 -0.0284  0.0644
 2296SOL    HW218525   2.677   1.900   6.044 -0.7413 -0.6505 -3.0309
 2297SOL     OW18526   4.546   3.653  12.238 -0.0053  0.2020  0.5044
 2297SOL    HW118527   4.467   3.599  12.231  0.6660 -0.6301 -0.4936
 2297SOL    HW218528   4.616   3.593  12.214  0.8772  1.2335  0.5251
 2298SOL     OW18529   0.173   3.231   1.861 -0.3012 -0.0119  0.2001
 2298SOL    HW118530   0.259   3.226   1.820 -0.5643  0.0131 -0.3556
 2298SOL    HW218531   0.141   3.140   1.857  0.0608 -0.1276 -0.0031
 2299SOL     OW18532   3.375   0.026   0.983  0.1200 -0.1178 -0.2298
 2299SOL    HW118533   3.373   4.683   1.035  0.8295  1.4933  2.2329
 2299SOL    HW218534   3.384   0.106   1.035 -1.4114  1.1162 -1.8655
 2300SOL     OW18535   3.232   3.670  11.855 -0.2976 -0.2106  0.7554
 2300SOL    HW118536   3.285   3.604  11.810  1.6494  1.6865  0.2554
 2300SOL    HW218537   3.286   3.749  11.847  1.1192 -1.0430  2.0697
 2301SOL     OW18538   2.099   1.064  11.756  0.3795  0.6649 -0.1224
 2301SOL    HW118539   2.171   1.125  11.741 -0.1194  1.2402 -0.1970
 2301SOL    HW218540   2.119   1.004  11.685 -1.4450  0.5188 -0.5167
 2302SOL     OW18541   3.192   4.184   0.557  0.3437  0.3800 -0.2879
 2302SOL    HW118542   3.131   4.144   0.495 -1.1656 -0.7107  1.9229
 2302SOL    HW218543   3.270   4.141   0.522  0.0945 -0.7365  0.5347
 2303SOL     OW18544   2.286   1.075   5.425  0.7829  0.3959 -0.1293
 2303SOL    HW118545   2.326   1.046   5.343 -0.3547  1.1514 -0.9506
 2303SOL    HW218546   2.261   1.162   5.394 -0.3865  0.1219  0.0588
 2304SOL     OW18547   4.336   0.355   3.044  0.2453 -0.1701  0.3846
 2304SOL    HW118548   4.335   0.426   2.980  1.5468 -1.0935 -0.6546
 2304SOL    HW218549   4.243   0.356   3.067 -0.1151 -0.4561 -1.0850
 2305SOL     OW18550   4.128   1.378  11.338 -0.1021 -0.2657 -0.4448
 2305SOL    HW118551   4.093   1.442  11.400 -0.6943 -1.7746  0.7810
 2305SOL    HW218552   4.177   1.319  11.395 -2.2073 -2.0221 -0.4484
 2306SOL     OW18553   3.752   4.605   4.633 -0.1160  0.0751 -0.0571
 2306SOL    HW118554   3.738   4.699   4.643 -1.3531 -0.1525  0.3245
 2306SOL    HW218555   3.810   4.578   4.704  2.3415 -0.9033 -2.4274
 2307SOL     OW18556   2.375   1.206  12.501 -0.0851  0.0334  0.4055
 2307SOL    HW118557   2.438   1.277  12.512 -3.0730  2.7074  0.4676
 2307SOL    HW218558   2.380   1.196  12.406 -0.7928  0.7315  0.2963
 2308SOL     OW18559   3.473   2.513   6.694 -0.3145  0.1383  0.2235
 2308SOL    HW118560   3.550   2.470   6.657 -1.0610 -1.1388  0.1795
 2308SOL    HW218561   3.487   2.604   6.665 -1.8823 -0.0700 -1.1888
 2309SOL     OW18562   2.987   1.152   8.681  0.0120 -0.5009  0.4113
 2309SOL    HW118563   2.996   1.237   8.723 -1.2372 -0.2754  0.2219
 2309SOL    HW218564   2.945   1.110   8.755 -0.0939 -1.3247 -0.1100
 2310SOL     OW18565   2.238   2.148   5.617  0.2881 -0.3126  0.3987
 2310SOL    HW118566   2.155   2.189   5.641 -0.0473 -1.8930  1.9230
 2310SOL    HW218567   2.217   2.125   5.526 -0.4486 -1.1931  0.7870
 2311SOL     OW18568   0.091   0.483   5.143  0.0088 -0.0936 -0.8157
 2311SOL    HW118569   0.158   0.528   5.194  0.0231 -2.5311  1.3575
 2311SOL    HW218570   0.073   0.399   5.187  1.0129  1.7241  3.0916
 2312SOL     OW18571   1.066   3.517   8.940 -0.5725 -0.1172 -0.6526
 2312SOL    HW118572   1.039   3.457   8.871 -2.2202  0.2113 -0.3090
 2312SOL    HW218573   1.036   3.461   9.012  1.2181 -0.2619 -0.0064
 2313SOL     OW18574   4.374   0.508   4.791  0.2918 -0.1018  0.3488
 2313SOL    HW118575   4.315   0.435   4.809  0.0138 -0.0033 -0.1738
 2313SOL    HW218576   4.425   0.521   4.872  2.7526  0.0900 -1.2234
 2314SOL     OW18577   1.097   1.150   3.800  0.7494  0.1450 -0.6905
 2314SOL    HW118578   1.094   1.243   3.821  0.1763  0.5340 -2.5191
 2314SOL    HW218579   1.105   1.108   3.886  0.7448 -0.0296 -0.7746
 2315SOL     OW18580   4.068   2.911   4.170 -0.1133 -0.1278  0.4162
 2315SOL    HW118581   4.121   2.942   4.097 -0.6834 -1.2462 -0.4661
 2315SOL    HW218582   4.141   2.875   4.220  0.4092 -1.3112 -1.2023
 2316SOL     OW18583   4.157   2.571   4.166  0.4310 -0.4389 -0.4861
 2316SOL    HW118584   4.146   2.494   4.109  2.2555 -0.4708 -0.7757
 2316SOL    HW218585   4.067   2.602   4.173  0.0794 -0.7863 -3.2003
 2317SOL     OW18586   0.396   1.321   2.083 -0.3151  0.2072 -0.0652
 2317SOL    HW118587   0.431   1.408   2.070  0.1899  0.0358  0.1434
 2317SOL    HW218588   0.304   1.337   2.062 -0.2001  0.3634 -0.4345
 2318SOL     OW18589   2.947   4.036   5.502 -0.7715 -0.1162 -0.3927
 2318SOL    HW118590   3.010   4.089   5.550  0.8340 -0.7395 -1.8111
 2318SOL    HW218591   2.913   4.096   5.436 -1.1386  2.8628  2.5040
 2319SOL     OW18592   3.188   0.309   1.945 -0.4111 -0.0022 -0.4388
 2319SOL    HW118593   3.142   0.289   2.027  0.2427  0.9762  0.1723
 2319SOL    HW218594   3.276   0.340   1.968 -0.2221  0.0817 -1.2914
 2320SOL     OW18595   1.668   1.070   9.435 -0.3598  0.0102  0.2997
 2320SOL    HW118596   1.584   1.100   9.471  0.3903  1.1307  1.0793
 2320SOL    HW218597   1.700   1.013   9.505 -0.4059 -0.9349 -0.4478
 2321SOL     OW18598   2.125   0.117  11.839  0.0207 -0.3704  0.0943
 2321SOL    HW118599   2.067   0.080  11.773  0.4455  0.3998 -0.7031
 2321SOL    HW218600   2.105   0.209  11.823  0.0204 -0.9483 -3.1431
 2322SOL     OW18601   3.943   1.803   4.895  0.3056  0.8383 -0.4344
 2322SOL    HW118602   3.905   1.853   4.967 -1.6672 -1.5436  0.1837
 2322SOL    HW218603   3.866   1.785   4.840 -0.2604  0.6278  0.4324
 2323SOL     OW18604   2.855   1.432   7.817 -0.1109  0.3386  0.4225
 2323SOL    HW118605   2.879   1.519   7.788 -1.7909  0.2583 -1.2009
 2323SOL    HW218606   2.941   1.389   7.808  0.2579  1.7189 -2.4812
 2324SOL     OW18607   4.087   0.663   4.245 -0.3463 -0.1246 -0.1083
 2324SOL    HW118608   4.141   0.632   4.317 -1.1092  0.4689  0.7271
 2324SOL    HW218609   4.045   0.579   4.225 -0.4967 -0.5789  2.0925
 2325SOL     OW18610   2.726   1.629  15.245 -0.1900  0.3683  0.0376
 2325SOL    HW118611   2.775   1.684  15.184 -1.3897  1.2689 -0.1240
 2325SOL    HW218612   2.642   1.625  15.198  0.8248  3.2156 -2.0544
 2326SOL     OW18613   3.010   2.465  11.877 -0.1799 -0.0317  0.2713
 2326SOL    HW118614   3.027   2.475  11.971  1.0130 -0.4712  0.1083
 2326SOL    HW218615   3.069   2.391  11.863 -1.0170 -0.4176 -1.1068
 2327SOL     OW18616   4.022   3.792   8.286  0.4824  0.1321  0.4893
 2327SOL    HW118617   3.929   3.780   8.300  0.7233 -1.4278  0.7637
 2327SOL    HW218618   4.025   3.848   8.208 -1.2147 -1.4723 -0.7123
 2328SOL     OW18619   3.212   1.391  11.241 -0.3714 -0.3672  0.3049
 2328SOL    HW118620   3.197   1.310  11.193  0.0889  0.4316 -1.1811
 2328SOL    HW218621   3.141   1.442  11.202  0.5999 -0.6209 -1.7736
 2329SOL     OW18622   2.905   4.021   7.951 -0.1859  0.4463  0.7900
 2329SOL    HW118623   2.825   3.972   7.934  0.7220 -0.9995  0.6743
 2329SOL    HW218624   2.914   4.038   7.857 -1.6699 -0.2010  0.5356
 2330SOL     OW18625   1.646   2.796   1.963 -0.0636  0.2965 -0.0624
 2330SOL    HW118626   1.664   2.821   2.054 -1.4777  3.3636 -0.6476
 2330SOL    HW218627   1.612   2.707   1.963 -0.6069  0.5065  0.0395
 2331SOL     OW18628   4.441   0.226   4.709 -0.5613 -0.2934  0.0991
 2331SOL    HW118629   4.453   0.205   4.616  0.2261 -0.5497  0.2630
 2331SOL    HW218630   4.346   0.239   4.717 -0.6243 -1.0585  0.6472
 2332SOL     OW18631   3.178   0.810   4.671 -0.3443  0.0572 -0.0446
 2332SOL    HW118632   3.104   0.765   4.631 -0.5782 -1.5459  2.1794
 2332SOL    HW218633   3.224   0.839   4.593 -0.8303 -4.2114 -1.8690
 2333SOL     OW18634   1.326   0.682   3.675  0.0932  0.2257  0.4237
 2333SOL    HW118635   1.262   0.720   3.734 -0.8503 -0.2357 -0.3060
 2333SOL    HW218636   1.286   0.706   3.591  1.2261 -0.2094 -0.2563
 2334SOL     OW18637   3.282   1.227   4.176  0.4595 -0.3750 -0.4296
 2334SOL    HW118638   3.284   1.259   4.086  4.3284 -3.1111 -1.2811
 2334SOL    HW218639   3.367   1.183   4.182  0.9817  0.5412 -1.1405
 2335SOL     OW18640   4.183   1.710   5.112  0.7517 -0.2782 -0.1320
 2335SOL    HW118641   4.161   1.625   5.151  0.2793  0.3103  0.8948
 2335SOL    HW218642   4.103   1.729   5.064  2.0744  0.7108 -1.9401
 2336SOL     OW18643   0.611   3.637   8.115 -0.5552 -0.2076  0.8250
 2336SOL    HW118644   0.689   3.686   8.089 -1.6448  0.9144 -0.3412
 2336SOL    HW218645   0.641   3.546   8.120  0.7982  0.2107  0.3604
 2337SOL     OW18646   4.524   0.556   4.288 -0.1770  0.0646  0.1740
 2337SOL    HW118647   4.485   0.472   4.261  0.3263  0.2545 -1.1097
 2337SOL    HW218648   4.502   0.564   4.381 -0.7900 -1.2103  0.1448
 2338SOL     OW18649   2.732   3.296   8.771 -0.8375 -0.0845  0.3231
 2338SOL    HW118650   2.700   3.211   8.738  0.2360  0.5357 -2.3305
 2338SOL    HW218651   2.769   3.271   8.855 -2.3383  0.4411  1.1356
 2339SOL     OW18652   2.391   0.799   9.836  0.1630  0.2965 -0.1599
 2339SOL    HW118653   2.322   0.809   9.902  0.7752 -0.1501  0.5370
 2339SOL    HW218654   2.472   0.781   9.884  0.2668  0.9302 -0.0911
 2340SOL     OW18655   1.506   3.044   4.426  0.5808  0.1354  0.1111
 2340SOL    HW118656   1.413   3.019   4.426  0.6823 -0.2746 -2.0696
 2340SOL    HW218657   1.510   3.027   4.520  2.5255  0.4057  0.0673
 2341SOL     OW18658   1.530   3.389   5.821 -0.0329  0.0057 -0.1332
 2341SOL    HW118659   1.497   3.303   5.796  1.0024 -0.4941  0.2187
 2341SOL    HW218660   1.613   3.374   5.776 -0.4315 -1.1205 -0.4990
 2342SOL     OW18661   2.455   2.077  11.658  0.3516  0.3111  0.1013
 2342SOL    HW118662   2.499   2.158  11.685 -0.0011  0.3268  0.6105
 2342SOL    HW218663   2.408   2.117  11.585  1.6528  3.7747  1.1416
 2343SOL     OW18664   0.055   2.896   5.980 -0.4008 -0.1400  0.0076
 2343SOL    HW118665   4.717   2.891   5.919 -0.1119  3.7730 -0.6161
 2343SOL    HW218666   0.095   2.981   5.966 -1.2074  0.0538 -1.1864
 2344SOL     OW18667   1.615   2.887   8.344 -0.2521  0.6759  0.1420
 2344SOL    HW118668   1.660   2.820   8.396  1.3546  0.5399 -1.4095
 2344SOL    HW218669   1.655   2.967   8.379 -2.7282  2.7128 -1.6730
 2345SOL     OW18670   0.731   0.875   2.561  0.2126 -0.2825  0.6128
 2345SOL    HW118671   0.693   0.919   2.485  0.4693  2.1242  1.8869
 2345SOL    HW218672   0.747   0.792   2.515  0.8178  0.8945 -1.2906
 2346SOL     OW18673   1.558   3.590   8.857  0.2493  0.2155 -0.7012
 2346SOL    HW118674   1.492   3.658   8.872 -0.1568  0.0757 -1.8518
 2346SOL    HW218675   1.510   3.519   8.901 -0.0151  0.2954 -0.8618
 2347SOL     OW18676   4.372   2.691   5.289  0.0761  0.1687  0.0259
 2347SOL    HW118677   4.380   2.685   5.194  1.3362  3.6351 -0.1034
 2347SOL    HW218678   4.317   2.616   5.312 -1.3217  1.4069  0.7312
 2348SOL     OW18679   1.685   4.682   4.765  0.1181 -0.2013  0.5886
 2348SOL    HW118680   1.734   4.608   4.728  0.4090  0.5498 -0.5044
 2348SOL    HW218681   1.676   4.626   4.843 -1.2572 -2.0586 -0.9059
 2349SOL     OW18682   1.651   1.243  13.845  0.2143 -0.4526 -0.1846
 2349SOL    HW118683   1.698   1.274  13.767 -2.2492  1.1037 -1.0440
 2349SOL    HW218684   1.560   1.261  13.820  0.3594  0.4660 -0.0511
 2350SOL     OW18685   0.637   2.290   3.679  0.5201  0.0105  0.6893
 2350SOL    HW118686   0.607   2.356   3.617 -1.9478 -0.2827  1.5972
 2350SOL    HW218687   0.604   2.312   3.766 -2.2240  0.6670 -0.5159
 2351SOL     OW18688   3.349   3.720   8.053  0.5346 -0.2634  0.7638
 2351SOL    HW118689   3.330   3.707   7.960  2.6426  0.5032  0.2367
 2351SOL    HW218690   3.441   3.746   8.045  0.0484  1.4754  0.8827
 2352SOL     OW18691   4.200   2.788   2.579 -0.0426 -1.0517 -0.0359
 2352SOL    HW118692   4.258   2.851   2.537  0.0845  0.4618  2.4324
 2352SOL    HW218693   4.174   2.739   2.502  0.7746  0.6145 -1.3628
 2353SOL     OW18694   2.399   2.062   5.999  0.2097 -0.1374 -0.1726
 2353SOL    HW118695   2.357   2.147   5.992 -0.1363 -0.3140 -0.2753
 2353SOL    HW218696   2.342   2.006   5.945  0.9821 -1.1729  0.0770
 2354SOL     OW18697   1.639   0.272   8.799 -0.0861 -0.3708  0.5752
 2354SOL    HW118698   1.565   0.333   8.797  0.1657 -0.1058 -0.4102
 2354SOL    HW218699   1.638   0.237   8.889  1.1927  2.9705  1.8955
 2355SOL     OW18700   1.299   4.435   7.961  0.4054  0.8100  0.6027
 2355SOL    HW118701   1.297   4.353   7.911  1.1500  0.7259  0.7145
 2355SOL    HW218702   1.346   4.489   7.898  0.2840  0.7658  0.4749
 2356SOL     OW18703   2.946   2.785   5.929 -0.2331  0.1825 -0.1747
 2356SOL    HW118704   2.930   2.854   5.993 -1.3074  0.9518 -1.2673
 2356SOL    HW218705   2.967   2.713   5.989  2.6311  0.9396 -0.2733
 2357SOL     OW18706   2.957   2.622   4.245 -0.0782 -0.4314  0.6427
 2357SOL    HW118707   2.981   2.578   4.163 -0.0227  0.7781 -0.0009
 2357SOL    HW218708   2.929   2.706   4.208 -0.3090 -1.4313 -1.4667
 2358SOL     OW18709   3.797   3.759   3.234 -0.0030 -0.4606  0.2393
 2358SOL    HW118710   3.866   3.746   3.300  1.2113 -0.6660 -1.0754
 2358SOL    HW218711   3.770   3.671   3.207 -2.1126  0.4663 -0.6293
 2359SOL     OW18712   0.191   2.318   8.966 -0.5406  0.2669  1.0623
 2359SOL    HW118713   0.189   2.224   8.982  1.6320 -0.0611 -0.6631
 2359SOL    HW218714   0.278   2.341   8.998  0.1555  0.6521 -1.0832
 2360SOL     OW18715   1.323   0.113   6.301 -0.4335 -0.5354 -0.1618
 2360SOL    HW118716   1.388   0.160   6.353  0.1370 -2.3441  0.7681
 2360SOL    HW218717   1.371   0.087   6.222 -1.1026 -1.6020 -0.2128
 2361SOL     OW18718   4.558   4.439   8.131 -0.0407  0.1324 -0.0253
 2361SOL    HW118719   4.609   4.360   8.114 -1.5577 -1.0319  0.8218
 2361SOL    HW218720   4.511   4.461   8.050  0.2324 -0.9936 -0.4929
 2362SOL     OW18721   0.301   3.959   1.218  0.0255  0.1633 -0.3815
 2362SOL    HW118722   0.289   3.918   1.132 -0.7927 -1.5701  0.5634
 2362SOL    HW218723   0.288   4.053   1.202 -1.6942  0.1095  0.6863
 2363SOL     OW18724   4.220   2.664  12.334  0.4137 -0.3076  0.5786
 2363SOL    HW118725   4.303   2.645  12.289 -0.8440 -1.4048 -1.2947
 2363SOL    HW218726   4.227   2.617  12.417  1.1119 -1.6557 -0.2490
 2364SOL     OW18727   2.006   4.670  12.910  0.4107  0.2870 -0.8001
 2364SOL    HW118728   2.059   4.611  12.856 -0.3727 -0.4249 -0.7763
 2364SOL    HW218729   1.940   4.603  12.923  1.7953 -0.7350  0.8959
 2365SOL     OW18730   1.887   2.296   1.587 -0.3780  0.5163  0.5008
 2365SOL    HW118731   1.835   2.225   1.626 -3.2612  2.7229  0.6918
 2365SOL    HW218732   1.816   2.359   1.578  1.3654  1.8035 -4.1679
 2366SOL     OW18733   3.980   1.393   2.377  0.0538  0.2708 -0.2577
 2366SOL    HW118734   4.029   1.313   2.394  2.2288  1.6902  0.0809
 2366SOL    HW218735   3.966   1.394   2.282 -1.1101  1.1437 -0.0818
 2367SOL     OW18736   1.644   0.436   6.237 -0.5847 -0.1039  0.0748
 2367SOL    HW118737   1.637   0.512   6.294 -1.2512  0.3156 -0.5700
 2367SOL    HW218738   1.739   0.435   6.227 -0.4464 -0.9690  1.4662
 2368SOL     OW18739   2.767   2.852   6.987 -0.0030  0.2050 -0.1132
 2368SOL    HW118740   2.759   2.766   6.945 -0.0304  0.1275  0.0524
 2368SOL    HW218741   2.773   2.915   6.915  0.6417  0.8437  0.4977
 2369SOL     OW18742   2.461   2.119   6.258  0.5360 -0.0669 -0.2392
 2369SOL    HW118743   2.377   2.089   6.292 -0.2395  2.2528 -0.1465
 2369SOL    HW218744   2.450   2.084   6.169 -1.0664  0.3893 -0.2075
 2370SOL     OW18745   1.971   2.132   4.722 -0.7304 -0.5584 -0.3251
 2370SOL    HW118746   2.014   2.083   4.652 -0.3723 -0.1864 -0.3627
 2370SOL    HW218747   1.911   2.182   4.667  1.1213  1.2879 -0.6249
 2371SOL     OW18748   3.938   2.780   3.937  0.0681  0.2443  0.2360
 2371SOL    HW118749   3.980   2.720   3.875  0.9983  0.3799  0.7296
 2371SOL    HW218750   4.004   2.850   3.938  0.0249  0.3399 -3.5662
 2372SOL     OW18751   1.057   3.798   4.087  0.1388  0.4708 -0.2955
 2372SOL    HW118752   1.090   3.821   4.001  0.4850 -0.9182 -0.5368
 2372SOL    HW218753   1.071   3.703   4.086  2.1781  0.7465  1.9299
 2373SOL     OW18754   3.870   4.429   9.252 -0.0780 -0.0086  0.2671
 2373SOL    HW118755   3.916   4.402   9.332  2.0996  1.8109 -0.3880
 2373SOL    HW218756   3.936   4.476   9.203  2.3997 -2.5603  1.1240
 2374SOL     OW18757   3.183   1.068   6.164 -0.1594  0.1931 -0.1882
 2374SOL    HW118758   3.263   1.018   6.179  0.1912  0.1968 -2.0094
 2374SOL    HW218759   3.203   1.151   6.205  1.1345  0.7285 -1.9061
 2375SOL     OW18760   3.532   0.032  10.562  0.1926 -0.6108 -0.6834
 2375SOL    HW118761   3.574   4.713  10.627  1.5896  2.5829  1.1364
 2375SOL    HW218762   3.478   4.698  10.526  0.0151 -1.5177  1.3635
 2376SOL     OW18763   3.576   4.686   8.672  0.4469 -0.7355 -0.6766
 2376SOL    HW118764   3.610   4.707   8.585  1.9853  0.7464  0.2847
 2376SOL    HW218765   3.649   4.713   8.728  0.0379 -1.7726  0.3591
 2377SOL     OW18766   3.422   1.634   4.697 -0.1516 -0.1589 -0.4130
 2377SOL    HW118767   3.440   1.551   4.652  1.2464 -1.2524  2.1708
 2377SOL    HW218768   3.427   1.620   4.792  1.4066  2.1479 -0.1600
 2378SOL     OW18769   1.715   4.047  14.362  0.3483 -0.4307 -0.3371
 2378SOL    HW118770   1.741   4.068  14.451  0.5487 -1.3022 -0.1987
 2378SOL    HW218771   1.765   4.114  14.315  0.2164 -0.5993 -0.7212
 2379SOL     OW18772   0.379   2.010   3.896 -0.0694 -0.1649 -0.3677
 2379SOL    HW118773   0.342   2.093   3.866  0.2039 -0.8867 -2.6625
 2379SOL    HW218774   0.304   1.984   3.949  0.7614 -1.2109  0.3115
 2380SOL     OW18775   2.530   3.145   6.827  0.1927  0.0999 -0.2533
 2380SOL    HW118776   2.469   3.217   6.843  1.2359  1.0165 -0.4746
 2380SOL    HW218777   2.490   3.079   6.884 -0.3723  0.1540 -0.5825
 2381SOL     OW18778   0.279   4.335   4.887  0.1696  0.3729  0.1558
 2381SOL    HW118779   0.331   4.262   4.853 -0.2404  0.6211 -1.0159
 2381SOL    HW218780   0.252   4.388   4.812  0.0605 -0.5457 -0.4596
 2382SOL     OW18781   1.759   1.306  11.257  0.7024  0.4843 -0.1268
 2382SOL    HW118782   1.692   1.364  11.293 -1.7651 -1.4866 -1.4971
 2382SOL    HW218783   1.826   1.321  11.324 -1.2829  1.9927  1.5120
 2383SOL     OW18784   2.592   1.611   6.176 -0.0157 -0.2430 -0.2076
 2383SOL    HW118785   2.498   1.599   6.168  0.1828 -3.3477  1.9315
 2383SOL    HW218786   2.603   1.685   6.116  0.6420  0.6108  0.9534
 2384SOL     OW18787   0.052   3.015   2.649 -0.1673 -0.1928  0.1469
 2384SOL    HW118788   0.128   2.959   2.662 -0.9896 -1.4300 -0.4374
 2384SOL    HW218789   4.721   2.965   2.695  1.5293 -1.0700  1.6998
 2385SOL     OW18790   2.162   3.963   3.937  0.6496 -0.2290  0.1489
 2385SOL    HW118791   2.186   3.907   3.863  1.5241  2.6133 -1.6896
 2385SOL    HW218792   2.238   3.957   3.995  0.3915 -0.5080  0.4644
 2386SOL     OW18793   1.508   3.396   7.169  0.8301 -0.0599  0.0707
 2386SOL    HW118794   1.522   3.435   7.256 -1.2871  2.4359 -0.6810
 2386SOL    HW218795   1.525   3.464   7.104  1.0680  0.2665  0.4704
 2387SOL     OW18796   3.469   4.428   2.154 -0.0144 -0.3323 -0.2079
 2387SOL    HW118797   3.480   4.518   2.122 -0.9302  0.4477  1.6937
 2387SOL    HW218798   3.408   4.399   2.086 -1.2093 -2.2449  1.6899
 2388SOL     OW18799   3.134   2.333   4.185  0.3666 -0.4672  0.0090
 2388SOL    HW118800   3.213   2.382   4.162  1.2063 -1.7237  0.2239
 2388SOL    HW218801   3.080   2.349   4.108 -0.1882 -1.5631  0.1660
 2389SOL     OW18802   3.109   4.112   6.390 -0.7923  0.2822 -0.4202
 2389SOL    HW118803   3.142   4.168   6.320  1.0152 -3.3374 -2.4886
 2389SOL    HW218804   3.057   4.168   6.446  3.0796  1.6037  1.8425
 2390SOL     OW18805   3.161   3.936   5.979  0.6623  0.4986  0.0575
 2390SOL    HW118806   3.129   4.024   5.956  1.2511  0.7225  0.0920
 2390SOL    HW218807   3.099   3.875   5.940 -1.7354  2.4508  0.8185
 2391SOL     OW18808   0.582   2.743   6.720 -0.2435 -0.0195  0.5562
 2391SOL    HW118809   0.496   2.778   6.739  0.4581  2.0218 -0.0550
 2391SOL    HW218810   0.560   2.650   6.720 -1.6396  0.3189 -0.1503
 2392SOL     OW18811   0.902   0.666   6.983 -0.4560 -0.3479  0.2054
 2392SOL    HW118812   0.877   0.672   6.890  0.2816 -2.0362 -0.0936
 2392SOL    HW218813   0.910   0.759   7.007 -0.5647 -0.0685 -0.7908
 2393SOL     OW18814   3.955   4.300   8.473 -0.0290  0.3758 -0.0341
 2393SOL    HW118815   4.017   4.366   8.442  0.2418 -0.0213 -0.3446
 2393SOL    HW218816   3.921   4.345   8.549  0.8470 -0.2407  0.7230
 2394SOL     OW18817   2.444   0.253   8.278  0.0653  0.1606 -0.9048
 2394SOL    HW118818   2.500   0.300   8.216 -1.0859  1.5490 -0.8951
 2394SOL    HW218819   2.455   0.308   8.356  2.5473 -1.3700 -0.1740
 2395SOL     OW18820   3.521   1.642   7.987 -0.5983 -0.2582  0.0968
 2395SOL    HW118821   3.588   1.588   8.028 -0.6264 -0.0013  0.4927
 2395SOL    HW218822   3.563   1.683   7.912 -0.6346  1.0952  0.8205
 2396SOL     OW18823   3.654   3.048  10.103 -0.4359  0.4488  0.2546
 2396SOL    HW118824   3.740   3.025  10.139  0.4220 -1.2413 -2.8340
 2396SOL    HW218825   3.613   2.976  10.150  1.5569 -0.7384  0.1623
 2397SOL     OW18826   3.436   4.305   0.151 -0.1537 -0.4554  0.3228
 2397SOL    HW118827   3.384   4.356   0.213 -0.0500 -0.1585  0.1650
 2397SOL    HW218828   3.455   4.369   0.083  3.1084 -0.3489  1.3717
 2398SOL     OW18829   3.545   2.457  10.167 -0.2267  0.0401  0.0663
 2398SOL    HW118830   3.514   2.479  10.255  0.4506 -1.4693  0.6684
 2398SOL    HW218831   3.461   2.448  10.121 -0.5251 -1.3210  0.9043
 2399SOL     OW18832   2.072   1.465   7.892 -0.1251 -0.8651  0.3282
 2399SOL    HW118833   2.078   1.550   7.934 -0.5437 -0.0595 -1.2183
 2399SOL    HW218834   2.013   1.420   7.952 -0.0400 -0.9518  0.3455
 2400SOL     OW18835   3.899   3.277  13.543 -0.2998  0.4236  0.4808
 2400SOL    HW118836   3.918   3.195  13.589 -0.6850  0.8344  1.3719
 2400SOL    HW218837   3.853   3.246  13.465  1.1626 -2.0968  0.6085
 2401SOL     OW18838   3.748   0.894  13.753 -0.4408  0.0502 -0.8153
 2401SOL    HW118839   3.671   0.889  13.696  1.4117 -0.7075 -3.2476
 2401SOL    HW218840   3.696   0.849  13.820  0.1687  3.5766  2.0187
 2402SOL     OW18841   1.969   2.607   9.682 -0.1985  0.6940  0.7252
 2402SOL    HW118842   1.891   2.588   9.629 -0.2627 -0.1459  1.1241
 2402SOL    HW218843   1.945   2.586   9.772 -0.6682 -1.8364  0.0024
 2403SOL     OW18844   2.277   1.702   5.233  0.2132  0.2776 -0.4425
 2403SOL    HW118845   2.235   1.719   5.317  1.4290 -1.7151  0.5797
 2403SOL    HW218846   2.250   1.775   5.177 -2.9503  0.5190  1.4423
 2404SOL     OW18847   1.281   0.003   2.858 -0.3205  0.3650  0.4186
 2404SOL    HW118848   1.190   0.034   2.850 -0.2024  0.1035 -1.8957
 2404SOL    HW218849   1.326   0.087   2.866 -0.5802  0.6693 -1.2355
 2405SOL     OW18850   0.110   0.065  15.578  0.2801  0.4759 -0.0042
 2405SOL    HW118851   0.061   0.116  15.514  2.5716  0.8417 -1.4806
 2405SOL    HW218852   0.185   0.123  15.594  0.7013  0.5800 -2.3569
 2406SOL     OW18853   2.278   2.069   3.540  0.1004 -0.3964 -0.2480
 2406SOL    HW118854   2.360   2.060   3.588  0.3209  1.7952 -0.2152
 2406SOL    HW218855   2.238   2.137   3.593  0.7559 -2.1479  2.5246
 2407SOL     OW18856   3.574   2.337   4.936 -0.0600 -0.6321 -0.3122
 2407SOL    HW118857   3.518   2.408   4.904  1.6662 -0.1727 -2.2679
 2407SOL    HW218858   3.525   2.254   4.935 -2.0204  0.5103 -0.5676
 2408SOL     OW18859   4.503   1.811   3.238 -0.1773  0.0235 -0.2214
 2408SOL    HW118860   4.534   1.721   3.227  0.5552  0.1496  0.6947
 2408SOL    HW218861   4.547   1.833   3.321  0.1182 -0.5465 -0.2208
 2409SOL     OW18862   2.632   3.362   0.684  0.1479  0.7087 -0.0087
 2409SOL    HW118863   2.565   3.308   0.725  2.2900 -1.2193  0.9601
 2409SOL    HW218864   2.711   3.318   0.714 -0.9085 -0.8726  0.4465
 2410SOL     OW18865   0.443   1.699   6.897 -0.5727 -0.7330  0.5052
 2410SOL    HW118866   0.526   1.683   6.943 -0.1156 -1.4562 -0.5618
 2410SOL    HW218867   0.452   1.792   6.877  0.5541 -0.6281  1.4861
 2411SOL     OW18868   4.567   0.058   6.939 -0.4559  0.3302  0.0648
 2411SOL    HW118869   4.501   0.101   6.993 -0.7889 -0.5683  0.3576
 2411SOL    HW218870   4.538   0.089   6.853 -2.9606 -0.9006  0.4757
 2412SOL     OW18871   1.766   2.951   4.855  0.6613 -0.0909  0.2676
 2412SOL    HW118872   1.855   2.981   4.837 -0.3213  1.9301 -1.1559
 2412SOL    HW218873   1.757   2.976   4.947  1.9289  1.0154  0.0852
 2413SOL     OW18874   1.184   0.922   5.442  0.2095  0.1526 -0.5638
 2413SOL    HW118875   1.220   0.964   5.364  1.6552 -1.4084 -0.7253
 2413SOL    HW218876   1.095   0.899   5.417 -0.3516  0.5689  1.0102
 2414SOL     OW18877   1.830   4.098   8.086 -0.9110  0.4957  0.0891
 2414SOL    HW118878   1.774   4.171   8.114  0.5541  1.2564  1.0508
 2414SOL    HW218879   1.813   4.023   8.143  1.7550 -0.2984 -0.1822
 2415SOL     OW18880   2.530   2.704   4.635  0.3544 -0.4864  0.1914
 2415SOL    HW118881   2.541   2.644   4.561  1.7425  0.7237 -0.5710
 2415SOL    HW218882   2.579   2.656   4.701  0.0453 -2.8012 -1.2695
 2416SOL     OW18883   3.594   3.659   4.677  0.3551  0.4913 -0.1555
 2416SOL    HW118884   3.532   3.672   4.749  1.6009 -2.3466  1.4252
 2416SOL    HW218885   3.677   3.677   4.722  0.3563 -0.6346  0.3107
 2417SOL     OW18886   4.410   3.044  14.339  0.8411 -0.5375 -0.1376
 2417SOL    HW118887   4.354   2.970  14.318  3.1451 -2.4547  0.5397
 2417SOL    HW218888   4.459   3.006  14.411  0.3484  0.9341  0.9852
 2418SOL     OW18889   3.320   1.972  16.397 -0.4908 -0.4117  0.0157
 2418SOL    HW118890   3.239   2.023  16.397 -0.6503 -0.6594 -1.5135
 2418SOL    HW218891   3.317   1.920  16.317 -0.0857  1.8126 -1.4425
 2419SOL     OW18892   1.742   3.766   5.988 -0.0646 -0.0975 -0.3621
 2419SOL    HW118893   1.779   3.698   5.932 -0.2926 -0.2056 -0.3776
 2419SOL    HW218894   1.748   3.738   6.080  0.3359  2.0626  0.2656
 2420SOL     OW18895   0.880   3.715   8.955  0.5884  0.5564 -0.0964
 2420SOL    HW118896   0.956   3.659   8.938  0.5754  0.4792  0.0995
 2420SOL    HW218897   0.912   3.802   8.931  0.1281  0.7792  0.1034
 2421SOL     OW18898   1.491   1.834   4.708 -0.7536 -0.2404 -0.2475
 2421SOL    HW118899   1.562   1.843   4.644 -0.3162  0.3773  0.3263
 2421SOL    HW218900   1.475   1.926   4.731  1.7707 -0.0619  0.7801
 2422SOL     OW18901   0.052   2.014  14.335  0.5400 -0.4993  0.4673
 2422SOL    HW118902   0.027   1.925  14.359  0.9821 -0.9632 -0.8300
 2422SOL    HW218903   0.129   2.004  14.279  1.7305 -2.2239  2.3731
 2423SOL     OW18904   0.790   3.483   5.247  0.2169  0.1351  0.1524
 2423SOL    HW118905   0.830   3.401   5.276  0.1581  0.6052  1.5658
 2423SOL    HW218906   0.717   3.476   5.308  0.6501  0.0721  0.6688
 2424SOL     OW18907   3.103   3.465   6.792  0.0478  0.0837  0.1506
 2424SOL    HW118908   3.018   3.505   6.805  0.3597  0.5421  0.7576
 2424SOL    HW218909   3.074   3.376   6.813 -3.0712  1.8907  3.4945
 2425SOL     OW18910   4.661   3.377  15.974  0.2129  0.1306 -1.0250
 2425SOL    HW118911   4.686   3.428  15.896 -0.8538 -0.2121 -1.5876
 2425SOL    HW218912   4.591   3.333  15.926  0.8525 -1.6860 -0.2840
 2426SOL     OW18913   2.717   1.214   5.965  0.1526 -0.0649 -1.0471
 2426SOL    HW118914   2.811   1.229   5.960  0.3736 -1.5124 -0.9905
 2426SOL    HW218915   2.713   1.194   6.058 -0.5197  3.1599 -0.3751
 2427SOL     OW18916   4.725   0.741   6.840  0.4004  0.4476 -0.3263
 2427SOL    HW118917   0.009   0.733   6.747  1.8627  0.5118 -0.0208
 2427SOL    HW218918   0.035   0.815   6.882 -1.2192 -0.4634  3.0679
 2428SOL     OW18919   2.371   0.409   7.092 -0.5646 -0.1229  0.6821
 2428SOL    HW118920   2.442   0.345   7.081 -1.2411 -0.9896  1.4136
 2428SOL    HW218921   2.315   0.346   7.137  0.3346 -1.8326 -0.5777
 2429SOL     OW18922   1.318   1.010   3.688  0.1021  0.1073  0.1668
 2429SOL    HW118923   1.240   1.057   3.719 -0.6996 -0.9113 -0.2628
 2429SOL    HW218924   1.297   0.917   3.698  1.2200 -0.0888  0.6742
 2430SOL     OW18925   4.304   3.971   3.326  0.1179  0.2935  0.1841
 2430SOL    HW118926   4.368   3.937   3.263  1.1933  1.0568  0.8693
 2430SOL    HW218927   4.360   3.999   3.398  0.7140  3.0323 -1.3509
 2431SOL     OW18928   3.047   0.969   2.869  0.3742 -0.3111  0.9158
 2431SOL    HW118929   2.975   0.919   2.832 -0.3306  1.7768 -0.5939
 2431SOL    HW218930   3.004   1.011   2.943  2.9333  3.2302  0.4324
 2432SOL     OW18931   0.060   4.037   6.215  0.2409  0.1436 -0.3601
 2432SOL    HW118932   4.716   4.084   6.239  0.8559  1.3674 -0.6567
 2432SOL    HW218933   0.049   3.970   6.282  0.7794 -0.3488 -0.7682
 2433SOL     OW18934   3.508   0.889   7.604 -0.2327  0.6392 -0.3598
 2433SOL    HW118935   3.469   0.972   7.580  0.0551  0.5454 -1.1334
 2433SOL    HW218936   3.594   0.888   7.562 -1.1171  2.0914 -2.1834
 2434SOL     OW18937   2.755   1.149   5.058  0.1441  0.0055 -0.2775
 2434SOL    HW118938   2.670   1.104   5.055  1.5463 -2.6908  0.2923
 2434SOL    HW218939   2.814   1.077   5.081  0.9487  1.3655  1.8956
 2435SOL     OW18940   2.092   1.130  15.545 -0.1198  0.2917 -0.4374
 2435SOL    HW118941   2.083   1.189  15.470 -0.9599  0.8970  0.1465
 2435SOL    HW218942   2.004   1.144  15.580  1.0608  1.8898  1.8413
 2436SOL     OW18943   2.372   0.662  14.593  0.6834 -0.0908  0.3696
 2436SOL    HW118944   2.298   0.601  14.594  0.0946  0.6809  2.5499
 2436SOL    HW218945   2.331   0.746  14.615  1.7723  0.5165  0.0607
 2437SOL     OW18946   3.831   1.458   5.020  0.2342  0.1416  0.2913
 2437SOL    HW118947   3.744   1.428   5.045 -0.1028  0.6070 -0.3061
 2437SOL    HW218948   3.816   1.550   5.041 -0.9545 -0.2648  1.2325
 2438SOL     OW18949   4.174   0.565   6.859 -0.5067 -0.1158  0.1366
 2438SOL    HW118950   4.217   0.484   6.831 -1.6842  0.0213 -2.1187
 2438SOL    HW218951   4.223   0.566   6.940 -0.7522  0.4021  0.2829
 2439SOL     OW18952   2.757   1.821   6.339 -0.2502  0.5308 -0.1731
 2439SOL    HW118953   2.688   1.818   6.273 -0.2971 -3.4947  0.0602
 2439SOL    HW218954   2.842   1.808   6.296 -0.6300  0.5660 -0.9347
 2440SOL     OW18955   0.812   4.670   3.093 -0.2222  0.2691 -0.0990
 2440SOL    HW118956   0.808   4.689   3.000  0.1623 -0.4597 -0.2636
 2440SOL    HW218957   0.792   4.576   3.089 -1.7186  0.6054 -0.4618
 2441SOL     OW18958   2.676   4.318   3.436 -0.7412  0.6024 -0.0434
 2441SOL    HW118959   2.694   4.400   3.391  0.4623  0.0684 -0.5336
 2441SOL    HW218960   2.609   4.350   3.496  0.6576  4.0581 -0.3524
 2442SOL     OW18961   4.252   3.023  17.183 -0.0092  0.4394 -0.3479
 2442SOL    HW118962   4.189   3.030  17.111 -0.1873  1.0646 -0.1349
 2442SOL    HW218963   4.335   3.038  17.139  0.4578  0.8684  0.6771
 2443SOL     OW18964   4.056   3.598  11.088  0.0957 -0.6433  0.4681
 2443SOL    HW118965   4.097   3.638  11.011 -2.4549  3.6920  1.3775
 2443SOL    HW218966   4.021   3.514  11.058  1.0925 -1.6036  1.9922
 2444SOL     OW18967   2.641   1.953  14.985  0.0272 -0.0984  0.4340
 2444SOL    HW118968   2.652   2.001  14.903  2.2687  2.4888  2.2588
 2444SOL    HW218969   2.683   2.018  15.041 -1.2825  1.3978 -0.3292
 2445SOL     OW18970   0.408   3.890  11.992 -0.2871  0.1126 -0.2918
 2445SOL    HW118971   0.360   3.953  12.046  1.6305 -0.3882  1.9913
 2445SOL    HW218972   0.364   3.811  12.023  0.9425 -0.3166  0.3429
 2446SOL     OW18973   3.126   3.456   0.940  0.3022  0.1378 -0.0461
 2446SOL    HW118974   3.189   3.383   0.937 -1.7641 -1.6259 -0.3405
 2446SOL    HW218975   3.158   3.496   1.021  0.0908 -0.7622  0.4836
 2447SOL     OW18976   3.091   3.867   2.971 -0.1371  0.4866  0.1998
 2447SOL    HW118977   3.115   3.779   3.000 -0.3249  0.3630 -0.0189
 2447SOL    HW218978   3.026   3.892   3.037  0.5062 -0.4206  1.1906
 2448SOL     OW18979   2.264   2.171   7.024  0.6985 -0.6379 -0.7662
 2448SOL    HW118980   2.259   2.129   6.938  2.7714  0.5826 -1.4749
 2448SOL    HW218981   2.174   2.187   7.053  1.0839  0.2126 -0.0248
 2449SOL     OW18982   1.411   4.383   1.937  0.3262 -0.2450 -0.2111
 2449SOL    HW118983   1.484   4.404   1.878 -0.7715 -0.6260 -1.6964
 2449SOL    HW218984   1.376   4.472   1.939  1.8767  0.3534  0.6760
 2450SOL     OW18985   3.799   0.550   8.284  0.1808 -0.3869 -0.6146
 2450SOL    HW118986   3.858   0.475   8.294  0.0815 -0.4226 -0.2781
 2450SOL    HW218987   3.722   0.517   8.329  1.1986  0.9379  2.0963
 2451SOL     OW18988   2.517   3.948   7.149 -0.0467 -0.0880 -0.3382
 2451SOL    HW118989   2.570   3.934   7.071  1.6696  0.4460  0.7284
 2451SOL    HW218990   2.493   4.040   7.139 -0.9125 -0.3522 -0.6720
 2452SOL     OW18991   2.353   0.540  12.843 -0.2271  0.2262 -0.2922
 2452SOL    HW118992   2.336   0.625  12.803  0.2938  0.4929  0.0601
 2452SOL    HW218993   2.299   0.544  12.923  0.6955 -1.6574  0.4170
 2453SOL     OW18994   2.215   3.641  11.881  0.1711 -0.0937  0.4377
 2453SOL    HW118995   2.260   3.673  11.804 -0.3808  0.4006  0.3224
 2453SOL    HW218996   2.154   3.714  11.889 -1.9531 -2.0279  1.8558
 2454SOL     OW18997   1.662   2.911   6.128 -0.3377  0.2044  0.0921
 2454SOL    HW118998   1.747   2.942   6.095  0.0164 -0.7699  0.1000
 2454SOL    HW218999   1.617   2.990   6.156 -0.5358 -0.8665  2.7301
 2455SOL     OW19000   4.256   4.309   7.723  0.4191 -0.4057  0.3939
 2455SOL    HW119001   4.183   4.253   7.696  0.3907 -0.0029 -0.3457
 2455SOL    HW219002   4.278   4.351   7.640  3.7140  0.6111  1.7997
 2456SOL     OW19003   2.690   2.581   1.996  0.4257 -0.1516  0.2364
 2456SOL    HW119004   2.648   2.509   1.949  0.2629  2.4986 -3.7244
 2456SOL    HW219005   2.626   2.651   1.982  3.1923  2.7873  2.3096
 2457SOL     OW19006   4.158   0.481   8.195 -0.2004 -0.1473  0.4192
 2457SOL    HW119007   4.189   0.549   8.135  1.0385 -0.7532  0.3828
 2457SOL    HW219008   4.073   0.463   8.154  0.1447 -1.3575  0.2378
 2458SOL     OW19009   1.349   2.896   8.431  0.1955 -0.2645  0.4250
 2458SOL    HW119010   1.441   2.879   8.414  0.0771 -2.4826  1.9902
 2458SOL    HW219011   1.318   2.816   8.474  0.0771 -0.7302 -0.5329
 2459SOL     OW19012   0.353   1.574   2.758 -0.2798  0.4637 -0.2176
 2459SOL    HW119013   0.290   1.511   2.794  0.5791  0.2234  0.8763
 2459SOL    HW219014   0.399   1.520   2.695 -1.1187 -0.4684 -0.0335
 2460SOL     OW19015   0.925   0.552   8.174  0.2685  0.0563  0.7231
 2460SOL    HW119016   0.851   0.569   8.232 -0.4163 -0.9900  0.1453
 2460SOL    HW219017   0.908   0.619   8.107 -1.0598 -1.1652 -0.1488
 2461SOL     OW19018   1.783   0.847  17.133  0.5900  0.4625 -0.1096
 2461SOL    HW119019   1.806   0.781  17.068 -1.3986  0.7685 -1.1505
 2461SOL    HW219020   1.856   0.908  17.122  1.2735  0.0090  1.9923
 2462SOL     OW19021   3.538   2.077   8.798  0.6674 -0.0872  0.1072
 2462SOL    HW119022   3.449   2.102   8.771  1.1684  2.1045  0.4578
 2462SOL    HW219023   3.555   2.132   8.875  1.6433 -1.0183  0.5634
 2463SOL     OW19024   2.772   1.242   8.858  0.0762 -0.3750 -0.5751
 2463SOL    HW119025   2.728   1.322   8.889  0.9131 -0.4715  0.8435
 2463SOL    HW219026   2.833   1.228   8.930 -0.5305  0.1364  0.0363
 2464SOL     OW19027   3.827   3.545   1.976  0.3682 -0.1719 -0.2035
 2464SOL    HW119028   3.748   3.591   2.003  0.6763  0.9522 -1.2009
 2464SOL    HW219029   3.892   3.551   2.046 -0.4156 -2.1752  0.7060
 2465SOL     OW19030   1.872   3.302   7.272 -0.0096  0.2957 -0.0400
 2465SOL    HW119031   1.849   3.220   7.316 -0.2517 -0.5289 -1.7342
 2465SOL    HW219032   1.835   3.366   7.333 -2.1253 -0.7222 -0.2516
 2466SOL     OW19033   3.437   1.730   4.440 -0.3847 -0.7701 -0.1936
 2466SOL    HW119034   3.510   1.786   4.467 -0.6675 -1.1171  1.2449
 2466SOL    HW219035   3.404   1.694   4.521 -0.7836 -1.4148 -0.6435
 2467SOL     OW19036   2.940   4.125   9.041  0.6927 -0.5291  0.2105
 2467SOL    HW119037   2.859   4.150   9.084  0.4122  1.4448 -1.4037
 2467SOL    HW219038   2.920   4.155   8.952  1.3499  3.8521  1.5345
 2468SOL     OW19039   2.966   1.370   2.211  0.1561 -0.2559  0.3544
 2468SOL    HW119040   2.969   1.456   2.254  0.0775 -0.8022  1.4722
 2468SOL    HW219041   2.988   1.317   2.288  0.2515 -0.5186  0.1469
 2469SOL     OW19042   3.828   2.219   6.476  0.5869 -0.2146  0.3516
 2469SOL    HW119043   3.816   2.231   6.570 -0.1591  1.9552 -0.0123
 2469SOL    HW219044   3.824   2.124   6.479  0.8192 -0.2470 -0.3361
 2470SOL     OW19045   2.719   3.536   5.801 -0.8597  0.3373 -0.0522
 2470SOL    HW119046   2.805   3.531   5.758 -0.3347 -0.9363  1.1365
 2470SOL    HW219047   2.707   3.442   5.814 -1.6528  0.6207  1.2356
 2471SOL     OW19048   3.701   3.437   1.248 -0.0323  0.0116  0.2168
 2471SOL    HW119049   3.765   3.409   1.313  0.0803  0.7157  0.4141
 2471SOL    HW219050   3.662   3.513   1.293 -0.7172 -0.9242  1.2006
 2472SOL     OW19051   4.019   3.862   5.108  0.3427  0.9087 -0.0254
 2472SOL    HW119052   4.007   3.866   5.203  1.0126 -2.0426  0.1577
 2472SOL    HW219053   4.059   3.946   5.086 -0.3371  1.8296  2.2150
 2473SOL     OW19054   3.983   3.698   2.826 -0.1215 -0.2030 -0.4041
 2473SOL    HW119055   3.992   3.782   2.870  0.2531 -0.2475 -0.3975
 2473SOL    HW219056   3.904   3.653   2.857 -0.2386  0.0510 -0.3402
 2474SOL     OW19057   2.632   1.465   4.058  0.1273  0.2769  0.2545
 2474SOL    HW119058   2.711   1.519   4.064  0.4170 -0.1461  0.2529
 2474SOL    HW219059   2.649   1.406   4.131  0.0286  1.3862  1.1729
 2475SOL     OW19060   4.583   1.069   1.985  0.3658 -0.4514 -0.3714
 2475SOL    HW119061   4.521   1.012   1.940  1.0461 -1.2867 -0.2504
 2475SOL    HW219062   4.567   1.152   1.940 -1.4511 -1.0798 -0.8864
 2476SOL     OW19063   0.348   2.276   6.827  0.1258  0.1664 -0.0784
 2476SOL    HW119064   0.296   2.198   6.846  0.8216  0.0409  1.3075
 2476SOL    HW219065   0.411   2.284   6.898  0.9968  0.8864 -0.9337
 2477SOL     OW19066   0.568   2.301  17.127 -0.0848 -0.3639 -0.5433
 2477SOL    HW119067   0.590   2.390  17.100 -1.3495 -0.1525 -0.8793
 2477SOL    HW219068   0.544   2.322  17.217  3.8741  2.6589 -0.1767
 2478SOL     OW19069   1.663   2.329   1.293  0.2476 -0.0707 -0.5781
 2478SOL    HW119070   1.617   2.313   1.211  1.9051 -0.7461 -1.3974
 2478SOL    HW219071   1.745   2.362   1.256  0.2354  0.3040 -0.2660
 2479SOL     OW19072   2.160   4.145   7.131 -0.3398 -0.0321 -0.1977
 2479SOL    HW119073   2.084   4.187   7.170 -1.1828  0.2453 -2.1201
 2479SOL    HW219074   2.141   4.140   7.037  0.4083 -0.8442 -0.2997
 2480SOL     OW19075   3.838   0.316   1.162  0.1188  0.2025 -0.6884
 2480SOL    HW119076   3.800   0.232   1.189  2.3724 -0.1173  1.4917
 2480SOL    HW219077   3.930   0.304   1.187  0.1649 -0.3952 -1.1401
 2481SOL     OW19078   3.095   0.374   4.892 -0.0387 -0.4130 -0.4277
 2481SOL    HW119079   3.135   0.298   4.850  1.6137 -0.0457  0.4740
 2481SOL    HW219080   3.004   0.345   4.890 -0.3904  0.6783 -0.3144
 2482SOL     OW19081   0.843   2.530   7.700  0.0510 -0.4643 -0.2302
 2482SOL    HW119082   0.826   2.442   7.666 -1.9274 -0.2593  0.2219
 2482SOL    HW219083   0.935   2.528   7.725  0.3059 -0.5462 -1.2006
 2483SOL     OW19084   3.098   1.281  15.721  0.6182 -0.2103  0.1239
 2483SOL    HW119085   3.063   1.310  15.636 -1.8691 -0.4079  1.0801
 2483SOL    HW219086   3.158   1.351  15.746  1.0500 -0.1131 -1.1749
 2484SOL     OW19087   1.587   4.247   6.476  0.1294 -0.1173 -0.3906
 2484SOL    HW119088   1.672   4.207   6.493 -0.4576 -1.1892  0.0225
 2484SOL    HW219089   1.556   4.180   6.415 -0.9959 -0.9542  1.0824
 2485SOL     OW19090   4.348   0.536   3.663  1.1097 -0.1397  0.2572
 2485SOL    HW119091   4.383   0.596   3.729 -2.0209  0.9406  0.8970
 2485SOL    HW219092   4.422   0.505   3.609  1.6822 -0.0826  1.0070
 2486SOL     OW19093   2.113   3.964   2.769  0.4166 -0.3020 -0.3720
 2486SOL    HW119094   2.157   3.892   2.722 -0.3865 -0.2538 -1.2133
 2486SOL    HW219095   2.061   3.916   2.834 -1.6824  3.0924  0.4291
 2487SOL     OW19096   1.834   0.117   3.215  0.1450 -0.5175 -0.3388
 2487SOL    HW119097   1.763   0.153   3.162 -1.2989 -2.8418  0.0576
 2487SOL    HW219098   1.813   0.024   3.219 -0.4094 -0.4426 -1.5446
 2488SOL     OW19099   2.738   0.792   7.864  0.5650 -0.6672 -0.0247
 2488SOL    HW119100   2.741   0.727   7.934  0.6797  0.2655  0.8418
 2488SOL    HW219101   2.647   0.806   7.840  0.5233  0.1915  0.6420
 2489SOL     OW19102   4.145   2.917  15.832 -0.1818  0.4611  0.3393
 2489SOL    HW119103   4.125   2.848  15.769 -0.7551  0.9264  0.0188
 2489SOL    HW219104   4.120   3.001  15.795 -0.6770 -0.6931 -1.9084
 2490SOL     OW19105   4.200   3.365   2.353  0.3323  0.0121  0.2499
 2490SOL    HW119106   4.167   3.446   2.393 -0.2505  0.9002 -2.0595
 2490SOL    HW219107   4.156   3.302   2.410  2.5032 -1.6608  0.0691
 2491SOL     OW19108   0.960   4.524   6.280  0.7149  0.2721  0.1047
 2491SOL    HW119109   1.010   4.448   6.251 -0.9010  0.6136 -3.6487
 2491SOL    HW219110   0.886   4.523   6.219  1.2868  0.4049 -0.5917
 2492SOL     OW19111   4.264   4.592   4.936  0.9606 -0.2062  0.4561
 2492SOL    HW119112   4.299   4.520   4.885 -0.6818 -0.1566 -0.7185
 2492SOL    HW219113   4.220   4.541   5.005  2.0865 -1.8763 -0.0799
 2493SOL     OW19114   0.662   3.895   1.949  0.7712  0.1234 -0.7386
 2493SOL    HW119115   0.733   3.960   1.947  0.9758 -0.0665  0.9877
 2493SOL    HW219116   0.599   3.950   1.903 -1.9944 -1.7740  0.7909
 2494SOL     OW19117   3.070   1.999   1.921 -0.1180  0.1666 -0.0338
 2494SOL    HW119118   3.117   1.934   1.973 -0.6236  1.0877  1.5490
 2494SOL    HW219119   3.152   2.034   1.886 -0.4853  1.2192  0.1840
 2495SOL     OW19120   2.994   0.689   2.550  0.0613 -0.3414  0.3029
 2495SOL    HW119121   2.913   0.685   2.498  0.3474  0.6337 -0.2235
 2495SOL    HW219122   3.003   0.784   2.545 -0.7831 -0.2744 -0.0625
 2496SOL     OW19123   1.193   0.284   1.712 -0.2376 -0.0707  0.0390
 2496SOL    HW119124   1.239   0.350   1.763 -1.5096  0.4573  0.5133
 2496SOL    HW219125   1.103   0.317   1.707 -0.9256 -2.1688 -1.3526
 2497SOL     OW19126   3.445   4.544  17.714 -0.9492 -0.1733 -0.1850
 2497SOL    HW119127   3.499   4.622  17.727 -0.5032 -0.8222  1.8622
 2497SOL    HW219128   3.372   4.582  17.664 -2.8105 -3.1147  0.2882
 2498SOL     OW19129   2.285   2.307   5.929 -0.5449 -0.0869 -0.0548
 2498SOL    HW119130   2.209   2.280   5.981  0.0857 -1.0929  0.3285
 2498SOL    HW219131   2.259   2.400   5.929  3.1292  0.9115  1.5751
 2499SOL     OW19132   3.052   1.972  16.426 -0.0049 -0.4561 -0.6025
 2499SOL    HW119133   2.966   1.931  16.432 -0.3059  0.7876  3.3494
 2499SOL    HW219134   3.088   1.950  16.512  2.0488  1.2667 -1.0066
 2500SOL     OW19135   4.308   2.474  16.503  0.2070  0.1300  0.1456
 2500SOL    HW119136   4.322   2.465  16.597 -1.0522 -1.8002  0.1476
 2500SOL    HW219137   4.379   2.536  16.488  0.8969 -0.4048  1.2376
 2501SOL     OW19138   0.393   4.051   1.824  0.2910 -0.4989  0.2598
 2501SOL    HW119139   0.421   4.046   1.732 -0.1897 -1.7692  0.1833
 2501SOL    HW219140   0.301   4.068   1.808  0.2110  0.4962  1.8539
 2502SOL     OW19141   3.707   4.605   3.747  0.1754 -0.7640 -0.1456
 2502SOL    HW119142   3.681   4.601   3.839  1.5524  0.9421  0.3153
 2502SOL    HW219143   3.774   4.674   3.752 -0.9579  0.5095 -2.6899
 2503SOL     OW19144   2.765   4.014   4.257  0.3778 -0.4034 -0.0489
 2503SOL    HW119145   2.841   3.957   4.248  0.9475  0.5630 -1.1742
 2503SOL    HW219146   2.720   3.991   4.176  2.8869  1.7997 -2.0554
 2504SOL     OW19147   0.184   3.134  14.662 -0.1780 -0.6876  0.1882
 2504SOL    HW119148   0.251   3.177  14.715 -2.2746  0.5352  1.8289
 2504SOL    HW219149   0.221   3.049  14.636  0.1638  0.0311 -1.6606
 2505SOL     OW19150   0.247   1.755   4.070  0.2595 -0.3938  0.9583
 2505SOL    HW119151   0.314   1.739   4.136  0.4522  2.6343  1.4988
 2505SOL    HW219152   0.197   1.675   4.083  0.6466 -1.0050 -1.2197
 2506SOL     OW19153   3.437   3.143   3.980  0.0875 -0.4757 -0.4922
 2506SOL    HW119154   3.506   3.162   4.044  0.4921  0.3624 -1.1639
 2506SOL    HW219155   3.424   3.048   3.976 -0.4328 -0.4960  2.3879
 2507SOL     OW19156   3.266   4.270   2.314  0.4027 -0.1655  0.4692
 2507SOL    HW119157   3.303   4.358   2.317  1.5526 -0.7073  2.1363
 2507SOL    HW219158   3.349   4.223   2.326  0.6496  0.1304 -0.0600
 2508SOL     OW19159   2.352   2.219  11.423 -0.2759  0.5033  0.2163
 2508SOL    HW119160   2.290   2.274  11.375  0.3483  1.0017 -0.0211
 2508SOL    HW219161   2.416   2.286  11.447 -1.8338  1.8778  0.4985
 2509SOL     OW19162   3.709   3.250  14.535 -0.2137  0.0122 -0.6916
 2509SOL    HW119163   3.686   3.239  14.443 -1.2707  0.9570 -0.5452
 2509SOL    HW219164   3.805   3.251  14.537 -0.2022  1.2082 -1.3963
 2510SOL     OW19165   1.801   4.092   3.926  0.3045 -0.2842 -0.0520
 2510SOL    HW119166   1.731   4.145   3.890  1.1715  0.6982 -0.2820
 2510SOL    HW219167   1.806   4.018   3.866 -0.2062  1.3415 -2.0871
 2511SOL     OW19168   1.436   4.237   2.922  0.2735  0.1754 -0.3634
 2511SOL    HW119169   1.428   4.331   2.911 -0.3839  0.1938  0.3493
 2511SOL    HW219170   1.345   4.216   2.942  0.2930  1.4610  1.0291
 2512SOL     OW19171   3.110   0.073   5.533  0.7052 -0.1699 -0.3158
 2512SOL    HW119172   3.184   0.039   5.483  0.9103  1.7528 -1.3332
 2512SOL    HW219173   3.093   0.002   5.595 -0.8206  0.6889  0.2677
 2513SOL     OW19174   2.597   4.510  10.700  0.2235 -0.2962 -0.4148
 2513SOL    HW119175   2.633   4.573  10.762 -1.5171 -0.4071  0.7094
 2513SOL    HW219176   2.632   4.542  10.617 -0.7243  1.3770 -0.1779
 2514SOL     OW19177   4.469   2.855   6.754  0.5542 -0.1131 -0.2331
 2514SOL    HW119178   4.553   2.860   6.708  0.7493  0.7672  0.2340
 2514SOL    HW219179   4.422   2.929   6.716 -0.0756  0.5057  1.7754
 2515SOL     OW19180   4.518   1.914   9.668  0.3846 -0.4540 -0.0905
 2515SOL    HW119181   4.559   1.830   9.691  0.1993 -0.1392  1.4261
 2515SOL    HW219182   4.522   1.919   9.573  0.3835 -2.9014 -0.2211
 2516SOL     OW19183   1.223   0.736   1.355 -0.2785  0.2091  0.8783
 2516SOL    HW119184   1.243   0.805   1.419  1.5148 -0.3010  0.8819
 2516SOL    HW219185   1.241   0.659   1.410  2.0031  0.5598  0.6273
 2517SOL     OW19186   1.950   1.207  13.787 -0.2923 -0.0869 -0.0634
 2517SOL    HW119187   2.012   1.138  13.763 -0.1092  0.9987 -2.6650
 2517SOL    HW219188   1.929   1.191  13.879  1.5081  1.1963  0.5779
 2518SOL     OW19189   0.541   1.245   4.463 -0.2158 -0.0333 -0.3724
 2518SOL    HW119190   0.595   1.166   4.456  1.8882  1.4955 -1.3795
 2518SOL    HW219191   0.525   1.252   4.557  0.9574  0.0463 -0.1744
 2519SOL     OW19192   2.876   1.323   5.412  0.3690  0.3183  0.2554
 2519SOL    HW119193   2.879   1.227   5.418  0.0579  0.1855 -1.5793
 2519SOL    HW219194   2.878   1.339   5.318 -0.8763 -0.8831  0.0197
 2520SOL     OW19195   4.126   3.206   4.702 -0.2219  0.8011  0.8417
 2520SOL    HW119196   4.046   3.235   4.658 -2.2428 -0.6043  3.5521
 2520SOL    HW219197   4.176   3.287   4.703  1.6950 -0.3890 -0.8254
 2521SOL     OW19198   4.164   0.463  15.414 -0.0457 -0.1662  0.3934
 2521SOL    HW119199   4.129   0.375  15.401 -0.4730  0.1734 -0.7281
 2521SOL    HW219200   4.168   0.479  15.508 -1.9898  1.9112  0.1019
 2522SOL     OW19201   3.442   3.702   2.302  0.0565  0.4735 -0.0590
 2522SOL    HW119202   3.458   3.789   2.339  2.4614  0.6619 -1.5565
 2522SOL    HW219203   3.529   3.663   2.315 -1.2156 -2.4914 -0.4488
 2523SOL     OW19204   3.271   3.973   5.220 -0.8987  0.3139 -0.1989
 2523SOL    HW119205   3.246   4.062   5.245  0.8057  1.3195 -2.1029
 2523SOL    HW219206   3.332   3.942   5.287  0.3819  1.8747 -0.6603
 2524SOL     OW19207   0.738   0.081   5.486  0.1091 -0.0901  0.2377
 2524SOL    HW119208   0.714   0.173   5.497  2.4307  0.6432 -0.7119
 2524SOL    HW219209   0.732   0.068   5.391  0.0231  0.4548  0.1673
 2525SOL     OW19210   0.365   2.275  16.571  0.3225  0.4609 -0.3394
 2525SOL    HW119211   0.377   2.289  16.665 -0.9837 -0.3602 -0.0392
 2525SOL    HW219212   0.433   2.336  16.545 -0.4079  0.9762 -1.0570
 2526SOL     OW19213   3.325   1.249   0.478  0.0610 -0.0105 -0.9669
 2526SOL    HW119214   3.347   1.325   0.530  1.5632 -2.8392  2.4972
 2526SOL    HW219215   3.267   1.291   0.415 -0.3637  0.6793 -0.1030
 2527SOL     OW19216   2.476   2.945   0.728  0.1005 -0.2694  0.0043
 2527SOL    HW119217   2.453   3.018   0.670 -3.1262 -1.8712 -0.6869
 2527SOL    HW219218   2.572   2.953   0.726  0.2097 -1.6770  0.0786
 2528SOL     OW19219   3.957   3.283   8.332 -0.7065 -0.1949  0.5945
 2528SOL    HW119220   3.945   3.373   8.304  2.1818 -0.3720 -1.2967
 2528SOL    HW219221   3.866   3.271   8.357 -0.4338  2.6852  2.8725
 2529SOL     OW19222   2.730   3.847  11.878  0.0605  0.2662 -0.2020
 2529SOL    HW119223   2.798   3.874  11.939 -0.2172  0.6481 -0.0637
 2529SOL    HW219224   2.681   3.927  11.856  0.9437  0.9779  0.4189
 2530SOL     OW19225   4.280   3.511  11.923 -0.3764  0.1347  0.1756
 2530SOL    HW119226   4.194   3.510  11.880 -1.3928  0.8835  2.1877
 2530SOL    HW219227   4.257   3.520  12.015  2.9349 -1.6105  1.1652
 2531SOL     OW19228   0.736   0.455   5.226 -0.1341 -0.0873 -0.1410
 2531SOL    HW119229   0.771   0.375   5.185  0.0436  0.2879 -0.7147
 2531SOL    HW219230   0.698   0.502   5.152 -0.6322 -0.0917  0.1142
 2532SOL     OW19231   3.604   0.769   5.143 -0.1531  0.2845 -0.1038
 2532SOL    HW119232   3.597   0.864   5.152  2.1418  0.5597 -1.4132
 2532SOL    HW219233   3.599   0.736   5.233 -1.0479  1.8980  0.4399
 2533SOL     OW19234   4.206   0.898   3.937  0.1600  0.1109  0.2419
 2533SOL    HW119235   4.226   0.989   3.959  0.7679  0.4270 -1.6892
 2533SOL    HW219236   4.267   0.858   4.000 -1.3443  0.3585  1.8735
 2534SOL     OW19237   1.638   0.155   9.230 -0.5113 -0.5632 -0.5935
 2534SOL    HW119238   1.686   0.228   9.193 -0.0495  0.8861  2.8640
 2534SOL    HW219239   1.704   0.085   9.231  2.1047  1.9250 -0.8098
 2535SOL     OW19240   0.925   1.201   4.849 -0.3625  0.0834 -0.5285
 2535SOL    HW119241   0.857   1.137   4.826 -1.0085  1.3024 -1.9236
 2535SOL    HW219242   0.877   1.269   4.896  1.6957  0.8736  0.4331
 2536SOL     OW19243   0.801   0.228   2.323 -0.4485  0.1586  0.4510
 2536SOL    HW119244   0.787   0.280   2.402 -0.1141  0.8441  0.0558
 2536SOL    HW219245   0.880   0.178   2.345 -1.0950 -0.5406  1.1732
 2537SOL     OW19246   3.948   1.181   5.944 -0.3966 -0.2425  0.4210
 2537SOL    HW119247   3.916   1.265   5.910 -0.3470  0.1794  1.4066
 2537SOL    HW219248   3.925   1.129   5.867  1.1500 -0.0078 -0.2097
 2538SOL     OW19249   4.359   2.754   9.221  0.4560 -0.0501  0.1190
 2538SOL    HW119250   4.441   2.707   9.231  1.4938  1.8193  0.5129
 2538SOL    HW219251   4.387   2.837   9.181 -2.6519  1.2207  0.5737
 2539SOL     OW19252   0.952   2.091  16.942 -0.0583  0.3687 -0.2287
 2539SOL    HW119253   1.009   2.050  16.877 -0.0347 -0.2418  0.1878
 2539SOL    HW219254   0.869   2.103  16.896 -1.5281  0.1760  2.3776
 2540SOL     OW19255   0.615   4.219   6.721 -0.0909 -0.2478  0.1216
 2540SOL    HW119256   0.616   4.274   6.800 -0.0643  0.5893 -0.4629
 2540SOL    HW219257   0.534   4.176   6.751 -0.9719  1.5525  0.3082
 2541SOL     OW19258   1.744   0.300   2.034 -0.6672 -0.1881 -0.6331
 2541SOL    HW119259   1.676   0.279   1.971  0.2684 -1.5962 -1.1691
 2541SOL    HW219260   1.819   0.250   2.001 -1.5714 -1.5118 -0.6348
 2542SOL     OW19261   1.283   3.708   8.871  0.0447 -0.0351  0.0340
 2542SOL    HW119262   1.208   3.658   8.901 -1.3079  0.6898 -2.1670
 2542SOL    HW219263   1.265   3.720   8.777 -1.6373 -2.9586  0.0107
 2543SOL     OW19264   4.717   3.785   6.284  0.0079 -0.0384 -0.4779
 2543SOL    HW119265   4.696   3.701   6.323 -0.8618 -0.4369 -1.8076
 2543SOL    HW219266   4.661   3.784   6.206 -0.3905  0.5926 -0.2036
 2544SOL     OW19267   2.306   2.571   5.173  0.5101 -0.2159 -0.1280
 2544SOL    HW119268   2.322   2.632   5.245  0.3455  0.6774 -0.8534
 2544SOL    HW219269   2.289   2.488   5.218  1.7310 -0.0794  0.5772
 2545SOL     OW19270   1.038   4.340   1.651 -0.3857  0.1337  0.5380
 2545SOL    HW119271   1.069   4.407   1.590  2.0654  1.3681  3.1095
 2545SOL    HW219272   1.011   4.391   1.727 -0.1757  1.4684 -0.2741
 2546SOL     OW19273   0.293   1.516   5.758 -0.5948 -0.0830  0.3302
 2546SOL    HW119274   0.361   1.474   5.811  0.1505 -1.1462 -1.4563
 2546SOL    HW219275   0.232   1.543   5.827 -0.3686  3.6892 -0.9514
 2547SOL     OW19276   2.773   3.139   8.065  0.0002  0.3789  0.1197
 2547SOL    HW119277   2.755   3.113   8.156 -2.5315  2.0797  0.0728
 2547SOL    HW219278   2.742   3.056   8.029 -0.2263  0.1038  0.9479
 2548SOL     OW19279   4.176   2.288  14.890 -0.7500  0.0065  0.1902
 2548SOL    HW119280   4.103   2.343  14.861 -0.2204  1.1392  1.0051
 2548SOL    HW219281   4.251   2.307  14.834 -0.0818  1.1516  1.4594
 2549SOL     OW19282   2.144   3.668   2.101 -0.3065  0.1965 -0.6153
 2549SOL    HW119283   2.200   3.746   2.104  1.1592 -0.8472 -0.5857
 2549SOL    HW219284   2.154   3.650   2.008 -0.1563  3.1651 -1.1847
 2550SOL     OW19285   3.910   1.996  15.819 -0.1645 -0.4272  0.0531
 2550SOL    HW119286   3.898   1.916  15.768  1.5896 -0.6024 -0.0805
 2550SOL    HW219287   4.006   1.993  15.815 -0.1529 -0.8019  0.6789
 2551SOL     OW19288   2.178   1.825  17.135  0.1532 -0.0697  0.5821
 2551SOL    HW119289   2.135   1.805  17.219 -0.2509 -0.5093  0.2699
 2551SOL    HW219290   2.120   1.900  17.116  1.3884  1.0909  1.4277
 2552SOL     OW19291   1.820   0.539   3.981  0.8542 -0.1043 -0.0331
 2552SOL    HW119292   1.782   0.514   3.897  1.0735 -1.9679  0.4190
 2552SOL    HW219293   1.775   0.481   4.043 -0.8251  0.8932 -0.3232
 2553SOL     OW19294   0.281   1.256  15.804  0.4939 -0.0375  0.3805
 2553SOL    HW119295   0.213   1.305  15.850  0.4854  0.9477 -0.7004
 2553SOL    HW219296   0.221   1.196  15.758  2.4292 -2.3352  0.8350
 2554SOL     OW19297   1.262   0.982   4.544 -0.1213 -0.0546 -0.3994
 2554SOL    HW119298   1.236   1.037   4.470  1.6182 -0.2348 -1.1474
 2554SOL    HW219299   1.223   1.035   4.614  0.9931  0.0410  0.1567
 2555SOL     OW19300   1.840   1.777   3.601  0.3895 -0.1605 -0.0425
 2555SOL    HW119301   1.878   1.696   3.567 -1.3335 -1.5561  1.3774
 2555SOL    HW219302   1.772   1.739   3.657  0.2840  0.8170  0.4938
 2556SOL     OW19303   2.049   1.114  11.370 -0.3120  0.3805 -0.1745
 2556SOL    HW119304   2.087   1.100  11.457 -0.9282 -0.9756 -0.1306
 2556SOL    HW219305   2.049   1.209  11.382  0.7825  0.5031 -1.1838
 2557SOL     OW19306   3.750   4.619  11.086 -0.2194  0.2946 -0.0620
 2557SOL    HW119307   3.775   4.675  11.012  1.1463 -0.9728 -0.5429
 2557SOL    HW219308   3.654   4.616  11.081 -0.2051 -0.3793  0.1670
 2558SOL     OW19309   2.649   3.982   6.884 -0.1749  0.0521  0.5096
 2558SOL    HW119310   2.690   4.068   6.888  1.6847 -0.8163 -0.0971
 2558SOL    HW219311   2.579   3.998   6.821  1.2981  1.7552 -0.6930
 2559SOL     OW19312   3.346   1.341   8.036 -0.2579 -0.0338  0.4991
 2559SOL    HW119313   3.281   1.405   8.065 -0.5243 -0.6976  1.3631
 2559SOL    HW219314   3.321   1.273   8.098 -0.4910 -0.9429 -0.5915
 2560SOL     OW19315   2.505   0.779   3.242 -0.1171 -0.0215 -0.4945
 2560SOL    HW119316   2.518   0.723   3.166 -2.9013 -1.3108 -0.0311
 2560SOL    HW219317   2.550   0.858   3.212  2.4828 -0.9653  0.9628
 2561SOL     OW19318   0.593   0.296   4.881  0.2729 -0.3071  0.0319
 2561SOL    HW119319   0.515   0.288   4.827  0.0143  0.4579  0.2911
 2561SOL    HW219320   0.606   0.208   4.917 -3.1734 -0.4956  0.8225
 2562SOL     OW19321   3.061   1.424  15.996 -0.4763  0.1923 -0.0651
 2562SOL    HW119322   3.133   1.440  15.935 -0.4036 -1.8004 -0.5036
 2562SOL    HW219323   3.050   1.506  16.044  0.2495  0.3205 -0.1236
 2563SOL     OW19324   2.559   4.672   5.136  0.4571  0.4327  0.0487
 2563SOL    HW119325   2.607   4.708   5.061  1.6196 -1.1640  0.0512
 2563SOL    HW219326   2.487   4.631   5.087  0.4326 -0.3226  0.7367
 2564SOL     OW19327   0.753   1.064   9.369  0.5412 -0.0835 -0.2569
 2564SOL    HW119328   0.816   1.000   9.401 -0.0493  0.0235  1.1281
 2564SOL    HW219329   0.785   1.083   9.281 -0.2623 -1.3632 -0.8194
 2565SOL     OW19330   4.509   1.592   2.690 -0.3549 -0.4496 -0.1054
 2565SOL    HW119331   4.505   1.509   2.738  0.9743 -1.4581 -1.7464
 2565SOL    HW219332   4.536   1.653   2.758 -0.1061 -2.1347  1.3254
 2566SOL     OW19333   1.317   1.785   5.652  0.2990  0.0673  0.0285
 2566SOL    HW119334   1.376   1.860   5.650  0.9048 -0.4491 -1.4516
 2566SOL    HW219335   1.237   1.823   5.688 -0.0240 -1.5065  0.9961
 2567SOL     OW19336   4.409   2.945  15.855  0.4534 -0.3536  0.2398
 2567SOL    HW119337   4.314   2.956  15.850  0.4143 -0.5460  0.5743
 2567SOL    HW219338   4.430   2.863  15.810 -0.4102 -0.5554  0.2001
 2568SOL     OW19339   1.826   3.407   6.060  0.2033 -0.1154 -0.1278
 2568SOL    HW119340   1.768   3.463   6.009 -0.6948 -1.7172 -0.8569
 2568SOL    HW219341   1.861   3.477   6.116 -0.7318  0.9483 -0.8621
 2569SOL     OW19342   4.036   2.572  15.846 -0.0621  0.0322  0.2050
 2569SOL    HW119343   3.970   2.523  15.895 -0.9957 -0.7798 -1.8706
 2569SOL    HW219344   4.110   2.562  15.906 -0.1614 -0.2107  0.2875
 2570SOL     OW19345   0.334   4.348   0.084  0.1702  0.1300 -0.2940
 2570SOL    HW119346   0.400   4.374   0.020  1.7441  0.6028  1.5015
 2570SOL    HW219347   0.326   4.253   0.072 -0.5155  0.1741 -0.1946
 2571SOL     OW19348   3.498   3.078   2.594 -0.1981  0.5005  0.1891
 2571SOL    HW119349   3.561   3.038   2.535  2.2666  1.5200  2.1292
 2571SOL    HW219350   3.461   3.151   2.544 -0.1976  0.1698 -0.2922
 2572SOL     OW19351   2.181   0.141   3.010 -0.2473 -0.3487 -0.0935
 2572SOL    HW119352   2.225   0.192   2.942  1.5547 -0.3435  1.0886
 2572SOL    HW219353   2.153   0.205   3.076 -0.2175  1.3091 -1.7000
 2573SOL     OW19354   1.668   4.524   1.385 -0.3179 -0.4533 -0.4868
 2573SOL    HW119355   1.736   4.569   1.336 -0.9403  0.8990 -0.1258
 2573SOL    HW219356   1.715   4.457   1.435 -0.6312 -0.2684  0.0547
 2574SOL     OW19357   2.515   0.430   6.315 -0.0789  0.3450 -0.3975
 2574SOL    HW119358   2.450   0.364   6.339  2.2473 -1.6225  0.5724
 2574SOL    HW219359   2.456   0.502   6.293  1.4628  1.6458 -0.3087
 2575SOL     OW19360   0.865   0.964   5.855  0.6737 -0.7478 -0.0087
 2575SOL    HW119361   0.907   0.976   5.770 -0.1927 -0.7759 -0.4439
 2575SOL    HW219362   0.803   0.890   5.849 -1.0784  0.6458  0.8918
 2576SOL     OW19363   0.752   2.252   7.600  0.7464 -0.2394  0.1012
 2576SOL    HW119364   0.834   2.237   7.554 -0.3457 -1.4022 -1.4618
 2576SOL    HW219365   0.685   2.208   7.547 -1.5005  2.6330  0.5529
 2577SOL     OW19366   1.401   2.537   9.339 -0.2335  0.2336 -0.1067
 2577SOL    HW119367   1.401   2.442   9.346  0.5035  0.1219 -1.5577
 2577SOL    HW219368   1.310   2.561   9.354 -0.8288 -2.4216  0.3407
 2578SOL     OW19369   2.305   3.647   0.616 -0.0815 -0.2176 -0.3013
 2578SOL    HW119370   2.376   3.623   0.676 -1.3088 -0.2389  1.1585
 2578SOL    HW219371   2.349   3.633   0.532 -2.5834  2.4472 -2.0654
 2579SOL     OW19372   4.454   1.498  16.758 -0.2474  0.0447 -0.1031
 2579SOL    HW119373   4.497   1.415  16.737  0.4858  0.4093 -0.0130
 2579SOL    HW219374   4.470   1.507  16.852  0.3147  1.0787 -0.3019
 2580SOL     OW19375   4.348   2.187   6.132 -0.4486 -0.0214  0.3918
 2580SOL    HW119376   4.290   2.131   6.183  1.3401 -1.3245  1.0077
 2580SOL    HW219377   4.367   2.264   6.184  0.1601  1.2265 -1.6741
 2581SOL     OW19378   2.932   2.438  15.532 -0.3090  0.4342 -0.3078
 2581SOL    HW119379   2.893   2.458  15.617  0.3094 -2.3452  0.6184
 2581SOL    HW219380   3.014   2.486  15.539 -1.3799  2.2958 -0.4577
 2582SOL     OW19381   3.872   3.395  10.044 -0.6326 -0.0525  0.2846
 2582SOL    HW119382   3.932   3.459  10.004 -1.1572 -0.4975 -1.2228
 2582SOL    HW219383   3.867   3.444  10.126  0.5390 -2.7171  1.9564
 2583SOL     OW19384   1.864   0.122  12.778  0.4028 -0.1517  0.0578
 2583SOL    HW119385   1.916   0.149  12.702  2.2021  1.3034  1.8239
 2583SOL    HW219386   1.909   0.048  12.818 -0.0782 -1.2941 -1.5001
 2584SOL     OW19387   4.666   1.207  12.262 -0.3994 -0.1411  0.1987
 2584SOL    HW119388   4.734   1.217  12.195 -3.0968  1.4364 -2.3142
 2584SOL    HW219389   4.598   1.159  12.215 -0.2609  0.9803 -1.1470
 2585SOL     OW19390   0.208   3.956   4.121 -0.1945  0.3008  0.5299
 2585SOL    HW119391   0.182   3.869   4.153 -0.8895 -0.0655 -1.0376
 2585SOL    HW219392   0.229   3.935   4.030 -1.2699  0.1104  0.3237
 2586SOL     OW19393   4.096   3.044   2.030 -0.1945  0.2154  0.2779
 2586SOL    HW119394   4.173   3.023   2.083 -0.1749  0.2378  0.2582
 2586SOL    HW219395   4.068   3.128   2.066 -0.9740 -0.7546  1.9091
 2587SOL     OW19396   1.343   3.744  12.320  0.2501  0.5048 -0.3174
 2587SOL    HW119397   1.277   3.727  12.388  0.1752  2.6468  0.1574
 2587SOL    HW219398   1.333   3.837  12.302  0.9962  0.9550  1.5645
 2588SOL     OW19399   0.929   2.474   3.382 -0.0129  0.4048 -0.4133
 2588SOL    HW119400   0.869   2.416   3.335 -0.1706 -0.4250  0.8078
 2588SOL    HW219401   0.911   2.447   3.472 -1.0093  0.4753 -0.5897
 2589SOL     OW19402   4.355   2.433  13.771 -0.5338 -0.3619  0.6921
 2589SOL    HW119403   4.263   2.410  13.758  0.4001 -1.8961 -3.0966
 2589SOL    HW219404   4.393   2.353  13.807 -1.7066 -0.9915  0.5381
 2590SOL     OW19405   1.447   2.552  17.348 -0.2118 -0.1895  0.0023
 2590SOL    HW119406   1.403   2.560  17.264 -1.9929 -0.3692  0.9318
 2590SOL    HW219407   1.443   2.644  17.372 -3.2139 -0.1840 -0.6304
 2591SOL     OW19408   1.237   4.001  13.489 -0.0871 -0.2837  0.2644
 2591SOL    HW119409   1.203   3.924  13.445  0.5236  1.9908 -4.1475
 2591SOL    HW219410   1.305   4.029  13.429  0.0059 -1.0250  0.0363
 2592SOL     OW19411   1.063   0.093  16.073  0.2437 -0.3525 -0.3012
 2592SOL    HW119412   1.036   0.166  16.130  0.1396 -1.4166  1.0137
 2592SOL    HW219413   1.036   0.131  15.990 -0.1098  2.3537  1.0280
 2593SOL     OW19414   2.026   0.843   1.107 -0.1287 -0.1556  0.0609
 2593SOL    HW119415   1.968   0.877   1.039 -2.5670 -1.3228  1.5896
 2593SOL    HW219416   2.086   0.793   1.051 -0.5460 -0.5933  0.0100
 2594SOL     OW19417   4.570   4.345   7.365  0.2451 -0.4353  0.3476
 2594SOL    HW119418   4.640   4.291   7.402  0.0741 -0.9311 -0.0665
 2594SOL    HW219419   4.547   4.293   7.289  1.9079 -0.2914 -0.2627
 2595SOL     OW19420   0.279   3.884   0.938 -0.4204  0.5645  0.0825
 2595SOL    HW119421   0.370   3.856   0.934 -1.3051 -2.0469 -1.7733
 2595SOL    HW219422   0.241   3.827   0.871 -1.4277  0.3654  0.8227
 2596SOL     OW19423   0.080   3.898   5.281 -0.1870 -0.3510  0.0589
 2596SOL    HW119424   0.066   3.806   5.263 -2.5703  0.3324 -1.5065
 2596SOL    HW219425   0.101   3.944   5.199  0.6857 -1.3259 -0.2631
 2597SOL     OW19426   3.312   3.459  14.088  0.3184 -0.0121 -0.7264
 2597SOL    HW119427   3.245   3.498  14.145  0.7606 -0.8735  0.3926
 2597SOL    HW219428   3.366   3.406  14.147 -0.4486  0.5225  0.4730
 2598SOL     OW19429   0.707   4.502   5.171 -0.8919  0.0919  0.0378
 2598SOL    HW119430   0.711   4.451   5.251 -3.2118 -0.1477  0.0160
 2598SOL    HW219431   0.618   4.478   5.144 -1.2496  0.0530  1.2325
 2599SOL     OW19432   0.580   2.372   7.760 -0.0387  0.1451 -0.2060
 2599SOL    HW119433   0.649   2.338   7.704  0.7017  0.7259  0.3552
 2599SOL    HW219434   0.626   2.385   7.843 -0.1647 -0.4630 -0.0332
 2600SOL     OW19435   0.904   0.754   7.998 -0.2601  0.2123 -0.4016
 2600SOL    HW119436   0.815   0.784   8.020 -0.0458  0.4939  0.0666
 2600SOL    HW219437   0.949   0.834   7.971 -1.4721  1.0721  0.1106
 2601SOL     OW19438   0.986   1.579   8.109 -0.0193 -0.0896  0.8943
 2601SOL    HW119439   1.077   1.605   8.101 -0.1279 -0.1996 -0.6612
 2601SOL    HW219440   0.945   1.666   8.107  3.6291  1.5689 -0.5321
 2602SOL     OW19441   4.500   1.300   6.315 -0.4705  0.3666 -0.4299
 2602SOL    HW119442   4.592   1.318   6.294 -0.7901  0.7856 -1.4859
 2602SOL    HW219443   4.451   1.337   6.242 -0.7534  0.6025 -0.1217
 2603SOL     OW19444   3.938   0.701   9.202 -0.2102  0.3288  0.0900
 2603SOL    HW119445   3.959   0.768   9.137 -0.5507  1.5522  1.2519
 2603SOL    HW219446   4.005   0.708   9.269 -2.0431 -0.0074  1.9361
 2604SOL     OW19447   0.985   3.422   7.947  0.9703 -0.0885 -0.0500
 2604SOL    HW119448   1.028   3.339   7.970  0.7297 -0.7482 -1.9712
 2604SOL    HW219449   0.938   3.384   7.872  0.9773  0.8159 -0.5100
 2605SOL     OW19450   4.138   2.435   3.143 -0.3691 -0.2963  0.0493
 2605SOL    HW119451   4.101   2.507   3.092 -0.5693 -0.1024  0.4766
 2605SOL    HW219452   4.204   2.398   3.083 -0.3707  0.9092 -0.7166
 2606SOL     OW19453   3.356   3.341  17.559  0.0478  0.1829  1.2248
 2606SOL    HW119454   3.393   3.361  17.645  1.0072 -0.5715  0.9825
 2606SOL    HW219455   3.271   3.384  17.555 -0.6749 -1.1688  2.1061
 2607SOL     OW19456   2.737   3.847   7.598 -0.0548 -0.5185 -0.1584
 2607SOL    HW119457   2.773   3.763   7.567  3.1320 -0.2922  2.9492
 2607SOL    HW219458   2.657   3.833   7.548  0.2854  1.0350 -1.1020
 2608SOL     OW19459   4.005   1.570   4.760 -0.2804  0.9040  0.1576
 2608SOL    HW119460   3.930   1.515   4.781  0.1709  0.7825  1.4653
 2608SOL    HW219461   4.004   1.632   4.833  1.3549  0.0175  0.9328
 2609SOL     OW19462   0.261   2.736   6.480 -0.4121 -0.1735  0.4270
 2609SOL    HW119463   0.235   2.713   6.569  0.6434 -0.3098  0.6930
 2609SOL    HW219464   0.285   2.653   6.439  0.2295 -0.4133  1.2983
 2610SOL     OW19465   1.719   1.852   5.174  0.4769  0.0657 -0.0107
 2610SOL    HW119466   1.687   1.785   5.113 -1.3707  1.6006 -0.7143
 2610SOL    HW219467   1.762   1.912   5.115  1.1487  0.9679  1.3950
 2611SOL     OW19468   0.415   1.697   4.763  0.2836  0.3998  0.2490
 2611SOL    HW119469   0.490   1.637   4.764  0.5633  0.7261 -3.9769
 2611SOL    HW219470   0.452   1.778   4.729  0.0214 -0.3478 -1.8275
 2612SOL     OW19471   2.355   3.493   1.326  0.5959 -0.4679  0.6652
 2612SOL    HW119472   2.424   3.542   1.370 -0.6958  1.0484  0.9780
 2612SOL    HW219473   2.340   3.544   1.247  0.2732 -1.1392  0.2853
 2613SOL     OW19474   3.896   2.628   4.589 -0.2629  0.3622  0.1187
 2613SOL    HW119475   3.865   2.707   4.545  0.2482 -0.4358 -1.6874
 2613SOL    HW219476   3.965   2.606   4.527  1.2098 -1.4192  2.3878
 2614SOL     OW19477   3.934   3.521   7.893 -0.2235  0.8001  0.6173
 2614SOL    HW119478   3.845   3.484   7.890  0.4415 -0.7235 -0.8021
 2614SOL    HW219479   3.941   3.532   7.798  1.5809 -0.5208  0.6064
 2615SOL     OW19480   2.678   1.464  14.051 -0.5094  0.6285  0.1488
 2615SOL    HW119481   2.643   1.491  14.136  0.1270 -0.6387  0.8099
 2615SOL    HW219482   2.599   1.461  13.997  0.4742 -0.2951 -1.2360
 2616SOL     OW19483   2.905   3.983   8.259  0.1297 -0.1699  0.0945
 2616SOL    HW119484   2.825   3.931   8.251 -1.2007  1.8760 -0.0432
 2616SOL    HW219485   2.937   4.008   8.173 -0.5849  0.2321 -0.0507
 2617SOL     OW19486   1.509   0.612   4.838  0.0239  0.3708 -0.0178
 2617SOL    HW119487   1.506   0.527   4.794  1.6639 -0.1526  0.9191
 2617SOL    HW219488   1.521   0.667   4.760  0.4222 -1.0088 -0.9245
 2618SOL     OW19489   0.211   0.810   3.486  0.3307  0.4414 -0.7949
 2618SOL    HW119490   0.134   0.761   3.517  0.6058 -0.3067 -1.2808
 2618SOL    HW219491   0.232   0.863   3.562  3.1504 -1.3127 -0.3379
 2619SOL     OW19492   4.590   1.637   5.730  0.2281 -0.3261 -0.4196
 2619SOL    HW119493   4.633   1.595   5.656  2.1216  5.4255 -2.5273
 2619SOL    HW219494   4.642   1.597   5.799 -0.1310 -0.2252 -0.0865
 2620SOL     OW19495   2.304   3.536   4.020  0.4489 -0.1775  0.1788
 2620SOL    HW119496   2.283   3.585   4.099  2.3722 -0.6872  0.9971
 2620SOL    HW219497   2.377   3.484   4.054  0.8743 -0.0805 -0.5806
 2621SOL     OW19498   0.729   3.491   1.565  0.3898 -0.0327 -0.1870
 2621SOL    HW119499   0.791   3.488   1.638  2.5534 -3.9187 -2.1121
 2621SOL    HW219500   0.715   3.397   1.553 -0.3155  0.0130  0.3338
 2622SOL     OW19501   3.030   1.045  11.482  0.7822 -0.1848 -0.4821
 2622SOL    HW119502   3.018   1.057  11.388 -5.3404  0.4272  0.3962
 2622SOL    HW219503   2.997   0.956  11.497 -2.3546  1.0102 -0.3241
 2623SOL     OW19504   0.286   4.662  11.866 -0.5943  0.4535  0.3526
 2623SOL    HW119505   0.349   4.730  11.889  0.5126  0.2556 -2.0312
 2623SOL    HW219506   0.222   4.700  11.805 -0.0362 -1.1272 -1.2130
 2624SOL     OW19507   2.490   0.651   2.985 -0.3219  0.3919  0.2592
 2624SOL    HW119508   2.425   0.692   2.929 -0.5519 -3.5693 -2.3117
 2624SOL    HW219509   2.537   0.588   2.931 -0.4019  0.3598  0.2280
 2625SOL     OW19510   3.589   1.636   6.411 -0.0609 -0.3649  0.2888
 2625SOL    HW119511   3.510   1.589   6.438 -1.2450  0.3296 -1.9941
 2625SOL    HW219512   3.662   1.577   6.433  1.8856  1.4338 -1.3013
 2626SOL     OW19513   3.717   4.567  15.788  0.0767  0.0054  0.2663
 2626SOL    HW119514   3.644   4.628  15.780  0.5188  0.9031  2.9331
 2626SOL    HW219515   3.730   4.558  15.883  1.6853  1.4221  0.1787
 2627SOL     OW19516   0.205   2.651   2.086  0.4730 -0.7165 -0.0206
 2627SOL    HW119517   0.237   2.682   2.001  0.6845 -0.7338  0.0535
 2627SOL    HW219518   0.255   2.696   2.154  1.6800 -1.9194 -0.1138
 2628SOL     OW19519   1.831   1.813   3.242 -0.6976  0.2569 -0.1085
 2628SOL    HW119520   1.781   1.780   3.316 -1.1874  1.4640  0.1031
 2628SOL    HW219521   1.776   1.787   3.168 -0.6241 -2.0366  0.6607
 2629SOL     OW19522   1.301   4.689   8.444 -0.1266 -0.2203  0.5164
 2629SOL    HW119523   1.338   0.036   8.474 -0.6442  0.5731 -1.0608
 2629SOL    HW219524   1.291   4.721   8.354  1.8691  0.1744  0.4274
 2630SOL     OW19525   2.040   1.389   8.947  0.2427  0.0706  0.2424
 2630SOL    HW119526   1.979   1.335   8.997 -1.1536  1.2892 -0.1451
 2630SOL    HW219527   2.010   1.478   8.964  0.7506  0.2006  0.4648
 2631SOL     OW19528   1.672   3.790   8.042 -0.4062 -0.1859  0.7957
 2631SOL    HW119529   1.734   3.818   8.109 -1.6078  2.8025  0.6295
 2631SOL    HW219530   1.677   3.850   7.967  0.6981  0.0445  1.0620
 2632SOL     OW19531   0.666   0.622   4.994  0.0646  0.4114 -0.1768
 2632SOL    HW119532   0.609   0.698   5.009  0.0063  0.1550  0.9686
 2632SOL    HW219533   0.635   0.599   4.907  0.1133  1.3852 -0.4496
 2633SOL     OW19534   0.740   1.066   0.008  0.2313 -0.4836 -0.1952
 2633SOL    HW119535   0.818   1.046   0.061 -0.0679  1.0259  0.8098
 2633SOL    HW219536   0.714   0.983  17.712  3.5399 -1.2665 -0.7200
 2634SOL     OW19537   0.014   2.944   8.118  0.0324  0.2345  0.3109
 2634SOL    HW119538   0.091   2.977   8.164 -1.4379  0.8264  2.3371
 2634SOL    HW219539   4.691   3.019   8.113  0.1101  0.3479  1.0903
 2635SOL     OW19540   3.037   4.402  11.168 -0.0022 -0.2952 -0.4536
 2635SOL    HW119541   2.976   4.419  11.240 -1.2122 -0.2411 -1.4936
 2635SOL    HW219542   3.077   4.320  11.198 -0.3348 -0.1134  0.4871
 2636SOL     OW19543   0.394   4.032  15.596 -0.1079  0.2769  0.5787
 2636SOL    HW119544   0.457   4.090  15.639  0.9754  0.6445 -1.5043
 2636SOL    HW219545   0.414   4.046  15.504  1.7109  0.0893  0.9334
 2637SOL     OW19546   0.771   3.268   9.372 -0.1621  0.1228  0.2432
 2637SOL    HW119547   0.749   3.243   9.461  0.2090  0.4227  0.4193
 2637SOL    HW219548   0.693   3.250   9.320 -1.3441  3.5421  0.8189
 2638SOL     OW19549   1.880   1.600   5.256 -0.2823 -0.6353 -0.1180
 2638SOL    HW119550   1.893   1.569   5.166  2.0428 -2.1324  0.7414
 2638SOL    HW219551   1.857   1.692   5.243  2.7630  0.3933  2.0157
 2639SOL     OW19552   3.572   4.299   1.792  0.8432 -0.2137  0.1200
 2639SOL    HW119553   3.506   4.344   1.738  1.1167 -1.6470 -1.4209
 2639SOL    HW219554   3.633   4.372   1.805 -1.9589  2.0416  0.5742
 2640SOL     OW19555   0.678   2.042  12.900 -0.6147 -0.5562  0.9804
 2640SOL    HW119556   0.670   2.093  12.980  0.7215 -1.0807  1.4490
 2640SOL    HW219557   0.755   1.990  12.923 -0.5644 -0.3545  1.2664
 2641SOL     OW19558   0.500   1.172  15.948  0.1024 -0.0764 -0.1318
 2641SOL    HW119559   0.442   1.203  15.879 -0.0744  1.6049  0.7868
 2641SOL    HW219560   0.443   1.117  16.001  0.0226  0.2060  0.0717
 2642SOL     OW19561   0.586   1.917   4.762 -0.3031  0.0556  0.1294
 2642SOL    HW119562   0.665   1.911   4.708 -2.5139 -1.1071 -2.9832
 2642SOL    HW219563   0.588   2.011   4.780  1.0451 -0.3280  1.9469
 2643SOL     OW19564   0.489   3.362   6.590  0.3270 -0.2991 -0.7718
 2643SOL    HW119565   0.469   3.443   6.638 -1.0024 -0.3367 -1.2690
 2643SOL    HW219566   0.408   3.336   6.547 -1.3009  0.0550  2.1130
 2644SOL     OW19567   4.507   3.650  10.833  0.2189  0.6121 -0.1261
 2644SOL    HW119568   4.494   3.556  10.847  0.2335  0.7677  0.9523
 2644SOL    HW219569   4.541   3.650  10.744 -0.6115  0.7373 -0.4428
 2645SOL     OW19570   1.609   1.923   6.729 -0.0471  0.0171  0.1930
 2645SOL    HW119571   1.592   1.830   6.716 -1.7859  0.0932  1.8847
 2645SOL    HW219572   1.525   1.960   6.703  0.4764  1.4506  0.5416
 2646SOL     OW19573   0.898   4.651  17.129 -0.3055  0.2970 -0.0943
 2646SOL    HW119574   0.842   4.725  17.151 -0.3562 -0.5315  2.5270
 2646SOL    HW219575   0.924   4.665  17.037  1.1866  1.6225  0.5311
 2647SOL     OW19576   2.688   1.193  17.375  0.3568 -0.2167 -0.2774
 2647SOL    HW119577   2.731   1.119  17.420  1.6681  0.0843 -1.0392
 2647SOL    HW219578   2.674   1.159  17.287  1.6826 -0.4258 -0.4038
 2648SOL     OW19579   4.134   2.465   8.485  0.1814 -0.5703  0.6267
 2648SOL    HW119580   4.128   2.400   8.555  3.8265 -0.8869  0.6554
 2648SOL    HW219581   4.042   2.491   8.481  0.7152  1.3790  0.7560
 2649SOL     OW19582   1.946   2.836   8.879  0.1061  0.0212  0.6557
 2649SOL    HW119583   1.960   2.823   8.785  0.3344 -1.5379  0.9059
 2649SOL    HW219584   1.998   2.914   8.898 -1.7668  1.4774 -0.2692
 2650SOL     OW19585   3.130   3.015  11.513 -0.2930 -0.5626 -0.0667
 2650SOL    HW119586   3.055   2.958  11.531 -1.1291  0.2911 -0.8548
 2650SOL    HW219587   3.160   3.015  11.603  0.9054 -1.4538 -0.4566
 2651SOL     OW19588   4.330   3.241   8.068 -0.3700  0.3403  0.3973
 2651SOL    HW119589   4.298   3.325   8.101 -0.3590 -0.2671  1.9544
 2651SOL    HW219590   4.246   3.199   8.049 -0.1206 -0.2857  0.7020
 2652SOL     OW19591   1.120   3.859  12.661  0.1431  0.0194 -0.4168
 2652SOL    HW119592   1.212   3.855  12.689  0.6066 -2.7833 -2.2431
 2652SOL    HW219593   1.119   3.791  12.593 -1.4215  1.0614 -1.4341
 2653SOL     OW19594   3.152   0.305   5.658 -0.1804  0.2015  0.3224
 2653SOL    HW119595   3.244   0.326   5.640  0.3667  0.2501  3.2424
 2653SOL    HW219596   3.139   0.227   5.604  1.5412  1.3769 -1.8254
 2654SOL     OW19597   4.584   4.315   2.416  0.3307 -0.0478  0.0581
 2654SOL    HW119598   4.552   4.391   2.465 -2.8070 -1.1114 -0.2928
 2654SOL    HW219599   4.643   4.273   2.478 -0.6679  2.5370  2.7836
 2655SOL     OW19600   1.736   2.336  11.167  0.7883 -0.1383  0.0072
 2655SOL    HW119601   1.721   2.430  11.178 -0.7810 -0.4494  0.4876
 2655SOL    HW219602   1.691   2.297  11.242  2.3618  0.4932  1.2817
 2656SOL     OW19603   2.607   0.375   1.567  0.1567 -0.6034 -0.3449
 2656SOL    HW119604   2.611   0.321   1.488 -0.6084  1.5776 -1.9057
 2656SOL    HW219605   2.548   0.323   1.621  0.7903 -0.8353  0.1136
 2657SOL     OW19606   0.679   1.099   6.797 -0.2185 -0.2056 -0.4591
 2657SOL    HW119607   0.621   1.112   6.722  2.6260  1.1640 -2.4103
 2657SOL    HW219608   0.764   1.116   6.758  0.9621 -3.0848  0.8924
 2658SOL     OW19609   4.204   3.091  17.440 -0.0918  0.2328  0.2202
 2658SOL    HW119610   4.227   3.012  17.490  0.7614 -0.4687 -1.2587
 2658SOL    HW219611   4.231   3.066  17.352  0.0739 -1.0624  0.6292
 2659SOL     OW19612   4.328   1.376   1.136  0.2390  0.0161  1.0914
 2659SOL    HW119613   4.357   1.361   1.226  0.0103  0.2013  1.1970
 2659SOL    HW219614   4.397   1.334   1.084  0.0500  0.8498  0.1729
 2660SOL     OW19615   3.158   3.161   9.034  0.0199 -0.1858  0.7958
 2660SOL    HW119616   3.122   3.224   8.971  2.9795  2.2564  1.5766
 2660SOL    HW219617   3.249   3.188   9.041 -0.2684  1.1130 -0.5344
 2661SOL     OW19618   3.922   0.519   6.720  0.0539 -0.2535 -0.1023
 2661SOL    HW119619   3.976   0.594   6.745 -1.2161  0.3124  0.9568
 2661SOL    HW219620   3.837   0.555   6.747  1.2119  0.7775  2.2081
 2662SOL     OW19621   2.010   2.338  15.065 -0.2222 -1.0235  0.4543
 2662SOL    HW119622   1.964   2.410  15.109  1.1454  1.8881 -2.8704
 2662SOL    HW219623   2.020   2.285  15.144  0.3906  0.0149  1.0784
 2663SOL     OW19624   0.536   0.256   4.517  0.1123  0.0574 -0.2310
 2663SOL    HW119625   0.494   0.297   4.441 -0.9949  0.5715  0.6418
 2663SOL    HW219626   0.457   0.264   4.570 -1.6673  0.9069 -3.0074
 2664SOL     OW19627   3.525   0.964   6.771  0.5427  0.2360 -0.1227
 2664SOL    HW119628   3.521   1.050   6.814  0.0576  0.6462 -0.9807
 2664SOL    HW219629   3.597   0.969   6.708  0.6600  1.3682  0.0941
 2665SOL     OW19630   2.760   0.691   8.875  0.1003  0.4801 -0.7042
 2665SOL    HW119631   2.828   0.632   8.906 -0.1468  1.0148  0.8430
 2665SOL    HW219632   2.714   0.729   8.951  0.8419  0.4631 -0.2511
 2666SOL     OW19633   4.007   2.036   2.925 -0.0484  0.0842 -0.0650
 2666SOL    HW119634   3.982   1.944   2.933  0.1446  0.1078  0.7621
 2666SOL    HW219635   3.931   2.070   2.877  0.0214  2.4868  1.5509
 2667SOL     OW19636   2.144   0.739   3.988 -0.5560 -0.5575 -0.3339
 2667SOL    HW119637   2.107   0.672   4.046 -1.9636  0.0205 -0.5483
 2667SOL    HW219638   2.235   0.733   4.016 -0.1721 -0.7274 -1.6452
 2668SOL     OW19639   2.273   4.088   6.448  0.2255 -0.0593  0.0659
 2668SOL    HW119640   2.356   4.115   6.409  0.7184 -1.0666  0.4141
 2668SOL    HW219641   2.278   4.150   6.521 -0.1284 -0.2033  0.2136
 2669SOL     OW19642   3.236   0.669  12.983  1.0805  0.6161 -0.1913
 2669SOL    HW119643   3.300   0.732  12.949  2.1996 -1.7735 -2.4934
 2669SOL    HW219644   3.154   0.707  12.951  2.5329  1.4677 -2.9675
 2670SOL     OW19645   3.009   1.561  11.150  0.0255  0.0040  0.3689
 2670SOL    HW119646   2.955   1.578  11.227  0.3810 -0.8184  0.7897
 2670SOL    HW219647   3.062   1.641  11.153 -0.2843  0.0727  3.8669
 2671SOL     OW19648   3.511   1.684   3.734 -0.2594 -0.1178 -0.3769
 2671SOL    HW119649   3.531   1.691   3.641 -1.6648  0.6525 -0.6218
 2671SOL    HW219650   3.573   1.619   3.767 -2.8055 -2.0221  0.7111
 2672SOL     OW19651   2.609   0.641   8.315 -0.2770 -0.0378 -0.3956
 2672SOL    HW119652   2.581   0.673   8.401 -1.9882 -0.2169 -0.8945
 2672SOL    HW219653   2.629   0.557   8.357  0.5413 -1.0203 -2.7789
 2673SOL     OW19654   1.547   3.886   4.299  0.1314 -0.3648  0.5574
 2673SOL    HW119655   1.490   3.856   4.228 -2.6459  0.7405  2.3219
 2673SOL    HW219656   1.630   3.840   4.283  1.1265  1.3297  0.9086
 2674SOL     OW19657   3.260   2.108  11.130  0.2227  1.1559 -0.2114
 2674SOL    HW119658   3.192   2.052  11.168  1.3456 -0.5889 -0.7518
 2674SOL    HW219659   3.335   2.093  11.187 -1.1668 -1.7132  0.8509
 2675SOL     OW19660   3.736   3.606   7.345 -0.1293 -0.3603  0.2065
 2675SOL    HW119661   3.831   3.604   7.355 -0.1281  0.5922  0.4290
 2675SOL    HW219662   3.715   3.525   7.298  2.0930 -0.3688 -0.7786
 2676SOL     OW19663   4.159   4.345   2.343  0.0191  0.1816 -0.0679
 2676SOL    HW119664   4.078   4.392   2.365 -0.4732 -0.6628 -0.0595
 2676SOL    HW219665   4.208   4.426   2.329  2.4594 -1.3602 -0.3264
 2677SOL     OW19666   2.121   4.349   6.332  0.2040 -0.0439 -0.4299
 2677SOL    HW119667   2.042   4.323   6.284  0.6119 -1.5593 -0.2843
 2677SOL    HW219668   2.189   4.311   6.278  1.4859  0.4809  0.8121
 2678SOL     OW19669   3.022   1.723   9.597  0.4107  0.2630  0.2518
 2678SOL    HW119670   3.001   1.645   9.545 -1.0416 -0.1646  1.4413
 2678SOL    HW219671   2.975   1.702   9.679  1.6220  1.4620  1.2473
 2679SOL     OW19672   2.524   4.285   5.356  0.3217  0.2112 -0.0710
 2679SOL    HW119673   2.567   4.203   5.334  0.8779  0.1498  1.2611
 2679SOL    HW219674   2.551   4.330   5.276  2.8168 -0.9114  0.1483
 2680SOL     OW19675   2.365   3.310  13.046 -0.4007  0.1298 -0.1311
 2680SOL    HW119676   2.421   3.364  12.991 -0.9073  0.7353 -0.0543
 2680SOL    HW219677   2.428   3.292  13.116 -0.6448  4.1472  1.0939
 2681SOL     OW19678   3.102   0.507  11.806  0.0676 -0.3491 -0.0933
 2681SOL    HW119679   3.059   0.441  11.861  2.2134 -1.2192  0.5401
 2681SOL    HW219680   3.150   0.550  11.878  0.6998 -3.7541  1.5068
 2682SOL     OW19681   3.881   4.285   4.838 -0.1841 -0.2639  0.0021
 2682SOL    HW119682   3.842   4.281   4.751  0.4722  1.2416 -0.3559
 2682SOL    HW219683   3.908   4.377   4.835 -1.7793  0.1868 -0.7156
 2683SOL     OW19684   3.278   0.909   4.416 -0.3109  0.0021  0.6401
 2683SOL    HW119685   3.281   0.898   4.320  1.0510  2.3764  0.4141
 2683SOL    HW219686   3.204   0.967   4.428  1.6189  2.6101 -0.0519
 2684SOL     OW19687   1.928   1.296   5.173 -0.6197  0.2232 -0.2963
 2684SOL    HW119688   2.000   1.353   5.147 -0.0711  0.0197  0.7340
 2684SOL    HW219689   1.858   1.356   5.198 -0.0050  0.5132  0.7691
 2685SOL     OW19690   2.849   4.404  12.651 -0.1312 -0.0125 -0.2453
 2685SOL    HW119691   2.778   4.340  12.653 -0.1045  0.0580  3.3123
 2685SOL    HW219692   2.929   4.351  12.657 -0.6011 -0.8368 -1.2765
 2686SOL     OW19693   2.116   2.690  10.202  0.3976  0.1707 -0.0545
 2686SOL    HW119694   2.082   2.601  10.210  2.5784 -0.4371  2.6496
 2686SOL    HW219695   2.150   2.705  10.290 -1.2150 -0.9918  0.7761
 2687SOL     OW19696   2.947   1.152   0.056  0.0349  0.7146  0.3383
 2687SOL    HW119697   2.871   1.187   0.010  1.6453 -0.7227 -3.4093
 2687SOL    HW219698   3.025   1.203   0.033  0.6466 -0.0116  0.8116
 2688SOL     OW19699   1.446   1.019   2.931  0.1287 -0.2954 -0.0234
 2688SOL    HW119700   1.384   1.052   2.996  0.6422  0.9498 -0.1612
 2688SOL    HW219701   1.400   0.976   2.860 -1.2457 -0.2431  0.8334
 2689SOL     OW19702   0.861   4.506   5.712 -0.0171  0.0486 -0.4344
 2689SOL    HW119703   0.811   4.439   5.758  3.1874 -2.0237  0.0302
 2689SOL    HW219704   0.948   4.466   5.723  0.1990  0.6831  0.1408
 2690SOL     OW19705   1.553   1.309   4.106  0.1173  0.2212 -0.1964
 2690SOL    HW119706   1.557   1.218   4.077  0.0237 -0.4846  2.0325
 2690SOL    HW219707   1.628   1.344   4.058  0.2440  0.5549  0.2430
 2691SOL     OW19708   0.825   4.293   8.001  0.2290 -0.3402 -0.5453
 2691SOL    HW119709   0.857   4.207   7.972  1.5263  1.3831 -4.2009
 2691SOL    HW219710   0.889   4.305   8.071  1.6108  0.0899 -1.8658
 2692SOL     OW19711   3.500   3.711  10.099 -0.3546  0.2905  0.4181
 2692SOL    HW119712   3.468   3.651  10.167  0.2715 -0.6901 -0.1515
 2692SOL    HW219713   3.570   3.754  10.149 -0.2766  2.6815 -1.7594
 2693SOL     OW19714   1.173   2.314  11.663  0.0529 -0.2680  0.2882
 2693SOL    HW119715   1.186   2.291  11.755 -0.2743  0.8725  0.6162
 2693SOL    HW219716   1.220   2.397  11.672  2.0813 -1.1441 -2.2263
 2694SOL     OW19717   1.101   0.820  11.596  0.0338  0.1754 -0.4262
 2694SOL    HW119718   1.048   0.747  11.627  0.2576 -0.5294 -1.6948
 2694SOL    HW219719   1.188   0.789  11.622 -0.9404 -0.9794  1.4421
 2695SOL     OW19720   0.693   3.472  14.406 -0.0021 -0.0085 -0.4712
 2695SOL    HW119721   0.715   3.396  14.460 -0.2925  1.1291  1.2871
 2695SOL    HW219722   0.614   3.496  14.455  0.2987  0.7953 -0.3814
 2696SOL     OW19723   4.016   0.869   1.625 -0.5671 -0.2228  0.0122
 2696SOL    HW119724   3.931   0.883   1.583 -0.8103  2.9958  1.5976
 2696SOL    HW219725   4.076   0.915   1.567  0.8164 -0.1675  1.4990
 2697SOL     OW19726   0.112   1.209  10.004  0.4684  0.4792 -0.3228
 2697SOL    HW119727   0.096   1.254  10.087 -2.2902 -0.9495 -0.0790
 2697SOL    HW219728   0.195   1.170  10.030  0.7769 -0.1532 -2.3171
 2698SOL     OW19729   2.045   1.588   0.653 -0.5619 -0.0724 -0.6408
 2698SOL    HW119730   1.967   1.634   0.623 -0.5825  0.3923  0.1332
 2698SOL    HW219731   2.110   1.605   0.584 -1.7598  1.6744 -1.3433
 2699SOL     OW19732   0.697   1.277  13.061  0.5839 -0.0117 -0.2460
 2699SOL    HW119733   0.779   1.270  13.109 -0.2378 -0.0766  1.1568
 2699SOL    HW219734   0.653   1.193  13.076  0.7685 -0.1860 -0.6991
 2700SOL     OW19735   0.882   0.200   7.243  0.2327 -0.4259  0.0707
 2700SOL    HW119736   0.806   0.254   7.262  0.0433 -0.8580  0.5334
 2700SOL    HW219737   0.850   0.172   7.157  0.7506 -0.3020 -0.1626
 2701SOL     OW19738   4.497   3.646   4.443 -0.3568  0.1120 -0.1954
 2701SOL    HW119739   4.576   3.693   4.470  0.2126  0.1005 -1.8473
 2701SOL    HW219740   4.524   3.607   4.360  1.4517 -0.3814  0.6220
 2702SOL     OW19741   2.268   2.560   4.762  0.3157 -0.7689  0.2114
 2702SOL    HW119742   2.197   2.495   4.763  0.6284 -1.1179 -0.4013
 2702SOL    HW219743   2.291   2.564   4.669 -0.7046  1.2943  0.0658
 2703SOL     OW19744   0.732   3.292   1.348  0.2448 -0.5015  0.3297
 2703SOL    HW119745   0.656   3.284   1.405 -0.4398  0.6856 -0.4167
 2703SOL    HW219746   0.807   3.305   1.407  2.0194 -1.7530 -1.6289
 2704SOL     OW19747   4.721   2.996   6.930 -0.1015 -0.4992  0.0909
 2704SOL    HW119748   4.691   2.918   6.976 -2.2121  0.2653  0.0097
 2704SOL    HW219749   0.080   2.993   6.939  0.0029  0.9948 -0.4149
 2705SOL     OW19750   3.936   1.801  10.660  0.2184  0.2726  0.1405
 2705SOL    HW119751   3.918   1.865  10.592 -2.8924  1.4194  2.0724
 2705SOL    HW219752   4.025   1.773  10.637  0.8795  1.4048  1.3145
 2706SOL     OW19753   2.618   4.275   8.196  0.0262  0.2541 -0.3977
 2706SOL    HW119754   2.604   4.355   8.145 -0.3455 -0.7726 -1.9046
 2706SOL    HW219755   2.713   4.284   8.197 -0.1531  2.3156 -1.7032
 2707SOL     OW19756   0.834   0.219  16.920  0.0813  0.3803  0.9045
 2707SOL    HW119757   0.834   0.147  16.856 -1.0617  0.0154  1.3176
 2707SOL    HW219758   0.764   0.265  16.873  0.5370 -0.0565 -0.2229
 2708SOL     OW19759   3.809   4.530   5.314  0.2774 -0.5115 -0.0852
 2708SOL    HW119760   3.883   4.551   5.257 -1.6782  0.7812 -2.1584
 2708SOL    HW219761   3.845   4.449   5.350 -2.1705 -1.9113 -0.8400
 2709SOL     OW19762   0.273   3.055   3.614 -0.0161  0.0958 -0.1471
 2709SOL    HW119763   0.340   3.028   3.551  0.7527  0.5935  0.4493
 2709SOL    HW219764   0.309   3.020   3.696  0.1059  1.0864  0.2303
 2710SOL     OW19765   1.837   4.084   7.415 -0.1895  0.1681 -0.1227
 2710SOL    HW119766   1.843   4.178   7.435  0.5371 -0.2920  1.8160
 2710SOL    HW219767   1.801   4.043   7.494  0.1085 -0.0450 -0.0997
 2711SOL     OW19768   2.233   3.533   9.353  0.1186 -0.2004 -0.5783
 2711SOL    HW119769   2.257   3.469   9.286  0.3667  1.0622 -1.6826
 2711SOL    HW219770   2.286   3.610   9.329  0.2123  0.3205  1.3366
 2712SOL     OW19771   1.628   1.773  16.565 -0.1644 -0.3690  0.1282
 2712SOL    HW119772   1.625   1.678  16.565  0.7419 -0.3895 -1.6964
 2712SOL    HW219773   1.684   1.782  16.643 -0.7542 -0.9446  0.6116
 2713SOL     OW19774   3.480   4.034   1.718  0.5025  0.5124  0.6436
 2713SOL    HW119775   3.394   4.077   1.706  0.0675 -0.2414  1.1028
 2713SOL    HW219776   3.535   4.109   1.740  0.1364  1.3189 -1.1242
 2714SOL     OW19777   0.793   4.074   5.638 -0.0113 -0.4121 -0.0176
 2714SOL    HW119778   0.826   4.119   5.560 -1.5553  0.9620  0.1190
 2714SOL    HW219779   0.842   4.120   5.706  1.4584 -0.4682 -1.0453
 2715SOL     OW19780   1.309   1.030  11.699 -0.1541  0.1689 -0.4893
 2715SOL    HW119781   1.317   1.004  11.607  0.8041  0.0855 -0.3817
 2715SOL    HW219782   1.241   0.978  11.741 -3.0434  3.2125 -1.3557
 2716SOL     OW19783   0.162   1.724   1.989  0.0840 -0.2217  0.0797
 2716SOL    HW119784   0.163   1.638   2.031  0.7608 -0.1544  0.2106
 2716SOL    HW219785   0.240   1.719   1.933 -0.1111  3.6985 -0.5246
 2717SOL     OW19786   2.108   3.514   7.253 -0.1091 -0.6724  0.3663
 2717SOL    HW119787   2.013   3.525   7.266  0.0691  0.5148  0.6843
 2717SOL    HW219788   2.132   3.588   7.197  0.3583 -0.9104  0.2479
 2718SOL     OW19789   0.905   1.042   2.770 -0.5493 -0.5771  0.5640
 2718SOL    HW119790   0.882   1.049   2.677  1.5466  1.5380  0.1790
 2718SOL    HW219791   0.820   1.052   2.813 -1.4158 -1.9629 -0.8183
 2719SOL     OW19792   4.327   2.391   3.372  0.1220  0.4883 -0.7250
 2719SOL    HW119793   4.275   2.332   3.426  0.1580 -1.1501 -2.4803
 2719SOL    HW219794   4.262   2.393   3.302 -1.6303  1.4951  0.9455
 2720SOL     OW19795   1.682   2.103   1.698  0.1029 -0.6688  0.5622
 2720SOL    HW119796   1.651   2.109   1.608 -2.3692  1.7941  1.5671
 2720SOL    HW219797   1.747   2.033   1.690 -0.2589 -0.9849  0.4031
 2721SOL     OW19798   4.260   0.138   7.863  0.0393  0.6789  0.0984
 2721SOL    HW119799   4.297   0.057   7.828 -1.2605  0.3700 -0.5667
 2721SOL    HW219800   4.242   0.116   7.955  0.7362 -3.2089 -0.6673
 2722SOL     OW19801   4.669   4.574   3.989 -0.1032  0.6012 -0.3244
 2722SOL    HW119802   4.581   4.578   3.953  0.6167  2.8921 -1.8153
 2722SOL    HW219803   4.660   4.506   4.057 -0.8813  1.0886  0.0524
 2723SOL     OW19804   1.205   4.670   6.041 -0.1984  0.0466  0.5117
 2723SOL    HW119805   1.209   4.595   6.099 -2.2588 -2.2753 -2.3972
 2723SOL    HW219806   1.288   4.718   6.052 -1.8671  2.6723  1.7115
 2724SOL     OW19807   1.258   3.347   5.600  0.1062  0.2676  0.4715
 2724SOL    HW119808   1.184   3.311   5.553  0.4531  0.2658 -0.0650
 2724SOL    HW219809   1.308   3.275   5.638  1.1425  0.4953 -0.4612
 2725SOL     OW19810   0.381   4.135   6.875  0.1698  0.0253  0.3072
 2725SOL    HW119811   0.402   4.087   6.955  1.1663 -1.2958 -0.7459
 2725SOL    HW219812   0.299   4.175   6.905 -0.3341 -1.0052  0.3009
 2726SOL     OW19813   2.497   3.389   9.516 -0.9122 -0.1456 -0.3340
 2726SOL    HW119814   2.548   3.460   9.479  1.0504 -2.2196 -1.5922
 2726SOL    HW219815   2.505   3.323   9.447  0.1164  0.7297 -1.0374
 2727SOL     OW19816   1.041   1.909  14.043  0.2143 -0.8314  0.6616
 2727SOL    HW119817   1.081   1.996  14.036 -1.0034 -0.3017  0.2705
 2727SOL    HW219818   0.948   1.933  14.044 -0.0815 -1.8869 -1.0032
 2728SOL     OW19819   2.296   4.424   4.404 -0.4081 -0.2948 -0.6679
 2728SOL    HW119820   2.242   4.412   4.326 -1.1869  2.5030 -0.5465
 2728SOL    HW219821   2.382   4.399   4.370 -0.0270 -0.9617  0.7756
 2729SOL     OW19822   4.526   3.012   0.930 -0.1724 -0.5828  0.0092
 2729SOL    HW119823   4.611   3.053   0.946  1.1690 -3.8918  1.3125
 2729SOL    HW219824   4.473   3.044   1.003 -0.5830 -2.6932  0.6158
 2730SOL     OW19825   1.223   1.736  10.385  0.4699 -0.3131  0.5717
 2730SOL    HW119826   1.191   1.647  10.367 -1.0976  0.3808 -0.0909
 2730SOL    HW219827   1.314   1.723  10.358  0.5431  1.2838  0.0452
 2731SOL     OW19828   1.960   3.464   9.413 -0.2306  0.1839  0.7294
 2731SOL    HW119829   2.036   3.499   9.367 -1.1758  3.4739  1.6841
 2731SOL    HW219830   1.911   3.545   9.402  0.1915  0.4353  0.7118
 2732SOL     OW19831   1.348   2.435   5.958 -0.3400  0.3263 -0.1802
 2732SOL    HW119832   1.439   2.404   5.953 -0.5915 -0.0104 -2.4997
 2732SOL    HW219833   1.335   2.428   6.053  2.9050  0.8426  0.3056
 2733SOL     OW19834   4.269   1.690   6.505  0.8318 -0.3437 -0.7087
 2733SOL    HW119835   4.214   1.613   6.521  0.4005  0.0835 -0.1179
 2733SOL    HW219836   4.352   1.647   6.486  0.5161 -0.8463 -0.9568
 2734SOL     OW19837   2.925   2.744   8.373  0.4265 -0.0510 -0.0373
 2734SOL    HW119838   2.966   2.811   8.428 -2.0200  0.5360  1.0736
 2734SOL    HW219839   2.880   2.703   8.447  2.1966  0.0473  1.0985
 2735SOL     OW19840   0.991   2.337   7.511 -0.3140  0.0416  0.0930
 2735SOL    HW119841   1.006   2.307   7.601  0.3864 -0.6129 -0.2343
 2735SOL    HW219842   0.987   2.250   7.470  0.4727 -0.7942  1.7458
 2736SOL     OW19843   0.384   0.150  15.608 -0.0419  0.0357 -0.0514
 2736SOL    HW119844   0.444   0.188  15.544  0.2189  0.0577  0.2059
 2736SOL    HW219845   0.429   0.182  15.686 -2.1836  0.9637  0.8258
 2737SOL     OW19846   2.142   3.129  15.043 -0.5982 -0.1798  0.2295
 2737SOL    HW119847   2.186   3.207  15.077  2.5085 -1.7816 -0.1061
 2737SOL    HW219848   2.051   3.136  15.073  0.0606  2.3163  1.6671
 2738SOL     OW19849   2.692   4.019  16.711 -0.1982 -0.3431 -0.8509
 2738SOL    HW119850   2.663   4.056  16.795  2.3951  1.4490 -0.7685
 2738SOL    HW219851   2.689   4.098  16.657  0.1612  0.8707  0.9214
 2739SOL     OW19852   4.389   1.905   5.128  0.8574 -0.3742 -0.0011
 2739SOL    HW119853   4.330   1.835   5.102 -0.1459  0.3915  0.2212
 2739SOL    HW219854   4.377   1.905   5.223  0.5275 -3.2672 -0.0468
 2740SOL     OW19855   2.684   1.688   6.881  0.2541  0.0929  0.1806
 2740SOL    HW119856   2.656   1.722   6.966  0.1085  0.1567  0.1055
 2740SOL    HW219857   2.779   1.691   6.896  0.3101 -1.9812  0.2252
 2741SOL     OW19858   1.019   1.376  11.870 -0.2565  0.5055 -0.2587
 2741SOL    HW119859   0.963   1.308  11.907 -0.6392  0.7783 -0.3405
 2741SOL    HW219860   1.084   1.379  11.940 -0.6080 -1.0868  0.1324
 2742SOL     OW19861   3.174   1.490   8.577 -0.1539 -0.1012 -0.3366
 2742SOL    HW119862   3.137   1.420   8.523 -0.4757  1.4846 -2.1659
 2742SOL    HW219863   3.264   1.509   8.548  0.3286 -1.4251  0.2682
 2743SOL     OW19864   4.711   2.329  13.810 -0.0478 -0.6885 -0.3854
 2743SOL    HW119865   0.042   2.290  13.867  1.4481  0.2787 -1.4885
 2743SOL    HW219866   4.642   2.262  13.809 -1.2600  0.5725 -0.3977
 2744SOL     OW19867   1.790   1.029  13.939  0.0626 -0.6504  0.4019
 2744SOL    HW119868   1.759   1.112  13.903  0.4507 -0.9235 -0.5614
 2744SOL    HW219869   1.766   0.973  13.866 -1.2965 -0.9536  1.0713
 2745SOL     OW19870   0.346   3.804  12.584 -0.0021 -0.0228  0.1394
 2745SOL    HW119871   0.354   3.847  12.499 -2.1904  1.3301  0.6191
 2745SOL    HW219872   0.278   3.739  12.570  1.1939 -1.1477 -0.5180
 2746SOL     OW19873   1.245   1.656   8.013 -0.1913 -0.0767  0.0446
 2746SOL    HW119874   1.308   1.699   8.071  0.6023 -0.1770 -0.7329
 2746SOL    HW219875   1.274   1.697   7.931 -0.1812  0.1162  0.1461
 2747SOL     OW19876   3.700   4.660   4.031 -0.0062 -0.2411  0.2714
 2747SOL    HW119877   3.644   4.653   4.108  1.2617 -1.9209  1.0598
 2747SOL    HW219878   3.777   4.685   4.082  0.5238  2.0306 -1.6649
 2748SOL     OW19879   1.727   3.012   8.992 -0.2451  0.0733  0.2779
 2748SOL    HW119880   1.655   2.971   9.040 -1.4080  0.7382 -0.8952
 2748SOL    HW219881   1.763   2.946   8.933 -0.6696  0.9122 -0.9187
 2749SOL     OW19882   1.601   0.421   7.182  0.2110 -0.5262 -0.0123
 2749SOL    HW119883   1.625   0.509   7.154  0.5271 -0.7912 -0.5544
 2749SOL    HW219884   1.535   0.444   7.248  0.1905  0.1455 -0.2696
 2750SOL     OW19885   2.654   3.023   6.376 -0.6598  0.2881  0.2938
 2750SOL    HW119886   2.602   3.071   6.440  0.6693 -0.4832  1.9361
 2750SOL    HW219887   2.609   3.056   6.297 -1.9061 -0.8991  0.5042
 2751SOL     OW19888   1.137   1.906  12.591  0.0252  0.6072 -0.2913
 2751SOL    HW119889   1.172   1.992  12.571  0.5628  0.1965 -1.0799
 2751SOL    HW219890   1.178   1.852  12.524 -0.5949 -1.1203  0.7082
 2752SOL     OW19891   1.451   4.260   1.161  0.4043  0.4670  0.2140
 2752SOL    HW119892   1.492   4.346   1.177  2.9735 -0.7764  0.2269
 2752SOL    HW219893   1.489   4.240   1.075  2.6035  3.8199  0.3850
 2753SOL     OW19894   2.394   2.588   7.197 -0.0530  0.3679  0.0740
 2753SOL    HW119895   2.365   2.527   7.265  1.5276 -0.6158 -0.1364
 2753SOL    HW219896   2.377   2.528   7.124  0.1374  0.1035  0.2476
 2754SOL     OW19897   0.914   1.670   0.444 -0.0894 -0.1715 -0.3876
 2754SOL    HW119898   0.947   1.631   0.525  0.5044 -0.9218 -0.9979
 2754SOL    HW219899   0.992   1.709   0.405  0.0169 -0.2424 -0.2467
 2755SOL     OW19900   1.692   2.095  15.298 -0.0731  0.7547  0.2747
 2755SOL    HW119901   1.739   2.033  15.353 -0.9358 -0.2483 -0.1218
 2755SOL    HW219902   1.731   2.177  15.329  0.3178  1.3660 -1.7973
 2756SOL     OW19903   3.584   3.986  17.617  0.0096  0.4728 -0.5934
 2756SOL    HW119904   3.628   4.024  17.540  0.2690  0.7497 -0.3099
 2756SOL    HW219905   3.495   4.020  17.609 -0.7242 -1.8847 -2.3094
 2757SOL     OW19906   0.037   0.486   6.208  0.1486  0.2549 -0.0354
 2757SOL    HW119907   0.100   0.444   6.267  2.0597  1.7839 -1.0069
 2757SOL    HW219908   0.034   0.419   6.140 -2.4112  0.6730 -0.3243
 2758SOL     OW19909   2.204   0.108   6.558  0.3422 -0.4085  0.5218
 2758SOL    HW119910   2.194   0.021   6.519  1.1029 -0.4906  0.5132
 2758SOL    HW219911   2.190   0.077   6.647 -1.0772 -0.4683  0.2824
 2759SOL     OW19912   3.328   1.490   3.981  0.2198 -0.0022 -0.2544
 2759SOL    HW119913   3.263   1.533   3.925  1.1314  1.7389  0.0264
 2759SOL    HW219914   3.327   1.551   4.055  1.1585 -1.4243  0.9217
 2760SOL     OW19915   0.816   0.375   7.822  0.2722 -0.1077 -0.7787
 2760SOL    HW119916   0.748   0.443   7.824  1.1217  0.7092  0.0890
 2760SOL    HW219917   0.771   0.306   7.872  2.6397 -0.3256  1.0332
 2761SOL     OW19918   4.184   0.923   7.461 -0.3949 -0.6281 -0.1295
 2761SOL    HW119919   4.131   0.982   7.409 -2.8936 -1.5687  1.3792
 2761SOL    HW219920   4.145   0.936   7.548 -0.8132  0.1294 -0.4383
 2762SOL     OW19921   3.062   1.470   7.287 -0.3337  0.2698  0.7689
 2762SOL    HW119922   3.006   1.402   7.252 -1.2967  0.2910  2.2740
 2762SOL    HW219923   3.087   1.419   7.364  0.8992 -1.1423 -0.5662
 2763SOL     OW19924   1.792   1.108   7.668 -0.2754  0.2548 -0.1425
 2763SOL    HW119925   1.762   1.192   7.633  2.3088  1.6194  1.0140
 2763SOL    HW219926   1.879   1.125   7.704 -0.0761 -1.4315  0.1897
 2764SOL     OW19927   4.457   1.240   8.661  0.1768  0.0682 -0.1145
 2764SOL    HW119928   4.440   1.227   8.754  0.4068 -2.3393 -0.4114
 2764SOL    HW219929   4.387   1.299   8.634  1.3374  0.4609 -2.2816
 2765SOL     OW19930   0.542   1.236   7.705  0.1702  0.3090  0.0140
 2765SOL    HW119931   0.511   1.146   7.714 -2.8554  1.4551  0.9954
 2765SOL    HW219932   0.533   1.271   7.794 -2.2316  0.4572 -0.2786
 2766SOL     OW19933   3.529   3.167   7.224  0.1814  0.1797 -0.1400
 2766SOL    HW119934   3.443   3.208   7.233 -0.4063 -0.5750 -2.1415
 2766SOL    HW219935   3.531   3.104   7.295 -0.4856 -0.5372 -0.7572
 2767SOL     OW19936   4.500   1.431  14.716 -0.1753  0.1958 -0.1326
 2767SOL    HW119937   4.562   1.384  14.660 -0.9376 -1.1318  0.1252
 2767SOL    HW219938   4.431   1.453  14.653 -1.2859 -0.7757  0.7479
 2768SOL     OW19939   2.971   3.235  10.949 -0.6472  0.1125 -0.0349
 2768SOL    HW119940   2.907   3.164  10.939  0.2377 -0.7649  0.5532
 2768SOL    HW219941   2.987   3.259  10.858  0.0045  0.3344  0.1431
 2769SOL     OW19942   0.602   2.034   9.000 -0.9869  0.2710 -0.2376
 2769SOL    HW119943   0.675   1.986   9.040  0.2740  3.0217  0.7797
 2769SOL    HW219944   0.620   2.041   8.906 -1.1038  0.0288 -0.2773
 2770SOL     OW19945   3.327   3.502   2.632 -0.6592 -0.2157  0.4350
 2770SOL    HW119946   3.354   3.527   2.543 -0.9140 -1.7014 -0.0632
 2770SOL    HW219947   3.244   3.548   2.637 -0.4317  0.1484  0.7879
 2771SOL     OW19948   3.519   3.797  11.851  0.4883  0.3093 -0.3987
 2771SOL    HW119949   3.571   3.839  11.920  0.6137  2.2251 -1.6585
 2771SOL    HW219950   3.554   3.708  11.849  0.3048  0.2014  0.7733
 2772SOL     OW19951   1.827   2.927   1.102  0.3757 -0.0930 -0.4533
 2772SOL    HW119952   1.743   2.889   1.078  0.5670 -0.5889 -0.3454
 2772SOL    HW219953   1.873   2.843   1.107  0.3123 -0.1218 -0.3631
 2773SOL     OW19954   3.043   1.193   8.024 -0.4242  0.1185 -0.0273
 2773SOL    HW119955   3.019   1.160   7.937  0.5149 -0.6339 -0.0107
 2773SOL    HW219956   3.108   1.125   8.045 -0.6920  0.0263  0.4948
 2774SOL     OW19957   1.977   2.608   6.987 -0.1577  0.1689  0.2651
 2774SOL    HW119958   2.037   2.657   6.931 -0.2983 -0.6097 -0.5737
 2774SOL    HW219959   1.895   2.633   6.944 -0.2442 -1.6044 -0.5927
 2775SOL     OW19960   2.025   2.638   0.299 -0.4206  1.0193 -0.0218
 2775SOL    HW119961   2.014   2.645   0.204 -1.6462  0.4554  0.0767
 2775SOL    HW219962   2.114   2.604   0.298 -0.6659  0.3646  0.2699
 2776SOL     OW19963   1.507   2.937   4.711 -0.0357  0.5422  0.0893
 2776SOL    HW119964   1.434   2.915   4.769  1.6913 -0.9002  1.6796
 2776SOL    HW219965   1.583   2.927   4.768 -0.2299 -0.4893  0.1523
 2777SOL     OW19966   0.424   2.051  11.559  0.5512 -0.0360  0.1788
 2777SOL    HW119967   0.410   1.969  11.606 -1.9705 -0.5306 -1.4572
 2777SOL    HW219968   0.518   2.065  11.574  0.5551  2.5658 -2.2774
 2778SOL     OW19969   1.482   3.153   7.032  0.4612  0.1901 -0.6804
 2778SOL    HW119970   1.489   3.103   7.113 -1.0983  0.1831 -0.5528
 2778SOL    HW219971   1.508   3.239   7.064  1.5159 -0.2904 -0.2594
 2779SOL     OW19972   1.732   2.665   8.419  0.5069 -0.0428 -0.0852
 2779SOL    HW119973   1.753   2.621   8.502  0.6203  0.3549  0.0971
 2779SOL    HW219974   1.816   2.652   8.375  1.3404  0.7865  1.2251
 2780SOL     OW19975   2.641   0.592   7.020 -0.2110 -0.1749  0.2658
 2780SOL    HW119976   2.569   0.638   7.063  0.8890  0.0425  1.8699
 2780SOL    HW219977   2.602   0.509   6.993 -0.5263 -0.2420  0.9440
 2781SOL     OW19978   1.549   0.847  17.270  0.2158  0.2094  0.1708
 2781SOL    HW119979   1.630   0.806  17.241 -0.4326 -0.9968  0.0724
 2781SOL    HW219980   1.564   0.940  17.255 -0.7500  0.0784 -1.6715
 2782SOL     OW19981   2.961   4.535   3.851  0.0836  0.3396  0.2875
 2782SOL    HW119982   2.924   4.456   3.891  1.2969 -0.0024  0.7102
 2782SOL    HW219983   2.998   4.509   3.767 -0.7218 -0.0184  0.0417
 2783SOL     OW19984   3.806   0.238   2.473  0.4301 -0.1647 -0.0291
 2783SOL    HW119985   3.781   0.148   2.491 -0.1927  0.0605  0.2321
 2783SOL    HW219986   3.749   0.292   2.528  2.1163 -0.4501  2.0199
 2784SOL     OW19987   0.363   3.407   7.493 -0.2290  0.1214  0.3867
 2784SOL    HW119988   0.355   3.312   7.484 -0.2632  0.1894 -0.2817
 2784SOL    HW219989   0.329   3.432   7.408  1.1648  0.6843 -0.0041
 2785SOL     OW19990   0.282   3.806  11.540  0.2981  0.3584 -0.0649
 2785SOL    HW119991   0.361   3.768  11.578  2.1375  3.0690 -1.1235
 2785SOL    HW219992   0.309   3.873  11.477 -2.4003  1.6963  0.2145
 2786SOL     OW19993   0.505   3.478  14.879 -0.3582  0.0169  0.2996
 2786SOL    HW119994   0.439   3.520  14.934  1.1394  0.6407  1.6518
 2786SOL    HW219995   0.573   3.483  14.947 -0.1240  0.2048  0.0536
 2787SOL     OW19996   3.609   1.611   2.725 -0.1404 -0.0815 -0.3722
 2787SOL    HW119997   3.565   1.696   2.725  0.5748  0.2670  3.4141
 2787SOL    HW219998   3.694   1.643   2.696 -0.5557  1.3246 -0.0349
 2788SOL     OW19999   3.090   1.309   8.377 -0.2712  0.1749 -0.4487
 2788SOL    HW120000   3.156   1.247   8.347  0.2710  0.2094  0.6497
 2788SOL    HW220001   3.016   1.253   8.400  0.0499 -0.1025 -0.0960
 2789SOL     OW20002   2.521   1.120   8.663 -0.4519  0.0932 -1.1377
 2789SOL    HW120003   2.445   1.169   8.632 -0.0297  2.5363  1.7420
 2789SOL    HW220004   2.596   1.178   8.647  0.3041 -0.6433 -0.3264
 2790SOL     OW20005   0.539   3.588   7.460  0.0532 -0.0475  0.4687
 2790SOL    HW120006   0.574   3.641   7.532 -0.1565  0.0709  0.4849
 2790SOL    HW220007   0.483   3.528   7.509  0.5005  0.6749  1.8738
 2791SOL     OW20008   3.579   2.044   3.658 -0.0514  0.6869 -0.0178
 2791SOL    HW120009   3.509   1.994   3.615  0.6775  1.2502 -1.8448
 2791SOL    HW220010   3.652   1.982   3.649 -1.2130 -0.8179  0.8453
 2792SOL     OW20011   1.008   1.009   1.621  0.3611 -0.0363  0.0853
 2792SOL    HW120012   0.920   0.988   1.590 -0.1779  2.0782  0.1951
 2792SOL    HW220013   1.001   0.993   1.715 -0.2811 -0.4437 -0.0333
 2793SOL     OW20014   4.132   2.864  11.406  0.4679 -0.2485 -0.1177
 2793SOL    HW120015   4.093   2.824  11.483  1.2418  2.0367  1.4410
 2793SOL    HW220016   4.059   2.887  11.348  0.2964 -0.8621 -0.1474
 2794SOL     OW20017   0.211   3.869   6.926 -0.5151  0.5376  0.0718
 2794SOL    HW120018   0.287   3.881   6.869 -0.0778  2.5835  1.0604
 2794SOL    HW220019   0.248   3.900   7.008  0.6515 -1.3716  0.2532
 2795SOL     OW20020   3.736   4.525   1.534 -0.1582  0.8899  0.2095
 2795SOL    HW120021   3.729   4.430   1.531  1.9553  0.6403  3.3360
 2795SOL    HW220022   3.708   4.538   1.624  0.5690  0.8587  0.4424
 2796SOL     OW20023   4.232   3.028   3.029  0.2914 -0.2536 -0.4276
 2796SOL    HW120024   4.253   2.983   3.111  4.2069  1.1104 -0.6578
 2796SOL    HW220025   4.231   2.959   2.963 -0.4346  1.5437 -2.2718
 2797SOL     OW20026   2.236   3.786   6.568 -0.1866 -0.2221 -0.0641
 2797SOL    HW120027   2.153   3.814   6.608  0.3404 -0.6037  1.3034
 2797SOL    HW220028   2.215   3.693   6.567  0.6173 -0.3286 -3.7979
 2798SOL     OW20029   2.009   2.303   7.328 -0.1702 -0.3026 -0.2346
 2798SOL    HW120030   1.956   2.377   7.296 -1.3384  0.1812  2.8268
 2798SOL    HW220031   1.965   2.226   7.292  0.1139 -0.5713 -0.0004
 2799SOL     OW20032   1.725   3.045   5.785  0.0472 -0.0147 -0.7339
 2799SOL    HW120033   1.738   2.959   5.743  0.6907  0.1544 -0.8886
 2799SOL    HW220034   1.630   3.051   5.791 -0.1070 -0.6300 -2.6751
 2800SOL     OW20035   3.029   3.475   4.144  0.2324 -0.0476 -0.3428
 2800SOL    HW120036   2.989   3.558   4.170  3.2558  1.3840 -0.2312
 2800SOL    HW220037   2.960   3.412   4.163  0.6034 -0.2260  0.4207
 2801SOL     OW20038   1.453   2.725  13.219 -0.0671 -0.0518 -0.0177
 2801SOL    HW120039   1.405   2.794  13.172 -3.5360 -1.6279  1.1958
 2801SOL    HW220040   1.539   2.754  13.191 -0.9119  2.2686 -0.2772
 2802SOL     OW20041   3.675   0.564  11.876 -0.3310 -0.1483  0.1585
 2802SOL    HW120042   3.598   0.508  11.882 -0.1289 -0.5628 -1.1869
 2802SOL    HW220043   3.655   0.640  11.930 -1.3250 -0.4617  0.2248
 2803SOL     OW20044   2.610   2.756  11.433  0.0700 -0.0563  0.0222
 2803SOL    HW120045   2.591   2.710  11.515 -0.8032  0.0725 -0.1047
 2803SOL    HW220046   2.658   2.685  11.392 -0.3833 -0.3980  0.0857
 2804SOL     OW20047   1.675   3.632   8.348 -0.1868  0.9310  0.2515
 2804SOL    HW120048   1.742   3.583   8.302 -0.7657  0.1797  0.2110
 2804SOL    HW220049   1.595   3.591   8.314 -0.2033  0.3813  0.9502
 2805SOL     OW20050   2.203   0.651   6.645  0.4358 -0.3067 -0.5365
 2805SOL    HW120051   2.167   0.563   6.641  0.6673 -0.2855 -2.8382
 2805SOL    HW220052   2.263   0.637   6.718 -1.6871 -3.1045  0.6554
 2806SOL     OW20053   0.490   1.584   9.304  0.0569 -0.0062 -0.1676
 2806SOL    HW120054   0.581   1.578   9.333  0.4760  2.4979 -0.9855
 2806SOL    HW220055   0.439   1.618   9.378 -0.4051 -2.3745  0.5975
 2807SOL     OW20056   0.374   2.472   3.249  0.1146 -0.4404  0.1092
 2807SOL    HW120057   0.451   2.448   3.198  1.7722 -1.6385  3.1365
 2807SOL    HW220058   0.325   2.536   3.196  1.3753  0.4767  0.0494
 2808SOL     OW20059   4.547   1.958   6.904  0.2783 -0.2148  0.7605
 2808SOL    HW120060   4.563   2.033   6.960  0.2512  0.4091 -0.0618
 2808SOL    HW220061   4.451   1.959   6.899  0.2296 -2.3854  1.4776
 2809SOL     OW20062   0.297   0.313  17.210 -0.3457  0.4518 -0.1465
 2809SOL    HW120063   0.308   0.408  17.203 -0.0762  0.1882 -3.1007
 2809SOL    HW220064   0.239   0.297  17.136 -0.8195  0.5886  0.1958
 2810SOL     OW20065   2.462   2.007  12.790 -0.6389  0.2070  0.8691
 2810SOL    HW120066   2.457   2.052  12.705 -0.6259  0.0022  0.7602
 2810SOL    HW220067   2.554   2.025  12.806 -0.2058 -2.2459  1.1360
 2811SOL     OW20068   3.097   4.527  17.280 -0.2985  0.1756 -0.0105
 2811SOL    HW120069   3.130   4.602  17.231  0.4311 -0.3941 -0.3966
 2811SOL    HW220070   3.036   4.486  17.219  1.0594 -1.8461 -0.0185
 2812SOL     OW20071   3.087   0.979   7.691 -0.3764  0.0058 -0.0634
 2812SOL    HW120072   3.011   0.991   7.748  1.0895 -1.2864  2.1687
 2812SOL    HW220073   3.111   0.890   7.716 -1.3268 -0.3321 -0.3640
 2813SOL     OW20074   4.257   2.529  15.995 -0.4224  0.1032  0.2911
 2813SOL    HW120075   4.309   2.608  16.012 -1.0283  0.1435  1.9182
 2813SOL    HW220076   4.294   2.484  16.071 -3.1326 -3.0022 -0.2409
 2814SOL     OW20077   2.762   0.082  17.311 -0.0307 -0.1046 -0.2648
 2814SOL    HW120078   2.676   0.088  17.351 -0.5311  1.5060 -1.5832
 2814SOL    HW220079   2.748   0.078  17.217  1.5911  0.3717 -0.5275
 2815SOL     OW20080   2.930   3.522   5.657 -0.1034 -0.5055 -0.0674
 2815SOL    HW120081   2.986   3.465   5.604 -2.2361 -1.6072 -1.1182
 2815SOL    HW220082   2.892   3.580   5.591  0.8266 -1.6861 -1.6236
 2816SOL     OW20083   3.221   0.479   7.410 -0.1671  0.5805  0.5365
 2816SOL    HW120084   3.231   0.542   7.481 -0.7765 -0.3958  1.4957
 2816SOL    HW220085   3.315   0.474   7.393 -0.3345  2.1765 -0.9102
 2817SOL     OW20086   1.559   3.207   4.227 -0.2332 -0.3754 -0.5087
 2817SOL    HW120087   1.505   3.156   4.166  1.2704 -0.8462 -1.4338
 2817SOL    HW220088   1.544   3.145   4.299 -1.8944  0.6378  0.0284
 2818SOL     OW20089   2.783   1.840   8.224  0.2321  0.8276 -0.4931
 2818SOL    HW120090   2.839   1.905   8.267  0.6687 -1.1406  1.9694
 2818SOL    HW220091   2.833   1.761   8.248 -0.5710  0.8962  1.4093
 2819SOL     OW20092   2.135   4.513  10.023 -1.0068  0.6763 -0.4714
 2819SOL    HW120093   2.216   4.553   9.992  0.4652 -1.1965  0.9523
 2819SOL    HW220094   2.092   4.477   9.946 -0.0003  0.6226 -0.9991
 2820SOL     OW20095   1.746   3.059   5.108 -0.3024 -0.2506  0.3154
 2820SOL    HW120096   1.753   3.139   5.056 -1.3283  0.1155  0.7393
 2820SOL    HW220097   1.772   3.080   5.198  3.0818  2.2842 -1.2326
 2821SOL     OW20098   1.141   2.219   5.882  0.8131  0.2890 -0.4567
 2821SOL    HW120099   1.212   2.156   5.872  0.4955 -0.0391 -0.6098
 2821SOL    HW220100   1.192   2.292   5.919 -1.8236  2.6754 -1.5440
 2822SOL     OW20101   2.963   1.207  13.852 -0.2667 -0.2139  0.9540
 2822SOL    HW120102   2.921   1.130  13.813 -1.2457  1.6693 -1.7188
 2822SOL    HW220103   2.907   1.231  13.926 -3.2982  0.1530 -1.4570
 2823SOL     OW20104   4.493   1.402   6.651  0.3072 -0.1477  0.3545
 2823SOL    HW120105   4.534   1.478   6.693  1.1356  0.0981 -0.9088
 2823SOL    HW220106   4.451   1.349   6.719 -0.9252  2.5815  1.7079
 2824SOL     OW20107   1.851   2.508   0.455  0.8081 -0.2330 -0.4397
 2824SOL    HW120108   1.903   2.561   0.395 -0.1543  0.4481 -0.6685
 2824SOL    HW220109   1.784   2.565   0.492  1.2891 -0.2089  0.3833
 2825SOL     OW20110   3.987   1.812   2.565 -0.2730 -0.1772 -0.2853
 2825SOL    HW120111   4.064   1.781   2.612 -0.4358  1.4813  1.0775
 2825SOL    HW220112   3.957   1.729   2.527  0.4654 -1.7932  2.7140
 2826SOL     OW20113   2.537   2.124  12.533  0.4470 -0.0951 -0.5655
 2826SOL    HW120114   2.548   2.033  12.504 -1.1257 -0.6877  0.7074
 2826SOL    HW220115   2.481   2.168  12.468  0.7646 -0.5519 -1.1553
 2827SOL     OW20116   0.340   4.509   3.634  0.5647 -0.6800  0.9238
 2827SOL    HW120117   0.390   4.428   3.647  0.2762 -1.2851 -1.9016
 2827SOL    HW220118   0.402   4.571   3.596  1.4382 -2.4691 -0.6018
 2828SOL     OW20119   4.702   1.428   0.538  0.1912 -0.5417  0.3896
 2828SOL    HW120120   4.628   1.399   0.486  0.4571  1.7105 -1.2166
 2828SOL    HW220121   4.680   1.521   0.541  2.6793  0.0243  1.3680
 2829SOL     OW20122   0.533   3.619  13.435 -0.2355 -0.8710 -0.5437
 2829SOL    HW120123   0.602   3.552  13.436  0.0488 -0.5644  0.7468
 2829SOL    HW220124   0.567   3.687  13.494 -0.9771 -0.1169 -0.9851
 2830SOL     OW20125   0.594   3.645   2.010  0.1054 -0.6308  0.5764
 2830SOL    HW120126   0.507   3.657   2.047 -0.1133 -1.2423  0.2587
 2830SOL    HW220127   0.620   3.733   1.983 -1.1789 -0.5473 -0.3575
 2831SOL     OW20128   0.874   0.004   5.225 -0.2344 -0.0853 -0.2429
 2831SOL    HW120129   0.941   4.729   5.292 -1.8772  1.8538  1.7452
 2831SOL    HW220130   0.835   4.653   5.228  0.7483 -0.5860 -2.4728
 2832SOL     OW20131   3.115   2.655   7.845 -0.5351  0.0079  0.6275
 2832SOL    HW120132   3.106   2.715   7.772 -1.8133 -0.1278  0.6645
 2832SOL    HW220133   3.169   2.707   7.905 -1.9483  1.6980  0.4378
 2833SOL     OW20134   0.304   4.555  12.341  0.2835  0.4010  0.1551
 2833SOL    HW120135   0.330   4.514  12.423  1.0224  1.0975  0.2802
 2833SOL    HW220136   0.362   4.502  12.287 -1.8572 -0.3401 -1.3894
 2834SOL     OW20137   0.195   1.698   6.183  0.1484 -0.3751 -0.3951
 2834SOL    HW120138   0.201   1.602   6.182  1.3191 -0.3027 -0.2082
 2834SOL    HW220139   0.177   1.716   6.275 -0.4946  1.8769 -0.9646
 2835SOL     OW20140   0.806   4.519  13.098 -0.3454  0.0296 -0.1078
 2835SOL    HW120141   0.774   4.435  13.066 -1.8159 -0.0384  1.5130
 2835SOL    HW220142   0.901   4.509  13.089 -0.7157 -3.0236 -0.6596
 2836SOL     OW20143   0.426   0.904   2.679  0.4399 -0.6740 -0.0355
 2836SOL    HW120144   0.390   0.870   2.597 -3.4618  1.0113  0.9874
 2836SOL    HW220145   0.495   0.967   2.659  1.2454 -1.7910 -0.8035
 2837SOL     OW20146   2.585   4.072   8.644 -0.0434  0.0017  0.1118
 2837SOL    HW120147   2.527   4.126   8.590  2.2811  0.7229 -1.6364
 2837SOL    HW220148   2.618   4.006   8.583  1.3032 -0.8449  1.7656
 2838SOL     OW20149   0.393   2.983   9.036  0.1922 -0.0441 -0.3285
 2838SOL    HW120150   0.322   3.021   8.984 -0.3451  1.0402  1.1849
 2838SOL    HW220151   0.344   2.937   9.104  0.1204 -0.7147 -0.8305
 2839SOL     OW20152   1.621   3.209  16.761  0.3944  0.6023 -0.6118
 2839SOL    HW120153   1.557   3.145  16.792  1.3848  0.1131  0.4499
 2839SOL    HW220154   1.653   3.246  16.844  0.9110 -0.6132 -0.2539
 2840SOL     OW20155   0.954   2.093   6.602  0.2120  0.1759 -0.4077
 2840SOL    HW120156   0.920   2.036   6.671 -0.2127  0.6999 -0.1858
 2840SOL    HW220157   0.902   2.085   6.522  1.6286 -0.2901 -1.2823
 2841SOL     OW20158   3.550   2.027   7.877  0.2847 -0.1888 -0.0355
 2841SOL    HW120159   3.593   2.084   7.941  1.2167 -1.0418  0.1014
 2841SOL    HW220160   3.479   1.980   7.919 -0.4406 -0.7445 -1.8822
 2842SOL     OW20161   1.674   3.756   0.070  0.3940  0.7159 -0.1184
 2842SOL    HW120162   1.581   3.771   0.088  0.0203  0.5152 -1.8525
 2842SOL    HW220163   1.714   3.819   0.130 -0.5058 -0.1660  1.4074
 2843SOL     OW20164   3.455   3.654   0.479 -0.5526 -0.1991 -0.0529
 2843SOL    HW120165   3.513   3.693   0.413 -1.1850  4.4772  2.1587
 2843SOL    HW220166   3.382   3.604   0.442 -1.5612  1.2256  0.0331
 2844SOL     OW20167   3.770   2.634   6.244  0.2908  0.1865  0.0553
 2844SOL    HW120168   3.721   2.655   6.165  0.4462  1.0412  0.1874
 2844SOL    HW220169   3.841   2.581   6.206  0.0390 -0.4622  0.4896
 2845SOL     OW20170   4.084   4.713   5.218 -0.1489  0.4034  0.1943
 2845SOL    HW120171   4.101   4.620   5.233 -0.1773  0.4673  0.6177
 2845SOL    HW220172   4.120   0.018   5.296 -0.4613  1.3882 -0.1847
 2846SOL     OW20173   4.096   1.811   9.731  0.0006  0.2964 -0.3585
 2846SOL    HW120174   4.022   1.866   9.705  0.5902  0.7163 -1.1431
 2846SOL    HW220175   4.152   1.881   9.765 -1.1164 -0.4348  2.9426
 2847SOL     OW20176   0.969   3.393   2.393  0.1545  0.2055 -0.0962
 2847SOL    HW120177   0.919   3.464   2.433  0.5086  0.5090 -0.1958
 2847SOL    HW220178   1.033   3.441   2.340  0.1086  1.4356  0.9570
 2848SOL     OW20179   4.513   3.604   8.117 -0.6253 -0.6023  0.2403
 2848SOL    HW120180   4.515   3.682   8.063 -2.4970 -1.0160 -0.4308
 2848SOL    HW220181   4.421   3.579   8.106 -0.7656 -1.0040  2.2018
 2849SOL     OW20182   0.278   3.739   4.791 -0.2061  0.0912  0.4713
 2849SOL    HW120183   0.228   3.715   4.869 -4.3149  3.1809 -1.2466
 2849SOL    HW220184   0.338   3.664   4.786 -1.0066 -0.5399  0.3221
 2850SOL     OW20185   2.510   0.647   6.634  0.1811 -0.0859 -0.2482
 2850SOL    HW120186   2.499   0.669   6.727 -3.4349  2.0111 -1.2225
 2850SOL    HW220187   2.563   0.567   6.636  1.2493  0.6115 -0.3790
 2851SOL     OW20188   3.252   3.992   9.434 -0.5779  0.0548  0.3139
 2851SOL    HW120189   3.343   4.022   9.427 -0.9437  1.3864  1.0290
 2851SOL    HW220190   3.221   4.057   9.498 -1.6990 -1.2978  1.1377
 2852SOL     OW20191   3.539   0.186  10.133  0.3167 -0.3365 -0.3670
 2852SOL    HW120192   3.470   0.230  10.085  0.6184  0.9378  0.3689
 2852SOL    HW220193   3.602   0.165  10.063 -0.6864  0.1673 -1.4259
 2853SOL     OW20194   2.632   0.923  14.008  0.2158 -0.0266 -0.0593
 2853SOL    HW120195   2.677   1.000  13.974  1.4672 -1.3982 -1.5375
 2853SOL    HW220196   2.663   0.920  14.098  0.3369  3.2644  0.0111
 2854SOL     OW20197   4.324   0.851   2.856 -0.1887  0.0848  0.3412
 2854SOL    HW120198   4.391   0.901   2.903 -0.1995  1.0695 -0.6972
 2854SOL    HW220199   4.248   0.905   2.874  0.2069  1.0872 -1.0145
 2855SOL     OW20200   0.723   3.860   7.499  0.0850 -0.3134 -0.3966
 2855SOL    HW120201   0.631   3.851   7.524 -0.0337  1.1719 -0.2587
 2855SOL    HW220202   0.714   3.919   7.424  2.0203 -0.4589 -0.7560
 2856SOL     OW20203   2.609   1.406   8.398 -0.1376 -0.3851 -0.0288
 2856SOL    HW120204   2.672   1.405   8.470  0.3393 -0.2745 -0.4459
 2856SOL    HW220205   2.631   1.322   8.359 -0.2368 -1.0455  1.3201
 2857SOL     OW20206   2.830   3.203   0.767 -0.3121  0.2230 -0.2944
 2857SOL    HW120207   2.918   3.177   0.795  0.4784  1.8041 -1.3407
 2857SOL    HW220208   2.780   3.129   0.801  0.3500 -0.4224 -0.7307
 2858SOL     OW20209   3.515   2.216   5.997  0.1777  0.4033 -0.6647
 2858SOL    HW120210   3.538   2.203   6.089 -0.1471 -0.9647 -0.7665
 2858SOL    HW220211   3.474   2.131   5.978  0.0215 -0.1020  1.8542
 2859SOL     OW20212   2.867   2.977   7.733  0.0339 -0.4118 -0.3493
 2859SOL    HW120213   2.777   2.995   7.761  1.2681  0.7725  2.8338
 2859SOL    HW220214   2.912   3.059   7.751  0.7935 -0.3686 -2.5406
 2860SOL     OW20215   2.301   0.132   4.113 -0.1548  0.0902  0.0743
 2860SOL    HW120216   2.239   0.146   4.185  0.3315 -0.6938  0.6447
 2860SOL    HW220217   2.270   0.053   4.069  2.7374  0.0710 -1.9353
 2861SOL     OW20218   1.583   3.610   7.000 -0.2701 -0.1606 -0.0521
 2861SOL    HW120219   1.655   3.561   6.961  0.6197 -0.2107  1.6573
 2861SOL    HW220220   1.519   3.619   6.929  0.1145 -1.0624 -0.5145
 2862SOL     OW20221   3.141   0.620   8.456  0.5917  0.3571  0.5723
 2862SOL    HW120222   3.132   0.715   8.455  0.9435  0.3895 -1.8715
 2862SOL    HW220223   3.058   0.593   8.495 -0.7947  2.2459 -1.0923
 2863SOL     OW20224   2.867   2.874   7.381  0.3495 -0.2597 -0.4639
 2863SOL    HW120225   2.884   2.782   7.360 -0.5790 -0.6990  0.7365
 2863SOL    HW220226   2.797   2.898   7.320  0.7992 -0.1169 -0.9290
 2864SOL     OW20227   3.624   1.878  11.483  0.0402  0.4437 -0.1189
 2864SOL    HW120228   3.629   1.788  11.452 -3.6120  1.1399 -2.7395
 2864SOL    HW220229   3.712   1.912  11.469 -0.3839  2.0403  0.9983
 2865SOL     OW20230   1.953   3.746   8.897 -0.1006 -0.1650 -0.0859
 2865SOL    HW120231   1.883   3.680   8.892 -1.2120  0.8748  1.7997
 2865SOL    HW220232   1.984   3.717   8.983  1.6126 -1.7805 -1.2585
 2866SOL     OW20233   2.932   3.416  17.240  0.3315 -0.1956  0.2317
 2866SOL    HW120234   2.893   3.455  17.161 -2.2702  0.3269  1.7851
 2866SOL    HW220235   3.006   3.363  17.209  3.2607  2.3031  2.9147
 2867SOL     OW20236   1.214   0.407   7.751 -0.0949  0.4011 -0.0920
 2867SOL    HW120237   1.160   0.471   7.704  1.1905  0.5707 -1.3591
 2867SOL    HW220238   1.163   0.412   7.831  0.2795 -1.4829  0.2657
 2868SOL     OW20239   4.666   3.075   8.544 -0.2331 -0.4183  0.2013
 2868SOL    HW120240   0.013   3.031   8.528  0.6812  1.4898 -0.2663
 2868SOL    HW220241   4.614   3.017   8.599 -1.3253 -0.7122 -1.1185
 2869SOL     OW20242   2.720   3.399   0.017 -0.6293  1.0522 -0.2674
 2869SOL    HW120243   2.701   3.459   0.089  1.0045  2.3077 -0.8832
 2869SOL    HW220244   2.810   3.366   0.022 -0.3282  1.8467 -0.5254
 2870SOL     OW20245   0.625   4.121   8.735 -0.0532  0.4261 -0.1326
 2870SOL    HW120246   0.653   4.180   8.665  1.3650  0.1470  0.2106
 2870SOL    HW220247   0.679   4.047   8.709 -1.4269 -0.0190 -1.7329
 2871SOL     OW20248   1.010   1.475   5.224  0.0303 -0.5917 -0.2689
 2871SOL    HW120249   0.927   1.523   5.231  0.5651  0.4883 -1.3321
 2871SOL    HW220250   1.022   1.467   5.319 -0.2189  0.5789 -0.1292
 2872SOL     OW20251   1.425   3.888  13.927  0.2150 -0.1174 -0.2487
 2872SOL    HW120252   1.471   3.892  14.011  1.0258 -0.2837 -0.6909
 2872SOL    HW220253   1.377   3.971  13.926 -0.0450 -0.2824 -1.2567
 2873SOL     OW20254   1.143   2.405   5.460  0.7503  0.8687 -0.0971
 2873SOL    HW120255   1.174   2.427   5.547 -0.5297 -0.0029  0.5704
 2873SOL    HW220256   1.049   2.395   5.473  0.5680  1.3757 -0.9707
 2874SOL     OW20257   0.592   0.410  17.334 -0.7798 -0.2440  0.6322
 2874SOL    HW120258   0.666   0.359  17.367 -0.1363  0.0256 -0.4095
 2874SOL    HW220259   0.526   0.398  17.402 -0.1698 -0.3788  1.1992
 2875SOL     OW20260   3.797   4.359   7.585  0.8682 -0.0107 -0.1731
 2875SOL    HW120261   3.857   4.294   7.621  0.7081 -0.3911 -0.6002
 2875SOL    HW220262   3.796   4.327   7.494 -1.6669 -0.5334  0.0341
 2876SOL     OW20263   1.095   0.262   6.002 -0.4443 -0.0609 -0.1254
 2876SOL    HW120264   1.014   0.239   5.957  0.0509 -2.0846  0.0262
 2876SOL    HW220265   1.126   0.176   6.032  0.0529  0.6050  1.2434
 2877SOL     OW20266   4.549   3.684  11.819  0.6412  0.1245  1.1661
 2877SOL    HW120267   4.501   3.755  11.862  1.5882  0.2012  2.0850
 2877SOL    HW220268   4.632   3.725  11.796  0.0363  0.9202  0.3885
 2878SOL     OW20269   3.582   3.765   2.838 -0.0851 -0.0980  0.2680
 2878SOL    HW120270   3.560   3.755   2.746 -0.6163  1.3677  0.2343
 2878SOL    HW220271   3.622   3.680   2.856 -0.0916 -0.3224 -0.8006
 2879SOL     OW20272   0.054   3.107   4.302  0.2033 -0.1711 -0.0783
 2879SOL    HW120273   4.727   3.036   4.314  0.0857 -0.5916 -3.2246
 2879SOL    HW220274   0.079   3.111   4.395  2.1537  1.3377 -0.6728
 2880SOL     OW20275   2.392   0.792   7.359 -0.3536  0.1697  0.1651
 2880SOL    HW120276   2.467   0.850   7.349 -0.2386  0.0079  0.0908
 2880SOL    HW220277   2.361   0.785   7.269 -1.4315  1.6038  0.4183
 2881SOL     OW20278   0.282   3.062   7.199  0.1108  0.0878  0.3262
 2881SOL    HW120279   0.285   3.137   7.140  0.0137  1.6878  2.3525
 2881SOL    HW220280   0.286   2.982   7.147  0.0377  1.0951 -1.2023
 2882SOL     OW20281   0.782   1.858   7.867 -0.4959 -0.0260  0.2418
 2882SOL    HW120282   0.695   1.864   7.904  0.1660 -0.2831  1.8434
 2882SOL    HW220283   0.814   1.798   7.934 -2.2119 -0.2968  0.8134
 2883SOL     OW20284   0.344   1.075   9.238  0.2675  0.0101 -0.2654
 2883SOL    HW120285   0.349   1.144   9.304  1.2586 -1.0518  0.7719
 2883SOL    HW220286   0.402   1.005   9.268  1.7123  0.7124 -1.3772
 2884SOL     OW20287   3.930   0.841  13.427 -0.3998 -0.2124  0.4415
 2884SOL    HW120288   3.887   0.919  13.463 -0.9732 -0.4141  0.1819
 2884SOL    HW220289   3.953   0.871  13.339 -1.0372  0.6500  0.5731
 2885SOL     OW20290   1.814   0.915  15.039 -0.2923 -0.0521 -0.5037
 2885SOL    HW120291   1.846   0.946  15.124  2.9875 -0.2345 -1.6802
 2885SOL    HW220292   1.752   0.853  15.078 -0.8878  0.3912 -0.7476
 2886SOL     OW20293   2.730   4.383  17.327  0.2763 -0.0200  0.5571
 2886SOL    HW120294   2.794   4.386  17.256  1.4422  0.2926  1.6145
 2886SOL    HW220295   2.740   4.301  17.374  4.5577  0.0097 -0.2555
 2887SOL     OW20296   0.583   2.303   8.742 -0.4304  0.5316  0.0757
 2887SOL    HW120297   0.617   2.375   8.796  1.0862 -1.5263  1.8999
 2887SOL    HW220298   0.516   2.338   8.684 -0.1150  2.2093  0.7116
 2888SOL     OW20299   0.921   2.578  12.356  0.5860  1.3505 -0.2642
 2888SOL    HW120300   0.931   2.500  12.411  1.6264  1.9914  0.4614
 2888SOL    HW220301   0.936   2.551  12.265  1.5095 -4.0945  1.4509
 2889SOL     OW20302   1.768   1.840  10.182 -0.5483 -0.0924 -0.2851
 2889SOL    HW120303   1.824   1.762  10.187  0.7468  0.8810  0.1402
 2889SOL    HW220304   1.830   1.906  10.213 -1.4296 -1.0778  3.6078
 2890SOL     OW20305   2.283   4.014   5.544 -0.1017 -0.2080 -0.0167
 2890SOL    HW120306   2.366   4.053   5.516  0.4191 -0.9420  0.4756
 2890SOL    HW220307   2.257   4.070   5.617 -0.3595  1.0044 -1.0596
 2891SOL     OW20308   4.324   0.655   5.637 -0.0634  0.1008 -0.1459
 2891SOL    HW120309   4.386   0.596   5.680 -1.1597 -1.1398 -0.2595
 2891SOL    HW220310   4.272   0.581   5.606 -0.6284  0.0378  0.9773
 2892SOL     OW20311   3.773   2.842  15.630 -0.2379 -0.0436 -0.6437
 2892SOL    HW120312   3.843   2.804  15.577  0.6438  1.2512 -0.3714
 2892SOL    HW220313   3.720   2.762  15.639  0.0566 -0.1297  0.3272
 2893SOL     OW20314   0.100   1.544   7.599 -0.4013  0.1393  0.2506
 2893SOL    HW120315   0.155   1.472   7.630 -1.0121 -0.3308  0.2404
 2893SOL    HW220316   0.049   1.556   7.679 -2.7843  0.3358 -1.2786
 2894SOL     OW20317   2.456   2.736   1.897 -0.1583  0.2788  0.4139
 2894SOL    HW120318   2.419   2.745   1.809  0.2934 -0.6681  0.1183
 2894SOL    HW220319   2.480   2.827   1.911 -2.0778  1.2458 -2.5553
 2895SOL     OW20320   1.492   3.000   7.260 -0.0379 -0.0514  0.1752
 2895SOL    HW120321   1.410   2.951   7.252 -0.4290  0.7459 -0.7155
 2895SOL    HW220322   1.482   3.020   7.354 -1.7726  1.4381 -0.3185
 2896SOL     OW20323   4.591   4.192   4.069 -0.9337 -0.3560  0.3371
 2896SOL    HW120324   4.545   4.248   4.007  0.0503 -1.0967 -1.0448
 2896SOL    HW220325   4.680   4.215   4.042 -1.5945  0.0496 -1.4824
 2897SOL     OW20326   3.600   2.609   2.759  0.4911 -0.0102 -0.6880
 2897SOL    HW120327   3.664   2.567   2.817 -1.2173 -2.3542 -0.4898
 2897SOL    HW220328   3.523   2.612   2.816  1.4809  1.7014  0.5514
 2898SOL     OW20329   0.398   4.014   8.245 -0.3204  0.2285  0.2353
 2898SOL    HW120330   0.470   4.076   8.258 -1.3356  1.9328 -2.3235
 2898SOL    HW220331   0.378   3.983   8.333  1.3470  0.0542  0.5662
 2899SOL     OW20332   1.962   4.452   9.288 -0.3257 -0.0779 -0.2378
 2899SOL    HW120333   2.045   4.495   9.265  0.6646 -0.6339  2.2758
 2899SOL    HW220334   1.993   4.361   9.284 -0.9923 -0.3209  0.1282
 2900SOL     OW20335   1.412   1.925   2.439  0.8082  0.1593 -0.1405
 2900SOL    HW120336   1.407   1.889   2.351  0.4365  0.7758 -0.3787
 2900SOL    HW220337   1.346   1.994   2.445 -0.6606 -1.2624 -0.0094
 2901SOL     OW20338   1.375   3.840   9.102  0.2889 -0.3959 -0.8175
 2901SOL    HW120339   1.321   3.794   9.037  1.4412  0.4299 -2.3683
 2901SOL    HW220340   1.380   3.925   9.058 -0.8924  0.7949  1.3617
 2902SOL     OW20341   2.028   1.238   7.076  0.4368  0.7973 -0.7065
 2902SOL    HW120342   1.968   1.190   7.019  2.6847 -2.4918 -0.3258
 2902SOL    HW220343   2.087   1.283   7.016  2.2430 -0.4551  0.1165
 2903SOL     OW20344   3.873   4.697   1.801 -0.1250 -0.3089  0.1096
 2903SOL    HW120345   3.811   4.726   1.734 -0.9131  0.0933  1.0082
 2903SOL    HW220346   3.850   0.025   1.869 -0.0976  0.8216 -0.9569
 2904SOL     OW20347   1.246   0.822   0.533 -0.3620 -0.6892  0.0125
 2904SOL    HW120348   1.336   0.811   0.563 -0.8321 -0.7408  1.3776
 2904SOL    HW220349   1.265   0.831   0.439 -0.1752 -0.4035  0.0772
 2905SOL     OW20350   2.572   4.610   1.202 -0.0513  0.0404  0.3169
 2905SOL    HW120351   2.505   4.561   1.154  0.5908 -1.6487  1.1364
 2905SOL    HW220352   2.582   4.558   1.282 -0.1988  0.3728  0.5544
 2906SOL     OW20353   2.762   0.654   2.408 -0.0350  1.0130 -0.4694
 2906SOL    HW120354   2.677   0.674   2.369  0.2819  0.4357 -1.4287
 2906SOL    HW220355   2.751   0.560   2.401 -1.2325  1.2244 -1.3947
 2907SOL     OW20356   1.543   2.122   6.153 -0.3093  0.2144  0.5362
 2907SOL    HW120357   1.556   2.126   6.059  1.0228  3.4481  0.8336
 2907SOL    HW220358   1.450   2.104   6.151  0.0855 -1.7856  0.6553
 2908SOL     OW20359   1.187   0.755   4.975 -0.3011 -0.1684  0.0023
 2908SOL    HW120360   1.187   0.728   4.884 -2.5899  0.6134 -0.2251
 2908SOL    HW220361   1.096   0.737   5.000 -0.3778 -0.5205 -0.5275
 2909SOL     OW20362   1.474   1.575   4.580  0.3555 -0.2618 -0.3967
 2909SOL    HW120363   1.488   1.623   4.662  0.2066  0.2477 -0.6711
 2909SOL    HW220364   1.517   1.628   4.513  0.6444  2.0249  1.6032
 2910SOL     OW20365   2.912   3.619   7.592 -0.1671  0.4282  0.1064
 2910SOL    HW120366   2.875   3.558   7.529  1.6340  0.6158 -1.1093
 2910SOL    HW220367   3.000   3.633   7.558 -0.2922 -2.1332 -1.2264
 2911SOL     OW20368   2.660   2.738  16.715  0.1953  0.4774 -0.0991
 2911SOL    HW120369   2.748   2.755  16.682  0.2681  1.0006  0.3651
 2911SOL    HW220370   2.603   2.812  16.692  0.3485 -0.3621 -3.2178
 2912SOL     OW20371   0.079   1.141   3.046 -0.2241  0.1282 -0.2694
 2912SOL    HW120372   0.150   1.128   2.983  0.8077 -0.9980  1.1233
 2912SOL    HW220373   0.082   1.052   3.081  1.0358  0.8238  1.3874
 2913SOL     OW20374   2.852   2.483  12.449  0.9546 -0.3782 -0.1561
 2913SOL    HW120375   2.918   2.448  12.510  0.3852 -1.8921 -0.3973
 2913SOL    HW220376   2.769   2.463  12.492  0.4587 -1.5316 -1.6547
 2914SOL     OW20377   0.069   2.001   6.243  0.2767  0.0540 -0.0289
 2914SOL    HW120378   4.725   2.051   6.256  0.0542 -0.5909  1.0274
 2914SOL    HW220379   0.052   1.942   6.169 -1.0623 -0.1240  0.4273
 2915SOL     OW20380   4.256   1.419   2.606 -0.4544 -0.0540 -0.7494
 2915SOL    HW120381   4.222   1.341   2.563  0.9220 -1.7096  1.1417
 2915SOL    HW220382   4.305   1.455   2.532  1.0151 -0.4403  0.0257
 2916SOL     OW20383   0.364   2.248  14.916  0.1732 -0.0330  0.3869
 2916SOL    HW120384   0.271   2.265  14.933 -0.0588 -0.5434 -0.3839
 2916SOL    HW220385   0.349   2.200  14.835  0.3139  2.0578 -0.8452
 2917SOL     OW20386   3.325   0.140   8.790 -0.3971 -0.4796 -0.5468
 2917SOL    HW120387   3.301   0.098   8.707 -0.9510  0.3806 -0.8075
 2917SOL    HW220388   3.249   0.111   8.840  1.0466 -2.6440  0.4382
 2918SOL     OW20389   1.439   4.698   0.774  0.3612  0.3898  0.2192
 2918SOL    HW120390   1.510   4.682   0.712 -0.3313  2.6702 -1.1664
 2918SOL    HW220391   1.378   4.732   0.709 -0.5462 -1.8910 -0.1341
 2919SOL     OW20392   2.375   1.948  12.368  0.4686  0.0490  0.5257
 2919SOL    HW120393   2.446   1.890  12.393 -0.4736 -1.4563 -0.3151
 2919SOL    HW220394   2.302   1.894  12.399 -1.6617  2.4490 -0.2175
 2920SOL     OW20395   2.232   3.330   9.553  0.2234  0.2815 -0.2598
 2920SOL    HW120396   2.325   3.353   9.546  0.0299  1.4400  1.0000
 2920SOL    HW220397   2.206   3.380   9.476 -0.8118  0.5337  0.2503
 2921SOL     OW20398   2.718   2.712   3.935 -0.4884 -0.1475  0.2006
 2921SOL    HW120399   2.700   2.756   3.852 -1.7005  0.1553  0.6099
 2921SOL    HW220400   2.634   2.732   3.977  0.1566  1.6810  0.6214
 2922SOL     OW20401   1.979   4.190   5.417  0.8671 -0.8818  0.4835
 2922SOL    HW120402   2.026   4.272   5.404  1.4952 -1.7183 -2.6587
 2922SOL    HW220403   2.033   4.131   5.363 -0.1896 -0.3339 -1.1815
 2923SOL     OW20404   1.990   1.845   4.179  0.4078 -0.3847  0.6684
 2923SOL    HW120405   2.006   1.828   4.086 -2.6398  2.5780 -0.3664
 2923SOL    HW220406   2.080   1.834   4.211 -0.2156 -2.8015  1.5658
 2924SOL     OW20407   4.723   1.738   1.791 -0.3688  0.1194  0.0245
 2924SOL    HW120408   0.046   1.758   1.863  1.6660  3.7118 -2.6370
 2924SOL    HW220409   0.036   1.672   1.742  0.6391  0.3480  0.7330
 2925SOL     OW20410   2.543   2.331   9.336 -0.1688 -0.5584  0.3723
 2925SOL    HW120411   2.584   2.387   9.402 -2.5294  0.4000  1.0406
 2925SOL    HW220412   2.599   2.254   9.349 -1.7082 -2.0234 -1.5167
 2926SOL     OW20413   3.777   0.855   9.374 -0.2935 -0.7040  0.2439
 2926SOL    HW120414   3.813   0.801   9.304  0.2470 -0.2459  0.1757
 2926SOL    HW220415   3.774   0.787   9.441 -0.4512 -1.4052 -0.4647
 2927SOL     OW20416   3.608   2.040  15.838 -0.2418 -0.2177 -0.0946
 2927SOL    HW120417   3.693   1.998  15.846  0.3689  1.7459  3.3782
 2927SOL    HW220418   3.574   2.007  15.921  2.1482 -0.9311  0.5968
 2928SOL     OW20419   2.722   2.119   6.300 -0.3830 -0.3816 -0.1952
 2928SOL    HW120420   2.743   2.026   6.298 -3.2004 -1.0721  1.2444
 2928SOL    HW220421   2.628   2.121   6.280 -0.4130 -1.8798 -0.1890
 2929SOL     OW20422   2.288   2.370   7.338  0.7510 -0.5092 -0.5190
 2929SOL    HW120423   2.288   2.312   7.414  0.1368  0.1460 -0.0234
 2929SOL    HW220424   2.196   2.357   7.314 -0.1098  3.1171  0.8376
 2930SOL     OW20425   2.992   2.804   6.327  0.1157  0.6735 -0.3314
 2930SOL    HW120426   2.919   2.818   6.266  0.1171  1.5331 -0.1386
 2930SOL    HW220427   3.052   2.803   6.253 -0.0933 -1.2100 -0.4755
 2931SOL     OW20428   3.165   3.892   3.350  0.4751 -0.3644 -0.6660
 2931SOL    HW120429   3.250   3.851   3.365  0.6085  0.7510  1.7123
 2931SOL    HW220430   3.189   3.963   3.291  0.8673 -0.2042 -0.3105
 2932SOL     OW20431   1.191   1.158   4.067  0.2233  0.3014  0.2198
 2932SOL    HW120432   1.270   1.146   4.121  1.1205  0.6513 -1.0005
 2932SOL    HW220433   1.151   1.076   4.095 -0.5814  0.7864  0.4714
 2933SOL     OW20434   0.566   3.405   5.835 -0.1177  0.5097 -0.2473
 2933SOL    HW120435   0.480   3.362   5.830 -1.2016  2.4864  1.3306
 2933SOL    HW220436   0.541   3.484   5.787 -1.4844 -0.9290 -1.9058
 2934SOL     OW20437   2.789   2.234   5.307 -0.0009  0.0339  0.2029
 2934SOL    HW120438   2.757   2.152   5.343 -2.6660  0.3953 -1.3468
 2934SOL    HW220439   2.801   2.294   5.381 -1.5524  1.0214 -0.3454
 2935SOL     OW20440   4.347   4.094   5.283 -0.8985  0.4662 -0.1467
 2935SOL    HW120441   4.436   4.120   5.307 -1.1075  0.1684  0.9582
 2935SOL    HW220442   4.329   4.044   5.363  2.0189  0.3299  0.4293
 2936SOL     OW20443   0.970   3.163  16.157  0.1554  0.1730  0.1804
 2936SOL    HW120444   1.043   3.158  16.220  0.9143 -1.3264 -0.8159
 2936SOL    HW220445   0.930   3.246  16.183 -3.1622 -1.2369 -0.4953
 2937SOL     OW20446   2.473   3.612   1.979  0.0725  0.6806 -0.3847
 2937SOL    HW120447   2.473   3.524   2.017  2.0235  1.0993  0.6036
 2937SOL    HW220448   2.462   3.664   2.059 -0.3064  0.4638 -0.2990
 2938SOL     OW20449   4.343   2.192   5.443  0.3427 -0.0696 -0.4645
 2938SOL    HW120450   4.308   2.146   5.366 -0.6510 -1.5494  0.8604
 2938SOL    HW220451   4.288   2.152   5.511 -0.8450  2.4564  0.0583
 2939SOL     OW20452   2.115   3.697   9.544  0.0712  0.0005 -0.1129
 2939SOL    HW120453   2.080   3.767   9.489 -0.2593 -0.2253 -0.1855
 2939SOL    HW220454   2.166   3.647   9.481  1.0167 -1.6819  1.9814
 2940SOL     OW20455   2.904   1.109   6.659 -0.1197  0.1798 -0.1892
 2940SOL    HW120456   2.845   1.125   6.586 -0.8637 -1.4587  0.0567
 2940SOL    HW220457   2.947   1.025   6.646 -0.2902  0.0816 -0.1101
 2941SOL     OW20458   4.550   1.729   7.779 -0.3189  0.5947  0.0375
 2941SOL    HW120459   4.465   1.747   7.818  1.0574  3.8541  1.5416
 2941SOL    HW220460   4.617   1.739   7.846 -3.3924 -1.9229  3.4716
 2942SOL     OW20461   2.021   1.613   1.673 -0.5110 -1.3666  0.0350
 2942SOL    HW120462   2.113   1.604   1.649 -0.5454  0.6693 -0.9154
 2942SOL    HW220463   2.022   1.668   1.751  1.8319 -3.5069  1.4939
 2943SOL     OW20464   2.950   4.072  12.397 -0.2282 -0.2598  0.1543
 2943SOL    HW120465   2.950   3.980  12.425 -1.0118 -0.5692 -0.8421
 2943SOL    HW220466   2.857   4.091  12.393 -0.2079  0.7210  3.9023
 2944SOL     OW20467   2.298   0.651  16.656 -0.0059 -0.3039 -0.1626
 2944SOL    HW120468   2.350   0.691  16.587 -1.0732 -2.1507 -2.0097
 2944SOL    HW220469   2.303   0.558  16.634 -0.8616 -0.4716  0.3488
 2945SOL     OW20470   4.460   4.203   6.051 -0.2015 -0.6914 -0.1666
 2945SOL    HW120471   4.443   4.110   6.066 -1.2936 -0.9453 -2.9778
 2945SOL    HW220472   4.499   4.233   6.133 -2.3933 -1.1334  1.0204
 2946SOL     OW20473   0.697   0.092  17.151 -0.7929  0.3876 -0.1439
 2946SOL    HW120474   0.708   0.168  17.093  0.6826 -1.4407 -2.2384
 2946SOL    HW220475   0.618   0.050  17.119 -0.8958  0.8642 -0.5099
 2947SOL     OW20476   0.927   3.111  17.475  0.2632 -0.0153 -0.0693
 2947SOL    HW120477   0.856   3.051  17.456  0.9904 -1.2252  1.0773
 2947SOL    HW220478   0.908   3.116  17.568  0.9896 -1.4206  0.1466
 2948SOL     OW20479   2.243   3.573   6.896 -0.2268  0.4066  0.2690
 2948SOL    HW120480   2.275   3.608   6.979  0.3357  0.8544 -0.1389
 2948SOL    HW220481   2.194   3.648   6.863 -0.8190  0.2274  0.7380
 2949SOL     OW20482   2.973   3.783   3.792 -0.2575 -0.6377  0.2341
 2949SOL    HW120483   2.889   3.744   3.817  0.3811 -0.9949  1.7887
 2949SOL    HW220484   2.951   3.809   3.702 -1.2308 -1.8724  0.1224
 2950SOL     OW20485   0.559   0.951   3.532 -0.6572 -0.6051 -0.1980
 2950SOL    HW120486   0.540   1.031   3.483 -0.8910 -0.7825 -0.3994
 2950SOL    HW220487   0.513   0.880   3.487 -1.1262 -0.0193 -0.6465
 2951SOL     OW20488   0.928   3.367   5.523  0.3519 -0.2775  0.2563
 2951SOL    HW120489   0.887   3.339   5.605 -0.3440 -2.1344 -0.7143
 2951SOL    HW220490   0.941   3.461   5.521  0.1457 -0.3207 -4.0631
 2952SOL     OW20491   1.522   2.451  11.537  0.3471  0.1516  0.0111
 2952SOL    HW120492   1.561   2.497  11.463 -2.3494  1.6728 -0.4609
 2952SOL    HW220493   1.429   2.463  11.519 -0.3669 -2.2844  2.0599
 2953SOL     OW20494   2.487   1.627   8.212  0.1540  0.1338 -0.0427
 2953SOL    HW120495   2.516   1.663   8.129 -1.3605  1.9394  0.2174
 2953SOL    HW220496   2.568   1.587   8.245 -0.3190  1.2787  2.5950
 2954SOL     OW20497   4.601   4.308  15.989 -0.1897 -0.3239 -0.2296
 2954SOL    HW120498   4.543   4.385  15.990 -0.1548 -0.2526 -3.4055
 2954SOL    HW220499   4.634   4.307  16.079  1.4923 -0.3990 -0.8594
 2955SOL     OW20500   3.706   1.093   5.540  0.3609  0.2146 -0.1140
 2955SOL    HW120501   3.753   1.174   5.558  0.4107  0.0329  0.5874
 2955SOL    HW220502   3.618   1.128   5.522 -0.5394 -1.0286  1.8100
 2956SOL     OW20503   1.762   4.115   0.787  0.3800 -0.6540  0.2907
 2956SOL    HW120504   1.732   4.204   0.805 -0.1332 -0.7739  0.0339
 2956SOL    HW220505   1.719   4.065   0.856 -0.7014 -1.9491 -1.3025
 2957SOL     OW20506   1.624   2.984   7.671  0.3531  0.0877 -0.0899
 2957SOL    HW120507   1.543   2.990   7.621  1.6287 -0.7145 -2.2751
 2957SOL    HW220508   1.615   2.903   7.719  1.1518 -0.6939 -1.2467
 2958SOL     OW20509   1.544   1.835   5.392 -0.1887 -0.3698 -0.1724
 2958SOL    HW120510   1.591   1.841   5.309 -1.1370  0.0611 -0.6782
 2958SOL    HW220511   1.518   1.743   5.403 -1.7496 -0.2424 -2.7650
 2959SOL     OW20512   2.815   3.321   4.203  0.2033  0.0222 -0.3346
 2959SOL    HW120513   2.728   3.292   4.174 -0.4421  1.0800  0.5196
 2959SOL    HW220514   2.802   3.362   4.288 -0.2140 -0.1663 -0.3041
 2960SOL     OW20515   0.021   1.031   5.220 -0.1404  1.0101 -0.0916
 2960SOL    HW120516   0.047   1.122   5.230  3.4081  0.0159 -0.2960
 2960SOL    HW220517   4.662   1.039   5.209 -0.3821  0.2409  1.4419
 2961SOL     OW20518   2.687   0.352  12.575  0.1677 -0.1682  0.5153
 2961SOL    HW120519   2.739   0.306  12.509  1.0369  1.0167  0.3727
 2961SOL    HW220520   2.686   0.441  12.539 -0.0614 -1.1275 -1.8810
 2962SOL     OW20521   4.081   0.400   3.615  0.0815  0.0292  0.0567
 2962SOL    HW120522   3.989   0.374   3.604 -0.2924  1.1379  0.5120
 2962SOL    HW220523   4.075   0.496   3.613 -2.8398 -0.1180  1.5161
 2963SOL     OW20524   2.488   3.133   6.544 -0.9256 -0.7500 -0.5633
 2963SOL    HW120525   2.521   3.153   6.632 -0.9404 -0.2549 -0.6720
 2963SOL    HW220526   2.400   3.168   6.537 -0.1794  1.0160 -1.0049
 2964SOL     OW20527   4.238   4.318   1.205  0.3518 -0.5221  0.3040
 2964SOL    HW120528   4.296   4.387   1.172 -0.8938 -0.2506 -1.3585
 2964SOL    HW220529   4.190   4.353   1.280  1.6168 -0.0781  0.8974
 2965SOL     OW20530   2.718   0.435   9.077  0.3888 -0.0421 -0.0033
 2965SOL    HW120531   2.747   0.475   9.159 -0.5383 -0.4746  0.5359
 2965SOL    HW220532   2.623   0.435   9.087 -0.0579 -2.3679 -4.1267
 2966SOL     OW20533   3.861   2.254   2.827 -0.6326  0.2046  0.6246
 2966SOL    HW120534   3.800   2.231   2.897 -1.1681  0.3993  0.2238
 2966SOL    HW220535   3.867   2.349   2.833  0.6393  0.2799 -1.8936
 2967SOL     OW20536   3.052   4.507   8.713  0.2830  0.6976 -0.3692
 2967SOL    HW120537   3.032   4.472   8.799 -0.1043 -0.3322 -0.8741
 2967SOL    HW220538   3.142   4.479   8.698  0.2657  1.4515 -1.9237
 2968SOL     OW20539   0.308   3.570   6.268 -0.4575  0.1334  0.0816
 2968SOL    HW120540   0.266   3.579   6.182  2.2971 -3.9196 -1.7176
 2968SOL    HW220541   0.233   3.535   6.316 -0.5128 -0.0382 -0.1285
 2969SOL     OW20542   1.908   3.641   6.210  0.4180  0.5396  0.0820
 2969SOL    HW120543   2.000   3.667   6.214 -0.0204  1.9986  0.7693
 2969SOL    HW220544   1.878   3.636   6.301 -0.7290 -0.6438 -0.3624
 2970SOL     OW20545   3.045   0.287   8.710  0.4894 -0.6211  0.1746
 2970SOL    HW120546   3.128   0.331   8.690  0.6560 -0.9881  0.0614
 2970SOL    HW220547   3.069   0.198   8.684  0.6213 -0.2588 -0.9083
 2971SOL     OW20548   3.679   1.151   6.056 -0.3002  0.2855 -0.4011
 2971SOL    HW120549   3.758   1.128   6.105  0.2380  1.9743 -0.4697
 2971SOL    HW220550   3.615   1.090   6.093 -0.5447  0.2624 -0.8601
 2972SOL     OW20551   3.726   4.665  15.324  0.3997 -0.6717  0.2386
 2972SOL    HW120552   3.784   4.695  15.394  0.5962 -1.1612  0.2910
 2972SOL    HW220553   3.787   4.598  15.293  2.3148  2.8532 -3.5540
 2973SOL     OW20554   0.095   0.849   5.388  0.2587  0.3245 -0.0884
 2973SOL    HW120555   0.056   0.901   5.317  0.9480  2.5854  1.1942
 2973SOL    HW220556   0.189   0.860   5.376  0.4457  1.1270  2.1050
 2974SOL     OW20557   4.487   0.104   0.481  0.4353 -0.3093 -0.2919
 2974SOL    HW120558   4.544   0.045   0.433  0.5681 -1.6514  1.5292
 2974SOL    HW220559   4.516   0.188   0.445  0.2447 -0.7829 -1.5225
 2975SOL     OW20560   3.075   4.433   7.372  0.4707  0.0578  0.5364
 2975SOL    HW120561   3.123   4.367   7.323 -2.5877  0.5241 -3.0207
 2975SOL    HW220562   2.994   4.434   7.321  0.6625 -2.2684  0.2101
 2976SOL     OW20563   1.091   2.860   5.666 -0.0231  0.3762 -0.3153
 2976SOL    HW120564   1.094   2.955   5.663 -1.5214  0.4365  0.5795
 2976SOL    HW220565   1.169   2.844   5.720 -0.4324 -2.5636 -0.6068
 2977SOL     OW20566   0.168   0.166   2.653 -0.3191 -0.2533  0.1316
 2977SOL    HW120567   0.097   0.103   2.643 -1.3425  0.4239  3.0531
 2977SOL    HW220568   0.124   0.234   2.704  3.6708  1.0493  1.8355
 2978SOL     OW20569   0.734   0.626   3.952  0.0093 -0.0600  0.3604
 2978SOL    HW120570   0.710   0.575   3.875 -1.4765  0.3749  0.5387
 2978SOL    HW220571   0.762   0.553   4.006  1.5695 -1.2344 -2.0503
 2979SOL     OW20572   0.460   3.221   1.811 -0.4309  0.8705  0.0574
 2979SOL    HW120573   0.504   3.273   1.878  0.8732  0.3463 -0.4072
 2979SOL    HW220574   0.481   3.140   1.857 -0.8179  1.1594  0.7669
 2980SOL     OW20575   1.245   4.417   9.850 -0.1092 -0.1768  0.5111
 2980SOL    HW120576   1.299   4.496   9.854 -0.5349  0.0621  1.4133
 2980SOL    HW220577   1.291   4.364   9.915  3.0373  0.7361 -0.9598
 2981SOL     OW20578   2.279   0.865   7.019 -0.0254  0.3817 -0.3372
 2981SOL    HW120579   2.254   0.931   7.084 -0.0603 -0.2039  0.2517
 2981SOL    HW220580   2.193   0.832   6.993  0.1177  1.3175 -1.9547
 2982SOL     OW20581   3.369   2.861   6.664  0.1337 -0.7498 -0.8042
 2982SOL    HW120582   3.415   2.942   6.641 -0.1746 -0.4812 -0.4745
 2982SOL    HW220583   3.320   2.849   6.582  2.2539  0.3217 -2.2286
 2983SOL     OW20584   0.907   4.062  12.273 -0.1201  0.6223  0.0124
 2983SOL    HW120585   0.931   3.970  12.275 -2.0719  0.2014  2.9186
 2983SOL    HW220586   0.820   4.051  12.234 -0.9954  2.0013  1.5936
 2984SOL     OW20587   2.498   1.058   2.658 -0.0286  0.0927  0.1398
 2984SOL    HW120588   2.493   1.127   2.591  0.3862 -2.2384 -2.3014
 2984SOL    HW220589   2.583   1.025   2.629  0.8514  1.1867  1.4697
 2985SOL     OW20590   2.839   3.141  13.446 -0.3454  0.2765 -0.1399
 2985SOL    HW120591   2.916   3.154  13.501 -1.6222 -0.7238  1.8952
 2985SOL    HW220592   2.863   3.078  13.377  0.9652 -0.4492  0.9762
 2986SOL     OW20593   1.075   1.269   8.257 -0.0647 -0.2753  0.4453
 2986SOL    HW120594   1.078   1.173   8.249 -2.4139 -0.2676 -0.7997
 2986SOL    HW220595   1.165   1.294   8.279 -0.3664  0.7268  0.5437
 2987SOL     OW20596   4.499   4.013   2.092  0.0272  0.0885 -0.1859
 2987SOL    HW120597   4.527   4.045   2.178  0.4899 -2.4998  0.6134
 2987SOL    HW220598   4.465   4.093   2.051  3.5397  1.4627 -0.3500
 2988SOL     OW20599   1.781   1.278  13.575  0.0334  0.1037 -0.5159
 2988SOL    HW120600   1.827   1.362  13.574  0.0149  0.1149 -0.2867
 2988SOL    HW220601   1.827   1.223  13.637  0.3503  1.1793  0.1988
 2989SOL     OW20602   4.143   4.068   3.669  0.5469 -0.1455 -0.1808
 2989SOL    HW120603   4.210   4.020   3.717  2.5795  3.0989  0.2373
 2989SOL    HW220604   4.179   4.156   3.658  0.0334 -0.1124 -1.5236
 2990SOL     OW20605   2.776   3.604   7.130 -0.3065  0.2435  0.6478
 2990SOL    HW120606   2.863   3.588   7.094 -1.5652 -0.0054 -2.3432
 2990SOL    HW220607   2.732   3.528   7.091 -0.1326 -1.0630  2.9680
 2991SOL     OW20608   3.011   0.006  14.634  0.5156 -0.0115  0.5062
 2991SOL    HW120609   3.089   4.691  14.655 -1.3015 -3.2369 -0.6699
 2991SOL    HW220610   2.996   4.715  14.543  0.0169  0.7686  0.3480
 2992SOL     OW20611   0.851   3.470   4.618 -0.4701  0.1977  0.1756
 2992SOL    HW120612   0.847   3.565   4.615 -2.2975  0.2260  3.5964
 2992SOL    HW220613   0.821   3.455   4.708  0.0467  1.7803  0.6136
 2993SOL     OW20614   0.055   0.043   6.500  0.2978  0.3213  0.4931
 2993SOL    HW120615   0.038   0.018   6.591 -0.4697 -1.4324 -0.1313
 2993SOL    HW220616   4.720   4.732   6.458  1.9074 -1.2596 -0.4562
 2994SOL     OW20617   3.650   3.635   1.443 -0.3313  0.1041 -0.4553
 2994SOL    HW120618   3.650   3.563   1.506 -0.6294 -0.2154 -0.8245
 2994SOL    HW220619   3.597   3.702   1.486  1.2346  2.5829 -2.3770
 2995SOL     OW20620   3.436   3.357   3.031 -0.3964  0.2476  0.0522
 2995SOL    HW120621   3.433   3.269   3.068 -0.2907 -1.0076 -2.9551
 2995SOL    HW220622   3.496   3.407   3.087 -1.8790  0.7201  1.2304
 2996SOL     OW20623   0.515   1.834  12.815  0.0886  0.0354 -1.1627
 2996SOL    HW120624   0.582   1.800  12.756 -0.3009 -1.3708 -0.7950
 2996SOL    HW220625   0.561   1.912  12.845  0.6187 -1.1453  1.1054
 2997SOL     OW20626   4.233   0.302   5.478  0.0783 -0.6621 -0.1815
 2997SOL    HW120627   4.167   0.370   5.490 -1.7475 -2.1884 -1.4686
 2997SOL    HW220628   4.301   0.351   5.433  0.4490 -1.0093 -0.0064
 2998SOL     OW20629   4.075   0.895  12.046  0.6163  0.0498  0.6164
 2998SOL    HW120630   4.076   0.852  11.960  0.9219  0.2028  0.5458
 2998SOL    HW220631   4.158   0.868  12.083 -0.8215 -4.3814  0.5371
 2999SOL     OW20632   3.700   2.056   2.279 -0.0288 -0.6527 -0.0304
 2999SOL    HW120633   3.720   2.128   2.339  0.6920 -0.2281 -0.7838
 2999SOL    HW220634   3.755   2.063   2.201  2.3168 -0.5297  1.6448
 3000SOL     OW20635   0.139   3.251  11.338 -0.0337  0.0924  0.6620
 3000SOL    HW120636   0.215   3.285  11.385  0.0837  0.2846  0.3302
 3000SOL    HW220637   0.148   3.158  11.357 -0.1658  0.4007  2.2438
 3001SOL     OW20638   3.639   0.340  17.567  0.4942 -0.3655  0.6322
 3001SOL    HW120639   3.709   0.275  17.568 -0.9707 -1.9588 -1.4967
 3001SOL    HW220640   3.689   0.416  17.599  0.4110  0.5466 -1.4322
 3002SOL     OW20641   1.946   2.253   3.717  0.2529 -0.2153  0.2107
 3002SOL    HW120642   1.913   2.190   3.653  0.3343 -0.9920  0.9394
 3002SOL    HW220643   2.023   2.200   3.740  0.7587 -0.0740 -1.1507
 3003SOL     OW20644   4.421   2.395   6.325  0.2931 -0.2806 -0.3311
 3003SOL    HW120645   4.441   2.428   6.412  1.0220 -1.1853 -0.1590
 3003SOL    HW220646   4.414   2.473   6.270 -1.6051  0.3354  0.7629
 3004SOL     OW20647   0.142   3.627  11.361  0.2646  0.2340  0.2613
 3004SOL    HW120648   0.189   3.683  11.424 -0.7758  1.2333  0.1387
 3004SOL    HW220649   0.165   3.541  11.398 -0.3737  0.2070  0.5884
 3005SOL     OW20650   4.086   4.474  16.342 -0.2223 -0.2920 -0.1279
 3005SOL    HW120651   4.182   4.467  16.336 -0.2693 -0.6317 -0.5037
 3005SOL    HW220652   4.072   4.538  16.411 -3.6191 -0.9793 -0.1912
 3006SOL     OW20653   3.833   0.146  17.616 -0.0940 -0.2065 -0.9192
 3006SOL    HW120654   3.765   0.095  17.660  0.4648  0.8612  1.2193
 3006SOL    HW220655   3.901   0.137  17.683 -1.2417 -2.4093 -0.0349
 3007SOL     OW20656   2.213   2.853   5.910  0.3399 -0.3288 -0.1002
 3007SOL    HW120657   2.210   2.915   5.837 -3.2264 -0.3072  0.0683
 3007SOL    HW220658   2.295   2.885   5.947  0.1829 -0.2698  0.2013
 3008SOL     OW20659   0.435   0.196   5.877 -0.4215 -0.2588 -0.8060
 3008SOL    HW120660   0.529   0.180   5.885 -0.5332 -0.7577 -0.5193
 3008SOL    HW220661   0.405   0.146   5.953 -1.2012 -1.6183 -2.0209
 3009SOL     OW20662   2.447   0.484   9.088  0.2113  0.2437  0.2177
 3009SOL    HW120663   2.393   0.405   9.090 -1.6886  1.5681  0.8973
 3009SOL    HW220664   2.379   0.551   9.085 -1.5352 -1.4996  0.5686
 3010SOL     OW20665   3.250   2.205   9.133  0.5982  0.4717  0.1402
 3010SOL    HW120666   3.195   2.221   9.056  2.6590  1.5132 -1.1270
 3010SOL    HW220667   3.185   2.167   9.192  0.9970 -0.0143  0.2659
 3011SOL     OW20668   2.228   3.461   4.943 -0.2893 -0.4652  0.1755
 3011SOL    HW120669   2.246   3.489   4.853 -2.3981 -0.4905 -0.2563
 3011SOL    HW220670   2.276   3.379   4.945 -0.8419 -0.8110 -0.8573
 3012SOL     OW20671   2.412   1.236   9.709 -0.2508 -0.2790  0.5858
 3012SOL    HW120672   2.476   1.222   9.639  2.1065  0.9032  2.5209
 3012SOL    HW220673   2.353   1.292   9.658 -0.0571 -0.5751  0.0416
 3013SOL     OW20674   0.148   2.298   4.967  0.0469 -0.0708  0.2310
 3013SOL    HW120675   0.217   2.232   4.979 -1.0406 -0.7383  2.8302
 3013SOL    HW220676   0.206   2.373   4.949 -0.8470  0.7784  0.8728
 3014SOL     OW20677   4.352   3.410  15.005 -0.6223  0.4922  0.4986
 3014SOL    HW120678   4.442   3.425  15.034 -0.1686 -1.1943 -0.0142
 3014SOL    HW220679   4.335   3.504  15.010 -1.5614  0.3396  0.1088
 3015SOL     OW20680   1.481   0.606  17.153  0.0785  0.0911  0.8214
 3015SOL    HW120681   1.571   0.594  17.184  1.9407  3.1245 -3.3679
 3015SOL    HW220682   1.459   0.684  17.205 -0.5130  0.5930 -0.1969
 3016SOL     OW20683   4.302   1.619   4.421 -0.1037  0.2767  0.4523
 3016SOL    HW120684   4.360   1.678   4.470 -1.2718 -0.6416  2.9605
 3016SOL    HW220685   4.231   1.601   4.483  0.2166 -0.2523  0.6683
 3017SOL     OW20686   3.108   1.995   8.962  0.2040  0.3931  0.4840
 3017SOL    HW120687   3.071   1.960   9.044 -2.5081 -0.5447 -1.1303
 3017SOL    HW220688   3.031   1.997   8.905  1.2599 -1.4407 -0.9783
 3018SOL     OW20689   3.022   1.672   2.969  0.7896 -0.2159 -0.2266
 3018SOL    HW120690   2.977   1.717   2.897 -3.5729 -0.1289  2.6257
 3018SOL    HW220691   2.994   1.719   3.047 -0.8887  0.4234 -1.2131
 3019SOL     OW20692   1.034   2.787  12.491  0.0184  0.1766 -0.2936
 3019SOL    HW120693   0.997   2.726  12.428 -1.4071  0.8811 -0.1414
 3019SOL    HW220694   0.971   2.765  12.560 -0.6704 -0.4443 -1.1212
 3020SOL     OW20695   3.620   1.494  15.356  0.8324  0.2146  0.1835
 3020SOL    HW120696   3.556   1.557  15.389  0.4465  0.3373 -0.7778
 3020SOL    HW220697   3.560   1.427  15.323 -1.9530  1.7445  2.1600
 3021SOL     OW20698   2.258   3.906   2.074 -0.2876 -0.3777 -1.0390
 3021SOL    HW120699   2.260   4.000   2.094  2.1867 -0.9631  1.4693
 3021SOL    HW220700   2.272   3.901   1.979 -0.0740  0.3350 -1.0468
 3022SOL     OW20701   2.050   0.101   8.419 -0.2992  0.2106 -0.0267
 3022SOL    HW120702   2.076   0.117   8.328  1.0238  1.0965  0.5003
 3022SOL    HW220703   2.006   0.185   8.427  0.1325  0.4236  0.1306
 3023SOL     OW20704   2.036   0.540  17.495 -0.0663  0.1765 -0.0777
 3023SOL    HW120705   2.074   0.455  17.475 -0.3037 -0.0702  0.5214
 3023SOL    HW220706   2.061   0.589  17.417  1.8577  0.1413  0.5337
 3024SOL     OW20707   3.633   2.248  14.670  0.2357 -0.2134  0.0160
 3024SOL    HW120708   3.727   2.231  14.679  0.3091  1.0866  1.7191
 3024SOL    HW220709   3.633   2.338  14.703 -0.9590  0.6169 -2.2742
 3025SOL     OW20710   1.852   2.760   7.702  0.1466 -0.2109  0.5304
 3025SOL    HW120711   1.881   2.676   7.667 -0.4512 -0.3180  0.3100
 3025SOL    HW220712   1.765   2.760   7.662  0.5206 -2.3462 -0.2799
 3026SOL     OW20713   4.195   3.198  16.096  0.2286 -0.1198  0.1790
 3026SOL    HW120714   4.111   3.228  16.130  0.1359 -0.2069  0.0253
 3026SOL    HW220715   4.185   3.215  16.002 -0.1677  0.5925  0.3534
 3027SOL     OW20716   0.854   1.250  10.916 -0.3402  0.6546 -1.0121
 3027SOL    HW120717   0.872   1.156  10.917 -0.2252  0.6951  1.2738
 3027SOL    HW220718   0.925   1.282  10.972  0.4579  1.3936 -2.4476
 3028SOL     OW20719   4.459   0.373   3.990  0.2644 -0.0476  0.5451
 3028SOL    HW120720   4.500   0.289   4.011 -1.2077 -0.0056  3.6074
 3028SOL    HW220721   4.384   0.369   4.049 -0.9851 -1.4767 -1.1471
 3029SOL     OW20722   3.979   4.069  15.526  0.0913 -0.7256  0.0447
 3029SOL    HW120723   4.022   4.008  15.467 -0.1458 -2.6516  1.8959
 3029SOL    HW220724   3.995   4.017  15.604 -1.0638 -1.2905 -0.0998
 3030SOL     OW20725   0.776   1.897   2.258  0.0056 -0.7392  0.6237
 3030SOL    HW120726   0.688   1.915   2.227  0.5817  3.1674  1.2106
 3030SOL    HW220727   0.793   1.821   2.204 -2.9168 -0.3843 -0.7886
 3031SOL     OW20728   1.519   1.998   5.603 -0.1965 -0.0026 -0.3778
 3031SOL    HW120729   1.612   2.015   5.589  0.3605 -2.1090  0.7268
 3031SOL    HW220730   1.503   1.963   5.515 -0.7255  4.2087 -1.9474
 3032SOL     OW20731   0.444   0.125  16.375 -0.5450 -0.3100 -0.1524
 3032SOL    HW120732   0.479   0.128  16.464  1.4558  0.4264 -0.9706
 3032SOL    HW220733   0.514   0.071  16.337  2.3211  1.9969  1.8761
 3033SOL     OW20734   2.792   2.054   6.022 -0.4719 -0.0128 -0.4450
 3033SOL    HW120735   2.804   2.115   6.095  1.1543  0.5847 -1.2050
 3033SOL    HW220736   2.783   2.109   5.944  0.3358 -1.4484 -1.5421
 3034SOL     OW20737   1.016   2.970  13.983  0.1189  0.2570 -0.4615
 3034SOL    HW120738   0.989   2.907  14.049  1.0755  0.9221  0.5544
 3034SOL    HW220739   0.974   3.050  14.012 -0.1921 -0.5167  1.2006
 3035SOL     OW20740   0.519   4.083   5.498 -0.1199 -0.3685 -0.0620
 3035SOL    HW120741   0.556   4.028   5.429 -0.9693 -2.6246  1.3176
 3035SOL    HW220742   0.427   4.063   5.484  0.0274 -1.6471  0.8416
 3036SOL     OW20743   1.615   2.239   7.546 -0.0338  0.5675  0.0525
 3036SOL    HW120744   1.625   2.147   7.570 -1.9584  0.4446  0.3675
 3036SOL    HW220745   1.651   2.232   7.458  2.8769 -0.2061  1.3296
 3037SOL     OW20746   1.309   3.302  14.460  0.5598 -0.4847 -0.1867
 3037SOL    HW120747   1.300   3.393  14.431  0.6749 -0.3354  0.2384
 3037SOL    HW220748   1.403   3.297  14.447  0.9237 -0.3063  2.4701
 3038SOL     OW20749   3.758   2.049   9.013  0.0469 -0.2439 -1.0003
 3038SOL    HW120750   3.757   1.953   9.013  0.0721 -0.2527  0.6442
 3038SOL    HW220751   3.666   2.073   9.027  0.2818 -0.2248  0.5134
 3039SOL     OW20752   2.647   3.098   9.102  0.3966  0.5164 -0.5915
 3039SOL    HW120753   2.569   3.042   9.097  0.7878  0.1131 -2.1509
 3039SOL    HW220754   2.717   3.038   9.075  1.9001  1.8400  0.3632
 3040SOL     OW20755   0.023   3.351   8.844 -0.0762  0.1197  0.3207
 3040SOL    HW120756   4.684   3.399   8.879 -1.9396 -0.8460 -2.3747
 3040SOL    HW220757   0.009   3.363   8.750  3.0060  0.9162 -0.0271
 3041SOL     OW20758   3.696   1.359   1.093  0.6446 -0.2559 -0.7124
 3041SOL    HW120759   3.602   1.342   1.095  0.8706 -1.3816  0.2833
 3041SOL    HW220760   3.709   1.454   1.092 -0.8601 -0.0559  0.2505
 3042SOL     OW20761   1.309   1.799   9.322  0.3089  0.2678  0.0292
 3042SOL    HW120762   1.338   1.839   9.404 -1.6105  0.3383  0.6633
 3042SOL    HW220763   1.354   1.847   9.253 -1.0398 -0.2483 -1.2071
 3043SOL     OW20764   1.361   1.836   0.775 -1.0778 -0.0559 -0.2426
 3043SOL    HW120765   1.343   1.847   0.682  0.0804  2.0109 -0.2262
 3043SOL    HW220766   1.374   1.741   0.774  0.8608  0.2005  0.0085
 3044SOL     OW20767   2.042   2.456   3.373  0.2615  0.1948  0.0719
 3044SOL    HW120768   1.976   2.526   3.378 -0.5821 -0.6422  0.9110
 3044SOL    HW220769   2.079   2.467   3.461 -0.7940  0.9813  0.4192
 3045SOL     OW20770   2.960   0.204   4.572 -0.0426 -0.1768  0.4293
 3045SOL    HW120771   2.969   0.297   4.592 -1.4740 -0.1465  0.9019
 3045SOL    HW220772   2.891   0.166   4.627  0.4866 -2.8736 -0.7767
 3046SOL     OW20773   3.048   0.603   3.240  0.2205  0.2225  0.1581
 3046SOL    HW120774   3.068   0.527   3.295 -0.2475 -0.5732 -0.7570
 3046SOL    HW220775   2.965   0.631   3.278  0.9360  0.0141  1.8613
 3047SOL     OW20776   0.905   4.008  17.222 -0.1789 -0.3922  0.2419
 3047SOL    HW120777   0.996   4.008  17.253  0.6980  0.4124 -2.3164
 3047SOL    HW220778   0.892   3.914  17.223 -3.4794  0.0788  0.1708
 3048SOL     OW20779   2.103   1.822   3.261  0.1356  0.8449 -0.2740
 3048SOL    HW120780   2.012   1.850   3.253 -0.8008 -1.6643  1.3732
 3048SOL    HW220781   2.100   1.730   3.232 -0.6413  1.1151 -1.0563
 3049SOL     OW20782   1.628   0.715   8.814 -0.3017 -0.2914 -0.0325
 3049SOL    HW120783   1.656   0.765   8.737  1.4483 -1.0467  0.1089
 3049SOL    HW220784   1.560   0.659   8.778 -1.4881  0.8346  0.4368
 3050SOL     OW20785   1.117   4.065   7.747  0.0621 -0.4215  0.3126
 3050SOL    HW120786   1.142   3.991   7.692  0.6640 -0.6240  0.8670
 3050SOL    HW220787   1.135   4.023   7.831  0.2343 -1.3322 -0.1698
 3051SOL     OW20788   3.673   2.979   4.540 -0.2549 -0.0495 -0.4878
 3051SOL    HW120789   3.659   3.050   4.604  0.9009 -1.3465  1.2143
 3051SOL    HW220790   3.661   3.028   4.459  1.3727  0.8311 -0.1972
 3052SOL     OW20791   1.827   0.666   6.682  0.5256 -0.0619  0.0945
 3052SOL    HW120792   1.732   0.680   6.690  0.5347  0.8921 -1.5026
 3052SOL    HW220793   1.833   0.642   6.590  0.3097  0.1042  0.0365
 3053SOL     OW20794   1.570   4.434   7.208 -0.1575 -0.1302 -0.1123
 3053SOL    HW120795   1.649   4.457   7.256 -0.4295 -1.2729  0.8860
 3053SOL    HW220796   1.527   4.519   7.220  0.4515  0.1412  0.0932
 3054SOL     OW20797   2.672   1.331  16.530  0.2169 -0.3911  0.2963
 3054SOL    HW120798   2.640   1.420  16.518  4.5700  1.2971  1.0426
 3054SOL    HW220799   2.642   1.290  16.449  2.2636 -0.6259 -0.3506
 3055SOL     OW20800   3.732   2.773  14.430  0.8176 -0.2949 -0.0461
 3055SOL    HW120801   3.806   2.829  14.405  0.0356  0.3937 -0.8188
 3055SOL    HW220802   3.692   2.835  14.491  0.3469 -2.1774  1.5722
 3056SOL     OW20803   4.206   0.592   2.068  0.6858  0.3670  0.1236
 3056SOL    HW120804   4.139   0.647   2.029  0.4616  0.2127  0.2902
 3056SOL    HW220805   4.228   0.655   2.137  1.0545  0.5197 -0.1326
 3057SOL     OW20806   4.519   2.059  14.404  0.6441 -0.1850 -0.2457
 3057SOL    HW120807   4.486   2.104  14.326  0.4199 -1.3068 -0.8011
 3057SOL    HW220808   4.613   2.062  14.386  0.9303 -0.0785  1.2776
 3058SOL     OW20809   2.737   1.389   8.637  0.5642 -0.2520 -0.8798
 3058SOL    HW120810   2.734   1.477   8.675  0.9415 -0.6741  0.0996
 3058SOL    HW220811   2.765   1.343   8.716 -0.5223  0.6484  0.0285
 3059SOL     OW20812   4.400   3.912   4.462 -0.2590  0.3497 -0.1618
 3059SOL    HW120813   4.454   3.834   4.458 -0.4570  0.2241 -0.3357
 3059SOL    HW220814   4.447   3.967   4.400  0.3748  0.1688  0.1502
 3060SOL     OW20815   0.820   1.540   6.159  0.6454 -0.3692 -0.1114
 3060SOL    HW120816   0.733   1.572   6.135  1.3281  1.9658  0.5913
 3060SOL    HW220817   0.822   1.458   6.108 -1.7064 -0.0363 -0.7291
 3061SOL     OW20818   3.335   2.516   7.668 -0.5080  0.2168  0.8920
 3061SOL    HW120819   3.277   2.555   7.603  1.8983  1.4748 -0.4461
 3061SOL    HW220820   3.412   2.485   7.621  0.7388 -1.2244  3.8833
 3062SOL     OW20821   0.020   2.663  17.493 -0.7692  0.1711  0.5773
 3062SOL    HW120822   4.707   2.668  17.411 -0.1561  0.2912  0.2107
 3062SOL    HW220823   0.047   2.753  17.509  1.7641 -0.5011  0.1849
 3063SOL     OW20824   2.901   1.539   4.031  0.2736  0.7217 -0.1011
 3063SOL    HW120825   2.892   1.512   3.940 -0.9613  3.2551 -0.7323
 3063SOL    HW220826   2.962   1.612   4.018  1.8774 -0.3743  1.2059
 3064SOL     OW20827   4.607   1.327  15.575 -0.1032 -0.0411  0.6115
 3064SOL    HW120828   4.696   1.360  15.591  0.5667 -1.9846  0.8225
 3064SOL    HW220829   4.559   1.405  15.548 -2.0469 -1.6454 -0.5279
 3065SOL     OW20830   1.194   2.868   7.561 -0.1993 -0.1602 -0.2685
 3065SOL    HW120831   1.225   2.784   7.527  2.1230  0.2455  0.8719
 3065SOL    HW220832   1.105   2.847   7.590 -0.3699  0.2353 -0.5063
 3066SOL     OW20833   3.147   2.540   0.096  0.0618 -0.3085 -0.2753
 3066SOL    HW120834   3.173   2.468   0.038 -0.7816 -0.4281 -0.5005
 3066SOL    HW220835   3.232   2.583   0.100 -0.0420 -0.1739  0.5473
 3067SOL     OW20836   1.924   4.439   6.655 -0.2818  0.1714 -0.1237
 3067SOL    HW120837   1.901   4.398   6.739  1.8372  3.1259  1.9210
 3067SOL    HW220838   1.946   4.361   6.604  0.2063  1.8475 -2.4446
 3068SOL     OW20839   2.901   1.600   5.787 -0.0244 -0.5262  0.3167
 3068SOL    HW120840   2.848   1.535   5.833 -0.5273 -0.2657  0.0972
 3068SOL    HW220841   2.950   1.543   5.728  1.3227  0.2959  0.6353
 3069SOL     OW20842   3.456   4.279   5.320 -0.3861  0.1927 -0.6661
 3069SOL    HW120843   3.464   4.275   5.415  1.3584 -2.3475 -0.9030
 3069SOL    HW220844   3.365   4.258   5.301 -0.0588 -2.4929  0.6124
 3070SOL     OW20845   2.447   1.687  15.569 -0.3637  0.0912 -0.2212
 3070SOL    HW120846   2.392   1.743  15.514  1.2242  1.0125 -0.8646
 3070SOL    HW220847   2.527   1.739  15.561 -0.1754 -0.2992 -0.8660
 3071SOL     OW20848   3.072   1.602   1.887 -0.4415  0.0755 -0.2026
 3071SOL    HW120849   3.050   1.523   1.837 -2.2941  0.4412  0.0145
 3071SOL    HW220850   2.987   1.635   1.918 -1.5515 -1.8776 -1.1080
 3072SOL     OW20851   3.030   3.174   1.092 -0.2099  0.2571 -0.3311
 3072SOL    HW120852   3.116   3.217   1.084  0.5309 -0.8810  1.3616
 3072SOL    HW220853   3.034   3.100   1.032 -3.8075 -0.4259  0.2733
 3073SOL     OW20854   2.489   4.712   2.069  0.6940 -0.6936 -0.2643
 3073SOL    HW120855   2.497   4.714   1.974  0.9323  3.2101 -0.1801
 3073SOL    HW220856   2.395   4.692   2.076  0.3029  1.3265  0.2966
 3074SOL     OW20857   2.512   2.437   6.362 -0.0546  0.2782 -0.1779
 3074SOL    HW120858   2.497   2.344   6.376  0.4181  0.4392  1.4879
 3074SOL    HW220859   2.604   2.436   6.337  0.5903 -2.1451  2.3150
 3075SOL     OW20860   0.084   4.555   3.684 -0.1644  0.4983 -0.4888
 3075SOL    HW120861   0.175   4.524   3.684 -1.0618 -2.1362  0.6375
 3075SOL    HW220862   0.096   4.641   3.724  1.7488  0.0237 -0.0289
 3076SOL     OW20863   2.409   2.993   9.117  0.8772  0.1799 -0.1750
 3076SOL    HW120864   2.331   3.019   9.069  0.0173 -1.0316  0.5700
 3076SOL    HW220865   2.371   2.977   9.204  2.1429  0.6390  0.4665
 3077SOL     OW20866   3.437   3.902   5.434  0.7904 -0.4184  1.3629
 3077SOL    HW120867   3.413   3.952   5.511 -1.5622  2.7234 -1.4224
 3077SOL    HW220868   3.509   3.848   5.467  1.4350 -1.6834 -2.1191
 3078SOL     OW20869   1.561   0.369   3.560 -0.6146  0.3383  0.6645
 3078SOL    HW120870   1.590   0.281   3.537 -0.4803  0.5654 -0.0221
 3078SOL    HW220871   1.487   0.357   3.619 -1.8015 -0.4083 -0.9769
 3079SOL     OW20872   1.709   1.048  11.856  0.0433 -0.0577 -0.8672
 3079SOL    HW120873   1.649   1.041  11.782 -0.8062  1.3948 -0.3288
 3079SOL    HW220874   1.712   1.141  11.880 -0.8941 -0.2406 -0.0011
 3080SOL     OW20875   0.925   4.295   2.821 -0.4280  0.0713  0.2138
 3080SOL    HW120876   1.016   4.308   2.794  0.6719 -1.5442  3.2042
 3080SOL    HW220877   0.930   4.207   2.858 -1.3556  0.0400  0.2609
 3081SOL     OW20878   1.600   2.640   6.596  0.0282  0.4609 -0.1146
 3081SOL    HW120879   1.622   2.566   6.653  0.8860  2.1418  1.7462
 3081SOL    HW220880   1.683   2.686   6.581 -0.0763  0.3140 -1.1765
 3082SOL     OW20881   1.631   0.594   5.092  0.5383 -0.0214 -0.1369
 3082SOL    HW120882   1.630   0.501   5.115 -0.2268 -0.8289 -3.4007
 3082SOL    HW220883   1.581   0.592   5.011  0.6597 -1.5852 -0.1875
 3083SOL     OW20884   3.848   2.073   1.468 -0.0810  0.4416  0.6500
 3083SOL    HW120885   3.783   2.040   1.530  0.5520 -1.0242  0.5531
 3083SOL    HW220886   3.908   2.128   1.519  1.0950  0.7409 -1.0400
 3084SOL     OW20887   3.608   3.720   2.046 -0.3008  0.3875 -0.1965
 3084SOL    HW120888   3.600   3.778   1.970  0.5807  0.3456 -0.3193
 3084SOL    HW220889   3.517   3.701   2.068 -0.1910  1.6796  1.3329
 3085SOL     OW20890   1.112   4.012   5.487 -0.1303  0.1238 -0.3693
 3085SOL    HW120891   1.045   3.957   5.446 -1.9327  2.6090 -0.7048
 3085SOL    HW220892   1.064   4.094   5.479  1.5630  1.2267  0.7915
 3086SOL     OW20893   3.892   2.132  17.157  0.2723  0.7673 -0.9113
 3086SOL    HW120894   3.798   2.147  17.147 -0.0521  0.7500  2.0316
 3086SOL    HW220895   3.895   2.159  17.249 -1.5820  1.6413 -1.0983
 3087SOL     OW20896   1.112   0.470   4.027 -0.2527  0.2431 -0.9925
 3087SOL    HW120897   1.192   0.516   4.050 -0.8324  0.2838  0.9735
 3087SOL    HW220898   1.051   0.489   4.099 -0.2230 -1.4421 -0.5254
 3088SOL     OW20899   1.544   3.596   3.998  0.3632 -0.1042  0.4789
 3088SOL    HW120900   1.502   3.517   3.963 -0.4160  1.3415 -1.8329
 3088SOL    HW220901   1.624   3.551   4.024  0.1683 -0.5240  0.3604
 3089SOL     OW20902   2.566   1.943   5.234  0.4240  0.5720 -0.4961
 3089SOL    HW120903   2.592   1.851   5.227  0.9467  0.6773  0.0127
 3089SOL    HW220904   2.577   1.961   5.328 -2.2488  0.2180 -0.1212
 3090SOL     OW20905   3.619   2.284   0.886 -0.4489  0.2715 -0.3982
 3090SOL    HW120906   3.554   2.321   0.946 -1.4363 -0.4091 -1.0444
 3090SOL    HW220907   3.651   2.363   0.842  2.3789 -0.6187  0.0521
 3091SOL     OW20908   3.735   2.731  12.068  0.2557 -0.3434  0.2940
 3091SOL    HW120909   3.662   2.736  12.007  0.3532  2.7716  0.4140
 3091SOL    HW220910   3.699   2.787  12.137  0.6172 -0.5095  0.6180
 3092SOL     OW20911   0.790   1.919   0.536 -0.0413 -0.3138  0.7297
 3092SOL    HW120912   0.869   1.953   0.578  1.2502 -2.0716 -0.2403
 3092SOL    HW220913   0.819   1.830   0.514 -3.3918 -1.5556  1.3300
 3093SOL     OW20914   4.145   2.747  10.917 -0.1102 -0.1488 -0.0213
 3093SOL    HW120915   4.050   2.757  10.909  0.0030  1.5731  0.7526
 3093SOL    HW220916   4.176   2.836  10.930  0.9450 -0.6379  0.7980
 3094SOL     OW20917   2.773   1.618   9.242 -0.8344  0.1526 -0.0147
 3094SOL    HW120918   2.681   1.592   9.236 -0.2564 -1.9346 -0.0101
 3094SOL    HW220919   2.795   1.613   9.149 -1.5929 -1.8228 -0.0969
 3095SOL     OW20920   2.899   0.285   7.044 -0.3143  0.1259 -0.1817
 3095SOL    HW120921   2.978   0.241   7.013 -0.3477 -0.1081  0.0649
 3095SOL    HW220922   2.863   0.317   6.961  2.8642 -0.9007 -1.9666
 3096SOL     OW20923   4.152   3.730   4.074  0.2604 -0.1641 -0.0952
 3096SOL    HW120924   4.058   3.712   4.071  0.1933  0.3752 -1.0671
 3096SOL    HW220925   4.184   3.658   4.021 -1.0196  0.9574 -2.3695
 3097SOL     OW20926   1.828   0.965  16.600 -0.2383  0.4592 -0.0767
 3097SOL    HW120927   1.771   0.905  16.649 -1.9979 -0.1644 -2.8808
 3097SOL    HW220928   1.903   0.956  16.659  0.5640 -0.9471 -1.3120
 3098SOL     OW20929   1.286   0.270   8.622 -0.3603  0.1967  0.2909
 3098SOL    HW120930   1.229   0.265   8.545 -0.4153  3.9191  0.0994
 3098SOL    HW220931   1.259   0.188   8.663  1.2045  0.6648  2.2787
 3099SOL     OW20932   4.382   3.394  10.917  0.5520 -0.0342  1.1306
 3099SOL    HW120933   4.442   3.374  10.845 -1.4267 -0.3814 -0.4108
 3099SOL    HW220934   4.406   3.332  10.986 -1.9319 -1.6483  0.5310
 3100SOL     OW20935   1.787   3.979   8.822  0.2640  0.0345 -0.2832
 3100SOL    HW120936   1.825   3.893   8.842  3.2243  1.1072 -1.3959
 3100SOL    HW220937   1.721   3.962   8.755  1.1613  2.2025 -1.6864
 3101SOL     OW20938   2.541   3.281   6.241 -0.5486  0.1124 -0.5038
 3101SOL    HW120939   2.478   3.209   6.248  0.1377 -0.4902 -0.4813
 3101SOL    HW220940   2.543   3.311   6.331  1.2135 -0.3138 -0.3955
 3102SOL     OW20941   0.862   1.865  12.984 -0.2543 -0.0829  0.3551
 3102SOL    HW120942   0.876   1.832  13.073 -0.2961  0.8765  0.7096
 3102SOL    HW220943   0.947   1.891  12.946  0.8896 -0.1925  2.8795
 3103SOL     OW20944   2.435   0.942   4.865  0.5867 -0.5240  0.3313
 3103SOL    HW120945   2.437   0.979   4.953 -0.6283  0.7328 -0.1663
 3103SOL    HW220946   2.340   0.938   4.857  0.4937 -1.6063  2.0232
 3104SOL     OW20947   4.359   4.589   3.933  0.5469 -0.0219  0.4821
 3104SOL    HW120948   4.284   4.621   3.983  1.2227  0.3853  1.2270
 3104SOL    HW220949   4.376   4.661   3.872 -0.6426 -0.3341 -0.2118
 3105SOL     OW20950   4.477   0.997   3.269 -0.2020  0.1867 -0.1425
 3105SOL    HW120951   4.551   0.960   3.316  0.3572  1.3911 -0.0771
 3105SOL    HW220952   4.454   1.062   3.336  1.0938 -0.9255  1.3911
 3106SOL     OW20953   2.678   3.557  14.342 -0.0264  0.7723  0.2887
 3106SOL    HW120954   2.718   3.636  14.379  0.2816  0.5070  0.5166
 3106SOL    HW220955   2.646   3.593  14.259 -1.1910 -2.3577 -0.6178
 3107SOL     OW20956   4.013   3.912   8.033 -0.4059 -0.2844 -0.2846
 3107SOL    HW120957   4.073   3.844   8.002 -0.3096  0.1126 -0.9641
 3107SOL    HW220958   3.982   3.942   7.948  2.3559  2.1893 -0.4174
 3108SOL     OW20959   1.903   3.603  12.059  0.1025  0.0245 -0.6269
 3108SOL    HW120960   1.814   3.637  12.060  0.3676  0.6777  1.3672
 3108SOL    HW220961   1.938   3.625  12.145 -0.3925 -3.6353  0.5113
 3109SOL     OW20962   2.152   0.308   1.737  0.5614 -0.2763 -0.4975
 3109SOL    HW120963   2.098   0.385   1.755  2.2252  0.2358  2.2963
 3109SOL    HW220964   2.081   0.243   1.737  0.0936  0.2394 -1.7894
 3110SOL     OW20965   4.302   3.832   7.405 -0.0616 -0.2525 -0.5531
 3110SOL    HW120966   4.210   3.819   7.384 -0.5541  0.6664  1.0221
 3110SOL    HW220967   4.337   3.858   7.320  1.4858 -0.6561 -0.0478
 3111SOL     OW20968   4.563   3.829   9.997  0.2177 -0.0337 -0.2375
 3111SOL    HW120969   4.645   3.855   9.955 -0.5296 -0.1993 -1.7925
 3111SOL    HW220970   4.535   3.769   9.928 -1.1172 -0.7673  0.9313
 3112SOL     OW20971   1.732   3.257   8.257 -0.6221 -0.6384  0.3459
 3112SOL    HW120972   1.733   3.352   8.242 -1.8204 -0.7722 -0.6101
 3112SOL    HW220973   1.748   3.254   8.351  0.5043 -0.9986  0.1460
 3113SOL     OW20974   3.035   3.363   1.573 -0.1800  0.0805  0.2250
 3113SOL    HW120975   3.021   3.355   1.479  0.2314 -1.1049  0.2656
 3113SOL    HW220976   3.130   3.351   1.572 -0.1845  0.0548  0.1509
 3114SOL     OW20977   4.530   0.162   4.960 -0.3632 -0.3483 -0.3132
 3114SOL    HW120978   4.449   0.131   5.002  1.0328 -1.1174  1.7772
 3114SOL    HW220979   4.491   0.201   4.882  0.0619  3.5370  1.4100
 3115SOL     OW20980   1.261   2.189   3.181 -0.0516  0.7158  0.3930
 3115SOL    HW120981   1.339   2.241   3.197 -0.3256  0.5835  2.1110
 3115SOL    HW220982   1.206   2.184   3.259 -0.6680  1.8491  0.0344
 3116SOL     OW20983   0.584   1.559   7.422 -0.1684  0.1723 -0.0768
 3116SOL    HW120984   0.573   1.558   7.517 -0.2185  2.6120 -0.0354
 3116SOL    HW220985   0.569   1.467   7.400  1.0480  0.2619 -1.2573
 3117SOL     OW20986   1.809   0.137   5.869  0.8035  0.1135  0.1989
 3117SOL    HW120987   1.724   0.119   5.828  1.4087  0.3177 -1.1448
 3117SOL    HW220988   1.849   0.196   5.805  2.2507  1.7136  2.5879
 3118SOL     OW20989   4.472   3.514   2.121 -0.1001  0.4800  0.0858
 3118SOL    HW120990   4.534   3.529   2.192  0.0011 -1.0057  0.2933
 3118SOL    HW220991   4.403   3.575   2.151 -0.6168  2.0750 -4.3684
 3119SOL     OW20992   4.462   1.288  12.442  0.0763  0.0637 -0.1586
 3119SOL    HW120993   4.477   1.221  12.509 -0.5067 -0.7856 -0.8793
 3119SOL    HW220994   4.545   1.281  12.394  0.5203 -1.0906  0.7763
 3120SOL     OW20995   3.708   2.029   6.828  0.2859  0.2878  0.0024
 3120SOL    HW120996   3.644   2.019   6.899  0.2442  0.9658  0.0603
 3120SOL    HW220997   3.664   1.973   6.764  1.0987 -0.4914  0.1276
 3121SOL     OW20998   2.695   2.945  14.498  0.6059  0.0078 -0.4836
 3121SOL    HW120999   2.762   2.877  14.495  0.8944  0.3323 -1.5222
 3121SOL    HW221000   2.745   3.019  14.465  0.7099  0.7854  1.4612
 3122SOL     OW21001   1.452   3.720   2.954 -0.3733  0.5510 -0.6293
 3122SOL    HW121002   1.528   3.757   2.910  0.4971 -0.1227  0.3100
 3122SOL    HW221003   1.465   3.629   2.929  2.5874  0.4794  1.1802
 3123SOL     OW21004   0.520   3.836  14.835 -0.0211 -0.2000  0.3320
 3123SOL    HW121005   0.552   3.914  14.880  0.8746  0.8581 -2.1926
 3123SOL    HW221006   0.605   3.800  14.808  0.6041  0.6633  1.1241
 3124SOL     OW21007   0.183   4.244  13.588 -0.4333  0.0306  0.3507
 3124SOL    HW121008   0.247   4.262  13.519 -1.4030 -0.7514 -0.7670
 3124SOL    HW221009   0.209   4.309  13.653  1.0552 -0.2778  0.0624
 3125SOL     OW21010   0.041   4.303  12.090 -0.1916 -0.1704 -0.1377
 3125SOL    HW121011   0.114   4.337  12.038 -1.6824  0.7612 -1.5815
 3125SOL    HW221012   0.044   4.378  12.149  1.2681 -1.3577  1.2925
 3126SOL     OW21013   4.440   3.693   5.839 -0.4461 -0.7293  0.8923
 3126SOL    HW121014   4.476   3.668   5.754 -1.0878  0.1344  0.3726
 3126SOL    HW221015   4.428   3.603   5.870  0.5426 -0.6382  1.5495
 3127SOL     OW21016   1.611   1.130   4.731  0.6363  1.0487 -0.5092
 3127SOL    HW121017   1.529   1.164   4.768 -0.2790  0.1080 -1.6490
 3127SOL    HW221018   1.686   1.151   4.786  0.8896  0.4398 -0.6164
 3128SOL     OW21019   4.183   4.074   5.087 -0.1221  0.3260 -0.2635
 3128SOL    HW121020   4.256   4.070   5.148 -0.3993 -3.7459 -0.1721
 3128SOL    HW221021   4.119   4.123   5.140  1.7671  1.1381  1.2583
 3129SOL     OW21022   0.016   2.488   1.968  0.2322  0.3061 -0.1710
 3129SOL    HW121023   0.063   2.551   2.023  0.0287  1.1069 -0.9220
 3129SOL    HW221024   0.027   2.526   1.881  2.1026 -1.6419 -0.7758
 3130SOL     OW21025   3.157   3.655   3.628  0.1953 -0.2682 -0.2971
 3130SOL    HW121026   3.126   3.728   3.682 -0.7540 -0.8549 -0.0437
 3130SOL    HW221027   3.229   3.695   3.579  0.9074 -0.0690  0.9234
 3131SOL     OW21028   1.369   1.004   4.255  0.3209  0.1997  0.5506
 3131SOL    HW121029   1.431   1.023   4.326 -0.5399  0.6334  1.1791
 3131SOL    HW221030   1.318   0.930   4.286  0.6532  0.0635  0.7775
 3132SOL     OW21031   2.326   4.432   5.937 -0.6049 -0.3628 -0.0855
 3132SOL    HW121032   2.363   4.481   5.864  1.2243  1.5207  2.1148
 3132SOL    HW221033   2.231   4.439   5.922 -0.5012  2.4647  0.7081
 3133SOL     OW21034   1.666   3.784   7.383  0.5000 -0.5893  0.0724
 3133SOL    HW121035   1.739   3.834   7.420 -0.5161 -0.2332  1.5847
 3133SOL    HW221036   1.712   3.701   7.368 -1.7305 -1.6917 -0.6693
 3134SOL     OW21037   3.663   3.060  12.951  0.2112  0.3752  0.0800
 3134SOL    HW121038   3.618   3.040  13.033 -0.4157 -1.5933 -0.7407
 3134SOL    HW221039   3.618   3.142  12.932 -3.2327 -1.3840  0.6719
 3135SOL     OW21040   0.614   3.209   6.908  0.0037  0.2059 -0.2687
 3135SOL    HW121041   0.673   3.141   6.940 -1.4840 -0.4681  1.0203
 3135SOL    HW221042   0.616   3.186   6.815  0.4134  0.3434 -0.2940
 3136SOL     OW21043   1.728   1.727   3.874  0.2589  0.0741  0.2318
 3136SOL    HW121044   1.637   1.746   3.899  0.1077 -1.5681  0.9149
 3136SOL    HW221045   1.727   1.637   3.906  0.0711 -0.8439 -2.4128
 3137SOL     OW21046   4.568   3.732  15.667 -0.1425  0.0638  0.2773
 3137SOL    HW121047   4.502   3.792  15.701  0.5836  1.6311 -1.1128
 3137SOL    HW221048   4.526   3.654  15.703  1.0468 -1.0002 -0.6647
 3138SOL     OW21049   3.859   1.585  10.825  0.3508 -0.0451 -0.2400
 3138SOL    HW121050   3.879   1.654  10.761  1.2706  0.1885  0.2985
 3138SOL    HW221051   3.943   1.544  10.846  0.5491  0.4339 -0.0775
 3139SOL     OW21052   0.823   2.419   9.939 -0.1278 -0.7365 -0.7981
 3139SOL    HW121053   0.821   2.402  10.033 -0.3514 -1.9509 -1.0215
 3139SOL    HW221054   0.734   2.389   9.920 -0.3639  0.1169 -1.0455
 3140SOL     OW21055   3.497   0.263  11.564 -0.6481  0.0277  0.7050
 3140SOL    HW121056   3.412   0.276  11.605 -1.2182 -0.2195 -0.4072
 3140SOL    HW221057   3.484   0.273  11.470 -2.0158  0.4783  0.9485
 3141SOL     OW21058   1.741   1.408  15.010 -0.2450 -0.6493  0.4079
 3141SOL    HW121059   1.661   1.453  15.039  0.0255 -0.2643  0.5504
 3141SOL    HW221060   1.703   1.379  14.927 -0.4896  1.7565 -0.3220
 3142SOL     OW21061   0.711   0.693   9.622  0.4117  0.1652 -0.0984
 3142SOL    HW121062   0.668   0.769   9.662 -1.0759  0.7321 -2.7781
 3142SOL    HW221063   0.653   0.664   9.552  0.3142 -0.6322  0.3221
 3143SOL     OW21064   3.986   1.522  11.537 -0.5754 -0.3724 -0.4294
 3143SOL    HW121065   3.995   1.499  11.630 -0.7477 -2.3921 -0.8966
 3143SOL    HW221066   4.018   1.612  11.535  0.6838 -0.8274 -0.7345
 3144SOL     OW21067   0.968   1.927   1.933 -0.2824 -0.2186  0.3289
 3144SOL    HW121068   0.942   1.916   2.024  0.2463  0.1050  0.5194
 3144SOL    HW221069   1.061   1.949   1.937  0.2964 -2.3024 -1.2756
 3145SOL     OW21070   3.190   1.342   0.267  0.0739  0.4846 -0.1063
 3145SOL    HW121071   3.100   1.340   0.301  1.0339 -0.5200  2.3255
 3145SOL    HW221072   3.180   1.341   0.171 -1.2603 -1.2205  0.0516
 3146SOL     OW21073   3.630   0.024   2.484 -0.1174  0.5343 -0.2556
 3146SOL    HW121074   3.559   0.078   2.451 -1.0730 -1.0121 -0.7517
 3146SOL    HW221075   3.603   4.728   2.570  1.8934  1.2498  0.6460
 3147SOL     OW21076   2.112   1.257  15.313  0.0078  0.3064  0.6191
 3147SOL    HW121077   2.093   1.344  15.278  1.1513  0.5860  0.6917
 3147SOL    HW221078   2.150   1.218  15.235 -1.8118  0.3873 -0.3013
 3148SOL     OW21079   4.228   0.064   6.834 -0.4455 -0.4234  0.2643
 3148SOL    HW121080   4.227   0.131   6.902  1.4975  1.8259 -1.9851
 3148SOL    HW221081   4.191   0.098   6.753  0.1103 -1.0814 -0.2682
 3149SOL     OW21082   4.623   3.675   3.946  0.5577 -0.0416  0.3935
 3149SOL    HW121083   4.669   3.665   4.029  0.3333  0.6381  0.5971
 3149SOL    HW221084   4.583   3.762   3.954 -0.9788 -0.7452  0.3534
 3150SOL     OW21085   1.449   3.304  15.411 -0.2748 -0.3746 -0.2100
 3150SOL    HW121086   1.365   3.339  15.439 -1.0555 -0.2544 -2.6693
 3150SOL    HW221087   1.459   3.249  15.489 -1.9287  1.8030  1.5151
 3151SOL     OW21088   2.947   3.993   7.403  0.4583 -1.0398  0.3054
 3151SOL    HW121089   2.903   4.044   7.335  0.3457 -1.1560  0.2912
 3151SOL    HW221090   2.874   3.932   7.412  0.3453 -0.8925  0.3876
 3152SOL     OW21091   1.446   4.127   7.978  0.0908 -0.3398 -0.2486
 3152SOL    HW121092   1.525   4.092   7.938  1.7663  1.4980  1.4855
 3152SOL    HW221093   1.408   4.173   7.903  1.7746  2.3864  0.5695
 3153SOL     OW21094   0.046   2.249  10.731  0.0334  0.4146 -0.0290
 3153SOL    HW121095   0.030   2.219  10.642  0.7113 -1.1064  0.3501
 3153SOL    HW221096   0.141   2.248  10.745 -0.2248 -0.6332  1.6106
 3154SOL     OW21097   4.113   1.536   5.377 -0.4655 -0.4444  0.5235
 3154SOL    HW121098   4.128   1.497   5.291  1.1731 -0.8824  0.9986
 3154SOL    HW221099   4.038   1.495   5.419 -0.5535 -1.5921 -0.7654
 3155SOL     OW21100   2.938   4.668   7.501  0.4536 -0.3610  0.1363
 3155SOL    HW121101   3.029   4.648   7.482  0.6115  0.7057 -0.2174
 3155SOL    HW221102   2.920   4.611   7.576  1.9611 -0.6635  0.2491
 3156SOL     OW21103   2.289   1.371   5.445 -0.3486 -0.0035 -1.0088
 3156SOL    HW121104   2.210   1.422   5.458 -1.7043 -2.2241 -0.5679
 3156SOL    HW221105   2.294   1.385   5.350  2.2048  0.4521 -0.8038
 3157SOL     OW21106   2.111   0.427   2.109  0.0469 -0.3264 -0.1686
 3157SOL    HW121107   2.161   0.438   2.190 -1.0760 -0.8492  0.6026
 3157SOL    HW221108   2.167   0.355   2.079  1.4403  0.7588 -0.1333
 3158SOL     OW21109   4.416   1.713   7.223 -0.2086 -0.0709  0.2902
 3158SOL    HW121110   4.473   1.683   7.294  2.0099  1.0609 -1.0288
 3158SOL    HW221111   4.429   1.807   7.234 -4.1012  0.4002  0.8550
 3159SOL     OW21112   1.484   4.068   7.468 -0.8128 -0.3255  0.1638
 3159SOL    HW121113   1.485   4.001   7.537  1.5264  0.0307  0.4681
 3159SOL    HW221114   1.393   4.066   7.437  0.5053 -1.2790 -3.5856
 3160SOL     OW21115   0.696   1.202   3.324 -0.7268  0.0557 -0.0082
 3160SOL    HW121116   0.765   1.220   3.387 -0.1807 -2.5367  0.1329
 3160SOL    HW221117   0.623   1.245   3.369 -0.9494  1.0298 -1.3257
 3161SOL     OW21118   2.251   2.409  12.415 -0.3399  0.7752 -0.0808
 3161SOL    HW121119   2.307   2.336  12.389  1.8273  0.8174  4.4943
 3161SOL    HW221120   2.302   2.440  12.490 -0.3301  0.5407  0.0098
 3162SOL     OW21121   3.793   1.669   8.596  0.3148 -0.7183 -0.1250
 3162SOL    HW121122   3.717   1.707   8.552  0.6605 -3.2174 -2.8736
 3162SOL    HW221123   3.866   1.727   8.575 -1.6089  1.1944 -1.5381
 3163SOL     OW21124   3.162   4.413   4.910  0.3995 -0.5673 -0.3235
 3163SOL    HW121125   3.078   4.449   4.939  1.3386  1.0559  0.4143
 3163SOL    HW221126   3.222   4.479   4.945  0.4261 -0.5316 -0.4367
 3164SOL     OW21127   4.663   2.538   2.680  0.1414  0.3849 -0.0328
 3164SOL    HW121128   4.674   2.444   2.693  1.7045  0.6822  0.8217
 3164SOL    HW221129   4.726   2.551   2.610 -1.1246 -0.5199 -1.3369
 3165SOL     OW21130   1.848   2.056   3.555  0.1974  0.0913  0.2996
 3165SOL    HW121131   1.911   2.066   3.483 -0.9825 -0.0907 -0.7422
 3165SOL    HW221132   1.868   1.964   3.574  0.0869 -0.5448 -2.6730
 3166SOL     OW21133   0.125   1.111   7.574 -0.6297 -0.5680 -0.5017
 3166SOL    HW121134   0.088   1.051   7.509  0.0298 -1.3755 -0.1444
 3166SOL    HW221135   0.057   1.176   7.561  1.5265  2.1762  2.0662
 3167SOL     OW21136   2.164   4.493   9.498 -0.6121 -0.1839  0.0071
 3167SOL    HW121137   2.107   4.438   9.552 -0.8225  0.3417  0.3210
 3167SOL    HW221138   2.108   4.570   9.495 -2.2163 -1.3243  0.3892
 3168SOL     OW21139   2.510   1.220   2.424 -0.8292  0.8217  0.0757
 3168SOL    HW121140   2.439   1.193   2.365 -0.8852  0.1962  0.4272
 3168SOL    HW221141   2.556   1.280   2.366  2.4742 -2.4606 -0.7162
 3169SOL     OW21142   0.243   2.800   2.695 -0.7867 -0.0597  0.1497
 3169SOL    HW121143   0.281   2.794   2.607  3.9966 -0.0949  2.1949
 3169SOL    HW221144   0.319   2.823   2.749 -2.8093  1.7897  2.2420
 3170SOL     OW21145   4.079   4.604   7.681  0.2906  0.4161  0.8471
 3170SOL    HW121146   4.048   4.652   7.604 -1.1099  0.5584  1.5004
 3170SOL    HW221147   4.169   4.636   7.691  0.8500 -1.3723  1.6307
 3171SOL     OW21148   3.540   1.807   5.248  0.2703  0.0534 -0.5677
 3171SOL    HW121149   3.578   1.880   5.198  0.8312 -0.5054 -0.9571
 3171SOL    HW221150   3.474   1.771   5.189 -0.5242 -3.3370  2.3947
 3172SOL     OW21151   3.774   4.279   4.563  0.1461 -0.5600 -0.6729
 3172SOL    HW121152   3.781   4.372   4.539  2.1297 -0.6808 -0.6030
 3172SOL    HW221153   3.696   4.257   4.512 -0.1101 -1.4834  0.1116
 3173SOL     OW21154   2.321   0.598  14.956 -0.2208 -0.0548  0.2151
 3173SOL    HW121155   2.363   0.659  15.017 -0.2868  1.4654 -1.2613
 3173SOL    HW221156   2.255   0.660  14.924  0.7956  0.0964 -1.6274
 3174SOL     OW21157   2.656   4.171   6.533 -0.2266 -0.5274  0.2402
 3174SOL    HW121158   2.691   4.235   6.470 -0.4266 -1.0636 -0.4156
 3174SOL    HW221159   2.568   4.203   6.552  0.5303  2.1025 -0.6698
 3175SOL     OW21160   1.189   3.033   6.636 -0.2522 -0.2527  0.1704
 3175SOL    HW121161   1.114   3.056   6.691 -0.5710 -3.9378  1.2636
 3175SOL    HW221162   1.261   3.066   6.690 -0.9400 -1.7269  1.9578
 3176SOL     OW21163   0.939   3.475  14.047  0.0470 -0.6816 -0.0284
 3176SOL    HW121164   1.032   3.498  14.047 -0.5494  1.7541  3.7252
 3176SOL    HW221165   0.919   3.516  13.962  1.7857 -1.8979 -1.0259
 3177SOL     OW21166   0.232   4.035   5.714  0.0550 -0.2433  0.1476
 3177SOL    HW121167   0.321   4.050   5.746 -0.3156 -0.0096  1.0615
 3177SOL    HW221168   0.185   4.071   5.789 -0.0001 -0.6863  0.3220
 3178SOL     OW21169   0.494   1.339   5.447  0.3920 -0.6276 -0.3848
 3178SOL    HW121170   0.414   1.288   5.461 -0.3962  0.1496 -2.1368
 3178SOL    HW221171   0.523   1.362   5.535 -0.5171 -3.0455  0.5376
 3179SOL     OW21172   0.388   0.584   6.651  0.4767 -0.9474 -0.0001
 3179SOL    HW121173   0.347   0.619   6.730  0.0798  0.0052 -0.6178
 3179SOL    HW221174   0.377   0.491   6.668  0.4254 -0.3068  3.4409
 3180SOL     OW21175   2.926   3.171  14.778 -0.0315  0.1632  0.0807
 3180SOL    HW121176   2.895   3.083  14.800  0.7700  0.0300  0.6773
 3180SOL    HW221177   2.978   3.196  14.854  0.3162  0.6187 -0.3125
 3181SOL     OW21178   1.157   3.159   6.335  0.1585 -0.6635  0.0310
 3181SOL    HW121179   1.087   3.210   6.295  0.9482  1.1915  1.0531
 3181SOL    HW221180   1.179   3.196   6.420  0.8681 -1.2774  0.1186
 3182SOL     OW21181   2.542   3.316   7.857  0.3974  0.8449 -0.0618
 3182SOL    HW121182   2.567   3.229   7.890  1.0934  0.4815 -1.5559
 3182SOL    HW221183   2.592   3.323   7.776  0.0197  0.7356 -0.3015
 3183SOL     OW21184   3.167   3.236   6.329  0.0863 -0.3753  0.1495
 3183SOL    HW121185   3.180   3.310   6.389 -2.3424 -0.0035  0.2322
 3183SOL    HW221186   3.111   3.178   6.380 -1.8549  0.1782 -1.3794
 3184SOL     OW21187   3.919   2.178  14.720 -0.6057  0.2743 -0.5360
 3184SOL    HW121188   3.979   2.253  14.721  0.5804 -0.6932  1.0264
 3184SOL    HW221189   3.900   2.145  14.808  1.7002  1.2916  0.3586
 3185SOL     OW21190   0.560   2.067   5.752  0.2759  0.2178  0.5446
 3185SOL    HW121191   0.624   2.120   5.800 -0.9247  0.9290  1.3577
 3185SOL    HW221192   0.492   2.062   5.819  0.4293 -0.3284  0.6594
 3186SOL     OW21193   0.185   3.622   1.907 -0.2352 -0.1070 -0.4801
 3186SOL    HW121194   0.250   3.565   1.866  0.0261 -1.5521  1.9016
 3186SOL    HW221195   0.134   3.661   1.836 -0.2304 -2.0968 -1.5575
 3187SOL     OW21196   0.912   2.006  11.320  0.6085  0.5724 -0.3780
 3187SOL    HW121197   0.959   1.926  11.294 -0.9353 -0.4561 -0.0003
 3187SOL    HW221198   0.888   2.034  11.231 -0.2302  0.4392 -0.1888
 3188SOL     OW21199   2.554   0.893   5.742  0.0906  0.0493  0.1229
 3188SOL    HW121200   2.638   0.858   5.773  0.9136  0.3202 -1.8027
 3188SOL    HW221201   2.590   0.975   5.709 -1.7624  1.1748  0.8750
 3189SOL     OW21202   2.152   0.360   3.916  0.5662  0.1227 -0.5929
 3189SOL    HW121203   2.236   0.384   3.956 -0.3405  0.8162  0.8697
 3189SOL    HW221204   2.097   0.407   3.978  1.9356 -0.2087  0.8782
 3190SOL     OW21205   1.324   0.632   5.795  0.1738  0.1173 -0.1493
 3190SOL    HW121206   1.256   0.617   5.730  1.6994 -1.6826 -1.3291
 3190SOL    HW221207   1.280   0.593   5.870  0.2397  0.2131 -0.0611
 3191SOL     OW21208   1.705   2.390   6.285 -0.2724 -0.0806  0.5326
 3191SOL    HW121209   1.770   2.459   6.270  0.9215 -1.1516  0.7522
 3191SOL    HW221210   1.657   2.384   6.203 -0.7356  2.4442  0.6273
 3192SOL     OW21211   3.459   1.342  16.130  0.1087  0.1561 -0.4295
 3192SOL    HW121212   3.399   1.322  16.058 -1.4666  2.4079  0.2525
 3192SOL    HW221213   3.452   1.437  16.128  0.8082  0.2213  0.2672
 3193SOL     OW21214   3.542   4.211   9.155  0.1041  0.9481 -0.0744
 3193SOL    HW121215   3.510   4.277   9.093  2.7622  1.8077 -0.5192
 3193SOL    HW221216   3.582   4.146   9.097  0.9465  0.6136  0.8801
 3194SOL     OW21217   2.991   2.365   8.027  0.3236 -0.3191  0.0402
 3194SOL    HW121218   2.910   2.408   7.999  1.0115  0.5041 -0.6750
 3194SOL    HW221219   2.968   2.345   8.118  1.3542  2.9619  1.0321
 3195SOL     OW21220   1.913   3.364  14.262 -0.4505 -0.1857 -0.0929
 3195SOL    HW121221   1.911   3.459  14.277  1.1105 -0.3838  1.4088
 3195SOL    HW221222   1.893   3.368  14.169 -2.5776  3.4483  0.5400
 3196SOL     OW21223   4.067   0.991   8.356  0.4928 -0.1816  0.6169
 3196SOL    HW121224   4.025   0.906   8.370  0.7748 -0.4209 -0.0056
 3196SOL    HW221225   4.131   0.949   8.299  0.7231  0.8259  0.1295
 3197SOL     OW21226   2.645   2.338   7.076  0.4093  0.6391  0.0512
 3197SOL    HW121227   2.615   2.265   7.022  0.7063  0.2379  0.4301
 3197SOL    HW221228   2.580   2.405   7.054  1.5743  1.9288  0.5708
 3198SOL     OW21229   0.312   2.237  10.745 -0.0538  0.3987  0.2049
 3198SOL    HW121230   0.371   2.232  10.670 -0.0240 -1.9430  0.3888
 3198SOL    HW221231   0.372   2.249  10.819 -1.5306  4.1379  0.7893
 3199SOL     OW21232   0.794   3.527   8.547 -0.0057  0.2740  0.4351
 3199SOL    HW121233   0.774   3.599   8.608  0.4026  2.1314 -1.6351
 3199SOL    HW221234   0.723   3.532   8.483 -1.8603  0.4443  2.4622
 3200SOL     OW21235   0.535   2.088   4.103  0.1420 -0.4279 -0.3465
 3200SOL    HW121236   0.563   2.173   4.068 -1.3450 -0.2739 -1.1710
 3200SOL    HW221237   0.478   2.065   4.029  0.5804  1.3314 -1.2452
 3201SOL     OW21238   1.283   4.466   6.742 -0.4097 -0.4962 -0.2054
 3201SOL    HW121239   1.299   4.467   6.836  1.3045  0.8638 -0.4990
 3201SOL    HW221240   1.209   4.527   6.737 -0.3773 -0.5447 -1.2640
 3202SOL     OW21241   1.912   4.353   5.073 -0.6589 -0.3562  0.2858
 3202SOL    HW121242   1.931   4.419   5.140 -1.6441 -0.4698  0.6636
 3202SOL    HW221243   1.930   4.273   5.122 -1.2363 -0.2089  0.7279
 3203SOL     OW21244   1.521   2.317   2.515  0.4753  0.2949 -0.4298
 3203SOL    HW121245   1.453   2.279   2.571  0.2519 -1.9216 -2.1974
 3203SOL    HW221246   1.600   2.276   2.548  0.0084 -1.6534 -1.7082
 3204SOL     OW21247   3.996   1.732  16.598 -0.3473 -0.3509 -0.5012
 3204SOL    HW121248   4.013   1.644  16.631 -0.0378 -0.1652 -0.1751
 3204SOL    HW221249   4.058   1.779  16.654  0.2322  0.7006 -2.0116
 3205SOL     OW21250   3.432   0.625   6.552  0.6416 -0.5754 -0.4510
 3205SOL    HW121251   3.436   0.604   6.645 -1.5920 -0.1588 -0.2644
 3205SOL    HW221252   3.399   0.714   6.560  1.5914 -0.0399 -2.3518
 3206SOL     OW21253   0.163   2.070   6.848  0.1635  0.3419 -0.2259
 3206SOL    HW121254   0.170   1.976   6.864 -0.0494  0.3046 -0.3506
 3206SOL    HW221255   0.108   2.069   6.769 -1.3178 -2.2022  0.8057
 3207SOL     OW21256   0.039   1.834  13.232 -0.2592 -0.5031  0.3107
 3207SOL    HW121257   0.078   1.918  13.258  0.3555 -0.6211 -0.2131
 3207SOL    HW221258   0.106   1.795  13.175  1.0150  0.1467  1.3719
 3208SOL     OW21259   3.732   1.688   4.802  0.4266 -0.4994 -0.2358
 3208SOL    HW121260   3.658   1.652   4.852 -0.0507  0.6775 -0.0980
 3208SOL    HW221261   3.715   1.650   4.716 -1.7156 -1.3034  0.5331
 3209SOL     OW21262   1.459   0.825   4.022  0.3423 -0.2099  0.0096
 3209SOL    HW121263   1.552   0.823   4.000  0.1053 -2.0325 -0.7941
 3209SOL    HW221264   1.452   0.909   4.068  3.4351  1.2502 -2.1924
 3210SOL     OW21265   2.794   1.751   4.276  0.0530 -0.1865  0.7291
 3210SOL    HW121266   2.735   1.795   4.215  0.7042  0.0237  0.2533
 3210SOL    HW221267   2.844   1.828   4.306  0.5124 -0.5133  0.8052
 3211SOL     OW21268   1.068   4.158   4.297 -0.2496  0.7935 -0.3496
 3211SOL    HW121269   1.073   4.230   4.234  1.0826  0.3901 -0.7010
 3211SOL    HW221270   1.137   4.102   4.260 -1.5792 -0.6194 -0.7038
 3212SOL     OW21271   1.503   4.413   8.196  0.0418 -0.5897  0.3362
 3212SOL    HW121272   1.420   4.433   8.153  0.7858  1.9814  0.0702
 3212SOL    HW221273   1.497   4.318   8.202  2.0377 -0.6700  1.1915
 3213SOL     OW21274   3.732   2.919   4.208  0.4886  0.0336  0.3039
 3213SOL    HW121275   3.657   2.978   4.220  0.8138 -0.0652  2.7779
 3213SOL    HW221276   3.761   2.956   4.125 -2.4040  0.5893 -0.4711
 3214SOL     OW21277   2.270   0.529   0.734 -0.2930 -0.7379 -0.5294
 3214SOL    HW121278   2.345   0.483   0.771  0.5720 -0.0222 -1.3818
 3214SOL    HW221279   2.315   0.613   0.739 -1.2312 -0.2139 -0.9514
 3215SOL     OW21280   4.327   2.244   8.025 -0.3042 -0.3924 -0.5681
 3215SOL    HW121281   4.267   2.227   7.952  0.3398  2.3991 -1.7592
 3215SOL    HW221282   4.272   2.294   8.084  0.5685  1.9519 -1.7006
 3216SOL     OW21283   2.262   1.952   2.490 -0.4325 -0.8108 -0.3113
 3216SOL    HW121284   2.194   2.013   2.463  0.9455  0.2650 -1.3287
 3216SOL    HW221285   2.218   1.926   2.571 -0.6402 -0.1096 -0.1978
 3217SOL     OW21286   2.196   0.099   2.592 -0.1990 -0.4288  0.6701
 3217SOL    HW121287   2.143   0.106   2.672 -0.5127  0.6333  0.3653
 3217SOL    HW221288   2.164   0.022   2.544  2.1529 -0.3121 -1.0892
 3218SOL     OW21289   3.314   2.527   0.422  0.4464 -0.4300  0.3998
 3218SOL    HW121290   3.297   2.541   0.329  0.8228  1.8182  0.6737
 3218SOL    HW221291   3.338   2.434   0.422  2.5059  0.1134 -0.2885
 3219SOL     OW21292   1.660   1.765   8.872 -0.4043 -0.3611  0.5663
 3219SOL    HW121293   1.631   1.738   8.785  0.0747  0.9368  0.0046
 3219SOL    HW221294   1.580   1.794   8.917 -0.6817 -0.8509  0.3807
 3220SOL     OW21295   1.243   1.802   2.795 -0.6189  0.1096  0.5874
 3220SOL    HW121296   1.243   1.882   2.848 -0.6457  0.5886 -0.1305
 3220SOL    HW221297   1.155   1.806   2.756 -0.5528 -0.3333  0.3935
 3221SOL     OW21298   2.574   2.844  14.865 -0.2007 -0.2816  0.1083
 3221SOL    HW121299   2.619   2.839  14.949 -2.7377 -0.8287  1.4259
 3221SOL    HW221300   2.539   2.756  14.850  1.3292 -0.9240  0.2794
 3222SOL     OW21301   0.587   2.534  16.733 -0.6332  0.3571 -0.1297
 3222SOL    HW121302   0.605   2.486  16.652 -0.7643  1.3150 -0.7330
 3222SOL    HW221303   0.517   2.477  16.764  0.4645 -0.7018  0.3487
 3223SOL     OW21304   2.400   4.252   6.616  0.4693 -0.9472 -0.5588
 3223SOL    HW121305   2.411   4.181   6.678 -0.1768 -0.0606  0.5744
 3223SOL    HW221306   2.378   4.324   6.675 -0.8280 -2.6083  1.0121
 3224SOL     OW21307   0.984   2.592   5.828 -0.0007  0.1473 -0.4357
 3224SOL    HW121308   1.003   2.588   5.922 -0.1987  2.9204 -0.2793
 3224SOL    HW221309   0.893   2.621   5.827 -0.0070  0.1881  0.8662
 3225SOL     OW21310   3.193   2.466   4.465 -0.3313 -0.5161 -0.0615
 3225SOL    HW121311   3.247   2.529   4.512 -1.7564  0.0128  0.8714
 3225SOL    HW221312   3.169   2.511   4.384  2.1613  1.5575  0.3629
 3226SOL     OW21313   2.566   3.207   8.445 -0.6008 -0.6923  0.1643
 3226SOL    HW121314   2.525   3.258   8.375 -0.2757  1.2555  1.3900
 3226SOL    HW221315   2.538   3.252   8.524  1.5066 -0.6642  0.8836
 3227SOL     OW21316   1.721   4.134   5.473  0.3233 -0.7412 -0.1485
 3227SOL    HW121317   1.813   4.155   5.455 -0.1596 -0.0460 -1.8364
 3227SOL    HW221318   1.703   4.072   5.402 -1.1184 -0.7084  0.1963
 3228SOL     OW21319   3.156   2.054   4.225  0.4345  0.1596  0.7652
 3228SOL    HW121320   3.154   2.149   4.224 -0.6929  0.1244 -0.3732
 3228SOL    HW221321   3.076   2.033   4.273 -1.5312  2.1957 -1.6284
 3229SOL     OW21322   0.619   3.014   0.052  0.1649 -0.0530 -0.4853
 3229SOL    HW121323   0.684   3.070   0.011  0.7675 -0.7083 -0.4316
 3229SOL    HW221324   0.676   2.944   0.083 -0.7305 -0.4423  0.2857
 3230SOL     OW21325   1.066   4.683  13.911  0.0028  0.1557 -0.0385
 3230SOL    HW121326   1.006   4.622  13.955 -2.6483  2.5773 -0.2923
 3230SOL    HW221327   1.012   4.724  13.844  1.8916 -1.3429 -2.4844
 3231SOL     OW21328   2.658   1.237   7.815 -0.6555 -0.4617 -0.3886
 3231SOL    HW121329   2.586   1.264   7.758 -0.1511  3.3387  0.7610
 3231SOL    HW221330   2.711   1.317   7.806 -2.4884  0.6740 -1.0740
 3232SOL     OW21331   3.274   1.559   2.246 -0.2204 -0.3900 -0.3170
 3232SOL    HW121332   3.338   1.620   2.281 -0.9868 -1.1648  2.4064
 3232SOL    HW221333   3.193   1.596   2.281  0.3837  2.7142 -2.1636
 3233SOL     OW21334   2.646   3.441   4.446  0.1525  0.4161  0.2940
 3233SOL    HW121335   2.554   3.453   4.469  0.1831 -0.3335  0.8092
 3233SOL    HW221336   2.674   3.532   4.454 -0.8914  0.6585  1.1686
 3234SOL     OW21337   2.074   0.807   2.208  0.2344 -0.0124 -0.3760
 3234SOL    HW121338   1.981   0.829   2.209  0.0226 -0.8171 -3.3736
 3234SOL    HW221339   2.107   0.829   2.121 -1.1106 -2.3011 -1.4688
 3235SOL     OW21340   3.555   0.872   2.703 -0.0146  0.0093 -0.4070
 3235SOL    HW121341   3.470   0.861   2.747  1.9137 -0.1489  3.3082
 3235SOL    HW221342   3.532   0.946   2.647  2.4626 -0.2182 -1.7309
 3236SOL     OW21343   0.007   0.477   6.913  0.2806  0.1512  0.5094
 3236SOL    HW121344   4.674   0.450   6.972  0.2655 -1.9029 -0.4228
 3236SOL    HW221345   4.719   0.567   6.892 -0.0393 -0.3906 -1.4588
 3237SOL     OW21346   0.458   3.031  13.153 -0.9835  0.2915 -0.1100
 3237SOL    HW121347   0.366   3.048  13.174 -0.7171  0.4390  0.9271
 3237SOL    HW221348   0.476   3.113  13.108  0.7550 -0.7518 -1.3067
 3238SOL     OW21349   4.191   3.335   6.915  0.0810  0.3053 -0.3825
 3238SOL    HW121350   4.285   3.352   6.920  0.3569 -1.7714  1.3981
 3238SOL    HW221351   4.191   3.394   6.839  0.4232 -1.1138 -1.4910
 3239SOL     OW21352   0.645   2.999  11.706 -0.0583 -0.2036 -0.2211
 3239SOL    HW121353   0.579   2.933  11.685  0.1088  0.4069 -2.6773
 3239SOL    HW221354   0.697   2.950  11.769  1.1670 -1.1594 -1.9559
 3240SOL     OW21355   1.143   0.396   2.327 -0.3211  0.1486 -0.2350
 3240SOL    HW121356   1.121   0.350   2.246 -0.2866  0.6075 -0.5058
 3240SOL    HW221357   1.201   0.331   2.366 -2.0478 -0.1495  1.8310
 3241SOL     OW21358   2.367   0.459   5.496  0.0496 -0.3812 -0.5105
 3241SOL    HW121359   2.295   0.523   5.499 -0.2443 -0.8286  1.5590
 3241SOL    HW221360   2.320   0.383   5.530 -0.3317  0.7507  1.5087
 3242SOL     OW21361   0.378   0.407  14.251  0.2953 -0.2359  0.6084
 3242SOL    HW121362   0.284   0.420  14.238  0.1294 -3.0374 -0.9566
 3242SOL    HW221363   0.411   0.482  14.203 -0.8153 -0.2626 -0.2106
 3243SOL     OW21364   4.549   3.167   3.646  0.4130 -0.0045 -0.2898
 3243SOL    HW121365   4.501   3.153   3.564 -2.5902 -0.8681  1.6237
 3243SOL    HW221366   4.622   3.223   3.619  0.7231 -0.1156  0.3147
 3244SOL     OW21367   1.899   0.747   5.751 -0.1794 -0.4976 -0.0732
 3244SOL    HW121368   1.958   0.815   5.783  0.1263 -0.6677 -0.2729
 3244SOL    HW221369   1.901   0.763   5.657 -0.9452  0.3543  0.0570
 3245SOL     OW21370   0.244   0.624   6.881  0.0058  0.4437 -0.2006
 3245SOL    HW121371   0.267   0.659   6.966 -0.6317 -1.6879  0.8614
 3245SOL    HW221372   0.163   0.578   6.905 -0.1540  0.8759  0.0949
 3246SOL     OW21373   1.846   1.207   1.784 -0.2185 -0.5471 -0.7299
 3246SOL    HW121374   1.918   1.250   1.738 -0.5301  1.3452  0.5603
 3246SOL    HW221375   1.862   1.222   1.877  0.6901 -1.3967 -0.7514
 3247SOL     OW21376   4.542   1.771  16.720 -0.2420  0.3815 -0.2207
 3247SOL    HW121377   4.528   1.677  16.708  2.5388  0.4208 -3.7765
 3247SOL    HW221378   4.542   1.771  16.816  0.5726 -0.0018 -0.2161
 3248SOL     OW21379   0.335   2.399   7.615  0.2078  0.1086 -0.3553
 3248SOL    HW121380   0.285   2.450   7.679  4.0208  2.9166  0.4064
 3248SOL    HW221381   0.419   2.393   7.661  1.0803  0.4790 -1.9038
 3249SOL     OW21382   1.234   3.769  16.542  0.1134 -0.0261 -0.3440
 3249SOL    HW121383   1.301   3.831  16.513 -2.1183  2.9916  1.0035
 3249SOL    HW221384   1.290   3.691  16.544  0.1681  0.0314  0.2666
 3250SOL     OW21385   4.266   3.925   6.922 -0.1531  0.5932  0.2063
 3250SOL    HW121386   4.183   3.961   6.952 -0.6076 -1.6659  1.7183
 3250SOL    HW221387   4.279   3.981   6.846 -0.4337 -0.2835 -0.4887
 3251SOL     OW21388   4.373   2.259   6.607  0.0505 -0.3844 -0.2457
 3251SOL    HW121389   4.395   2.193   6.541  1.5282 -0.4712  0.3285
 3251SOL    HW221390   4.296   2.222   6.652  0.2687  0.9318  1.2156
 3252SOL     OW21391   0.979   1.462   7.306 -0.3559  0.8791  0.7091
 3252SOL    HW121392   1.006   1.374   7.279 -1.8204  0.9363 -0.9072
 3252SOL    HW221393   1.065   1.490   7.338  0.3918 -1.5607  0.8459
 3253SOL     OW21394   2.400   0.635   4.973  0.5253  0.1303 -0.3884
 3253SOL    HW121395   2.321   0.644   5.027  1.2569 -2.7129  1.1713
 3253SOL    HW221396   2.404   0.712   4.917 -1.8305  0.8591  0.4553
 3254SOL     OW21397   1.814   1.049   7.973 -0.1968 -0.1077  0.1230
 3254SOL    HW121398   1.848   1.027   7.887  2.2542 -0.8812  1.2751
 3254SOL    HW221399   1.791   0.969   8.020 -0.2034 -0.5187 -0.5846
 3255SOL     OW21400   3.885   1.174   8.280  0.1622 -0.1349  0.1843
 3255SOL    HW121401   3.875   1.241   8.347  0.0578 -0.0649  0.0975
 3255SOL    HW221402   3.950   1.121   8.327  1.5944 -0.4832 -2.2227
 3256SOL     OW21403   3.755   0.104   8.819 -0.5616  0.5472  0.0603
 3256SOL    HW121404   3.798   0.183   8.789 -0.3006  0.7178  0.8711
 3256SOL    HW221405   3.832   0.047   8.822 -1.0298 -0.1308 -0.9266
 3257SOL     OW21406   1.554   0.614   6.677  0.3089  0.0712  0.5369
 3257SOL    HW121407   1.499   0.634   6.753 -0.1214  1.0438 -0.0316
 3257SOL    HW221408   1.531   0.523   6.655  0.6587  0.4188 -1.3132
 3258SOL     OW21409   4.426   2.263  13.182 -0.0092 -0.0598  0.0835
 3258SOL    HW121410   4.420   2.318  13.260 -2.2224 -1.7414  1.0978
 3258SOL    HW221411   4.517   2.233  13.188 -0.0697 -0.8016 -2.8349
 3259SOL     OW21412   4.639   1.799   6.676 -0.1669  0.4187 -0.3505
 3259SOL    HW121413   4.727   1.837   6.686 -1.2465  2.4394  1.2501
 3259SOL    HW221414   4.578   1.872   6.687 -0.3389  0.1321  0.5816
 3260SOL     OW21415   4.034   4.721   6.092 -0.5464  0.0509  0.2921
 3260SOL    HW121416   4.057   4.640   6.137  1.5070 -0.0447 -0.9189
 3260SOL    HW221417   3.973   0.021   6.156  0.5893 -1.5227  2.2436
 3261SOL     OW21418   2.644   3.049   2.133 -0.2994 -0.5052 -0.5421
 3261SOL    HW121419   2.604   3.086   2.212  1.0548  0.0468 -0.1083
 3261SOL    HW221420   2.655   2.958   2.161 -0.1516 -0.8004 -1.5731
 3262SOL     OW21421   0.646   0.976   4.472  0.8194  0.1761  0.1285
 3262SOL    HW121422   0.736   0.964   4.441  0.9723 -0.9500  1.0225
 3262SOL    HW221423   0.662   0.997   4.564 -0.0169  2.4080 -0.2350
 3263SOL     OW21424   3.914   1.334  17.557 -0.8835  0.1907 -0.5612
 3263SOL    HW121425   3.916   1.424  17.527  1.0220  0.7079  1.1649
 3263SOL    HW221426   3.924   1.282  17.477 -2.1366 -0.2170 -0.4609
 3264SOL     OW21427   1.128   0.375  12.298 -0.0411  0.4833 -0.0002
 3264SOL    HW121428   1.050   0.330  12.268  0.2969  1.3647 -2.1717
 3264SOL    HW221429   1.087   0.424  12.370 -0.6113 -0.7971  0.5419
 3265SOL     OW21430   2.107   0.970   5.912 -0.1602  0.4221 -0.2313
 3265SOL    HW121431   2.181   1.006   5.862 -1.4456  0.4121 -2.1285
 3265SOL    HW221432   2.160   0.898   5.946  0.9918  0.7970 -1.2342
 3266SOL     OW21433   1.593   0.383   9.509 -0.2236 -0.0445  0.0949
 3266SOL    HW121434   1.576   0.463   9.460  0.1389  0.5745  0.9705
 3266SOL    HW221435   1.523   0.324   9.481  0.2010 -0.2527 -0.5321
 3267SOL     OW21436   1.347   0.721   3.091 -0.2002 -0.5150 -0.3047
 3267SOL    HW121437   1.392   0.722   3.006  1.1252  0.1295  0.4126
 3267SOL    HW221438   1.259   0.742   3.058  0.2562  1.6663 -0.1103
 3268SOL     OW21439   4.027   3.811  10.098  0.0399 -0.5564  0.3831
 3268SOL    HW121440   4.040   3.839  10.188 -1.7389 -1.5901  0.9572
 3268SOL    HW221441   3.959   3.873  10.068  1.5280  1.0001  0.2510
 3269SOL     OW21442   0.178   0.508   2.282 -0.3923  0.0990  0.1713
 3269SOL    HW121443   0.243   0.557   2.332 -0.6608  1.0798 -0.4300
 3269SOL    HW221444   0.218   0.451   2.217  0.4526 -0.4986  1.2279
 3270SOL     OW21445   3.678   4.577  13.354  0.0164  0.0054  0.2825
 3270SOL    HW121446   3.597   4.530  13.334  0.1736 -0.0708 -0.1852
 3270SOL    HW221447   3.743   4.535  13.297  0.9317  0.7912  0.7514
 3271SOL     OW21448   4.444   3.467   9.963 -0.4836 -0.3893  0.4170
 3271SOL    HW121449   4.483   3.545   9.924  1.0479 -1.4639 -0.2019
 3271SOL    HW221450   4.511   3.399   9.949  1.9242  1.8061  1.3442
 3272SOL     OW21451   1.409   1.999   7.980 -0.6288  0.4674 -0.1304
 3272SOL    HW121452   1.480   2.061   7.997 -0.4392  0.2182 -0.0190
 3272SOL    HW221453   1.338   2.063   7.980  0.7957  2.0572 -0.6037
 3273SOL     OW21454   3.454   4.456   8.997  0.5640 -0.3288  0.4708
 3273SOL    HW121455   3.361   4.436   9.007 -0.1082  1.7259 -1.8635
 3273SOL    HW221456   3.452   4.551   8.995  0.5464 -0.3605 -0.8392
 3274SOL     OW21457   0.215   0.388   4.091  0.3270  0.4680 -0.4338
 3274SOL    HW121458   0.183   0.453   4.029  0.1108 -0.7594 -1.6117
 3274SOL    HW221459   0.161   0.405   4.168 -0.4080  0.4625 -0.9511
 3275SOL     OW21460   0.723   1.730   3.287 -0.1156  0.0003  0.7463
 3275SOL    HW121461   0.664   1.668   3.329 -1.0227  1.2129  1.2609
 3275SOL    HW221462   0.802   1.676   3.277  1.5490  2.4502  0.5969
 3276SOL     OW21463   1.239   2.719  11.404  0.3667 -0.0551  0.1301
 3276SOL    HW121464   1.182   2.738  11.329 -0.7043 -0.9337  0.7220
 3276SOL    HW221465   1.326   2.731  11.366  1.0711  1.5160  2.2532
 3277SOL     OW21466   4.462   0.132   4.441 -0.6636  0.4413 -0.8374
 3277SOL    HW121467   4.508   0.049   4.428 -0.0075  0.1860  2.9755
 3277SOL    HW221468   4.384   0.134   4.386 -1.5609 -2.3118  0.3858
 3278SOL     OW21469   1.631   2.483   4.591  0.2791 -0.7257 -0.8278
 3278SOL    HW121470   1.598   2.459   4.678  1.1081 -1.2987 -0.6741
 3278SOL    HW221471   1.718   2.516   4.614 -0.1817 -0.8250  1.0362
 3279SOL     OW21472   3.285   4.029   6.839 -0.4740 -0.0543  0.0498
 3279SOL    HW121473   3.354   4.004   6.776 -0.2267 -0.4561  0.4858
 3279SOL    HW221474   3.262   3.944   6.875  0.8418 -0.2140  0.5041
 3280SOL     OW21475   4.693   0.303   2.384  0.2383  0.2311  0.1319
 3280SOL    HW121476   4.721   0.361   2.315 -0.4714  1.8279  1.1890
 3280SOL    HW221477   0.024   0.234   2.380 -0.6855 -0.7510  1.2256
 3281SOL     OW21478   3.459   3.089  17.522 -0.1817  0.8363 -0.2383
 3281SOL    HW121479   3.539   3.132  17.492 -0.1770  0.4940 -0.7096
 3281SOL    HW221480   3.409   3.168  17.545 -1.1599 -0.6062  2.7003
 3282SOL     OW21481   4.427   4.474  12.268 -0.0301 -0.1264  0.2184
 3282SOL    HW121482   4.501   4.455  12.326  0.4306  1.6259  0.2005
 3282SOL    HW221483   4.407   4.387  12.233  0.7413 -0.0174 -0.5178
 3283SOL     OW21484   0.109   2.405   9.431 -0.2106  0.2447  0.3233
 3283SOL    HW121485   0.198   2.369   9.431  0.1136  1.0606  0.5091
 3283SOL    HW221486   0.058   2.334   9.391 -0.5470  1.1934 -0.9327
 3284SOL     OW21487   3.133   1.798  11.230 -0.0787 -0.3528 -0.0538
 3284SOL    HW121488   3.227   1.797  11.249  0.0097 -0.5566 -0.4995
 3284SOL    HW221489   3.105   1.886  11.254  2.1641  0.2099  0.5053
 3285SOL     OW21490   2.329   0.176  12.844 -0.1005 -0.3594 -0.0911
 3285SOL    HW121491   2.350   0.085  12.822  1.2724  0.0071 -0.2888
 3285SOL    HW221492   2.366   0.221  12.768 -2.4141  0.0424 -0.9673
 3286SOL     OW21493   2.937   0.485   8.551  0.0635 -0.1328 -0.4116
 3286SOL    HW121494   2.918   0.425   8.479 -0.5304 -2.0117  1.3106
 3286SOL    HW221495   2.942   0.423   8.623  0.8875  0.8505  0.3799
 3287SOL     OW21496   1.297   1.395   3.270 -0.2060  0.4393 -0.0522
 3287SOL    HW121497   1.259   1.328   3.212 -1.7734  1.7075 -0.4881
 3287SOL    HW221498   1.329   1.337   3.339 -3.3089 -1.4933 -0.2352
 3288SOL     OW21499   1.098   4.046   4.961 -0.2207  0.0167  0.5038
 3288SOL    HW121500   1.027   4.076   4.904  0.1072 -0.9844 -0.4481
 3288SOL    HW221501   1.094   3.953   4.936 -0.5773  0.4618 -1.0637
 3289SOL     OW21502   4.314   4.244  17.602 -0.4547  0.2241  0.0916
 3289SOL    HW121503   4.331   4.251  17.508 -1.4098 -0.2658 -0.1120
 3289SOL    HW221504   4.220   4.226  17.603 -0.4717  0.4742  2.6271
 3290SOL     OW21505   3.139   4.353   6.259 -0.1603 -0.2865  0.4975
 3290SOL    HW121506   3.059   4.374   6.211 -0.0702 -0.6460  0.1926
 3290SOL    HW221507   3.118   4.412   6.332 -0.1488  0.3343 -0.0005
 3291SOL     OW21508   0.689   0.885   7.377 -0.5038  0.0945 -0.3341
 3291SOL    HW121509   0.740   0.811   7.344  2.2305  2.4478 -1.4849
 3291SOL    HW221510   0.674   0.858   7.467  1.0125  2.6342  0.7064
 3292SOL     OW21511   3.690   3.292   5.196  0.7840  0.2388 -0.5114
 3292SOL    HW121512   3.616   3.253   5.149  1.7706  0.2772 -2.0870
 3292SOL    HW221513   3.720   3.225   5.257  0.4977  1.4441  0.9838
 3293SOL     OW21514   0.936   3.732   7.086 -0.1210 -0.2604  0.2573
 3293SOL    HW121515   0.999   3.779   7.141 -1.3397 -1.4650  2.6997
 3293SOL    HW221516   0.995   3.674   7.037  0.1573 -2.1874  2.8478
 3294SOL     OW21517   4.479   4.068   3.514  0.1382  0.2815  0.9260
 3294SOL    HW121518   4.413   4.134   3.533 -0.5152  0.3028 -1.3787
 3294SOL    HW221519   4.458   4.013   3.589 -0.0166 -0.3592  0.4214
 3295SOL     OW21520   3.686   1.815   2.429 -0.1671 -0.2292 -0.2866
 3295SOL    HW121521   3.638   1.847   2.505  3.9955  0.4358  2.0477
 3295SOL    HW221522   3.699   1.892   2.372  0.9240 -0.0313  0.2394
 3296SOL     OW21523   4.648   4.218   9.786  0.4912 -0.0439  0.3714
 3296SOL    HW121524   4.599   4.149   9.829 -0.0873 -0.6351 -1.2441
 3296SOL    HW221525   4.711   4.158   9.746  0.8210  0.1114  0.6634
 3297SOL     OW21526   1.766   0.936   8.313 -0.1531 -0.7268  0.1223
 3297SOL    HW121527   1.710   1.012   8.328  2.1582  0.8443  0.9220
 3297SOL    HW221528   1.849   0.979   8.293 -0.7364  0.0320 -0.6523
 3298SOL     OW21529   0.384   3.921   6.097 -0.2974  1.0039 -0.3164
 3298SOL    HW121530   0.334   3.844   6.069  0.7119  0.6502 -1.1396
 3298SOL    HW221531   0.423   3.891   6.179 -0.2688  1.4480 -0.1690
 3299SOL     OW21532   1.222   1.633   8.652  0.5294 -0.0568  0.5732
 3299SOL    HW121533   1.209   1.704   8.589 -0.4029  1.3377  2.3310
 3299SOL    HW221534   1.239   1.684   8.731 -1.6758  1.6036 -0.0207
 3300SOL     OW21535   2.261   1.983   0.722 -0.0646 -0.2077  0.1564
 3300SOL    HW121536   2.180   2.030   0.742  1.4952  2.0191  1.2129
 3300SOL    HW221537   2.323   2.029   0.778 -0.6139 -0.2053  0.7681
 3301SOL     OW21538   1.897   3.554   2.064 -0.6735 -0.0337  0.4363
 3301SOL    HW121539   1.988   3.560   2.092 -0.8273  0.6991  0.8014
 3301SOL    HW221540   1.893   3.641   2.022  1.1136  0.2469  0.8355
 3302SOL     OW21541   0.377   3.395   3.561 -0.2271  0.2302  0.5439
 3302SOL    HW121542   0.461   3.363   3.529 -0.5932 -0.5932  0.4085
 3302SOL    HW221543   0.349   3.313   3.601  0.5940 -0.9757 -1.4002
 3303SOL     OW21544   0.921   1.763   1.699 -0.1705  0.5903  0.2079
 3303SOL    HW121545   0.871   1.706   1.756 -0.5640  0.3094 -0.4141
 3303SOL    HW221546   0.933   1.839   1.755 -0.7236  0.7041  0.1664
 3304SOL     OW21547   0.454   3.515   8.899 -0.3031 -0.2095 -0.8034
 3304SOL    HW121548   0.462   3.500   8.805  0.8014 -0.8905 -0.5957
 3304SOL    HW221549   0.364   3.548   8.909 -0.0266  0.5019 -0.6241
 3305SOL     OW21550   2.770   3.945   2.225 -0.5513  0.0773  0.8046
 3305SOL    HW121551   2.681   3.931   2.193  0.0430 -3.2792  0.6263
 3305SOL    HW221552   2.770   3.873   2.288 -0.8572 -1.0398 -0.4975
 3306SOL     OW21553   1.875   1.985  16.593 -0.7245 -0.0439 -0.1562
 3306SOL    HW121554   1.784   1.974  16.565 -0.6490 -0.3051 -0.3019
 3306SOL    HW221555   1.909   1.958  16.507 -1.1270 -1.5899  0.1609
 3307SOL     OW21556   2.446   4.477   7.147  0.1183 -0.0256 -0.2197
 3307SOL    HW121557   2.498   4.547   7.107  1.5066 -0.5336  0.6815
 3307SOL    HW221558   2.480   4.472   7.237  0.3356  2.9938 -0.1124
 3308SOL     OW21559   1.248   2.909  12.576  0.3484 -0.1849  0.0521
 3308SOL    HW121560   1.262   2.829  12.627  2.9628  1.7941  2.4295
 3308SOL    HW221561   1.172   2.869  12.534  1.4750  0.5769 -2.6608
 3309SOL     OW21562   2.450   3.539  16.984  0.5534 -0.0579 -0.2713
 3309SOL    HW121563   2.470   3.522  16.892  0.5700 -0.9095 -0.1065
 3309SOL    HW221564   2.447   3.634  16.992 -2.4269 -0.0160 -1.8454
 3310SOL     OW21565   0.035   1.465   0.803  0.1460  0.1950 -0.9275
 3310SOL    HW121566   0.125   1.476   0.774  0.0478  2.0269 -0.5568
 3310SOL    HW221567   0.004   1.437   0.717 -3.2849 -0.2932  0.4827
 3311SOL     OW21568   0.690   1.585   5.790  0.2364  0.4097  0.2278
 3311SOL    HW121569   0.773   1.539   5.782 -0.3368 -0.6328  0.3213
 3311SOL    HW221570   0.635   1.522   5.836  1.1412 -2.0381 -2.0639
 3312SOL     OW21571   4.014   1.276  15.564 -0.0790 -0.1599  0.3445
 3312SOL    HW121572   4.060   1.356  15.589  0.9878 -0.8209  0.4918
 3312SOL    HW221573   3.947   1.277  15.633 -0.2998 -0.6485  0.1389
 3313SOL     OW21574   4.475   3.149   7.134  0.4362  0.3326 -0.0553
 3313SOL    HW121575   4.391   3.115   7.102  1.4618 -2.3228  0.1012
 3313SOL    HW221576   4.503   3.193   7.053 -0.3562  0.6798 -0.1383
 3314SOL     OW21577   0.366   0.733  13.311  0.2323  0.0593  0.1705
 3314SOL    HW121578   0.371   0.740  13.215  0.8098  0.8163  0.2608
 3314SOL    HW221579   0.282   0.773  13.336  0.2542  0.9106 -1.1306
 3315SOL     OW21580   2.766   3.436   5.355 -0.1695 -0.3423  0.0803
 3315SOL    HW121581   2.711   3.504   5.317  2.4910  2.0674  0.6310
 3315SOL    HW221582   2.842   3.488   5.380  0.0607 -1.6627  2.1162
 3316SOL     OW21583   3.600   0.570   4.703  0.6890  0.1676 -0.4431
 3316SOL    HW121584   3.574   0.623   4.627  1.4055 -1.0864 -1.5837
 3316SOL    HW221585   3.604   0.645   4.761  0.6585 -0.1408 -0.0377
 3317SOL     OW21586   2.559   0.661  11.996 -0.2893 -0.4692 -0.2143
 3317SOL    HW121587   2.471   0.640  12.029 -0.6785  0.6952 -0.5347
 3317SOL    HW221588   2.618   0.624  12.062 -0.1448 -0.8645 -0.5665
 3318SOL     OW21589   3.631   0.395   2.658  0.7050  0.0924  0.4919
 3318SOL    HW121590   3.658   0.463   2.720 -1.2976  0.0047  1.4465
 3318SOL    HW221591   3.542   0.426   2.638  0.5983  2.6919  5.0381
 3319SOL     OW21592   4.456   3.965   8.051  0.2962 -0.6338  0.2771
 3319SOL    HW121593   4.540   3.935   8.016 -1.6812 -2.1541 -3.1147
 3319SOL    HW221594   4.422   4.030   7.989 -0.8942 -0.9081  0.6560
 3320SOL     OW21595   2.456   2.304   5.738  0.0218 -0.2952  0.6296
 3320SOL    HW121596   2.391   2.274   5.674 -1.1107 -1.8168  2.4894
 3320SOL    HW221597   2.409   2.304   5.822  1.5757  1.0951  1.4883
 3321SOL     OW21598   1.044   0.438   5.016  1.1234 -0.1716  0.3919
 3321SOL    HW121599   1.008   0.397   4.937  2.6148 -0.4639 -0.1221
 3321SOL    HW221600   1.025   0.369   5.079 -0.6587 -0.4141 -0.3875
 3322SOL     OW21601   4.733   4.201  11.747 -0.2851 -0.3660  0.9085
 3322SOL    HW121602   0.055   4.133  11.782 -1.5876 -1.5405  0.7946
 3322SOL    HW221603   0.015   4.187  11.654 -0.1335  2.1043  0.5885
 3323SOL     OW21604   2.343   1.056  11.142  0.7727  0.4841 -1.3692
 3323SOL    HW121605   2.339   1.094  11.229 -2.2077 -0.4520 -1.0964
 3323SOL    HW221606   2.251   1.037  11.121  0.6145  0.3202 -0.5058
 3324SOL     OW21607   4.109   0.966   2.941 -0.5422  0.0102  0.2013
 3324SOL    HW121608   4.018   0.950   2.915 -0.1858 -0.4915 -0.7437
 3324SOL    HW221609   4.136   1.044   2.892 -1.0299  0.5923  0.8528
 3325SOL     OW21610   1.792   0.639   4.677  0.2893 -0.4164  0.0986
 3325SOL    HW121611   1.817   0.710   4.617  0.2195 -1.3323 -1.0182
 3325SOL    HW221612   1.746   0.695   4.739 -0.9572 -0.0458 -1.1542
 3326SOL     OW21613   2.417   3.341   8.670 -0.0506  0.1578 -0.6184
 3326SOL    HW121614   2.440   3.301   8.755  0.3361  2.8029  0.5028
 3326SOL    HW221615   2.449   3.429   8.691  2.0591 -0.5885 -0.6853
 3327SOL     OW21616   4.515   2.787  17.050  0.6815  0.4716  0.3755
 3327SOL    HW121617   4.463   2.708  17.035  0.2035  0.6341  1.1725
 3327SOL    HW221618   4.584   2.767  16.987 -0.6775 -0.5556 -0.8005
 3328SOL     OW21619   0.360   2.331   9.411  0.0728 -0.7242  0.2460
 3328SOL    HW121620   0.437   2.386   9.427 -2.4283  2.6009  0.8310
 3328SOL    HW221621   0.400   2.268   9.351  0.6907  0.5886 -0.7054
 3329SOL     OW21622   3.719   4.176   2.572  0.3890 -0.0572 -0.2168
 3329SOL    HW121623   3.788   4.112   2.585 -1.6872 -2.3152 -0.3693
 3329SOL    HW221624   3.699   4.178   2.666 -1.8829  0.8037 -0.7109
 3330SOL     OW21625   0.339   2.588   8.555  0.2056 -0.5431  0.3381
 3330SOL    HW121626   0.302   2.579   8.643 -0.6204  0.4889  0.1052
 3330SOL    HW221627   0.265   2.622   8.504 -0.2793  1.4737  2.3749
 3331SOL     OW21628   3.485   4.684   7.275  0.1827  0.1441 -0.0822
 3331SOL    HW121629   3.429   4.610   7.251  1.3298 -0.5994 -0.4749
 3331SOL    HW221630   3.464   0.011   7.207  1.8968 -0.2654 -0.9884
 3332SOL     OW21631   0.576   4.224   1.930 -0.0202 -0.0227 -0.4593
 3332SOL    HW121632   0.605   4.237   1.840 -0.6330 -0.8910 -0.7865
 3332SOL    HW221633   0.497   4.173   1.910 -1.1917  1.6326 -0.0533
 3333SOL     OW21634   0.018   1.066  16.813 -0.3895 -0.0728 -0.3012
 3333SOL    HW121635   4.667   1.027  16.822 -1.6872  2.5519 -1.4417
 3333SOL    HW221636   4.731   1.158  16.802 -0.4442  0.1361  1.5344
 3334SOL     OW21637   4.694   0.795   5.616  0.0844  0.0055 -0.4424
 3334SOL    HW121638   0.031   0.826   5.564  0.5824  2.0095  1.4485
 3334SOL    HW221639   4.682   0.708   5.577  0.4784  0.0811 -0.7353
 3335SOL     OW21640   1.910   0.294  10.039 -0.0822 -0.2613  0.2926
 3335SOL    HW121641   2.000   0.325  10.043 -1.0103  2.0380  3.2243
 3335SOL    HW221642   1.928   0.202  10.060  3.7901 -0.1312 -2.4063
 3336SOL     OW21643   3.996   0.081  11.775  0.0472 -0.1542 -0.1854
 3336SOL    HW121644   3.975   4.724  11.773 -3.0928  0.5770 -0.1468
 3336SOL    HW221645   4.092   0.076  11.768 -0.0284 -1.0424 -0.5640
 3337SOL     OW21646   1.229   1.807   7.126 -0.1971  0.5358 -0.5614
 3337SOL    HW121647   1.299   1.827   7.189 -0.3194 -1.0312  0.0670
 3337SOL    HW221648   1.152   1.824   7.180 -1.6060 -3.3273 -1.3434
 3338SOL     OW21649   0.023   4.344   4.983 -0.0311  0.5394 -0.2152
 3338SOL    HW121650   4.707   4.299   4.917 -1.0458 -0.1382  1.0542
 3338SOL    HW221651   0.112   4.332   4.949 -0.1035 -2.2490  0.5550
 3339SOL     OW21652   3.589   2.147   4.473 -0.0390  0.7399  0.7272
 3339SOL    HW121653   3.621   2.237   4.484  2.6159 -0.1137 -0.1404
 3339SOL    HW221654   3.573   2.151   4.378 -0.3396  1.8366  0.8232
 3340SOL     OW21655   3.015   1.270   7.685  0.4915  0.2156 -0.0013
 3340SOL    HW121656   3.037   1.179   7.666  0.6619  0.4642 -0.9756
 3340SOL    HW221657   2.922   1.269   7.664  0.0936  1.4263  1.7020
 3341SOL     OW21658   4.455   3.555   7.198  0.0614 -0.0731  0.0653
 3341SOL    HW121659   4.370   3.563   7.241  0.0164 -1.3856  0.2046
 3341SOL    HW221660   4.493   3.479   7.241 -0.1122  0.1377  0.5869
 3342SOL     OW21661   3.976   2.826  14.661 -0.6946 -0.1064 -0.4763
 3342SOL    HW121662   4.058   2.845  14.615 -1.7983  0.7206 -2.0939
 3342SOL    HW221663   3.977   2.884  14.737 -0.4979 -0.8306  0.0786
 3343SOL     OW21664   2.216   3.816   5.078  0.4792 -0.1078 -0.1237
 3343SOL    HW121665   2.242   3.827   4.987  0.1800  0.5954 -0.1255
 3343SOL    HW221666   2.137   3.766   5.059  0.3201  0.3015 -0.5375
 3344SOL     OW21667   2.888   0.785   0.092 -0.1952 -0.0335  0.1136
 3344SOL    HW121668   2.869   0.732   0.014 -0.1348  2.2030 -1.3966
 3344SOL    HW221669   2.977   0.756   0.114  0.0948  0.2912 -0.6362
 3345SOL     OW21670   2.547   0.580  11.197  0.3248 -0.2057 -0.4268
 3345SOL    HW121671   2.540   0.525  11.119  0.6657 -1.4280  0.4048
 3345SOL    HW221672   2.468   0.634  11.190 -0.8043 -1.9857 -1.1977
 3346SOL     OW21673   1.803   3.916   8.284  0.4960 -0.4443  0.1603
 3346SOL    HW121674   1.883   3.906   8.335  1.6760  0.4539 -1.5287
 3346SOL    HW221675   1.737   3.862   8.328 -1.5244  0.8313 -1.2666
 3347SOL     OW21676   1.426   3.238  12.406 -0.1644  0.2764 -0.2392
 3347SOL    HW121677   1.458   3.327  12.389  0.8650 -0.1363 -0.3980
 3347SOL    HW221678   1.375   3.249  12.487  1.4068 -2.5275  1.1187
 3348SOL     OW21679   2.456   1.342   6.721  0.2059  0.1356  0.3213
 3348SOL    HW121680   2.455   1.420   6.776 -0.5577  2.0884 -2.4492
 3348SOL    HW221681   2.413   1.358   6.637 -3.2040  0.5614  2.1768
 3349SOL     OW21682   0.222   0.384  10.092 -0.0429 -0.0302 -0.0200
 3349SOL    HW121683   0.134   0.348  10.108  0.4073 -1.3005 -0.4049
 3349SOL    HW221684   0.195   0.432  10.013  0.9222  1.9077  0.8372
 3350SOL     OW21685   0.828   0.709   6.700 -0.3392  0.0897 -0.2281
 3350SOL    HW121686   0.825   0.639   6.635 -0.9285 -0.4030  0.3451
 3350SOL    HW221687   0.759   0.763   6.662 -1.0180 -0.1933  0.6102
 3351SOL     OW21688   3.581   0.169   6.294  0.4242 -0.4479  0.3221
 3351SOL    HW121689   3.519   0.147   6.364  0.0561  1.6369  0.6368
 3351SOL    HW221690   3.616   0.242   6.344 -1.6221  0.9042 -0.1975
 3352SOL     OW21691   3.794   0.434   5.594 -0.1861  0.6043 -0.0527
 3352SOL    HW121692   3.798   0.368   5.664  0.3967 -0.6798 -1.2889
 3352SOL    HW221693   3.699   0.446   5.596 -0.6931 -3.4138  1.1597
 3353SOL     OW21694   0.697   0.365   5.474  0.1227  0.1353 -0.4197
 3353SOL    HW121695   0.693   0.398   5.385 -1.1373 -1.2632 -0.8797
 3353SOL    HW221696   0.675   0.441   5.527  0.4728  1.6277 -2.4374
 3354SOL     OW21697   0.580   0.332   2.641  0.0143 -0.5007  0.7331
 3354SOL    HW121698   0.658   0.379   2.670 -0.2329  0.3859 -0.0576
 3354SOL    HW221699   0.544   0.308   2.727  0.6924 -2.1925  0.5516
 3355SOL     OW21700   2.787   2.079  17.236  0.5445 -0.1864 -0.5375
 3355SOL    HW121701   2.745   2.165  17.235 -0.9580 -0.8533  2.7896
 3355SOL    HW221702   2.723   2.030  17.186 -1.2136 -1.4783  2.9485
 3356SOL     OW21703   1.670   3.648   3.508  0.2055  0.6264  0.2520
 3356SOL    HW121704   1.594   3.701   3.528 -0.6145  0.1210 -1.5232
 3356SOL    HW221705   1.718   3.724   3.475 -0.2512  0.1505 -1.5306
 3357SOL     OW21706   0.557   0.062  17.470 -0.7044 -0.5179  0.0665
 3357SOL    HW121707   0.538   0.115  17.548 -2.1594 -1.4633  0.3386
 3357SOL    HW221708   0.650   0.083  17.464 -0.7419 -0.2033  0.5330
 3358SOL     OW21709   3.925   0.224   9.148 -0.0659  0.6023 -0.2586
 3358SOL    HW121710   3.960   0.251   9.063 -0.4587  0.0545 -0.5950
 3358SOL    HW221711   3.868   0.296   9.175  0.3396  0.6683  0.4175
 3359SOL     OW21712   0.366   0.369   8.530  0.1570 -0.0058  0.1098
 3359SOL    HW121713   0.333   0.285   8.562 -1.0857 -0.2861 -1.8997
 3359SOL    HW221714   0.284   0.418   8.524  1.8243  2.5017 -2.6985
 3360SOL     OW21715   4.150   3.048  16.531  0.5503  0.1296 -0.3050
 3360SOL    HW121716   4.134   2.965  16.576  0.0071  1.5658  2.1135
 3360SOL    HW221717   4.112   3.030  16.445  1.2551  0.1683 -0.6221
 3361SOL     OW21718   0.898   4.218   7.600 -0.0784 -0.1404 -0.0155
 3361SOL    HW121719   0.938   4.228   7.513  0.5942 -1.6739  0.0989
 3361SOL    HW221720   0.953   4.152   7.643 -0.1044 -1.5008 -2.0892
 3362SOL     OW21721   0.384   1.089  16.192  0.3234 -0.1860  0.2177
 3362SOL    HW121722   0.391   1.009  16.244 -1.8926 -1.2886 -1.1921
 3362SOL    HW221723   0.312   1.138  16.230  1.1732  0.2404  1.2878
 3363SOL     OW21724   2.328   2.321   3.735  0.3555  0.2754  0.0944
 3363SOL    HW121725   2.424   2.327   3.734  0.2654  1.4322 -1.1291
 3363SOL    HW221726   2.315   2.309   3.829  2.9379  0.5536  0.5099
 3364SOL     OW21727   1.984   3.966   1.822 -0.0402  0.1019  0.2403
 3364SOL    HW121728   1.967   3.881   1.781  1.5934  0.1356 -0.5244
 3364SOL    HW221729   2.075   3.969   1.793  0.7588  0.5637  2.7936
 3365SOL     OW21730   0.292   2.751   4.399  0.1835 -0.0280 -0.0329
 3365SOL    HW121731   0.233   2.676   4.387 -0.8891  0.4038  2.4404
 3365SOL    HW221732   0.374   2.703   4.409  0.6981  1.3820  2.5232
 3366SOL     OW21733   0.361   2.423   6.083 -0.0450  0.0902  0.3637
 3366SOL    HW121734   0.305   2.352   6.053 -1.9967  1.9470 -0.4441
 3366SOL    HW221735   0.315   2.494   6.038  0.6757  1.6782  2.0991
 3367SOL     OW21736   4.670   1.664   7.330  0.8907  0.0417 -0.2594
 3367SOL    HW121737   4.602   1.670   7.398  0.4099 -0.2881 -0.7145
 3367SOL    HW221738   4.692   1.757   7.318  0.9567  0.1613  0.7371
 3368SOL     OW21739   0.449   1.106   4.886  0.5968  0.2557 -0.0710
 3368SOL    HW121740   0.461   1.079   4.977 -0.5072 -0.3451 -0.1021
 3368SOL    HW221741   0.355   1.092   4.873  0.9710 -0.9646 -1.4310
 3369SOL     OW21742   0.893   3.320   8.794  1.0984  0.1200 -0.0323
 3369SOL    HW121743   0.837   3.299   8.720  0.5878  0.6972  0.1898
 3369SOL    HW221744   0.823   3.325   8.858  0.8861  0.3716 -0.2836
 3370SOL     OW21745   0.661   3.395  13.467  0.5558  0.2297 -0.2931
 3370SOL    HW121746   0.661   3.301  13.453  0.6336  0.3093 -0.8105
 3370SOL    HW221747   0.653   3.393  13.563  1.2861  3.3232 -0.1483
 3371SOL     OW21748   4.006   4.644  11.205 -0.0324  0.3564  0.3577
 3371SOL    HW121749   3.917   4.665  11.175 -0.8283  1.3568  3.3680
 3371SOL    HW221750   4.021   4.717  11.266 -2.5576  0.7152  0.5864
 3372SOL     OW21751   1.573   1.399   5.162  0.0892  0.1077 -0.0377
 3372SOL    HW121752   1.486   1.439   5.164 -0.8824 -2.0743  0.6126
 3372SOL    HW221753   1.595   1.414   5.070 -0.5926  0.9612 -0.0657
 3373SOL     OW21754   2.152   0.461   1.365 -0.3430 -0.0946  0.4880
 3373SOL    HW121755   2.194   0.417   1.291  0.4605  1.4220  0.0378
 3373SOL    HW221756   2.088   0.403   1.405 -0.7247 -1.0118 -1.4944
 3374SOL     OW21757   3.829   0.636  13.693 -0.2083 -0.2571  0.5803
 3374SOL    HW121758   3.745   0.633  13.647  0.5973 -0.7910 -0.8600
 3374SOL    HW221759   3.851   0.725  13.719 -0.1567 -0.4611  1.2529
 3375SOL     OW21760   0.846   3.876  12.677  0.0307  0.0767  0.1619
 3375SOL    HW121761   0.827   3.785  12.698  0.3168  0.5988  2.6623
 3375SOL    HW221762   0.941   3.869  12.680  0.0809  1.9884  3.3859
 3376SOL     OW21763   0.618   3.823   5.362 -0.7571 -0.5570 -0.0719
 3376SOL    HW121764   0.644   3.795   5.274 -0.2901 -0.6122  0.0797
 3376SOL    HW221765   0.539   3.772   5.379  0.8435 -2.1275  2.6516
 3377SOL     OW21766   1.339   0.883   9.430  0.5322  0.3355 -0.3262
 3377SOL    HW121767   1.319   0.912   9.341  1.3371 -0.2033 -0.6850
 3377SOL    HW221768   1.287   0.943   9.484  1.1495  0.9485 -0.4168
 3378SOL     OW21769   1.842   0.179  12.014  0.0362 -0.2187 -0.1893
 3378SOL    HW121770   1.877   0.104  12.062 -0.1632  0.0361  0.3495
 3378SOL    HW221771   1.762   0.139  11.978  1.9288 -3.5430 -0.7246
 3379SOL     OW21772   0.133   3.044   9.834 -0.0057  0.1413  0.3190
 3379SOL    HW121773   0.117   2.985   9.760 -1.7034 -0.7605  1.4098
 3379SOL    HW221774   0.178   2.974   9.881  0.2219  0.6568  0.8674
 3380SOL     OW21775   2.501   2.786  17.403  0.6441  0.4241 -0.4395
 3380SOL    HW121776   2.506   2.803  17.309  1.4412  0.9406 -0.3104
 3380SOL    HW221777   2.566   2.850  17.434 -0.6965  1.2692  0.6074
 3381SOL     OW21778   0.309   4.730   3.871 -0.0859  0.4548 -0.0167
 3381SOL    HW121779   0.322   4.660   3.935 -0.8583  0.1582 -0.1849
 3381SOL    HW221780   0.379   4.712   3.808 -0.8795 -2.3944 -0.1002
 3382SOL     OW21781   3.070   3.211  14.331  0.1383 -0.1724 -0.0345
 3382SOL    HW121782   3.014   3.189  14.406  0.5620  1.1737  0.6922
 3382SOL    HW221783   3.014   3.267  14.278  1.2218 -0.2887 -1.3143
 3383SOL     OW21784   4.272   1.131   4.504 -0.5736  0.0893  0.1875
 3383SOL    HW121785   4.263   1.125   4.409 -1.4856  3.0190  0.0831
 3383SOL    HW221786   4.187   1.104   4.539 -1.4058  1.7886 -0.5076
 3384SOL     OW21787   0.651   0.413  10.930 -0.5710 -0.5693  0.5032
 3384SOL    HW121788   0.672   0.462  11.010 -1.0878  0.8534 -0.2235
 3384SOL    HW221789   0.557   0.398  10.934 -0.8431  0.8517 -0.8679
 3385SOL     OW21790   3.785   3.379   2.612 -0.3628  0.0315  0.2593
 3385SOL    HW121791   3.783   3.290   2.577  0.8403  0.1589 -0.1411
 3385SOL    HW221792   3.706   3.384   2.665  0.4532 -0.2935  1.4910
 3386SOL     OW21793   1.869   4.475   7.902 -0.3272  0.0403  0.3259
 3386SOL    HW121794   1.798   4.521   7.857 -0.6205 -0.9978 -0.2667
 3386SOL    HW221795   1.946   4.527   7.879 -0.6619  0.4514  0.1186
 3387SOL     OW21796   3.547   3.984   7.089  0.1736  0.1911  0.0990
 3387SOL    HW121797   3.471   3.936   7.123  0.0505 -0.2767 -0.8338
 3387SOL    HW221798   3.615   3.916   7.091 -1.0379 -1.0254 -0.1285
 3388SOL     OW21799   3.326   2.238   0.469  1.1968 -0.0140  0.1372
 3388SOL    HW121800   3.320   2.220   0.563 -1.3525  0.9743  0.1760
 3388SOL    HW221801   3.248   2.188   0.445  1.5254 -0.8174  0.7514
 3389SOL     OW21802   1.399   1.704   3.527  0.0692  0.0737  0.1111
 3389SOL    HW121803   1.476   1.652   3.550  0.6386  1.4563  1.3094
 3389SOL    HW221804   1.363   1.730   3.612 -1.1962 -1.7082  0.1309
 3390SOL     OW21805   2.275   4.313  16.878  0.8992 -0.0798 -0.7270
 3390SOL    HW121806   2.288   4.222  16.907  0.5159  0.1169  0.0411
 3390SOL    HW221807   2.183   4.329  16.898  1.5974  1.9595  0.7152
 3391SOL     OW21808   3.551   0.732   8.803  0.2280 -0.3213 -0.0179
 3391SOL    HW121809   3.646   0.718   8.805  0.4205  1.3741  2.9789
 3391SOL    HW221810   3.537   0.821   8.835 -2.2607  0.1375 -2.3851
 3392SOL     OW21811   1.939   0.392   0.234  0.0754  0.4071  0.4060
 3392SOL    HW121812   2.006   0.431   0.177  1.0750 -0.3595  1.0362
 3392SOL    HW221813   1.973   0.303   0.245 -2.4793 -0.5783  0.2186
 3393SOL     OW21814   0.658   4.467   6.123 -0.0820  0.9291  0.8827
 3393SOL    HW121815   0.642   4.435   6.034  1.3189  1.6061  0.3784
 3393SOL    HW221816   0.569   4.472   6.158  0.0557 -0.7038  1.5070
 3394SOL     OW21817   4.290   4.575   2.334 -0.0655  0.2400  0.1811
 3394SOL    HW121818   4.283   4.594   2.240 -0.7080 -1.1708 -0.0513
 3394SOL    HW221819   4.338   4.655   2.357 -1.2457  1.3770 -1.3428
 3395SOL     OW21820   4.419   3.682  11.570 -0.3934 -0.1525 -0.4228
 3395SOL    HW121821   4.487   3.681  11.503 -0.1106 -0.6130 -0.1356
 3395SOL    HW221822   4.467   3.696  11.651 -2.3680  0.6290  0.6134
 3396SOL     OW21823   1.276   4.210   1.515 -0.5234  0.2454  0.2876
 3396SOL    HW121824   1.326   4.173   1.588 -1.2650  2.4468  1.9455
 3396SOL    HW221825   1.188   4.201   1.554 -0.9747  1.2085 -0.5016
 3397SOL     OW21826   1.727   0.191   4.904  0.2460 -0.7779  0.7246
 3397SOL    HW121827   1.633   0.198   4.925 -0.3927 -0.7478 -2.1415
 3397SOL    HW221828   1.745   0.104   4.869 -1.8022  0.3507 -3.1665
 3398SOL     OW21829   4.510   3.193   9.030 -0.0695  0.5036  0.3902
 3398SOL    HW121830   4.555   3.264   8.984  0.8130  0.3298  0.9810
 3398SOL    HW221831   4.447   3.237   9.087  0.6003 -0.6785  2.0459
 3399SOL     OW21832   4.684   1.813   3.463  0.2326  0.1424 -0.3077
 3399SOL    HW121833   0.030   1.838   3.422  0.3335  0.2047 -0.0665
 3399SOL    HW221834   4.670   1.874   3.536  0.5891  0.7678 -0.7586
 3400SOL     OW21835   1.149   0.214   2.115  0.4755 -0.2120  0.1912
 3400SOL    HW121836   1.232   0.176   2.141  0.9254  1.2757  0.9667
 3400SOL    HW221837   1.114   0.147   2.057 -0.6501 -1.1645  1.9543
 3401SOL     OW21838   3.272   2.373   5.371 -1.0082  0.2802  0.4889
 3401SOL    HW121839   3.180   2.368   5.397 -0.7634 -1.1434  1.0715
 3401SOL    HW221840   3.274   2.464   5.340  0.2128  0.9113  2.4065
 3402SOL     OW21841   2.004   0.301   3.128 -0.3946  0.4849  0.1920
 3402SOL    HW121842   1.927   0.339   3.086 -1.1514 -2.0003 -0.6335
 3402SOL    HW221843   1.957   0.224   3.161 -1.9386  1.0640 -0.6493
 3403SOL     OW21844   3.567   0.460   8.413  0.3543 -0.0435  0.2066
 3403SOL    HW121845   3.561   0.549   8.447 -0.7864 -1.6901  4.3066
 3403SOL    HW221846   3.571   0.407   8.493  0.0939 -0.6120 -0.1552
 3404SOL     OW21847   1.159   3.534   2.264  0.0983  0.6204  0.3687
 3404SOL    HW121848   1.245   3.545   2.222  0.6560 -0.6454  1.1531
 3404SOL    HW221849   1.146   3.619   2.306  0.0772 -0.1708  1.9690
 3405SOL     OW21850   2.009   1.159   4.268 -0.1809 -0.0162  0.5988
 3405SOL    HW121851   2.002   1.114   4.183 -2.1467  1.6518 -0.1147
 3405SOL    HW221852   2.055   1.093   4.320 -0.6427 -0.5005  0.3983
 3406SOL     OW21853   4.531   1.872  14.097  0.0909 -0.2780 -0.2188
 3406SOL    HW121854   4.457   1.927  14.072 -0.8512 -0.3871  2.2939
 3406SOL    HW221855   4.508   1.792  14.051 -0.1836  0.8174 -1.9855
 3407SOL     OW21856   4.614   0.551   2.892  0.2014  0.2320  0.2722
 3407SOL    HW121857   4.622   0.593   2.978 -0.5248  0.1263  0.3965
 3407SOL    HW221858   4.520   0.546   2.875 -0.0549  0.9706  1.4382
 3408SOL     OW21859   2.610   3.006   7.881 -0.1124 -0.0773 -0.4439
 3408SOL    HW121860   2.595   2.912   7.885  0.8156 -0.2996 -2.0522
 3408SOL    HW221861   2.537   3.019   7.820 -1.2278  0.4861  1.0005
 3409SOL     OW21862   0.804   4.623   1.648  0.3603 -0.3713 -0.6385
 3409SOL    HW121863   0.861   4.554   1.680 -1.6994 -1.4324  0.8036
 3409SOL    HW221864   0.869   4.693   1.642 -0.4178  0.4204  0.0568
 3410SOL     OW21865   4.115   0.666   1.809  0.3044 -0.3122 -0.1814
 3410SOL    HW121866   4.066   0.722   1.749  0.0144  0.7751  1.0705
 3410SOL    HW221867   4.185   0.640   1.749  0.0194  1.0770 -1.1143
 3411SOL     OW21868   2.916   3.859  17.622  0.1858  0.2635  0.6746
 3411SOL    HW121869   2.949   3.829  17.706 -0.1049 -0.9667  0.3511
 3411SOL    HW221870   2.995   3.872  17.570 -0.6495 -0.5576 -0.8058
 3412SOL     OW21871   1.783   2.528   1.853 -0.3681 -0.2246  0.6442
 3412SOL    HW121872   1.866   2.504   1.894  0.2749  2.0299  0.6522
 3412SOL    HW221873   1.804   2.533   1.759 -0.4796  3.2053  0.8027
 3413SOL     OW21874   4.645   0.275   5.198 -0.3088  0.0536 -0.5228
 3413SOL    HW121875   4.631   0.182   5.213 -0.2525  0.1629  0.1963
 3413SOL    HW221876   4.664   0.273   5.104  1.6682  0.5273 -0.1426
 3414SOL     OW21877   3.533   0.402   5.612  0.0828  0.4402 -0.1765
 3414SOL    HW121878   3.465   0.463   5.583 -0.0819 -0.7004 -2.2426
 3414SOL    HW221879   3.511   0.401   5.705 -0.3873 -0.4337 -0.2903
 3415SOL     OW21880   3.674   1.214  13.734  0.0738 -0.2052  0.3840
 3415SOL    HW121881   3.580   1.197  13.734  0.3658 -1.8331  0.5380
 3415SOL    HW221882   3.704   1.163  13.658  2.7269  0.2251  1.1251
 3416SOL     OW21883   2.335   4.611  15.113 -0.1660  0.3902 -0.6842
 3416SOL    HW121884   2.334   4.701  15.146  1.6508 -0.2842  1.2323
 3416SOL    HW221885   2.416   4.584  15.157  0.1231  1.3091 -0.6491
 3417SOL     OW21886   2.669   3.621  12.624  0.1916 -0.1390  0.8716
 3417SOL    HW121887   2.662   3.647  12.715  0.2813  0.8685  0.5854
 3417SOL    HW221888   2.683   3.705  12.580 -1.9640 -0.0293  0.3743
 3418SOL     OW21889   4.631   3.534   6.412 -0.0782 -0.8440 -0.5162
 3418SOL    HW121890   4.539   3.514   6.426 -1.0298  2.8480 -1.6029
 3418SOL    HW221891   4.659   3.528   6.503  0.6146 -1.4690 -0.7640
 3419SOL     OW21892   3.882   1.380   8.464  0.1364 -0.4239  0.0416
 3419SOL    HW121893   3.944   1.453   8.470 -1.5994  0.7554  3.5337
 3419SOL    HW221894   3.924   1.345   8.542 -0.1641 -0.9068 -0.0173
 3420SOL     OW21895   3.764   0.981   6.635  0.0545  0.0849  0.0885
 3420SOL    HW121896   3.812   1.020   6.708 -1.3436 -0.6915  1.4368
 3420SOL    HW221897   3.831   0.927   6.594 -0.7399 -1.1786  0.4348
 3421SOL     OW21898   2.733   3.789   7.309  0.0699  0.4798 -0.0499
 3421SOL    HW121899   2.731   3.717   7.246  0.9998  0.4654 -0.0550
 3421SOL    HW221900   2.640   3.811   7.312  0.0120 -0.1056  2.3617
 3422SOL     OW21901   3.919   0.195   6.935 -0.0137  0.1592  0.1470
 3422SOL    HW121902   3.917   0.289   6.949  0.0843  0.1849 -0.0132
 3422SOL    HW221903   3.960   0.181   6.850  2.3366  0.0046  1.2770
 3423SOL     OW21904   3.068   0.655   3.751  0.2020 -0.1312  0.5749
 3423SOL    HW121905   3.103   0.664   3.663  0.5775 -1.5944  0.5787
 3423SOL    HW221906   3.013   0.733   3.759 -1.1087 -0.9700 -0.2788
 3424SOL     OW21907   2.586   2.745   7.770 -0.4356  0.4640  0.7440
 3424SOL    HW121908   2.666   2.703   7.801 -2.0464 -2.3285  1.1013
 3424SOL    HW221909   2.612   2.760   7.679 -0.1524 -0.5675  0.6585
 3425SOL     OW21910   2.605   3.207   5.393  0.2865 -0.3769 -0.4422
 3425SOL    HW121911   2.578   3.195   5.302 -0.2665  1.2311 -0.4845
 3425SOL    HW221912   2.614   3.302   5.399 -0.7639 -0.4287  2.2850
 3426SOL     OW21913   3.690   0.468   7.660  0.2518  0.3694  0.0672
 3426SOL    HW121914   3.767   0.419   7.630 -0.0714 -0.9967  1.4931
 3426SOL    HW221915   3.712   0.561   7.665  2.4730 -0.1741  0.6065
 3427SOL     OW21916   1.178   2.085   2.477 -0.1676  0.0705  0.2246
 3427SOL    HW121917   1.148   2.163   2.430  0.3481  0.6977  0.9349
 3427SOL    HW221918   1.106   2.027   2.454 -1.2892  2.2267 -1.7060
 3428SOL     OW21919   2.995   3.451  12.507  1.0846 -0.2308 -0.1187
 3428SOL    HW121920   3.021   3.388  12.439 -2.1243  0.1215 -1.6703
 3428SOL    HW221921   2.970   3.387  12.574 -0.8907  1.9478  1.2333
 3429SOL     OW21922   4.529   0.550  12.217  0.4008 -0.1045  0.1998
 3429SOL    HW121923   4.588   0.604  12.269  1.2433  0.4150 -1.2698
 3429SOL    HW221924   4.595   0.502  12.166 -1.2864 -0.9693 -1.2128
 3430SOL     OW21925   2.309   0.730  10.767  0.3326  0.3110  0.3657
 3430SOL    HW121926   2.394   0.746  10.809  0.5672 -0.2140  0.0922
 3430SOL    HW221927   2.310   0.641  10.802 -2.8473 -0.0887 -0.5506
 3431SOL     OW21928   2.011   3.824   7.419  0.2412 -0.1437  0.0432
 3431SOL    HW121929   2.099   3.856   7.440  0.4209  0.4468 -1.6676
 3431SOL    HW221930   1.970   3.907   7.398  0.5420  0.6751  2.7056
 3432SOL     OW21931   3.838   2.229   6.757 -0.2200  0.1206  0.7508
 3432SOL    HW121932   3.790   2.302   6.796 -1.0654 -0.6911  1.2118
 3432SOL    HW221933   3.783   2.153   6.776 -1.8420  1.3183  0.8159
 3433SOL     OW21934   4.317   4.040  14.896 -0.0628  0.5084 -0.0775
 3433SOL    HW121935   4.243   4.036  14.835  0.1682  1.3318 -0.4001
 3433SOL    HW221936   4.379   4.078  14.835  1.0027 -0.6911  0.2587
 3434SOL     OW21937   2.568   0.203   1.333 -0.0062 -0.1784 -0.4393
 3434SOL    HW121938   2.595   0.113   1.315  2.1115  0.3317  0.1644
 3434SOL    HW221939   2.476   0.215   1.308 -0.4793  2.3251  2.4040
 3435SOL     OW21940   0.132   4.573   7.163 -0.1522 -0.0891 -0.4036
 3435SOL    HW121941   0.214   4.523   7.166  0.8740  1.6006 -0.0192
 3435SOL    HW221942   0.112   4.586   7.256  0.1012  0.2395 -0.3929
 3436SOL     OW21943   0.381   4.254   1.046  0.8576 -0.3577 -0.3423
 3436SOL    HW121944   0.397   4.229   1.137  3.4901  0.6017 -0.5608
 3436SOL    HW221945   0.360   4.347   1.043  0.0110 -0.4479  3.0694
 3437SOL     OW21946   3.753   0.019   7.750  0.4827 -0.1584 -0.5591
 3437SOL    HW121947   3.706   0.102   7.762  1.8157  0.6933 -1.1640
 3437SOL    HW221948   3.842   0.053   7.765  1.8827 -4.1731  0.1978
 3438SOL     OW21949   2.607   3.498   2.850  0.0702  0.4931  0.0041
 3438SOL    HW121950   2.694   3.460   2.841 -0.2289  0.2154 -1.9081
 3438SOL    HW221951   2.624   3.574   2.905 -3.9150 -0.6675  2.7980
 3439SOL     OW21952   4.271   3.393   4.353 -0.5781  0.1529  0.8407
 3439SOL    HW121953   4.360   3.382   4.389 -0.1941 -1.0750 -0.5180
 3439SOL    HW221954   4.265   3.488   4.344  2.0039  0.3863  1.4746
 3440SOL     OW21955   4.461   3.306  14.370 -0.3509 -0.2896 -0.2163
 3440SOL    HW121956   4.475   3.289  14.463 -0.3800  0.5187 -0.0653
 3440SOL    HW221957   4.427   3.221  14.343 -1.0930  0.3464 -1.2954
 3441SOL     OW21958   2.315   2.851   7.262  0.0474 -0.0897 -0.3482
 3441SOL    HW121959   2.342   2.762   7.239  1.6144  0.0239  0.9694
 3441SOL    HW221960   2.234   2.842   7.312  0.6824  1.4922  1.0011
 3442SOL     OW21961   1.281   3.508   8.524  0.6344 -0.2476  0.0647
 3442SOL    HW121962   1.203   3.456   8.503  0.8262 -0.0673 -1.1133
 3442SOL    HW221963   1.346   3.444   8.552  0.4313 -1.0376 -1.2613
 3443SOL     OW21964   3.580   1.313   4.885 -0.0089 -0.5281  0.3086
 3443SOL    HW121965   3.638   1.346   4.816 -0.5711 -0.1633  0.0114
 3443SOL    HW221966   3.558   1.225   4.854 -0.3281 -0.1504 -0.5202
 3444SOL     OW21967   3.623   1.321   5.163  0.0916  0.5888 -0.4308
 3444SOL    HW121968   3.537   1.330   5.205  0.6002 -0.8784  0.9240
 3444SOL    HW221969   3.609   1.302   5.071 -1.8315  1.5522 -0.3412
 3445SOL     OW21970   3.054   2.164   9.298 -0.0030 -0.3041  0.0997
 3445SOL    HW121971   3.037   2.095   9.362 -0.2077 -0.5790 -0.2519
 3445SOL    HW221972   3.073   2.242   9.351  0.2247  0.0837 -0.5595
 3446SOL     OW21973   3.278   0.145  13.766  0.3458  0.0628 -0.3824
 3446SOL    HW121974   3.299   0.164  13.858 -2.5902  0.6338  0.1552
 3446SOL    HW221975   3.233   0.061  13.753  0.2695  0.2138 -1.0816
 3447SOL     OW21976   0.883   1.403   8.982  0.2914 -0.3635 -0.0283
 3447SOL    HW121977   0.875   1.312   8.952 -1.5566 -1.0589  2.5532
 3447SOL    HW221978   0.792   1.435   8.982  0.5437  0.3397  1.2785
 3448SOL     OW21979   1.409   3.331   3.926  0.0668  0.2332 -0.0461
 3448SOL    HW121980   1.381   3.286   4.006 -1.4347  0.6892 -0.3136
 3448SOL    HW221981   1.329   3.305   3.880  0.7016 -0.5350 -0.6918
 3449SOL     OW21982   3.338   1.854   0.591  0.3290  0.0404 -0.1871
 3449SOL    HW121983   3.387   1.831   0.512 -1.6982  0.0460 -1.4521
 3449SOL    HW221984   3.407   1.897   0.641  0.2948  1.1649 -1.1401
 3450SOL     OW21985   4.436   2.487  14.291 -0.1142 -0.4203 -0.0718
 3450SOL    HW121986   4.465   2.413  14.237 -0.2471 -1.9332  1.9332
 3450SOL    HW221987   4.445   2.559  14.228 -1.6032  0.6093  0.8971
 3451SOL     OW21988   0.668   4.428   6.976  0.4521  0.0565  0.0346
 3451SOL    HW121989   0.653   4.363   7.044 -0.9790  0.4070  0.0559
 3451SOL    HW221990   0.756   4.403   6.950 -0.4571 -0.5105 -2.4960
 3452SOL     OW21991   3.074   3.995   8.788 -0.2435  0.0793  0.0016
 3452SOL    HW121992   3.138   4.024   8.722 -0.8899  2.0882  0.2429
 3452SOL    HW221993   3.003   3.962   8.733 -1.7632  0.8780  1.5048
 3453SOL     OW21994   3.714   2.458   6.840 -0.0776  0.3155 -0.5350
 3453SOL    HW121995   3.619   2.464   6.844 -0.0827 -1.2583  1.4262
 3453SOL    HW221996   3.731   2.551   6.825  0.3017  0.7115  2.2858
 3454SOL     OW21997   2.364   3.499   3.467  0.1851 -0.2067  0.1654
 3454SOL    HW121998   2.380   3.455   3.383  2.1299  0.3389  0.2487
 3454SOL    HW221999   2.275   3.534   3.464  0.1861 -0.2138  0.0579
 3455SOL     OW22000   1.597   0.397   2.895 -0.0324 -0.4314 -0.1718
 3455SOL    HW122001   1.603   0.463   2.963  1.3249  0.7043 -1.4130
 3455SOL    HW222002   1.624   0.446   2.817 -0.1189 -0.6807 -0.3602
 3456SOL     OW22003   0.604   1.706   0.128  0.1015  0.4372  0.5961
 3456SOL    HW122004   0.698   1.706   0.145  0.2507  1.1978 -0.2325
 3456SOL    HW222005   0.587   1.612   0.132 -2.7120  0.9193  0.1109
 3457SOL     OW22006   2.927   3.863   4.498  0.3338 -0.8843  0.4161
 3457SOL    HW122007   2.860   3.854   4.430 -0.5637 -0.2988  1.2297
 3457SOL    HW222008   2.990   3.908   4.442  0.3393  1.0566  1.9809
 3458SOL     OW22009   1.975   0.125   7.972 -0.2924 -0.2653 -0.8828
 3458SOL    HW122010   2.048   0.110   8.033 -0.2232  1.3932 -0.5677
 3458SOL    HW222011   2.028   0.156   7.899 -0.5919  0.6322 -0.7154
 3459SOL     OW22012   2.601   4.528  12.327  0.3809 -0.0778 -0.0312
 3459SOL    HW122013   2.613   4.577  12.246 -0.3598 -0.6569 -0.4995
 3459SOL    HW222014   2.567   4.595  12.386  0.7376  0.3849 -0.3522
 3460SOL     OW22015   0.437   0.640   4.158 -0.2456  0.0683  0.0378
 3460SOL    HW122016   0.452   0.690   4.078  0.2338 -1.1184 -0.6311
 3460SOL    HW222017   0.499   0.694   4.205  0.0235 -0.3703  0.1853
 3461SOL     OW22018   4.474   2.060   4.288 -0.8838 -0.4129 -0.1497
 3461SOL    HW122019   4.539   2.055   4.359 -1.0761  0.6531  0.1081
 3461SOL    HW222020   4.393   2.030   4.328 -0.2676  0.3978  1.7224
 3462SOL     OW22021   0.623   0.535   7.838 -0.1975  0.2429  0.2461
 3462SOL    HW122022   0.557   0.594   7.802 -1.9435 -1.1099  1.1799
 3462SOL    HW222023   0.617   0.548   7.933  1.4851 -1.3085  0.5639
 3463SOL     OW22024   1.721   3.693  13.994  0.1514  0.2148 -0.4430
 3463SOL    HW122025   1.789   3.627  13.981 -0.3165 -0.5824  1.2356
 3463SOL    HW222026   1.764   3.774  13.965 -0.4958 -0.1074 -2.3328
 3464SOL     OW22027   3.900   2.908  11.667  0.6480 -0.2617  0.4014
 3464SOL    HW122028   3.859   2.974  11.611  1.5200  1.0773  1.3243
 3464SOL    HW222029   3.987   2.945  11.683  0.9335  0.3081 -2.5569
 3465SOL     OW22030   0.913   1.415   3.838  0.1938 -0.2924 -0.1192
 3465SOL    HW122031   0.912   1.487   3.775 -2.3031  0.9652  1.3705
 3465SOL    HW222032   1.003   1.417   3.872  0.5961 -1.3389 -1.1355
 3466SOL     OW22033   0.601   3.948  11.702 -0.2518 -0.1813 -0.4078
 3466SOL    HW122034   0.558   3.870  11.737  1.5374 -1.0158 -0.0714
 3466SOL    HW222035   0.582   3.946  11.608 -0.6711 -1.4015 -0.2917
 3467SOL     OW22036   4.050   3.350   6.164  0.6510  0.3551  0.3936
 3467SOL    HW122037   4.107   3.424   6.140 -0.4720  1.2551  0.4998
 3467SOL    HW222038   4.049   3.290   6.089  0.4691  0.9576 -0.0904
 3468SOL     OW22039   2.846   4.271   5.373  0.1159 -0.4411 -0.7184
 3468SOL    HW122040   2.756   4.286   5.343 -0.8807 -0.7436  2.0874
 3468SOL    HW222041   2.894   4.292   5.293 -0.1105  1.0068 -0.4863
 3469SOL     OW22042   3.087   3.003   7.131 -0.4343  0.3282 -0.0759
 3469SOL    HW122043   3.067   3.039   7.218 -0.0635 -1.5720  0.7997
 3469SOL    HW222044   3.008   2.952   7.116 -0.7092  0.3002  1.4555
 3470SOL     OW22045   4.577   4.277   6.780 -0.3781 -0.1080 -0.1287
 3470SOL    HW122046   4.563   4.347   6.843 -0.5455 -0.4156  0.1760
 3470SOL    HW222047   4.634   4.217   6.828 -1.2259 -0.7255  0.1125
 3471SOL     OW22048   4.674   2.968  15.884 -0.1734 -0.0762 -0.4724
 3471SOL    HW122049   4.700   3.029  15.954 -1.3377 -0.2948  0.1515
 3471SOL    HW222050   4.579   2.971  15.889 -0.2430 -1.5946 -0.8059
 3472SOL     OW22051   2.722   0.409  14.964 -0.4098  0.7189  0.2432
 3472SOL    HW122052   2.773   0.467  15.020  1.5772 -2.1463  1.3956
 3472SOL    HW222053   2.774   0.419  14.884 -0.9649  2.5448  0.1201
 3473SOL     OW22054   0.108   1.412   2.791  0.3389 -0.2857  0.0434
 3473SOL    HW122055   0.165   1.355   2.739 -1.1817 -0.0648 -1.8411
 3473SOL    HW222056   0.041   1.351   2.820  0.2771 -0.2808 -0.0909
 3474SOL     OW22057   3.500   1.174   1.878 -0.5696 -0.0021 -0.0840
 3474SOL    HW122058   3.486   1.096   1.933 -1.8667  0.6051  0.4457
 3474SOL    HW222059   3.592   1.167   1.853 -0.3360 -0.6563  0.9366
 3475SOL     OW22060   1.118   3.869   1.556  0.3214  0.5913  0.0707
 3475SOL    HW122061   1.102   3.885   1.463 -0.2923 -2.8031 -0.4020
 3475SOL    HW222062   1.066   3.938   1.597 -1.0380 -0.5355  0.2142
 3476SOL     OW22063   0.632   2.043   8.726  0.1911 -0.3016  0.0788
 3476SOL    HW122064   0.720   2.039   8.690 -0.1978  0.2920 -0.9381
 3476SOL    HW222065   0.613   2.136   8.740 -0.5902 -0.4588  0.0692
 3477SOL     OW22066   0.553   3.875   2.261 -0.9107 -0.1993 -0.2868
 3477SOL    HW122067   0.538   3.940   2.193 -0.9723  0.7419  0.6325
 3477SOL    HW222068   0.462   3.844   2.261 -1.1596  0.5179 -0.8224
 3478SOL     OW22069   3.006   3.768  11.721  0.4968 -0.1175  0.0937
 3478SOL    HW122070   3.082   3.736  11.771  0.9308  1.9143  0.7244
 3478SOL    HW222071   2.936   3.747  11.783 -0.4810  2.8034 -0.0317
 3479SOL     OW22072   0.568   1.485  13.169 -0.7388 -0.0137  0.1984
 3479SOL    HW122073   0.616   1.526  13.097  0.2750 -0.8710  0.3913
 3479SOL    HW222074   0.600   1.396  13.157 -2.5314 -0.7019  0.4304
 3480SOL     OW22075   3.618   2.662   2.477  0.0061 -0.1294 -0.0308
 3480SOL    HW122076   3.633   2.679   2.570 -2.5474 -0.2909  0.4332
 3480SOL    HW222077   3.523   2.645   2.477 -0.1008  0.4251  2.1546
 3481SOL     OW22078   2.717   3.221   2.801 -0.2232  0.2801 -0.0025
 3481SOL    HW122079   2.635   3.255   2.836 -0.5650  0.3808 -0.8905
 3481SOL    HW222080   2.782   3.291   2.796  1.4923 -1.4198 -1.6546
 3482SOL     OW22081   3.584   2.602   9.885  0.5664  0.0562 -0.6647
 3482SOL    HW122082   3.669   2.645   9.884  1.3055 -1.2755  2.4242
 3482SOL    HW222083   3.528   2.676   9.860 -0.3505 -0.6818 -0.7795
 3483SOL     OW22084   4.028   3.605   7.623  0.0126 -0.3200 -0.2324
 3483SOL    HW122085   4.056   3.516   7.604  0.0193 -0.2434 -0.5866
 3483SOL    HW222086   3.996   3.627   7.535  0.0902  2.4034  0.4028
 3484SOL     OW22087   1.855   3.564  13.196 -0.1559  0.2952  0.3530
 3484SOL    HW122088   1.929   3.505  13.207 -1.1765 -0.4635  2.9074
 3484SOL    HW222089   1.839   3.574  13.289 -1.3860 -1.3226  0.3119
 3485SOL     OW22090   1.697   0.069   3.772  0.0525 -0.3320 -0.0799
 3485SOL    HW122091   1.607   0.085   3.743 -0.2374 -2.5421 -0.3634
 3485SOL    HW222092   1.738   0.041   3.690 -2.2109 -0.9855 -0.9708
 3486SOL     OW22093   3.410   0.227  16.051  0.6567 -0.6813  0.2235
 3486SOL    HW122094   3.351   0.208  15.977 -0.9507 -2.2489  1.8851
 3486SOL    HW222095   3.378   0.306  16.094  2.1752  1.0775 -1.8909
 3487SOL     OW22096   3.364   4.239   3.845  0.5035 -0.2102 -0.4833
 3487SOL    HW122097   3.457   4.224   3.863 -0.0902 -2.5281  0.6559
 3487SOL    HW222098   3.374   4.290   3.765  0.9135 -1.1181 -1.0150
 3488SOL     OW22099   0.665   4.526   4.445  0.3083  0.1712 -0.3206
 3488SOL    HW122100   0.670   4.614   4.481 -0.1988 -0.5970  1.6354
 3488SOL    HW222101   0.744   4.512   4.394 -0.1930 -2.3121 -0.4201
 3489SOL     OW22102   2.232   4.414   0.977  0.0312 -0.3441  0.5688
 3489SOL    HW122103   2.218   4.493   1.029  0.2366  0.2435 -0.2516
 3489SOL    HW222104   2.174   4.441   0.905 -0.5581 -1.2607  0.7073
 3490SOL     OW22105   1.856   4.671   8.917 -0.0116  0.5197 -0.8775
 3490SOL    HW122106   1.871   4.585   8.955  2.5174  1.0220 -0.7312
 3490SOL    HW222107   1.763   4.671   8.895 -0.3246  0.9093  0.3964
 3491SOL     OW22108   2.651   2.168  12.893  0.0519 -0.3949  0.2153
 3491SOL    HW122109   2.712   2.220  12.841 -0.0484 -0.2714  0.2234
 3491SOL    HW222110   2.714   2.115  12.943 -0.7196  1.3790  3.0077
 3492SOL     OW22111   2.177   0.077  12.118  0.3016 -0.2352 -0.4797
 3492SOL    HW122112   2.231   0.047  12.045  0.4928  0.0552 -0.4619
 3492SOL    HW222113   2.098   0.097  12.068  0.5222  1.4299 -0.1927
 3493SOL     OW22114   3.473   0.107   9.791 -0.4631  0.0078  0.3772
 3493SOL    HW122115   3.485   0.154   9.709 -0.0734  0.4911  0.7153
 3493SOL    HW222116   3.550   0.128   9.844 -0.0703 -0.6702  0.0852
 3494SOL     OW22117   1.740   2.202  15.983  0.0206 -0.0203  0.4102
 3494SOL    HW122118   1.685   2.254  15.925  1.1540  0.0831 -0.5701
 3494SOL    HW222119   1.677   2.166  16.046 -0.6991 -0.4944 -0.5869
 3495SOL     OW22120   2.955   1.235   9.522 -0.0434  0.0156 -0.0901
 3495SOL    HW122121   2.932   1.270   9.608 -0.8031 -0.0223 -0.2834
 3495SOL    HW222122   2.896   1.286   9.467 -1.9612 -2.1198  0.0139
 3496SOL     OW22123   3.014   1.743   8.622  0.6299  0.0038 -0.2066
 3496SOL    HW122124   3.092   1.713   8.576  0.3610  0.2240 -0.8178
 3496SOL    HW222125   3.056   1.740   8.707  0.3639 -0.4802 -0.0932
 3497SOL     OW22126   0.041   1.911   7.157  0.0111 -0.0176 -0.0021
 3497SOL    HW122127   0.057   1.940   7.247  0.5310  1.8716 -0.7058
 3497SOL    HW222128   4.710   1.975   7.133  0.3598  1.3383  2.6066
 3498SOL     OW22129   0.899   2.945   5.404 -0.0872  1.0962  0.4792
 3498SOL    HW122130   0.903   2.891   5.325  0.5158 -0.7046  1.7323
 3498SOL    HW222131   0.825   2.901   5.444 -0.1108  1.6809  1.0913
 3499SOL     OW22132   3.156   4.247   4.052  0.2694 -0.0366 -0.4855
 3499SOL    HW122133   3.160   4.329   4.100  0.4939 -0.8645  0.8988
 3499SOL    HW222134   3.231   4.256   3.993  0.2284 -0.0475 -0.5401
 3500SOL     OW22135   4.278   0.102   6.071  0.7225  0.0690  0.4666
 3500SOL    HW122136   4.269   0.175   6.010 -0.5386 -0.1361  0.3937
 3500SOL    HW222137   4.186   0.074   6.072  0.5656  0.4641 -3.1195
 3501SOL     OW22138   4.461   3.477   2.689  0.6614  0.3207 -0.0990
 3501SOL    HW122139   4.514   3.554   2.710  0.2816  0.5842 -0.1120
 3501SOL    HW222140   4.378   3.506   2.653  0.0125  1.9589  2.7272
 3502SOL     OW22141   3.427   2.156   4.214 -0.3747 -0.6006 -0.0160
 3502SOL    HW122142   3.406   2.242   4.253  0.8424 -0.3271  0.0440
 3502SOL    HW222143   3.341   2.116   4.205 -0.4569 -0.5244  0.3981
 3503SOL     OW22144   1.468   3.409   0.834 -0.1038 -0.2182  0.4313
 3503SOL    HW122145   1.545   3.441   0.788 -1.1102  2.2221  0.4375
 3503SOL    HW222146   1.432   3.485   0.881 -1.7215 -0.0160 -1.1128
 3504SOL     OW22147   3.465   3.414   4.211 -0.0517  0.6759 -0.2637
 3504SOL    HW122148   3.522   3.452   4.279 -0.6148 -0.0951  0.6394
 3504SOL    HW222149   3.391   3.475   4.213 -0.2737  0.3858  0.2967
 3505SOL     OW22150   3.501   1.529   1.810  0.3575  0.4072 -0.7357
 3505SOL    HW122151   3.458   1.491   1.887  0.7759  0.4031 -0.5020
 3505SOL    HW222152   3.518   1.615   1.849 -1.0450 -0.2330  1.3184
 3506SOL     OW22153   3.490   3.279   0.116  0.3645 -0.1635 -0.4569
 3506SOL    HW122154   3.578   3.296   0.082  0.5783 -0.2327  0.0676
 3506SOL    HW222155   3.465   3.369   0.134 -1.8317 -0.3782 -2.4785
 3507SOL     OW22156   4.062   1.432   8.826 -0.3855 -0.2023 -0.4029
 3507SOL    HW122157   4.084   1.508   8.879  1.1252 -0.3573 -0.8316
 3507SOL    HW222158   3.966   1.429   8.825 -0.5328  3.1127  3.6888
 3508SOL     OW22159   1.074   4.451  12.944  0.1557 -0.3550  0.3547
 3508SOL    HW122160   1.098   4.423  12.856 -1.7576  0.8240 -0.5549
 3508SOL    HW222161   1.086   4.369  12.992 -0.5469 -0.8505 -0.3133
 3509SOL     OW22162   3.265   2.829   3.379  0.5792 -0.0542  0.1034
 3509SOL    HW122163   3.261   2.840   3.474 -1.9593  2.5269 -0.2838
 3509SOL    HW222164   3.189   2.777   3.352  0.5501  0.7323 -1.3509
 3510SOL     OW22165   0.264   2.477  15.637  0.1668 -1.1126  0.1734
 3510SOL    HW122166   0.203   2.442  15.572 -0.2967  0.2449 -0.1358
 3510SOL    HW222167   0.219   2.465  15.721  1.0487 -1.1917  0.6358
 3511SOL     OW22168   0.238   2.392  10.466  0.4011  0.2750  0.2040
 3511SOL    HW122169   0.150   2.428  10.479 -0.5646 -2.3006  0.9149
 3511SOL    HW222170   0.282   2.433  10.540 -1.0759 -0.4906  1.5108
 3512SOL     OW22171   2.836   2.842   8.129  0.6731 -0.4530 -0.2597
 3512SOL    HW122172   2.777   2.895   8.182 -1.1752 -1.7122 -1.0882
 3512SOL    HW222173   2.892   2.814   8.202 -1.0900 -1.2694  0.7724
 3513SOL     OW22174   0.120   3.085   0.750  0.3466 -0.3303  0.1763
 3513SOL    HW122175   0.135   3.034   0.670  0.6405 -2.2608  1.4733
 3513SOL    HW222176   0.209   3.120   0.752 -0.3246  1.3567  0.1311
 3514SOL     OW22177   4.670   3.610   2.311 -0.0051  0.7969 -0.9177
 3514SOL    HW122178   4.630   3.696   2.303 -0.3109  0.5293 -2.2282
 3514SOL    HW222179   4.727   3.618   2.388 -0.3445 -0.1155 -0.5698
 3515SOL     OW22180   1.411   0.251  17.288 -0.5247  0.1025 -0.3659
 3515SOL    HW122181   1.452   0.235  17.203 -2.7189  0.3855 -1.4782
 3515SOL    HW222182   1.397   0.161  17.315 -2.8659 -0.0624 -2.1414
 3516SOL     OW22183   0.244   1.786   8.953 -0.0732 -0.4714  0.6441
 3516SOL    HW122184   0.200   1.738   9.023 -1.2835 -0.1336  0.0991
 3516SOL    HW222185   0.316   1.725   8.936  1.3500 -0.1470  5.5350
 3517SOL     OW22186   0.738   3.851  11.961  0.4106 -0.0305 -0.2243
 3517SOL    HW122187   0.653   3.892  11.942  0.2552 -0.4082 -0.3378
 3517SOL    HW222188   0.787   3.843  11.879  1.3640  1.0259  0.2400
 3518SOL     OW22189   3.339   1.968   7.491  0.4544  0.6460 -0.3009
 3518SOL    HW122190   3.302   1.966   7.580  0.9040  1.4341 -0.0944
 3518SOL    HW222191   3.295   2.050   7.468  1.8207  1.1547 -1.0754
 3519SOL     OW22192   1.909   1.093  15.236  0.2253  0.6977  0.2316
 3519SOL    HW122193   1.983   1.154  15.235 -0.7400  1.9607  4.1991
 3519SOL    HW222194   1.860   1.122  15.313 -1.6502 -1.0563 -0.3194
 3520SOL     OW22195   3.598   2.298   3.771 -0.0602  0.4661  0.2914
 3520SOL    HW122196   3.600   2.204   3.753 -0.7866  0.4490  0.3176
 3520SOL    HW222197   3.564   2.332   3.688  0.5757 -1.9952 -0.9934
 3521SOL     OW22198   4.422   4.207   7.142 -0.3381  0.2445  0.3114
 3521SOL    HW122199   4.339   4.253   7.151 -0.9619 -0.9275  0.4782
 3521SOL    HW222200   4.438   4.213   7.048 -1.7879  1.7499  0.1671
 3522SOL     OW22201   0.162   0.110   4.640 -0.2759  0.1487  0.5522
 3522SOL    HW122202   0.185   0.096   4.548 -2.6579 -1.8270  0.2498
 3522SOL    HW222203   0.104   0.040   4.671 -1.2378  1.2997  1.3468
 3523SOL     OW22204   0.016   3.413   2.001 -0.0927 -0.1689  0.0172
 3523SOL    HW122205   0.068   3.491   1.984 -1.2046  0.7117  0.6445
 3523SOL    HW222206   0.069   3.349   1.953 -0.2467  0.5502 -1.1103
 3524SOL     OW22207   2.783   3.236  11.572  0.0205 -0.2454  0.5572
 3524SOL    HW122208   2.780   3.299  11.500  1.6072 -0.6962  0.0947
 3524SOL    HW222209   2.752   3.162  11.520  0.2991 -0.0972  0.1810
 3525SOL     OW22210   3.699   0.743   3.528 -0.4225 -0.8676  0.2251
 3525SOL    HW122211   3.676   0.654   3.556 -1.3407 -0.6022  0.2953
 3525SOL    HW222212   3.764   0.766   3.594  0.2634  1.6581 -1.3416
 3526SOL     OW22213   3.100   3.350   7.956 -0.5052  0.0677  0.0434
 3526SOL    HW122214   3.143   3.410   8.016 -1.8188  1.5880 -0.5195
 3526SOL    HW222215   3.141   3.270   7.987 -1.1063 -1.1970 -2.3463
 3527SOL     OW22216   3.818   3.538   0.465 -0.4997  0.4807  0.3314
 3527SOL    HW122217   3.795   3.547   0.558 -0.0979  0.5889  0.4233
 3527SOL    HW222218   3.913   3.548   0.471 -0.5591  1.4474 -0.4839
 3528SOL     OW22219   3.567   2.310  12.048  0.5621 -0.1347  0.0976
 3528SOL    HW122220   3.609   2.353  12.122  0.1876 -0.0773  0.2743
 3528SOL    HW222221   3.631   2.239  12.045 -1.6761 -2.1014 -1.4980
 3529SOL     OW22222   3.706   2.800   6.008  0.0302 -0.3287 -0.3214
 3529SOL    HW122223   3.792   2.808   5.967 -0.4810 -2.2613 -1.7825
 3529SOL    HW222224   3.645   2.827   5.940 -0.2248 -0.7983 -0.2822
 3530SOL     OW22225   2.899   3.074   5.395 -0.4890  0.1857  0.1125
 3530SOL    HW122226   2.855   3.155   5.370 -0.9446  0.4253  1.6344
 3530SOL    HW222227   2.970   3.069   5.332 -0.7718  2.2135 -0.3798
 3531SOL     OW22228   1.141   3.824   7.272  0.0881  0.0776  0.8441
 3531SOL    HW122229   1.118   3.766   7.345 -0.0078  2.1533  2.4515
 3531SOL    HW222230   1.237   3.822   7.274  0.0829 -2.0621 -1.6995
 3532SOL     OW22231   0.613   1.298  17.717 -0.0491  0.0356  0.7669
 3532SOL    HW122232   0.552   1.308   0.046  0.1232  0.9401  0.7841
 3532SOL    HW222233   0.650   1.211  17.733  1.6128  0.5370 -0.3771
 3533SOL     OW22234   1.741   0.551  10.109 -0.2400  0.6309 -0.3666
 3533SOL    HW122235   1.684   0.502  10.169 -1.2386  4.7638  2.0756
 3533SOL    HW222236   1.689   0.631  10.101  0.8545  1.5936  2.1285
 3534SOL     OW22237   4.581   2.688  17.294 -0.9115 -0.0541 -0.2537
 3534SOL    HW122238   4.551   2.763  17.344 -0.6736 -1.0207  1.3327
 3534SOL    HW222239   4.553   2.711  17.205  1.6406 -2.7851 -1.7812
 3535SOL     OW22240   1.431   2.404   2.864 -0.0964  0.4750 -0.0319
 3535SOL    HW122241   1.409   2.363   2.781 -0.5228 -0.3239  0.4780
 3535SOL    HW222242   1.368   2.357   2.918 -1.0184  1.5947 -0.1222
 3536SOL     OW22243   3.230   2.864   3.658  0.0856  0.2674  0.7509
 3536SOL    HW122244   3.304   2.851   3.717  0.2204 -2.3446  0.0278
 3536SOL    HW222245   3.245   2.950   3.618 -0.6848 -0.0815 -0.3058
 3537SOL     OW22246   1.335   0.853   6.264  0.2440 -0.7821 -0.0832
 3537SOL    HW122247   1.402   0.796   6.302  1.0751 -1.5362 -2.7090
 3537SOL    HW222248   1.263   0.791   6.253  0.4034 -0.7899 -1.1339
 3538SOL     OW22249   2.695   4.399   5.169 -0.2245 -0.0079  0.0052
 3538SOL    HW122250   2.725   4.373   5.082  1.0706 -1.7039  0.9585
 3538SOL    HW222251   2.687   4.494   5.164 -0.4504 -0.0875 -1.3165
 3539SOL     OW22252   2.120   1.879   5.063  0.1965 -0.2427 -0.0722
 3539SOL    HW122253   2.081   1.932   5.132  1.2057  0.9732 -0.4337
 3539SOL    HW222254   2.182   1.939   5.022 -1.1624  0.3023 -1.2985
 3540SOL     OW22255   0.082   4.657   0.072  0.4795  0.0795  0.2711
 3540SOL    HW122256   0.076   4.665  17.721  1.0100  1.6423  0.3690
 3540SOL    HW222257   0.170   4.626   0.092  0.2383 -0.3481  0.6753
 3541SOL     OW22258   0.973   1.408   2.427 -0.2229  0.9167 -0.4689
 3541SOL    HW122259   1.031   1.348   2.473 -1.0945  0.2325 -0.2649
 3541SOL    HW222260   1.013   1.495   2.437  3.2229 -0.8790  1.2413
 3542SOL     OW22261   0.422   1.047  11.501 -0.3752  0.3446 -0.4133
 3542SOL    HW122262   0.491   1.113  11.500  1.2828 -1.3437  1.2179
 3542SOL    HW222263   0.361   1.100  11.450 -2.0360 -1.1124  0.0593
 3543SOL     OW22264   1.611   2.773  13.983  0.3186  0.0200  0.3212
 3543SOL    HW122265   1.684   2.711  13.991 -0.1599 -0.5946 -0.0684
 3543SOL    HW222266   1.557   2.715  13.929  0.2151  0.8731 -0.4822
 3544SOL     OW22267   3.843   2.601   8.563  0.1300 -0.0546  0.0144
 3544SOL    HW122268   3.847   2.613   8.658 -0.9073 -0.7747  0.1452
 3544SOL    HW222269   3.777   2.665   8.536  1.3520  1.1919 -0.0135
 3545SOL     OW22270   3.679   3.952   9.019 -0.2293 -0.1036 -0.8984
 3545SOL    HW122271   3.733   4.023   8.983 -3.1558  0.2531 -4.5764
 3545SOL    HW222272   3.742   3.880   9.017  0.2619  0.2827  0.4005
 3546SOL     OW22273   2.123   0.931   4.941  0.2576 -0.1508  0.3428
 3546SOL    HW122274   2.081   0.982   4.872  3.7110 -0.2857 -1.8315
 3546SOL    HW222275   2.085   0.972   5.018 -0.6470 -0.2755 -0.0306
 3547SOL     OW22276   0.576   4.708   8.126 -0.1420  0.0403 -0.1887
 3547SOL    HW122277   0.662   4.669   8.142  1.1524  2.6814 -0.6390
 3547SOL    HW222278   0.576   0.008   8.037 -1.0807 -0.7473 -0.5108
 3548SOL     OW22279   4.367   4.728   6.502  0.4995  0.1754 -0.2417
 3548SOL    HW122280   4.284   4.680   6.504  0.6400 -0.0595 -0.1129
 3548SOL    HW222281   4.356   0.047   6.424 -0.8633 -1.8964 -1.5356
 3549SOL     OW22282   2.738   1.081   0.481 -0.4181  0.2315  0.0044
 3549SOL    HW122283   2.767   1.075   0.390  1.8061 -1.6436  0.8395
 3549SOL    HW222284   2.707   0.991   0.490  0.2647 -0.0077 -0.0142
 3550SOL     OW22285   3.362   0.924   2.055  0.2429 -0.5232 -0.8011
 3550SOL    HW122286   3.446   0.966   2.073 -0.3719  0.9051 -1.2372
 3550SOL    HW222287   3.301   0.993   2.079  0.2341 -0.4120 -1.1338
 3551SOL     OW22288   2.873   0.065   8.045  0.3551 -0.3460 -0.2102
 3551SOL    HW122289   2.860   0.140   7.987  0.2392 -1.2290 -1.3128
 3551SOL    HW222290   2.846   4.730   7.988 -0.7555 -0.1448  0.0648
 3552SOL     OW22291   3.837   4.679   4.284 -0.9907  0.2284 -0.0347
 3552SOL    HW122292   3.895   4.674   4.360  0.9666 -0.5177 -1.5728
 3552SOL    HW222293   3.836   0.034   4.255  2.3795 -0.3204 -1.9790
 3553SOL     OW22294   1.977   3.880   5.572 -0.1964 -0.0409 -0.8059
 3553SOL    HW122295   2.050   3.824   5.599 -0.2746  0.5485  0.6197
 3553SOL    HW222296   1.953   3.921   5.655 -0.2257 -2.3788  0.3447
 3554SOL     OW22297   3.924   0.939   4.025  0.2502 -0.8938  0.4933
 3554SOL    HW122298   3.935   1.033   4.036  1.4763 -1.2284  1.9916
 3554SOL    HW222299   4.010   0.906   3.999  1.0994  1.1815  0.7060
 3555SOL     OW22300   0.817   4.608   8.172 -0.8961 -0.2094 -0.2992
 3555SOL    HW122301   0.900   4.581   8.134 -0.5989 -0.6240  0.6363
 3555SOL    HW222302   0.815   4.562   8.256  0.9896  0.4418  0.0927
 3556SOL     OW22303   0.612   1.848   6.362  0.1282  0.3652  0.1092
 3556SOL    HW122304   0.689   1.798   6.336 -1.2781 -1.2346 -0.9877
 3556SOL    HW222305   0.551   1.780   6.392 -0.9103  0.9064 -0.8091
 3557SOL     OW22306   1.365   4.726  17.366 -0.1831 -0.2600  0.2066
 3557SOL    HW122307   1.295   4.684  17.317 -0.0543 -2.5086  1.9744
 3557SOL    HW222308   1.368   4.665  17.439  2.6069  0.4874  0.7107
 3558SOL     OW22309   1.715   2.395   8.919  0.6853  0.3951  0.2312
 3558SOL    HW122310   1.619   2.394   8.919  0.6794  1.3773 -0.6555
 3558SOL    HW222311   1.740   2.334   8.988  0.1891 -0.7320 -0.5819
 3559SOL     OW22312   0.500   2.395  15.089 -0.7339  0.4806 -0.0755
 3559SOL    HW122313   0.443   2.359  15.021 -2.5146  1.4588  0.9372
 3559SOL    HW222314   0.436   2.402  15.159 -0.0681  2.1929  0.3577
 3560SOL     OW22315   0.483   4.293  12.346  0.3507 -1.0854 -0.5140
 3560SOL    HW122316   0.568   4.258  12.374  1.1543 -0.5127 -2.2278
 3560SOL    HW222317   0.436   4.327  12.422  1.4856  1.6142 -0.9814
 3561SOL     OW22318   0.183   2.195  14.699 -0.0217  0.1477 -0.2009
 3561SOL    HW122319   0.196   2.224  14.609 -0.2591  2.0342  0.3741
 3561SOL    HW222320   0.129   2.262  14.743  0.2774 -0.7920  1.6218
 3562SOL     OW22321   3.169   1.696   6.470 -0.0788 -0.2139 -0.2919
 3562SOL    HW122322   3.122   1.615   6.486 -0.8844 -0.1369 -2.3978
 3562SOL    HW222323   3.124   1.771   6.510 -1.6453 -2.0414  1.3557
 3563SOL     OW22324   3.671   3.168   4.719  0.9065  0.5502  0.3634
 3563SOL    HW122325   3.602   3.233   4.731  0.4292  0.3263 -1.1972
 3563SOL    HW222326   3.742   3.231   4.708  1.3994  0.0320  0.5550
 3564SOL     OW22327   2.733   0.110   7.563  0.3922 -0.1485  0.6230
 3564SOL    HW122328   2.797   0.039   7.558 -0.5703 -0.8124 -2.3078
 3564SOL    HW222329   2.741   0.145   7.474  1.4793  4.2718  2.4372
 3565SOL     OW22330   3.004   3.460  16.819 -0.2532 -0.1336  0.0173
 3565SOL    HW122331   2.971   3.549  16.827 -0.8975 -0.6868  3.7232
 3565SOL    HW222332   3.096   3.482  16.829 -0.6550  0.7757  1.7107
 3566SOL     OW22333   1.043   3.125   5.537 -0.0309 -0.0659 -0.2208
 3566SOL    HW122334   0.986   3.069   5.484 -1.0164 -0.5641  1.3655
 3566SOL    HW222335   0.986   3.202   5.528 -3.0119 -2.0665  1.6231
 3567SOL     OW22336   3.312   2.615   5.881  0.4221  0.6913 -0.2938
 3567SOL    HW122337   3.297   2.631   5.787 -0.2451 -0.0768 -0.3184
 3567SOL    HW222338   3.260   2.535   5.883 -0.8540  1.6053  2.4078
 3568SOL     OW22339   3.742   1.433   3.793 -0.1622  0.1975 -0.1074
 3568SOL    HW122340   3.831   1.468   3.794  0.3891 -1.1447 -3.2646
 3568SOL    HW222341   3.713   1.419   3.884  2.1817 -1.7286  0.3432
 3569SOL     OW22342   1.576   4.359   8.450  0.0131 -0.3340 -0.8415
 3569SOL    HW122343   1.646   4.420   8.474 -0.0620 -0.8543  0.6950
 3569SOL    HW222344   1.563   4.396   8.363 -1.6739  3.8682  1.2187
 3570SOL     OW22345   1.463   4.224   8.754  0.0226  0.1130  0.0160
 3570SOL    HW122346   1.552   4.250   8.730  0.8280 -0.7894  2.0831
 3570SOL    HW222347   1.406   4.296   8.727  0.7238  0.5840 -0.2081
 3571SOL     OW22348   1.155   0.598   8.627 -0.3171  0.0206  0.3594
 3571SOL    HW122349   1.230   0.658   8.630  0.8469 -1.3358 -1.4012
 3571SOL    HW222350   1.168   0.571   8.536  1.1222  2.8584 -0.2653
 3572SOL     OW22351   3.691   4.700   1.333  0.0754  0.4733 -0.2141
 3572SOL    HW122352   3.782   4.731   1.336  0.2280  0.0321 -0.1606
 3572SOL    HW222353   3.712   4.616   1.375 -0.6745  0.5088  0.2217
 3573SOL     OW22354   0.365   0.792   2.393  0.3340 -0.8069  0.2805
 3573SOL    HW122355   0.447   0.822   2.353  1.3394 -2.0023  1.4233
 3573SOL    HW222356   0.406   0.717   2.436  0.3840 -0.0978  1.4602
 3574SOL     OW22357   0.342   2.242   3.595 -0.0217  0.1864 -0.2898
 3574SOL    HW122358   0.424   2.229   3.642  0.6745  0.2221 -1.5055
 3574SOL    HW222359   0.313   2.327   3.629  1.3143 -0.2682  1.9365
 3575SOL     OW22360   4.625   4.272   5.225  0.3944  0.3017  0.2212
 3575SOL    HW122361   4.670   4.276   5.141 -2.4994 -1.1324 -1.3995
 3575SOL    HW222362   4.658   4.345   5.276 -0.7555  0.0636  1.3158
 3576SOL     OW22363   3.464   2.583  17.328 -0.1524  0.5544 -0.2921
 3576SOL    HW122364   3.454   2.511  17.390  0.9995 -0.2024 -0.9741
 3576SOL    HW222365   3.393   2.641  17.353 -0.6377 -0.1636 -0.0208
 3577SOL     OW22366   2.594   3.326   3.523  0.1663 -0.4607 -0.1614
 3577SOL    HW122367   2.505   3.356   3.503 -0.3486 -1.3187  0.8053
 3577SOL    HW222368   2.595   3.242   3.478 -1.2162 -2.4200  3.3802
 3578SOL     OW22369   0.934   2.011  16.176  0.2461 -0.5833 -0.1444
 3578SOL    HW122370   0.984   2.058  16.110  1.2457 -1.5924 -0.1034
 3578SOL    HW222371   0.950   1.920  16.150 -1.8185 -0.6121 -1.2816
 3579SOL     OW22372   2.554   4.523   8.097  0.0986 -0.7538 -0.5884
 3579SOL    HW122373   2.504   4.596   8.060 -1.1855 -2.4672 -2.2066
 3579SOL    HW222374   2.584   4.566   8.177 -0.7222  0.0289 -0.6933
 3580SOL     OW22375   3.614   1.780   7.687  0.0550 -0.3404 -0.1959
 3580SOL    HW122376   3.572   1.763   7.603 -0.5922  1.8272 -0.3223
 3580SOL    HW222377   3.544   1.826   7.733 -0.4590 -1.0555 -0.2754
 3581SOL     OW22378   3.888   3.424   1.732 -0.2102  0.4661 -0.2917
 3581SOL    HW122379   3.950   3.486   1.693  0.9091 -0.5794 -0.1447
 3581SOL    HW222380   3.860   3.471   1.811  0.5153  0.3639  0.0228
 3582SOL     OW22381   3.658   4.163   2.826 -0.0745 -0.8360  0.1308
 3582SOL    HW122382   3.598   4.224   2.869  0.3555  2.4944 -4.0267
 3582SOL    HW222383   3.677   4.094   2.890  2.3431  1.7921  2.2174
 3583SOL     OW22384   2.507   1.998   8.183 -0.0203  0.0857  0.1466
 3583SOL    HW122385   2.586   1.944   8.192 -0.0371 -0.0947 -0.8280
 3583SOL    HW222386   2.537   2.067   8.124  1.2826  0.1229  0.8484
 3584SOL     OW22387   2.388   4.674  12.725  0.0420 -0.0794  0.0381
 3584SOL    HW122388   2.379   4.685  12.630 -0.1650 -0.0508  0.0609
 3584SOL    HW222389   2.483   4.676  12.733 -0.1172  0.8179  1.7162
 3585SOL     OW22390   1.936   0.703  17.704  0.9692 -0.3054 -0.5541
 3585SOL    HW122391   1.966   0.659  17.624  1.3734 -1.4031  0.1948
 3585SOL    HW222392   1.922   0.793  17.675 -0.7217 -0.4526 -0.2037
 3586SOL     OW22393   3.334   4.629   5.463  0.6649  0.3338 -0.5077
 3586SOL    HW122394   3.387   4.658   5.389 -0.9258  0.8362 -1.4418
 3586SOL    HW222395   3.408   4.600   5.517 -1.1914 -1.2621  1.2087
 3587SOL     OW22396   3.139   2.816   8.898  0.5074  0.5368 -0.1183
 3587SOL    HW122397   3.231   2.791   8.894  1.0059  2.2002  0.7924
 3587SOL    HW222398   3.144   2.898   8.849 -1.4182 -0.1759 -1.5004
 3588SOL     OW22399   3.058   1.853  14.458  0.2701 -0.3139  0.1062
 3588SOL    HW122400   3.137   1.831  14.408 -0.1373 -1.0215 -0.2348
 3588SOL    HW222401   3.025   1.931  14.416  0.1271  0.2705  1.2974
 3589SOL     OW22402   1.284   0.515   5.128  0.0022  0.2141  0.7669
 3589SOL    HW122403   1.206   0.476   5.090  1.0738  0.0855 -1.3028
 3589SOL    HW222404   1.262   0.602   5.094  0.7439 -0.8125 -2.2590
 3590SOL     OW22405   2.475   1.336   1.238 -0.0628 -0.5091  0.5451
 3590SOL    HW122406   2.496   1.311   1.148  0.3300  2.7459 -0.2842
 3590SOL    HW222407   2.395   1.288   1.257  0.5744 -1.2535  1.3474
 3591SOL     OW22408   3.582   0.265   3.279 -0.0614 -0.4003 -0.2834
 3591SOL    HW122409   3.593   0.267   3.184  1.5953  0.5050 -0.0654
 3591SOL    HW222410   3.666   0.289   3.318  0.7544 -0.3562 -2.0993
 3592SOL     OW22411   1.375   0.767   8.572  0.0960  0.1595 -0.3635
 3592SOL    HW122412   1.387   0.820   8.651  0.8449  0.0097 -0.3839
 3592SOL    HW222413   1.463   0.767   8.534  1.1314 -0.3796  2.0556
 3593SOL     OW22414   2.669   3.920   4.015  0.0981  0.5376  0.0985
 3593SOL    HW122415   2.756   3.896   3.983 -0.3724  0.0068 -0.7642
 3593SOL    HW222416   2.625   3.954   3.937  0.1330 -0.3777 -0.3127
 3594SOL     OW22417   2.239   0.283   2.375  0.1072  0.2803  0.0536
 3594SOL    HW122418   2.211   0.217   2.311  0.4147  0.3547 -0.1575
 3594SOL    HW222419   2.235   0.237   2.458 -0.2479  0.0428 -0.0918
 3595SOL     OW22420   2.167   2.958  13.423  0.0542  0.1803 -0.1103
 3595SOL    HW122421   2.257   2.982  13.444  0.1114  1.3752 -1.7457
 3595SOL    HW222422   2.153   2.875  13.468 -0.3049 -0.8954 -2.1921
 3596SOL     OW22423   3.996   1.194   4.052  0.3460  0.3954  0.2678
 3596SOL    HW122424   3.978   1.288   4.053 -1.2900  0.0470  2.5043
 3596SOL    HW222425   4.091   1.187   4.059  0.2797 -1.8356 -0.9212
 3597SOL     OW22426   2.025   3.939   6.382 -0.1523 -0.4301 -0.1046
 3597SOL    HW122427   1.992   3.915   6.469  1.3502  0.2189  0.6448
 3597SOL    HW222428   2.106   3.981   6.410  0.2135 -2.6101  2.1796
 3598SOL     OW22429   0.291   1.382   4.425 -0.4808 -0.3820 -0.2116
 3598SOL    HW122430   0.362   1.357   4.365 -0.6745 -0.4810 -0.3997
 3598SOL    HW222431   0.336   1.349   4.503 -2.5055 -0.9774  0.7239
 3599SOL     OW22432   2.110   2.075   3.847  0.1699 -0.2814  0.6590
 3599SOL    HW122433   2.089   1.991   3.889 -0.2573  0.2674  1.5405
 3599SOL    HW222434   2.199   2.101   3.872 -0.5488  2.7991 -0.0662
 3600SOL     OW22435   4.534   4.423   0.318 -0.1702 -0.7201 -0.0731
 3600SOL    HW122436   4.580   4.361   0.374  0.1097  1.0517  1.6504
 3600SOL    HW222437   4.447   4.388   0.336  0.0015 -1.3684 -0.5071
 3601SOL     OW22438   3.154   4.305   2.551  0.3401 -0.6874 -0.6302
 3601SOL    HW122439   3.196   4.289   2.466  1.1748 -2.5462  0.1320
 3601SOL    HW222440   3.136   4.215   2.577  0.9555 -0.2994  1.1487
 3602SOL     OW22441   3.039   3.506   5.369  0.3684  0.5790  1.2186
 3602SOL    HW122442   3.111   3.557   5.332  2.2980 -0.8345  2.9897
 3602SOL    HW222443   3.085   3.437   5.417 -1.2323 -2.3728 -1.4728
 3603SOL     OW22444   3.526   2.131   1.307 -0.2494 -0.7571 -0.7153
 3603SOL    HW122445   3.494   2.192   1.241  2.6091  3.2766  1.6727
 3603SOL    HW222446   3.574   2.074   1.246 -2.1183 -2.0050 -1.0081
 3604SOL     OW22447   1.329   3.207   2.293  0.2883 -0.2374 -0.2054
 3604SOL    HW122448   1.299   3.297   2.299 -1.6154 -1.0767  2.8944
 3604SOL    HW222449   1.250   3.152   2.294  1.0577 -1.3438 -0.0358
 3605SOL     OW22450   3.283   4.241   6.594  0.0737  0.1693 -0.1732
 3605SOL    HW122451   3.265   4.239   6.500 -0.1054  0.1110 -0.1380
 3605SOL    HW222452   3.366   4.193   6.597 -0.3580 -0.6289 -0.9236
 3606SOL     OW22453   3.259   4.109   7.774  0.1474 -0.1498 -0.7272
 3606SOL    HW122454   3.308   4.045   7.722 -0.1208 -2.1356  1.4430
 3606SOL    HW222455   3.182   4.062   7.805  0.6986 -0.1049  0.7330
 3607SOL     OW22456   4.407   0.151   7.145  0.4250 -0.6877  0.1332
 3607SOL    HW122457   4.320   0.178   7.174  1.0072  1.2311  0.0313
 3607SOL    HW222458   4.454   0.115   7.221 -0.6634 -4.6277 -1.0376
 3608SOL     OW22459   2.176   0.675   7.501  0.3998  0.0447 -0.2189
 3608SOL    HW122460   2.250   0.675   7.440  0.0702  0.1789 -0.6183
 3608SOL    HW222461   2.176   0.590   7.545 -0.1925 -0.0302 -0.3630
 3609SOL     OW22462   3.592   1.775   4.000 -0.3960 -0.1131  0.1003
 3609SOL    HW122463   3.542   1.718   4.059  2.1489 -2.2754  0.1604
 3609SOL    HW222464   3.542   1.767   3.919 -0.0161  3.0540 -0.4443
 3610SOL     OW22465   2.956   1.978   6.728 -0.1514  0.5430 -0.4890
 3610SOL    HW122466   2.922   1.904   6.678  0.7697  1.4192 -2.3814
 3610SOL    HW222467   3.047   1.950   6.724  0.1546  1.7662 -1.7822
 3611SOL     OW22468   0.187   0.825   7.645  0.2282  0.0976 -0.0730
 3611SOL    HW122469   0.169   0.754   7.584  1.5169  0.7742 -1.2240
 3611SOL    HW222470   0.156   0.899   7.592 -2.0043 -1.1527 -0.5161
 3612SOL     OW22471   0.372   2.680   5.217  0.6605  0.0595  0.7554
 3612SOL    HW122472   0.404   2.663   5.305  0.5084 -1.2632  0.5580
 3612SOL    HW222473   0.303   2.615   5.226 -0.0497  0.4038 -2.1917
 3613SOL     OW22474   0.365   2.382   5.348 -0.0714  0.1412  0.3059
 3613SOL    HW122475   0.279   2.422   5.334 -0.2228 -0.6578 -0.9825
 3613SOL    HW222476   0.351   2.312   5.411 -0.2703  0.1849  0.3094
 3614SOL     OW22477   2.023   1.079  15.862  0.1144  0.0309  0.2421
 3614SOL    HW122478   2.059   1.001  15.820 -1.3944 -0.9948  0.8498
 3614SOL    HW222479   2.055   1.069  15.952  0.1819 -0.4826  0.1587
 3615SOL     OW22480   0.622   1.490   8.592  0.2731  0.1669  0.1048
 3615SOL    HW122481   0.672   1.408   8.603  0.9258  0.6769  0.9752
 3615SOL    HW222482   0.567   1.469   8.668  0.7803 -1.4499  0.0321
 3616SOL     OW22483   2.807   4.345   4.916 -0.2170 -0.0530  0.0355
 3616SOL    HW122484   2.878   4.409   4.909 -1.7469  1.6360 -0.0608
 3616SOL    HW222485   2.779   4.346   4.824 -2.5000  0.7562  0.7348
 3617SOL     OW22486   1.499   1.801   8.479 -0.9077  0.1417 -0.1894
 3617SOL    HW122487   1.471   1.888   8.451 -1.4945 -0.3707 -1.1731
 3617SOL    HW222488   1.500   1.747   8.400 -0.3853  0.0773 -0.1432
 3618SOL     OW22489   1.545   0.132   6.755  0.5105 -0.1605  0.0138
 3618SOL    HW122490   1.535   0.040   6.731  4.5462 -0.6337  0.1059
 3618SOL    HW222491   1.460   0.148   6.796  0.2045  0.3088 -0.8149
 3619SOL     OW22492   3.884   3.102   5.636 -0.3131 -0.0646  0.1685
 3619SOL    HW122493   3.975   3.115   5.665  0.2183  1.8700 -2.2970
 3619SOL    HW222494   3.827   3.103   5.712 -1.0016  0.9210 -0.3698
 3620SOL     OW22495   4.331   0.981   4.261 -0.6034  0.1415 -0.1107
 3620SOL    HW122496   4.325   0.914   4.193  0.1019  0.6558 -0.6731
 3620SOL    HW222497   4.327   0.923   4.338 -0.0966  0.2371 -0.0143
 3621SOL     OW22498   4.420   1.595  14.493  0.7048 -0.5703 -0.1304
 3621SOL    HW122499   4.395   1.533  14.424  1.6150 -1.6980  0.5394
 3621SOL    HW222500   4.372   1.674  14.470  0.6209 -1.0358 -1.5537
 3622SOL     OW22501   0.229   4.060  16.344  0.1475  0.1305  0.3178
 3622SOL    HW122502   0.299   4.085  16.405  1.3046  1.2540 -1.5015
 3622SOL    HW222503   0.265   4.059  16.256 -0.4021  1.4139  0.0834
 3623SOL     OW22504   1.793   1.339   2.830  0.5890  0.7016 -0.0961
 3623SOL    HW122505   1.801   1.295   2.746  2.1368  0.2207  0.2943
 3623SOL    HW222506   1.703   1.335   2.862  0.9167  1.5373  0.9315
 3624SOL     OW22507   0.348   3.169   4.729  0.1373 -0.0912 -0.1603
 3624SOL    HW122508   0.414   3.238   4.727 -0.7382  0.7552 -0.1210
 3624SOL    HW222509   0.377   3.135   4.814  1.9350  0.7904 -0.4299
 3625SOL     OW22510   1.800   1.757   8.371  0.2413  0.2465 -0.4267
 3625SOL    HW122511   1.777   1.832   8.317 -0.8558  1.4697  1.7356
 3625SOL    HW222512   1.754   1.770   8.454 -2.0308 -1.1253 -1.4899
 3626SOL     OW22513   0.921   4.653   6.769  0.0448  0.5010 -0.4618
 3626SOL    HW122514   0.905   4.645   6.675 -2.8189  1.6082 -0.0889
 3626SOL    HW222515   0.952   0.007   6.773  0.2524  0.4891 -2.0501
 3627SOL     OW22516   2.671   2.383   8.231 -0.4440 -0.2152  0.2496
 3627SOL    HW122517   2.707   2.414   8.314  0.3428  0.7568 -0.4599
 3627SOL    HW222518   2.606   2.326   8.271 -0.7629 -0.9406 -1.2764
 3628SOL     OW22519   2.560   3.720   4.693  0.0512 -0.5463 -0.0745
 3628SOL    HW122520   2.606   3.797   4.658  0.8919 -1.1050 -0.1834
 3628SOL    HW222521   2.568   3.740   4.787  2.7359 -0.7124 -0.2685
 3629SOL     OW22522   2.954   1.126   3.192  0.1470 -0.0012 -0.5868
 3629SOL    HW122523   2.921   1.136   3.281  0.3167  2.5639 -0.8088
 3629SOL    HW222524   3.048   1.121   3.206  0.3278  0.3172 -1.7019
 3630SOL     OW22525   3.632   3.624   3.704 -0.1118 -0.0042  0.4078
 3630SOL    HW122526   3.641   3.590   3.793  0.9134 -1.4280 -0.2346
 3630SOL    HW222527   3.582   3.702   3.730  0.7515  1.1745 -1.4286
 3631SOL     OW22528   0.178   0.990   4.985  0.0841  0.1421 -0.4333
 3631SOL    HW122529   0.108   0.937   4.946  0.1560 -1.0938  1.1262
 3631SOL    HW222530   0.116   1.043   5.036  1.8184  0.5731  1.2004
 3632SOL     OW22531   2.421   1.575   4.602 -0.3065 -0.1358 -0.2751
 3632SOL    HW122532   2.368   1.568   4.682 -1.3774 -1.8614 -1.1425
 3632SOL    HW222533   2.363   1.533   4.538 -2.1777  0.7934  0.7904
 3633SOL     OW22534   2.725   3.357  10.937 -0.4567 -0.2149 -0.4788
 3633SOL    HW122535   2.685   3.372  10.852 -0.3058  0.2203 -0.4739
 3633SOL    HW222536   2.816   3.334  10.918  0.0470  0.9561  0.4894
 3634SOL     OW22537   3.891   0.447   7.416  0.6197  0.0534 -0.0611
 3634SOL    HW122538   3.884   0.536   7.449 -0.5620 -0.1578  0.2455
 3634SOL    HW222539   3.882   0.452   7.321  0.1206  1.7485  0.0781
 3635SOL     OW22540   0.055   2.092   7.758 -0.1196  0.1971  0.2166
 3635SOL    HW122541   0.040   2.045   7.840  2.0170 -0.6487  0.1267
 3635SOL    HW222542   0.092   2.012   7.721 -0.3325 -0.2452  0.9590
 3636SOL     OW22543   2.922   1.438   1.462 -0.0801 -0.0080  0.4131
 3636SOL    HW122544   2.987   1.407   1.399 -0.3479 -1.6318  0.9388
 3636SOL    HW222545   2.846   1.422   1.407  0.2931  1.5861 -0.5823
 3637SOL     OW22546   0.503   0.248  16.819 -0.0735  0.2364  0.2514
 3637SOL    HW122547   0.516   0.285  16.907  0.8639 -0.0823  0.2522
 3637SOL    HW222548   0.411   0.274  16.811 -0.2101  0.1949  1.6454
 3638SOL     OW22549   0.335   0.600   6.391  0.0763  0.2110  0.5306
 3638SOL    HW122550   0.300   0.511   6.388 -1.5126  0.7895  1.7235
 3638SOL    HW222551   0.354   0.619   6.483 -0.2944 -1.0065  0.8516
 3639SOL     OW22552   1.228   2.420   3.434  0.4088 -0.5481 -0.3846
 3639SOL    HW122553   1.272   2.338   3.454 -0.5802 -0.7908  0.8410
 3639SOL    HW222554   1.142   2.385   3.411 -1.1250  1.0730  2.8573
 3640SOL     OW22555   4.070   0.008  14.861  0.0896 -0.0137 -0.2404
 3640SOL    HW122556   4.162   0.001  14.885 -0.6160 -1.1493  2.1841
 3640SOL    HW222557   4.044   4.653  14.847 -1.7219  0.2141  1.6753
 3641SOL     OW22558   3.281   4.208   9.644 -0.8658  0.3122  0.3982
 3641SOL    HW122559   3.351   4.270   9.625 -0.5290 -0.6637 -1.4915
 3641SOL    HW222560   3.213   4.272   9.667 -0.0464  0.2239  3.0413
 3642SOL     OW22561   4.653   2.329   7.703  0.4736 -0.5779  0.0288
 3642SOL    HW122562   4.606   2.357   7.782  1.7519 -0.1959  0.6443
 3642SOL    HW222563   4.667   2.237   7.726 -0.1618 -0.6104  0.3053
 3643SOL     OW22564   0.789   1.076   9.109  0.3033 -0.3471  0.4565
 3643SOL    HW122565   0.714   1.034   9.067  0.5810 -0.0118 -0.3615
 3643SOL    HW222566   0.848   1.078   9.034  1.9310  0.0567  1.7548
 3644SOL     OW22567   1.956   0.599   4.953 -0.3961 -0.2713 -0.2484
 3644SOL    HW122568   1.878   0.621   5.003  0.2112  1.8859 -0.2669
 3644SOL    HW222569   1.931   0.525   4.896 -0.2248  0.7904 -1.7066
 3645SOL     OW22570   2.835   4.485  15.517  0.7798  0.5736 -0.2013
 3645SOL    HW122571   2.862   4.572  15.545  2.1680 -0.2663  1.0760
 3645SOL    HW222572   2.847   4.438  15.599  0.2215 -0.7320 -0.8639
 3646SOL     OW22573   0.035   4.684   2.582  0.6503 -0.2064  0.0783
 3646SOL    HW122574   4.684   4.653   2.608 -0.1891  1.6033 -0.5881
 3646SOL    HW222575   0.022   4.705   2.490 -0.0375 -1.5267 -0.1336
 3647SOL     OW22576   3.118   2.096   5.919  0.5035 -0.0398 -0.3472
 3647SOL    HW122577   3.133   2.032   5.989 -1.2101  1.3491  1.2604
 3647SOL    HW222578   3.096   2.044   5.841 -2.1400 -2.2234  1.8264
 3648SOL     OW22579   1.519   0.637   7.615 -0.0161  0.0874 -0.2901
 3648SOL    HW122580   1.572   0.714   7.636 -1.0746  0.5205  0.7639
 3648SOL    HW222581   1.448   0.676   7.564 -1.1852 -3.0597 -1.0680
 3649SOL     OW22582   1.163   1.209   4.375  0.0121  0.5257 -0.0901
 3649SOL    HW122583   1.163   1.250   4.462 -2.3035  1.1583 -0.3730
 3649SOL    HW222584   1.233   1.261   4.335 -0.1590 -1.2407 -2.6957
 3650SOL     OW22585   0.069   2.177   8.090 -0.1707  0.5729  0.4005
 3650SOL    HW122586   0.029   2.236   8.153 -0.7247  1.1149 -0.4589
 3650SOL    HW222587   4.730   2.124   8.065  0.0887  1.0195 -1.3400
 3651SOL     OW22588   3.618   1.045   2.127 -0.1186 -0.1068  0.3180
 3651SOL    HW122589   3.602   1.121   2.183  0.0954 -0.6649  1.1416
 3651SOL    HW222590   3.711   1.059   2.107  0.2743 -0.5426  1.8104
 3652SOL     OW22591   0.497   1.983  14.031 -0.1170 -0.1604  0.0868
 3652SOL    HW122592   0.494   2.013  13.940 -0.8159  1.6212  0.6922
 3652SOL    HW222593   0.546   2.055  14.070  0.0380  0.2024 -0.7854
 3653SOL     OW22594   0.223   1.016   3.706  0.3781 -0.2502 -0.3999
 3653SOL    HW122595   0.257   1.095   3.747  0.2399  0.5095 -1.7700
 3653SOL    HW222596   0.209   0.967   3.787 -0.8556 -0.3278 -0.6694
 3654SOL     OW22597   1.916   1.272   0.880  0.4852  0.5235 -0.6080
 3654SOL    HW122598   1.883   1.331   0.949 -1.2423 -0.9454 -0.1855
 3654SOL    HW222599   1.841   1.217   0.857  1.4579 -0.9668 -0.2316
 3655SOL     OW22600   3.303   4.569   1.728  0.3945 -0.1051  0.0813
 3655SOL    HW122601   3.376   4.522   1.768  1.0176 -0.7684 -1.8231
 3655SOL    HW222602   3.333   4.660   1.727 -1.5862  0.5526 -0.3105
 3656SOL     OW22603   4.548   3.094  12.892 -0.6354  0.4775  0.2390
 3656SOL    HW122604   4.639   3.078  12.919  0.2112  2.6892 -1.2830
 3656SOL    HW222605   4.506   3.053  12.967  0.4363 -1.6467 -0.3321
 3657SOL     OW22606   0.306   3.676   5.989  0.6240 -0.2540 -0.1316
 3657SOL    HW122607   0.224   3.643   5.952  1.1957 -0.3129 -1.3650
 3657SOL    HW222608   0.355   3.681   5.907 -0.7546 -0.0505 -0.9410
 3658SOL     OW22609   3.993   3.139  14.520 -1.0880 -0.0583 -0.1416
 3658SOL    HW122610   4.061   3.162  14.456  1.8193 -2.0341  2.2483
 3658SOL    HW222611   4.055   3.131  14.593 -0.0374  2.1563 -0.7997
 3659SOL     OW22612   2.900   0.406  11.404 -0.0892  0.2430  0.4358
 3659SOL    HW122613   2.811   0.414  11.371  0.2519  1.1578 -0.2743
 3659SOL    HW222614   2.885   0.392  11.497 -1.5028  0.1810  0.1944
 3660SOL     OW22615   3.399   2.654   2.896 -0.2549  0.3339  0.5769
 3660SOL    HW122616   3.390   2.639   2.990  0.4952 -1.6942  0.3122
 3660SOL    HW222617   3.326   2.611   2.853  1.2284 -0.7674 -0.8617
 3661SOL     OW22618   2.823   1.329  15.950 -0.0474 -0.5202 -0.2030
 3661SOL    HW122619   2.906   1.375  15.962 -0.4137 -0.5186  2.3107
 3661SOL    HW222620   2.770   1.396  15.906  0.4897  0.0921  0.0660
 3662SOL     OW22621   1.321   3.085  13.520 -0.5303  0.0527 -0.1652
 3662SOL    HW122622   1.303   3.176  13.544  0.1321  0.0263  0.4463
 3662SOL    HW222623   1.284   3.040  13.595  1.9330 -0.7116  0.5924
 3663SOL     OW22624   2.131   3.733   1.317  0.3530 -0.5516  0.1433
 3663SOL    HW122625   2.214   3.694   1.292  0.3611  0.6792 -1.7874
 3663SOL    HW222626   2.073   3.657   1.310  1.2495 -1.1453 -0.6999
 3664SOL     OW22627   2.843   1.836   3.878  0.8278  0.0499 -0.2168
 3664SOL    HW122628   2.879   1.752   3.848  0.4687 -0.2823  0.2904
 3664SOL    HW222629   2.873   1.845   3.968 -0.1505 -2.6458  0.3704
 3665SOL     OW22630   1.257   3.332   2.601 -0.4274  0.0345 -0.5239
 3665SOL    HW122631   1.326   3.308   2.539 -1.3902 -1.1202 -1.1425
 3665SOL    HW222632   1.282   3.421   2.624 -1.4228  0.5915 -1.6477
 3666SOL     OW22633   2.371   3.303   2.430  0.4527 -0.4889  0.1195
 3666SOL    HW122634   2.345   3.392   2.452  0.7853 -0.4788  0.4736
 3666SOL    HW222635   2.311   3.285   2.358 -1.0204  1.8373  0.7907
 3667SOL     OW22636   2.551   3.889   6.197  0.0317 -0.2185 -0.1363
 3667SOL    HW122637   2.490   3.891   6.123 -0.6885  0.7712  0.4842
 3667SOL    HW222638   2.538   3.979   6.226  3.0003  0.1129  0.1026
 3668SOL     OW22639   3.622   0.314   4.524 -0.0835 -0.0027 -0.2237
 3668SOL    HW122640   3.618   0.410   4.523  3.3267  0.1752  2.9391
 3668SOL    HW222641   3.582   0.285   4.442  1.2525  0.1611 -0.9276
 3669SOL     OW22642   3.121   2.865  11.948  0.6405 -0.1382  0.0346
 3669SOL    HW122643   3.087   2.794  11.893  1.5852  0.6954 -1.6176
 3669SOL    HW222644   3.051   2.880  12.011  2.1933  1.6355  1.3192
 3670SOL     OW22645   1.670   1.077   8.731  0.0323 -0.3166  0.3729
 3670SOL    HW122646   1.713   1.054   8.813  1.9953  1.8644 -0.0619
 3670SOL    HW222647   1.715   1.155   8.701 -0.5901  0.1223  0.5736
 3671SOL     OW22648   4.534   0.394   7.363 -0.2061 -0.6324  0.6660
 3671SOL    HW122649   4.615   0.375   7.317  0.6575  1.1525  1.4505
 3671SOL    HW222650   4.546   0.488   7.376 -0.7471 -0.8120  2.5328
 3672SOL     OW22651   4.461   4.423   2.027  0.1411 -0.1387  0.1555
 3672SOL    HW122652   4.531   4.449   2.086  1.6664  0.6962 -2.0500
 3672SOL    HW222653   4.402   4.499   2.035  2.5126  1.3455  3.7406
 3673SOL     OW22654   3.068   4.232  12.566  0.6227  0.7340  0.1636
 3673SOL    HW122655   3.045   4.180  12.643 -0.6529  1.4404  0.2597
 3673SOL    HW222656   3.018   4.194  12.494 -0.2058  1.6291  0.2669
 3674SOL     OW22657   1.810   1.051   2.035  0.0779 -0.6250  0.4315
 3674SOL    HW122658   1.725   1.071   1.995 -0.5256 -1.2728  1.3684
 3674SOL    HW222659   1.806   0.957   2.054 -2.8210 -0.8903 -1.5478
 3675SOL     OW22660   0.605   3.816  17.224  0.4665  0.1309 -0.8945
 3675SOL    HW122661   0.608   3.856  17.137  4.7460  1.3976 -0.1872
 3675SOL    HW222662   0.695   3.790  17.244  0.1480 -0.0224  0.3340
 3676SOL     OW22663   1.283   1.179   7.092 -0.7498 -0.2492  0.7580
 3676SOL    HW122664   1.372   1.144   7.102 -1.4911 -2.2099  0.5669
 3676SOL    HW222665   1.306   1.271   7.105  0.8411 -0.6099  0.4231
 3677SOL     OW22666   0.999   1.565   2.996  0.2083  0.4897 -0.6451
 3677SOL    HW122667   0.918   1.605   2.964  0.4331  1.8255  0.4642
 3677SOL    HW222668   1.016   1.497   2.931  1.1449  0.7115 -0.6320
 3678SOL     OW22669   3.413   4.263   8.694 -0.1693 -0.3137  0.4595
 3678SOL    HW122670   3.368   4.241   8.775  0.2126 -1.5162  0.3452
 3678SOL    HW222671   3.389   4.355   8.681 -1.6607 -0.9236 -1.2081
 3679SOL     OW22672   0.379   3.257  11.084 -0.1074  0.3137  0.2770
 3679SOL    HW122673   0.331   3.196  11.029 -1.9643  1.7002  0.3549
 3679SOL    HW222674   0.357   3.344  11.049  0.7551 -0.4832 -2.2519
 3680SOL     OW22675   2.193   2.907   5.309  0.0510  0.2550 -0.0458
 3680SOL    HW122676   2.281   2.916   5.346 -0.5945  0.6928  1.3647
 3680SOL    HW222677   2.150   2.990   5.327  1.7648  1.3556 -0.9850
 3681SOL     OW22678   1.062   1.478   5.877 -0.2020  0.3515  0.0446
 3681SOL    HW122679   1.152   1.509   5.888 -0.2267  0.3415  0.2750
 3681SOL    HW222680   1.074   1.392   5.918 -1.5842 -0.1710 -0.6485
 3682SOL     OW22681   1.820   0.922   9.641 -0.5840  0.4255 -0.1715
 3682SOL    HW122682   1.846   0.890   9.728  1.0414  2.0085 -0.0788
 3682SOL    HW222683   1.907   0.925   9.601 -0.5923 -3.2784 -0.4501
 3683SOL     OW22684   1.939   1.965  16.324  0.5547  0.1149 -0.4448
 3683SOL    HW122685   1.962   2.051  16.291  2.5615 -0.3020 -0.1309
 3683SOL    HW222686   1.885   1.921  16.259  2.3244 -1.0863 -1.1191
 3684SOL     OW22687   4.148   2.462   5.371 -0.8025 -0.5478 -0.2617
 3684SOL    HW122688   4.087   2.525   5.333 -0.5266 -0.0471  0.1255
 3684SOL    HW222689   4.102   2.379   5.357  0.7639 -1.4131 -0.3454
 3685SOL     OW22690   2.567   1.859   0.356  0.0516  0.2025 -0.0069
 3685SOL    HW122691   2.626   1.884   0.427  2.2405 -0.4564 -1.5822
 3685SOL    HW222692   2.512   1.787   0.387 -0.1437  0.2957 -0.1364
 3686SOL     OW22693   3.528   1.056   4.487 -0.0665 -0.5414 -0.2836
 3686SOL    HW122694   3.553   1.107   4.410 -0.0129  0.5569  0.4563
 3686SOL    HW222695   3.435   1.033   4.484 -0.3289  0.4355  0.3640
 3687SOL     OW22696   4.512   0.755   1.646  0.4569  0.1434  0.3518
 3687SOL    HW122697   4.494   0.665   1.671 -1.2872  0.9263  1.9722
 3687SOL    HW222698   4.601   0.771   1.677  1.5215 -0.9180 -2.2169
 3688SOL     OW22699   0.401   2.948   5.952 -0.2246 -0.1496  0.1372
 3688SOL    HW122700   0.330   3.012   5.943  1.1947  1.5144  0.6801
 3688SOL    HW222701   0.479   3.001   5.970 -1.1488  1.3394 -0.1829
 3689SOL     OW22702   4.221   3.767  11.289 -0.4175  0.3205 -0.0113
 3689SOL    HW122703   4.156   3.747  11.222 -0.1058  0.6422 -0.4034
 3689SOL    HW222704   4.261   3.681  11.304  0.4074  0.7000 -0.0644
 3690SOL     OW22705   2.541   3.466   3.192 -0.4686  0.2211  0.0784
 3690SOL    HW122706   2.578   3.514   3.266 -0.7002 -2.9029  2.1982
 3690SOL    HW222707   2.614   3.467   3.130  0.8685 -2.5914  1.5997
 3691SOL     OW22708   1.180   1.786   5.320 -0.0931  0.2999 -0.3771
 3691SOL    HW122709   1.220   1.715   5.371 -1.7341  0.9370  1.8208
 3691SOL    HW222710   1.222   1.865   5.354  2.0805 -0.7065 -0.7107
 3692SOL     OW22711   1.980   2.627   4.423 -0.1505  0.1695  0.3284
 3692SOL    HW122712   1.917   2.678   4.373 -0.1247  1.3228  1.4485
 3692SOL    HW222713   2.034   2.699   4.457  2.1277 -1.6400  0.5332
 3693SOL     OW22714   2.043   3.374  13.230 -0.0978  0.2458 -0.4412
 3693SOL    HW122715   2.048   3.278  13.223 -0.1521  0.2466 -0.4942
 3693SOL    HW222716   2.009   3.384  13.319 -0.7611 -1.5983 -0.4778
 3694SOL     OW22717   3.908   2.750   5.287  0.3495  0.2870 -0.4063
 3694SOL    HW122718   3.917   2.772   5.379 -0.9392 -0.0352 -0.1921
 3694SOL    HW222719   3.959   2.817   5.242 -0.0232  0.5263 -0.4739
 3695SOL     OW22720   1.587   2.620  16.910  0.4506  0.5311 -0.4597
 3695SOL    HW122721   1.662   2.561  16.920 -0.9753 -1.3776 -1.0984
 3695SOL    HW222722   1.529   2.575  16.971  2.3927 -0.5609  0.6009
 3696SOL     OW22723   0.427   0.990   8.345 -0.3173  0.3304 -0.6807
 3696SOL    HW122724   0.409   1.040   8.266 -0.6297  4.5233  2.0801
 3696SOL    HW222725   0.500   1.028   8.395 -1.1403  0.9878  0.0211
 3697SOL     OW22726   4.360   1.248   8.225 -0.0231  0.0882  0.1523
 3697SOL    HW122727   4.310   1.330   8.226  1.1306  0.7940 -3.1599
 3697SOL    HW222728   4.339   1.215   8.313  1.4645 -0.2339  0.3779
 3698SOL     OW22729   3.231   4.668   7.469  0.2621 -0.4466  0.4978
 3698SOL    HW122730   3.276   4.672   7.553 -0.3673 -0.7517  0.8469
 3698SOL    HW222731   3.244   4.576   7.446  0.2448  0.0977 -1.6746
 3699SOL     OW22732   4.400   2.183   8.496 -0.3222 -0.2325  0.3349
 3699SOL    HW122733   4.453   2.257   8.464 -1.2274 -0.5479 -1.8599
 3699SOL    HW222734   4.468   2.118   8.479  0.1513  0.1027  0.9000
 3700SOL     OW22735   1.130   4.210   3.494 -0.1327  0.1825  0.1825
 3700SOL    HW122736   1.142   4.171   3.408 -0.5171 -0.3099  0.3511
 3700SOL    HW222737   1.102   4.299   3.470  0.0577 -0.2529 -1.6770
 3701SOL     OW22738   4.477   2.244  15.668 -0.3311 -0.2165 -0.1691
 3701SOL    HW122739   4.412   2.297  15.714 -0.5790 -0.3338 -0.3873
 3701SOL    HW222740   4.420   2.240  15.592  0.5557 -0.2252 -0.8253
 3702SOL     OW22741   1.240   4.736   3.884  0.2217 -0.0593  0.1399
 3702SOL    HW122742   1.221   4.694   3.967 -0.0537  0.6202  0.4221
 3702SOL    HW222743   1.249   0.091   3.912  0.1822  0.1267 -0.4464
 3703SOL     OW22744   2.990   3.002   3.850  0.0774 -0.2685  0.0308
 3703SOL    HW122745   3.009   3.084   3.805  0.2026 -1.5709 -2.2965
 3703SOL    HW222746   2.974   3.048   3.932  1.0740  0.7813 -0.3691
 3704SOL     OW22747   3.080   0.090   9.756 -0.3336 -0.3894 -0.7522
 3704SOL    HW122748   3.168   0.090   9.720  0.0452  1.0905  0.1768
 3704SOL    HW222749   3.097   0.061   9.845 -1.1703 -3.3296 -1.5486
 3705SOL     OW22750   4.375   1.696   4.675  0.1313 -0.7704 -0.4811
 3705SOL    HW122751   4.305   1.753   4.706 -0.5132 -1.0525 -1.4075
 3705SOL    HW222752   4.452   1.752   4.686 -0.2924 -0.3561  0.4056
 3706SOL     OW22753   3.167   0.224  16.281  0.5061 -0.3950 -0.3878
 3706SOL    HW122754   3.079   0.261  16.284  0.0308 -1.3532 -2.4606
 3706SOL    HW222755   3.207   0.277  16.212  0.7502  1.2879  1.0484
 3707SOL     OW22756   0.181   1.610  14.338  0.2060 -0.3314  0.5668
 3707SOL    HW122757   0.119   1.621  14.265 -1.7992 -2.0179  2.0245
 3707SOL    HW222758   0.118   1.567  14.396  1.1879 -1.3789  0.8291
 3708SOL     OW22759   1.326   4.396   0.788  0.0090  0.4198  0.4989
 3708SOL    HW122760   1.385   4.467   0.762 -2.6574  2.4643  0.1408
 3708SOL    HW222761   1.254   4.421   0.731  1.6094  1.4070 -1.1188
 3709SOL     OW22762   2.113   1.466   2.716 -0.0133  0.7826  0.3992
 3709SOL    HW122763   2.123   1.374   2.689  1.3167  0.4284  2.0468
 3709SOL    HW222764   2.059   1.506   2.649  0.3121  2.3590  1.0845
 3710SOL     OW22765   3.015   3.717   1.189  0.0814 -0.2954 -0.4756
 3710SOL    HW122766   3.046   3.803   1.162  1.3640 -0.6945 -0.3151
 3710SOL    HW222767   3.096   3.688   1.231 -0.7445 -0.8086  0.7681
 3711SOL     OW22768   2.005   3.099  12.755  0.5257  0.2124  0.1471
 3711SOL    HW122769   2.039   3.127  12.839  0.4546 -0.6375  0.4613
 3711SOL    HW222770   2.085   3.098  12.701 -0.9923  1.3057 -2.1377
 3712SOL     OW22771   0.053   1.375   6.355 -0.4663 -0.0102 -0.0640
 3712SOL    HW122772   0.101   1.434   6.413 -3.3837  0.7669  1.5944
 3712SOL    HW222773   0.117   1.342   6.292 -0.4002  0.8574 -0.4594
 3713SOL     OW22774   4.573   2.342   6.928  0.3090 -0.3926 -0.0303
 3713SOL    HW122775   4.612   2.419   6.887  2.2081 -0.7463  1.0774
 3713SOL    HW222776   4.490   2.379   6.958  0.0392 -0.0282 -1.2241
 3714SOL     OW22777   4.677   2.973   3.152  0.0944 -0.2693 -0.5746
 3714SOL    HW122778   4.647   2.969   3.243  1.3069 -0.7589 -0.1859
 3714SOL    HW222779   0.026   2.929   3.149 -0.1859 -0.8220 -0.3716
 3715SOL     OW22780   1.780   1.866   6.455 -0.6782  0.8211  0.4131
 3715SOL    HW122781   1.691   1.832   6.445 -0.5098  0.4215  0.2802
 3715SOL    HW222782   1.828   1.790   6.487  1.2814  0.8271 -2.5006
 3716SOL     OW22783   2.650   3.295  13.122 -0.5557  0.5154  0.8558
 3716SOL    HW122784   2.729   3.243  13.138  0.9659  1.6678 -3.1277
 3716SOL    HW222785   2.670   3.381  13.085 -0.8631 -0.6108 -1.9228
 3717SOL     OW22786   0.325   0.067  17.340  0.7075  0.1607  0.4013
 3717SOL    HW122787   0.297   0.151  17.304 -0.0894  0.2084  1.1225
 3717SOL    HW222788   0.416   0.085  17.363  0.8626  1.2300 -1.0844
 3718SOL     OW22789   4.295   2.269  12.923 -0.0505 -0.3550 -0.3400
 3718SOL    HW122790   4.357   2.240  12.855  1.0927  0.1672  0.4768
 3718SOL    HW222791   4.346   2.271  13.004 -1.6690 -0.1896  0.6707
 3719SOL     OW22792   3.215   0.567   7.145  0.0882  0.2315  0.1803
 3719SOL    HW122793   3.183   0.515   7.219  0.6647  2.1180  1.7498
 3719SOL    HW222794   3.156   0.642   7.141  0.8741  0.9272  1.8124
 3720SOL     OW22795   4.397   2.368  14.762  0.3390  0.1160 -0.6039
 3720SOL    HW122796   4.390   2.414  14.678 -0.4690 -0.3852 -0.8097
 3720SOL    HW222797   4.450   2.291  14.739 -0.6493 -0.5614 -0.5971
 3721SOL     OW22798   1.417   1.595   3.087 -0.0804 -0.1560 -0.1411
 3721SOL    HW122799   1.390   1.575   2.997 -1.6531  1.4594 -0.0201
 3721SOL    HW222800   1.355   1.535   3.129 -0.5547  0.8867  0.6359
 3722SOL     OW22801   0.903   0.061   0.573  0.0775  0.3528 -0.0350
 3722SOL    HW122802   0.972   0.118   0.605  0.4474  0.1653 -0.4941
 3722SOL    HW222803   0.853   0.055   0.654  0.8045 -2.4365  0.1904
 3723SOL     OW22804   1.446   4.152   3.813  0.0647 -0.6403 -0.6009
 3723SOL    HW122805   1.392   4.197   3.748 -1.6435 -0.8286  0.6893
 3723SOL    HW222806   1.453   4.232   3.865  0.5422 -1.0550 -0.0300
 3724SOL     OW22807   4.336   3.029  11.409  0.2497 -0.5904  0.1575
 3724SOL    HW122808   4.319   3.011  11.317  2.7208 -0.8735 -0.2339
 3724SOL    HW222809   4.277   2.960  11.441 -1.3556  2.1266  3.0438
 3725SOL     OW22810   0.771   4.392   2.134 -0.0290  0.1674 -0.5247
 3725SOL    HW122811   0.796   4.299   2.136 -0.1331  0.1412 -0.4471
 3725SOL    HW222812   0.828   4.412   2.208  0.6003 -1.4590 -0.5605
 3726SOL     OW22813   3.502   1.282   2.285 -0.4132  0.3986 -0.0447
 3726SOL    HW122814   3.439   1.328   2.340  1.6464  3.6116 -0.4173
 3726SOL    HW222815   3.581   1.291   2.339 -1.6651 -1.3038  2.1051
 3727SOL     OW22816   0.468   1.728  14.634  0.1105  0.0858  0.4094
 3727SOL    HW122817   0.563   1.730  14.622  0.0538  3.0565  0.4659
 3727SOL    HW222818   0.446   1.641  14.599 -0.3734 -0.1914  1.4132
 3728SOL     OW22819   0.635   0.428   2.173 -0.2686 -0.7549  0.0771
 3728SOL    HW122820   0.692   0.490   2.127 -0.0586 -2.3166 -1.7419
 3728SOL    HW222821   0.696   0.356   2.188 -2.9269 -3.4343 -2.0006
 3729SOL     OW22822   1.626   4.509  11.081 -0.1960 -0.0128 -0.4226
 3729SOL    HW122823   1.623   4.425  11.035  0.4527 -0.2222 -0.0850
 3729SOL    HW222824   1.706   4.499  11.133  0.6683 -0.5795 -1.8531
 3730SOL     OW22825   3.092   1.830   9.206  0.0089 -0.1338  0.1388
 3730SOL    HW122826   3.099   1.743   9.244  0.3378 -0.7451 -1.3486
 3730SOL    HW222827   3.097   1.883   9.286 -1.2116 -2.6497  1.8901
 3731SOL     OW22828   3.074   1.705  12.944 -0.0221 -0.5717  0.1147
 3731SOL    HW122829   3.151   1.752  12.978  0.5808 -1.9778  0.6865
 3731SOL    HW222830   3.103   1.622  12.983 -0.6250  0.6775  3.2180
 3732SOL     OW22831   4.529   0.827  16.156  0.2035  0.0133 -0.8095
 3732SOL    HW122832   4.516   0.768  16.231 -1.9965  1.6195  0.0679
 3732SOL    HW222833   4.621   0.847  16.173  0.0623 -2.3194  2.7913
 3733SOL     OW22834   2.870   3.495   3.328  0.0419  0.3056 -0.3316
 3733SOL    HW122835   2.788   3.535   3.357  1.1923  4.1985 -2.3850
 3733SOL    HW222836   2.928   3.484   3.403 -0.7545 -0.6680  0.1346
 3734SOL     OW22837   3.393   0.682   8.264 -0.1131 -0.4633 -0.4325
 3734SOL    HW122838   3.456   0.689   8.336 -0.1958 -0.4216 -0.3645
 3734SOL    HW222839   3.415   0.768   8.228  0.0317 -0.6041 -0.6774
 3735SOL     OW22840   1.112   2.456   9.371 -0.2776  0.0577  0.1644
 3735SOL    HW122841   1.136   2.430   9.460 -0.3670  0.0347  0.1818
 3735SOL    HW222842   1.076   2.373   9.340 -0.6286 -0.0900  0.9858
 3736SOL     OW22843   1.492   2.990  13.871  0.1927 -0.1893  0.3126
 3736SOL    HW122844   1.537   2.918  13.916 -0.4331 -1.5702 -1.2896
 3736SOL    HW222845   1.498   3.059  13.937 -1.9017  1.5858 -1.3783
 3737SOL     OW22846   1.476   0.481   8.691  0.2286 -0.2813 -0.2210
 3737SOL    HW122847   1.399   0.427   8.673 -0.8231  1.0595  0.2415
 3737SOL    HW222848   1.469   0.531   8.610  1.4991 -3.0563 -2.0487
 3738SOL     OW22849   0.804   1.956   9.144 -0.6431  0.1279  0.7298
 3738SOL    HW122850   0.824   1.932   9.235  1.9922  0.5044  0.2379
 3738SOL    HW222851   0.889   1.984   9.110 -0.9436  1.2168  0.8902
 3739SOL     OW22852   1.266   4.241   2.116 -0.2627  0.0783  0.0582
 3739SOL    HW122853   1.234   4.158   2.080 -1.2248  1.2038 -1.6665
 3739SOL    HW222854   1.323   4.278   2.049 -0.1949  0.6607  0.4412
 3740SOL     OW22855   4.159   2.152  13.223  0.1966  0.4775 -0.5811
 3740SOL    HW122856   4.235   2.204  13.196 -0.8522  2.8288  0.9652
 3740SOL    HW222857   4.142   2.178  13.314  1.6974  1.2380 -0.5139
 3741SOL     OW22858   1.869   2.901  12.868  0.7078 -0.4658 -0.0129
 3741SOL    HW122859   1.927   2.936  12.936 -0.5729  2.4879 -0.4361
 3741SOL    HW222860   1.886   2.969  12.802  0.8692 -0.2944  0.2007
 3742SOL     OW22861   2.080   0.784  10.941 -0.5311 -0.3949 -0.2968
 3742SOL    HW122862   2.134   0.813  10.867 -2.4705  2.8705 -0.4565
 3742SOL    HW222863   2.084   0.863  10.996 -1.2570  0.2176 -1.1070
 3743SOL     OW22864   0.023   0.227  13.570 -0.2668  0.4373 -0.1632
 3743SOL    HW122865   0.072   0.209  13.490 -1.5563 -1.7456 -0.4592
 3743SOL    HW222866   4.708   0.147  13.582 -1.5414  1.2412 -0.2980
 3744SOL     OW22867   0.594   0.368   8.405  0.1377  0.4650 -0.3897
 3744SOL    HW122868   0.627   0.282   8.430 -1.8442 -0.5167 -1.1560
 3744SOL    HW222869   0.513   0.367   8.456 -0.8104 -0.6037 -1.8880
 3745SOL     OW22870   1.098   2.834   5.135  0.3851  0.4253  0.5968
 3745SOL    HW122871   1.144   2.914   5.110  0.3404  1.1047  2.6623
 3745SOL    HW222872   1.113   2.774   5.062  0.8898  0.1848  0.8980
 3746SOL     OW22873   2.746   2.163   0.807 -0.1434 -0.1810 -0.7310
 3746SOL    HW122874   2.730   2.074   0.838  2.6404 -0.3071  0.3018
 3746SOL    HW222875   2.666   2.188   0.760 -0.5833 -1.6218 -0.7507
 3747SOL     OW22876   3.462   2.374   3.975  0.4979  0.1063  0.9297
 3747SOL    HW122877   3.514   2.354   3.897  0.5530 -1.4506  1.3701
 3747SOL    HW222878   3.435   2.284   3.993 -0.3563 -0.1075 -1.4477
 3748SOL     OW22879   3.624   4.632  10.775 -0.6990  0.3302 -0.5623
 3748SOL    HW122880   3.546   4.664  10.820  0.0042  1.1764  0.0460
 3748SOL    HW222881   3.686   4.690  10.820 -1.0359  0.8511 -0.7700
 3749SOL     OW22882   3.290   3.196  13.932 -0.6664  0.3583  0.0606
 3749SOL    HW122883   3.339   3.114  13.934 -2.0394 -0.4354  1.9224
 3749SOL    HW222884   3.285   3.217  13.839  1.5162 -0.3796 -0.2242
 3750SOL     OW22885   1.175   0.610   4.727 -0.1039 -0.5213 -0.0139
 3750SOL    HW122886   1.154   0.603   4.634  0.8688  3.9007 -0.5321
 3750SOL    HW222887   1.264   0.575   4.717  0.2167  0.0421  0.8559
 3751SOL     OW22888   4.012   3.197  12.029  0.0636 -0.2555  0.2352
 3751SOL    HW122889   3.946   3.134  12.056  1.9396 -2.1642  0.3157
 3751SOL    HW222890   4.076   3.189  12.099  0.3238 -1.4649 -0.1470
 3752SOL     OW22891   2.989   4.383  16.813 -0.4864  0.0943 -0.0674
 3752SOL    HW122892   3.013   4.424  16.730  1.8831 -0.1288  0.5015
 3752SOL    HW222893   3.063   4.409  16.867 -0.0919 -1.1360 -0.0047
 3753SOL     OW22894   2.982   0.223  17.388  0.1478 -0.1901 -0.4682
 3753SOL    HW122895   2.912   0.176  17.343 -1.0507  1.3332 -0.1662
 3753SOL    HW222896   3.033   0.151  17.426  0.1449  0.5259  0.8829
 3754SOL     OW22897   1.617   3.195   6.096  0.0118 -0.2181 -0.3254
 3754SOL    HW122898   1.536   3.246   6.086  1.3248  1.6104 -1.7514
 3754SOL    HW222899   1.682   3.260   6.068  0.0408  0.2977  0.8956
 3755SOL     OW22900   4.177   2.842  17.616  0.2005 -0.4030 -0.0572
 3755SOL    HW122901   4.095   2.815  17.575  0.8205 -2.6679  0.1900
 3755SOL    HW222902   4.156   2.896  17.693  0.8901  0.0204 -0.1725
 3756SOL     OW22903   1.038   1.268   3.096  0.0377  0.3523  0.3840
 3756SOL    HW122904   1.119   1.231   3.060  0.2950  0.6485  0.6655
 3756SOL    HW222905   0.975   1.209   3.055  2.1859 -0.8955 -1.1113
 3757SOL     OW22906   0.172   1.948  10.658 -0.3596  0.5078 -0.3526
 3757SOL    HW122907   0.173   2.043  10.646  1.9206  0.6634  1.1572
 3757SOL    HW222908   0.267   1.946  10.669 -0.2688 -0.2622 -1.2829
 3758SOL     OW22909   3.091   0.854   5.269 -0.4928  0.0610  0.7840
 3758SOL    HW122910   3.099   0.761   5.249  3.3010  0.4253  0.7411
 3758SOL    HW222911   3.017   0.847   5.329  0.4501  1.3291  2.0947
 3759SOL     OW22912   0.359   1.626  12.584 -0.2917  0.4417  0.4216
 3759SOL    HW122913   0.283   1.620  12.526  0.8433  3.7983 -1.3924
 3759SOL    HW222914   0.320   1.659  12.665  1.6226  0.1322  1.4452
 3760SOL     OW22915   2.051   4.485   5.930  0.8068 -0.6714 -0.3451
 3760SOL    HW122916   1.974   4.465   5.984  0.3326  2.0944  0.0325
 3760SOL    HW222917   2.020   4.493   5.840 -2.3793 -0.2286  0.7959
 3761SOL     OW22918   2.645   3.942   3.114 -0.0895  0.0451  0.0717
 3761SOL    HW122919   2.605   3.921   3.199  0.7221  1.5461  0.8384
 3761SOL    HW222920   2.605   4.023   3.081 -0.9026 -0.1099  0.6692
 3762SOL     OW22921   0.379   1.728  14.197  0.1755 -0.6543 -0.0312
 3762SOL    HW122922   0.337   1.671  14.262 -0.2296 -1.7293 -1.2442
 3762SOL    HW222923   0.308   1.748  14.137  2.0991  0.1298 -2.0553
 3763SOL     OW22924   1.731   3.319   2.567  0.2492  0.1531  0.5239
 3763SOL    HW122925   1.683   3.285   2.492 -1.1461  0.5287  1.2474
 3763SOL    HW222926   1.677   3.384   2.611  0.8221  0.3697  0.9145
 3764SOL     OW22927   0.367   1.206   9.473  0.5544 -0.0578  0.8307
 3764SOL    HW122928   0.339   1.131   9.525  0.9162  0.0442  1.1723
 3764SOL    HW222929   0.281   1.247   9.463  1.1058  0.5802 -1.5257
 3765SOL     OW22930   3.837   0.964   4.808 -0.6399  0.1836  0.3080
 3765SOL    HW122931   3.750   0.998   4.789 -0.6330  0.1095  0.1495
 3765SOL    HW222932   3.843   1.020   4.886 -1.0274 -2.8728  2.5638
 3766SOL     OW22933   2.984   2.816   6.677  0.3314  0.6287  0.3625
 3766SOL    HW122934   2.926   2.885   6.710 -2.6248 -3.1739  3.0331
 3766SOL    HW222935   3.052   2.871   6.639  1.4083 -0.4981  0.6606
 3767SOL     OW22936   2.429   4.108   4.321 -0.0409 -0.0884  0.1146
 3767SOL    HW122937   2.467   4.194   4.302 -1.9583  1.0030  1.1681
 3767SOL    HW222938   2.362   4.119   4.389 -0.1111 -0.4669  0.1077
 3768SOL     OW22939   3.194   2.119  14.384 -0.2383  0.6471  0.0388
 3768SOL    HW122940   3.253   2.123  14.459  0.0023  0.0254 -0.1153
 3768SOL    HW222941   3.237   2.053  14.331 -0.9780  0.5575 -0.4443
 3769SOL     OW22942   4.680   1.090   3.602  0.0948  0.3358  0.1075
 3769SOL    HW122943   4.681   1.184   3.584 -1.4018  0.2394 -0.4490
 3769SOL    HW222944   0.036   1.077   3.624  0.3144  0.9525 -0.4522
 3770SOL     OW22945   1.735   3.369   2.935 -0.3379  0.7792  0.2013
 3770SOL    HW122946   1.656   3.355   2.987  0.4279 -2.6726  0.4084
 3770SOL    HW222947   1.758   3.279   2.912 -0.8638  0.5704  0.4999
 3771SOL     OW22948   0.122   0.218   6.824  0.0088  0.0711  0.4449
 3771SOL    HW122949   0.065   0.151   6.862 -2.1920  2.6312  1.6521
 3771SOL    HW222950   0.090   0.289   6.879  1.3277  0.0369  1.2714
 3772SOL     OW22951   4.223   1.749   2.687  0.4524  0.0739 -0.0177
 3772SOL    HW122952   4.256   1.819   2.744  0.8887 -1.9573  2.2458
 3772SOL    HW222953   4.226   1.668   2.738  0.6467  0.1321  0.0646
 3773SOL     OW22954   0.503   1.587   2.986  0.2994 -0.0422  0.2532
 3773SOL    HW122955   0.447   1.611   2.912  0.1470  1.3385  0.8155
 3773SOL    HW222956   0.444   1.558   3.055  1.0211 -0.1177  0.8361
 3774SOL     OW22957   2.466   0.365   9.574  0.0732  0.5530 -0.2556
 3774SOL    HW122958   2.484   0.416   9.654  2.0391  1.2974 -1.1613
 3774SOL    HW222959   2.380   0.394   9.543  0.0910  0.6393 -0.2264
 3775SOL     OW22960   1.843   4.559   6.103  0.2145  0.1354  0.4313
 3775SOL    HW122961   1.755   4.575   6.067  0.5431 -1.1780 -0.9407
 3775SOL    HW222962   1.836   4.536   6.196 -0.8503  1.8554  0.7922
 3776SOL     OW22963   2.201   1.354   7.663  0.2604  0.4484 -0.6484
 3776SOL    HW122964   2.147   1.368   7.742 -1.0337  1.4300 -1.7131
 3776SOL    HW222965   2.137   1.311   7.606  0.2752  1.1642 -1.2007
 3777SOL     OW22966   2.520   2.346   5.362  0.3246  0.4090 -0.0078
 3777SOL    HW122967   2.556   2.294   5.289  0.6504  0.4460  0.1243
 3777SOL    HW222968   2.448   2.290   5.390  0.2736  0.9651  0.9593
 3778SOL     OW22969   0.993   3.284   3.082  0.7230 -0.0604 -0.7807
 3778SOL    HW122970   1.067   3.341   3.061  1.6216 -1.2041 -0.7653
 3778SOL    HW222971   1.021   3.198   3.051  0.3800 -0.0583 -1.1022
 3779SOL     OW22972   2.726   2.778   9.980  0.2674 -0.4436 -0.3179
 3779SOL    HW122973   2.632   2.780   9.999  0.4231 -0.0336  0.4234
 3779SOL    HW222974   2.755   2.869   9.974  3.2475 -1.4510 -1.3970
 3780SOL     OW22975   0.047   1.105   2.609 -0.1158  0.1894  0.1816
 3780SOL    HW122976   0.121   1.107   2.670 -0.4378 -1.6358  0.6188
 3780SOL    HW222977   0.038   1.013   2.584  0.4205  0.6998 -1.8428
 3781SOL     OW22978   4.382   4.498   5.869 -0.2167 -0.1695 -0.1585
 3781SOL    HW122979   4.423   4.574   5.827 -2.9729  2.2524  1.5157
 3781SOL    HW222980   4.439   4.424   5.847 -0.4908  0.0128 -1.4784
 3782SOL     OW22981   0.560   2.449   3.477  0.0322  0.2717 -0.5212
 3782SOL    HW122982   0.493   2.458   3.408 -0.1155  0.5543 -0.3384
 3782SOL    HW222983   0.632   2.413   3.425  1.8071  0.0753  2.1310
 3783SOL     OW22984   0.620   3.486   7.212 -0.0372 -0.1543  0.0878
 3783SOL    HW122985   0.573   3.403   7.220 -0.0877 -0.3009 -1.7877
 3783SOL    HW222986   0.592   3.521   7.297 -1.7938 -0.5972 -0.3053
 3784SOL     OW22987   4.573   4.472   4.698  0.1304 -0.6404 -0.3785
 3784SOL    HW122988   4.625   4.525   4.758 -0.6270  0.2343 -0.4867
 3784SOL    HW222989   4.628   4.395   4.685  1.4435 -0.4263  3.8723
 3785SOL     OW22990   3.705   4.301  17.317 -0.1367  0.0807 -0.1187
 3785SOL    HW122991   3.696   4.315  17.223 -1.3306  0.1481  0.0123
 3785SOL    HW222992   3.704   4.205  17.323 -0.0066  0.1888  1.7056
 3786SOL     OW22993   0.388   4.074  16.113 -0.1430 -0.1947  0.3056
 3786SOL    HW122994   0.351   4.064  16.025 -0.9712  1.9122  0.4309
 3786SOL    HW222995   0.470   4.108  16.078  0.4516 -1.2981  0.6436
 3787SOL     OW22996   0.201   1.805   0.199  0.2971 -0.1463 -0.2552
 3787SOL    HW122997   0.162   1.811   0.112  1.5284  1.6644 -0.6948
 3787SOL    HW222998   0.137   1.751   0.245  0.9103  0.1592  0.9688
 3788SOL     OW22999   1.236   1.680   0.353 -0.0088  0.9329 -0.1222
 3788SOL    HW123000   1.260   1.739   0.423 -2.9864  1.1920  0.6905
 3788SOL    HW223001   1.288   1.709   0.278 -0.9257  0.3619 -0.9914
 3789SOL     OW23002   0.084   0.551   2.558  0.5224  0.1377  0.6519
 3789SOL    HW123003   0.060   0.524   2.470 -2.1597  0.0240  1.4190
 3789SOL    HW223004   0.006   0.604   2.579 -0.1408 -0.5167 -0.1970
 3790SOL     OW23005   2.138   4.556   8.115 -0.1605 -0.0197  0.0277
 3790SOL    HW123006   2.169   4.467   8.128  0.0289 -0.0523 -0.6726
 3790SOL    HW223007   2.167   4.566   8.024 -1.8256  0.7194 -0.4134
 3791SOL     OW23008   1.676   0.125   7.343 -0.4967 -0.6483 -0.2152
 3791SOL    HW123009   1.591   0.168   7.351 -0.3923 -0.3337 -0.7981
 3791SOL    HW223010   1.724   0.195   7.298 -0.2159  0.0411  1.1367
 3792SOL     OW23011   3.588   2.865   5.096 -0.0945  0.0346 -0.0753
 3792SOL    HW123012   3.601   2.876   5.190  1.0152  0.2815 -0.2495
 3792SOL    HW223013   3.667   2.814   5.077 -0.7596 -0.3120 -1.9643
 3793SOL     OW23014   3.975   4.448  11.526  0.1416  0.8522  0.7937
 3793SOL    HW123015   3.967   4.471  11.619  0.7311 -0.1100  1.0763
 3793SOL    HW223016   4.065   4.474  11.506  0.3841 -0.1132  0.6669
 3794SOL     OW23017   3.262   3.923  14.040  0.2348  0.3818  0.0105
 3794SOL    HW123018   3.281   3.915  14.133 -0.1752 -0.7016 -0.0003
 3794SOL    HW223019   3.328   3.864  14.004 -0.0492  0.9305 -1.4003
 3795SOL     OW23020   4.508   2.195  12.174 -0.4951  0.0589  0.1365
 3795SOL    HW123021   4.524   2.240  12.091 -1.5693  0.2374  0.0327
 3795SOL    HW223022   4.457   2.260  12.222 -0.8004  0.4506 -0.7242
 3796SOL     OW23023   0.840   3.162   2.304 -0.2254  0.3664  0.2377
 3796SOL    HW123024   0.759   3.200   2.338  1.3709  2.1871  1.9286
 3796SOL    HW223025   0.897   3.238   2.309  0.4255 -0.2735  2.1799
 3797SOL     OW23026   1.239   4.157   9.193  0.2770  0.2774 -0.1275
 3797SOL    HW123027   1.228   4.120   9.281 -1.8215 -0.1604 -0.5680
 3797SOL    HW223028   1.173   4.114   9.140  1.6588  1.1553 -2.5554
 3798SOL     OW23029   2.822   0.077   9.649 -0.4991  0.0327  1.2256
 3798SOL    HW123030   2.914   0.065   9.669 -0.1270  1.0335  0.1493
 3798SOL    HW223031   2.784   0.029   9.722  0.7607 -1.6739  0.7432
 3799SOL     OW23032   1.382   1.025   5.673 -0.1503  0.6140  0.3256
 3799SOL    HW123033   1.335   0.977   5.605  2.0919  1.6404 -1.9701
 3799SOL    HW223034   1.418   0.955   5.728 -0.9691 -0.8323 -0.9903
 3800SOL     OW23035   3.399   2.279   7.036 -0.0993 -0.2906  0.3712
 3800SOL    HW123036   3.441   2.362   7.017  0.8599 -0.5888  1.1692
 3800SOL    HW223037   3.363   2.254   6.951  0.2979  3.1319 -0.8035
 3801SOL     OW23038   0.135   4.140   2.061 -0.1406 -0.0294 -0.0464
 3801SOL    HW123039   0.149   4.232   2.081  0.1629  0.1034 -0.8552
 3801SOL    HW223040   0.055   4.147   2.008  0.1905  2.6699 -0.1757
 3802SOL     OW23041   3.100   1.464   3.446  0.3541  0.2879 -0.8217
 3802SOL    HW123042   3.116   1.469   3.352 -1.2878 -1.1246 -1.1751
 3802SOL    HW223043   3.191   1.474   3.475 -0.2859 -1.4248  1.7521
 3803SOL     OW23044   1.299   0.847   6.832 -0.4246  0.2126  0.2356
 3803SOL    HW123045   1.371   0.899   6.797  1.0162 -1.0431  1.3404
 3803SOL    HW223046   1.267   0.900   6.906 -1.8714 -0.4688  0.0990
 3804SOL     OW23047   4.002   1.423  11.105 -0.3100  0.3006  0.1274
 3804SOL    HW123048   4.041   1.383  11.183 -0.8186 -0.5603 -0.0698
 3804SOL    HW223049   4.077   1.473  11.075  0.5767 -1.5049 -0.6335
 3805SOL     OW23050   1.976   1.570  11.743  0.2254 -0.9945  0.0807
 3805SOL    HW123051   2.070   1.586  11.733  0.2876 -2.1013 -1.0570
 3805SOL    HW223052   1.976   1.475  11.739 -1.9956 -1.0518  1.5206
 3806SOL     OW23053   1.528   0.440  10.268 -0.3179  0.2706  0.0904
 3806SOL    HW123054   1.545   0.508  10.333  1.1763  0.9917 -1.0407
 3806SOL    HW223055   1.434   0.440  10.251 -0.1648 -0.6110 -0.7638
 3807SOL     OW23056   0.628   1.408  10.740 -0.1096 -0.2884  0.7238
 3807SOL    HW123057   0.542   1.376  10.713 -0.4123 -0.4768  1.9430
 3807SOL    HW223058   0.683   1.344  10.695  0.7655 -0.4175  2.0046
 3808SOL     OW23059   3.266   4.320   1.960 -0.1232  0.0222 -0.0473
 3808SOL    HW123060   3.184   4.276   1.981 -0.0813 -0.3120 -0.5816
 3808SOL    HW223061   3.245   4.346   1.870  0.7453 -2.0280 -0.8565
 3809SOL     OW23062   3.697   4.448   8.896  0.2633  0.7247 -0.2713
 3809SOL    HW123063   3.719   4.509   8.966  2.0129 -0.3774  0.1483
 3809SOL    HW223064   3.607   4.434   8.925 -0.2801  2.5164 -1.0817
 3810SOL     OW23065   1.877   0.866   4.572 -0.3042  0.0010  0.5082
 3810SOL    HW123066   1.915   0.942   4.617 -1.4890  0.0830  1.3800
 3810SOL    HW223067   1.887   0.888   4.480  2.5318  2.0109  1.2832
 3811SOL     OW23068   2.167   0.346   8.984  0.1972  0.0520 -0.7328
 3811SOL    HW123069   2.116   0.271   9.013  1.7954 -0.9853 -0.6421
 3811SOL    HW223070   2.247   0.299   8.963 -0.1857 -0.2531 -1.5095
 3812SOL     OW23071   3.826   1.590   3.098  0.3362 -0.3626  0.2370
 3812SOL    HW123072   3.827   1.498   3.124  1.5079 -0.2582  0.5748
 3812SOL    HW223073   3.919   1.606   3.112  0.3261 -0.0057 -0.1236
 3813SOL     OW23074   0.536   1.540   2.466 -0.0962 -0.0713 -0.1228
 3813SOL    HW123075   0.536   1.445   2.468  0.9638 -0.0620  0.3590
 3813SOL    HW223076   0.457   1.571   2.421 -1.6062 -1.0223  1.8605
 3814SOL     OW23077   2.633   2.521   8.501  0.3296  0.6774  0.7891
 3814SOL    HW123078   2.663   2.586   8.563 -0.1320  0.5660  1.1282
 3814SOL    HW223079   2.559   2.569   8.463 -0.3117 -1.3209 -0.5181
 3815SOL     OW23080   0.732   3.072   2.663  0.4707 -0.2459  0.7029
 3815SOL    HW123081   0.717   2.978   2.655  0.1645 -0.1023 -0.4187
 3815SOL    HW223082   0.734   3.094   2.570  2.0697  1.2072  1.0770
 3816SOL     OW23083   1.133   3.152   8.687  0.4053  0.4189 -0.2921
 3816SOL    HW123084   1.060   3.202   8.724  0.9218  1.6895 -0.9763
 3816SOL    HW223085   1.101   3.065   8.662  0.2392 -0.4929  3.1496
 3817SOL     OW23086   4.016   1.129  14.959 -0.1753  0.8264 -0.3706
 3817SOL    HW123087   4.018   1.083  15.042  2.0907  2.7921  0.6752
 3817SOL    HW223088   4.006   1.064  14.890 -0.8420 -1.6026  1.9980
 3818SOL     OW23089   1.134   2.093   8.080  0.2939 -0.2650 -0.0442
 3818SOL    HW123090   1.111   2.005   8.052 -0.2784 -0.7644  1.9679
 3818SOL    HW223091   1.049   2.119   8.116  0.4473 -1.1394  0.9509
 3819SOL     OW23092   3.985   0.912   4.357  0.5389 -0.1036  0.0293
 3819SOL    HW123093   3.992   0.873   4.444  2.8139  1.4399  0.5053
 3819SOL    HW223094   4.002   0.835   4.302  0.9289 -1.3628  1.9036
 3820SOL     OW23095   1.239   0.963   1.504 -0.6306  0.1392  0.2910
 3820SOL    HW123096   1.156   0.981   1.547 -0.3142 -0.0959  0.9994
 3820SOL    HW223097   1.276   1.051   1.499  2.7841 -1.4353 -2.5266
 3821SOL     OW23098   3.131   3.784   8.935 -0.5735  0.1159 -0.7268
 3821SOL    HW123099   3.153   3.817   9.022 -1.5282 -1.2615  0.0242
 3821SOL    HW223100   3.107   3.861   8.884  1.1325  0.2517 -1.3427
 3822SOL     OW23101   4.616   3.124   1.906  0.1427  0.2041 -0.4079
 3822SOL    HW123102   4.589   3.216   1.898  3.4815  1.3895  1.8450
 3822SOL    HW223103   4.664   3.130   1.989  0.1647 -0.2220 -0.3913
 3823SOL     OW23104   0.204   2.910  11.689  0.4205 -0.6421 -0.3719
 3823SOL    HW123105   0.123   2.960  11.702  0.3255 -1.3038  1.6352
 3823SOL    HW223106   0.166   2.831  11.652  0.9837 -1.5026  0.9078
 3824SOL     OW23107   4.302   1.904   7.474  0.1303 -0.3764  0.8857
 3824SOL    HW123108   4.224   1.933   7.426  0.2514  0.1508  1.0078
 3824SOL    HW223109   4.369   1.942   7.417 -1.2909  0.3810 -0.2714
 3825SOL     OW23110   4.066   3.901   3.233  0.1754 -0.0285 -0.6642
 3825SOL    HW123111   4.161   3.905   3.237  0.0358 -0.0207  2.6651
 3825SOL    HW223112   4.051   3.838   3.304 -0.4117 -1.3664 -1.9901
 3826SOL     OW23113   0.140   1.301   4.855 -0.2835 -0.5204 -0.5200
 3826SOL    HW123114   0.135   1.384   4.808  0.5864 -1.4122 -2.1684
 3826SOL    HW223115   0.181   1.243   4.791 -0.4902  0.7762 -1.8492
 3827SOL     OW23116   3.038   2.590   6.898  0.1241 -0.4221 -0.4681
 3827SOL    HW123117   2.981   2.527   6.941  0.0426 -0.0562 -0.0385
 3827SOL    HW223118   2.975   2.636   6.841  1.3409  0.8618 -0.7857
 3828SOL     OW23119   1.694   3.493   0.696  0.0960  0.0145  0.1060
 3828SOL    HW123120   1.776   3.470   0.654  0.2257  2.8178 -1.1723
 3828SOL    HW223121   1.662   3.574   0.656  1.5109  1.0614  1.0821
 3829SOL     OW23122   4.489   0.159   6.685 -0.8270  0.1350 -0.1891
 3829SOL    HW123123   4.432   0.123   6.618  2.2956  0.0635 -2.8268
 3829SOL    HW223124   4.560   0.202   6.637 -1.3391  0.6132 -0.5191
 3830SOL     OW23125   4.415   0.991   7.175  0.5389  0.4469  0.6663
 3830SOL    HW123126   4.406   1.001   7.270  2.1074 -1.6337  1.0166
 3830SOL    HW223127   4.449   1.073   7.138  0.9665 -0.5291 -1.0871
 3831SOL     OW23128   3.305   1.220   5.787  0.2946 -0.2412 -0.9577
 3831SOL    HW123129   3.398   1.228   5.804 -0.2203  1.0461  1.1344
 3831SOL    HW223130   3.268   1.301   5.821 -1.1983 -1.6757  0.8652
 3832SOL     OW23131   2.337   1.001   3.743 -0.3573 -0.0343  0.3423
 3832SOL    HW123132   2.371   0.911   3.745  0.8388  0.4544  1.9557
 3832SOL    HW223133   2.375   1.029   3.826  0.8668  0.6852 -0.4398
 3833SOL     OW23134   4.145   4.473   8.737 -0.1078  0.5322  0.6211
 3833SOL    HW123135   4.070   4.480   8.678  0.9434 -1.5921 -0.9634
 3833SOL    HW223136   4.157   4.380   8.752 -1.6955  0.7286  3.1691
 3834SOL     OW23137   3.011   0.274  10.693 -0.3312 -1.1367  0.2498
 3834SOL    HW123138   3.096   0.232  10.681 -0.3107 -0.8543 -0.5858
 3834SOL    HW223139   3.020   0.292  10.787 -2.0843  2.1009 -0.1857
 3835SOL     OW23140   3.455   3.560  14.942  0.0069  0.2627 -0.0526
 3835SOL    HW123141   3.518   3.616  14.987 -1.2065  1.6552 -0.0855
 3835SOL    HW223142   3.405   3.613  14.880  0.8289 -0.9656 -1.7745
 3836SOL     OW23143   3.773   0.061   7.468  0.4869  0.1465 -0.6595
 3836SOL    HW123144   3.760   0.021   7.554 -0.9666  0.0190 -0.9363
 3836SOL    HW223145   3.694   0.113   7.451 -0.4514 -0.6038  1.4629
 3837SOL     OW23146   0.566   2.424   7.145 -0.0714 -0.2691 -0.2130
 3837SOL    HW123147   0.646   2.401   7.193 -1.5092 -3.1931  0.7961
 3837SOL    HW223148   0.522   2.473   7.214 -2.4877 -0.3203 -1.6990
 3838SOL     OW23149   4.239   2.696  15.595 -0.0652  0.6033  0.1103
 3838SOL    HW123150   4.143   2.689  15.588 -0.0056 -2.8212  2.6035
 3838SOL    HW223151   4.269   2.712  15.506  1.6556 -1.2788  0.3438
 3839SOL     OW23152   1.902   4.393   3.790  0.0400  0.3027 -0.1929
 3839SOL    HW123153   1.856   4.379   3.872 -0.1893 -1.0659 -0.5506
 3839SOL    HW223154   1.920   4.484   3.814 -2.3681  0.4705  0.9252
 3840SOL     OW23155   2.200   1.024   7.207 -0.0718 -0.4191  0.3139
 3840SOL    HW123156   2.142   1.009   7.281  0.5600 -0.1733  0.8550
 3840SOL    HW223157   2.155   1.093   7.157 -1.8506 -2.3775 -0.7957
 3841SOL     OW23158   0.639   2.268   0.793  0.3956  0.4832 -0.4578
 3841SOL    HW123159   0.597   2.246   0.877  0.2357  1.0918 -0.3740
 3841SOL    HW223160   0.568   2.316   0.751  0.8255  0.6389 -1.0030
 3842SOL     OW23161   1.722   0.888   1.466  0.0391 -0.0976  0.0271
 3842SOL    HW123162   1.792   0.908   1.404 -1.5233  1.4788 -1.2743
 3842SOL    HW223163   1.754   0.811   1.512 -0.8360  1.9283  4.0183
 3843SOL     OW23164   3.089   0.037  10.545  0.8336  0.5477  0.4901
 3843SOL    HW123165   3.181   0.029  10.521  0.5857  0.3443 -0.3990
 3843SOL    HW223166   3.070   4.682  10.569 -0.2391  0.2966 -1.2725
 3844SOL     OW23167   1.023   1.991   0.649  0.0322  0.2875 -0.5426
 3844SOL    HW123168   1.059   1.913   0.691 -2.7969 -1.3768 -1.2294
 3844SOL    HW223169   1.096   2.046   0.680 -0.1850  0.3418 -0.1221
 3845SOL     OW23170   2.342   0.735  11.151 -0.0508  0.1797  0.1221
 3845SOL    HW123171   2.344   0.817  11.201  1.0575 -0.3895  0.9979
 3845SOL    HW223172   2.367   0.761  11.062 -1.3956 -0.7672 -0.5439
 3846SOL     OW23173   0.786   0.160  16.569 -0.1654 -0.0357  0.1308
 3846SOL    HW123174   0.862   0.215  16.590 -0.7913  0.6018  0.7026
 3846SOL    HW223175   0.805   0.117  16.485  0.4310 -1.7412  1.1441
 3847SOL     OW23176   4.161   0.007   7.421  0.4236 -0.0621  0.2583
 3847SOL    HW123177   4.128   4.722   7.334 -2.6696 -2.2202  1.9761
 3847SOL    HW223178   4.117   0.092   7.430 -0.5140 -0.3041 -1.8978
 3848SOL     OW23179   0.024   3.638   5.232 -0.3815  0.1203 -0.1076
 3848SOL    HW123180   4.668   3.631   5.209 -0.2533 -1.9394  0.0170
 3848SOL    HW223181   0.032   3.570   5.299 -1.6961 -1.9768 -2.1046
 3849SOL     OW23182   1.585   0.827   9.037  0.1554  0.7117 -0.4624
 3849SOL    HW123183   1.604   0.779   8.957 -0.4254 -1.9072  0.9803
 3849SOL    HW223184   1.656   0.891   9.033  0.6340  0.1583 -0.8205
 3850SOL     OW23185   4.590   4.622   6.407  0.3785  0.0386 -0.1030
 3850SOL    HW123186   4.527   4.619   6.335  0.6612  1.2658 -0.4025
 3850SOL    HW223187   4.532   4.651   6.479 -0.2833  1.9139 -1.3946
 3851SOL     OW23188   1.473   1.974   3.389  0.2589  0.1002  0.2104
 3851SOL    HW123189   1.502   1.885   3.405 -0.0079 -0.0112  0.0734
 3851SOL    HW223190   1.431   1.965   3.303 -1.5791 -1.9846  1.3515
 3852SOL     OW23191   4.234   4.565   1.099  0.5181 -0.3156  0.4328
 3852SOL    HW123192   4.238   4.640   1.157  0.4018 -1.2389  1.6309
 3852SOL    HW223193   4.150   4.578   1.054 -0.0310  3.4878  2.5521
 3853SOL     OW23194   3.226   1.355  10.117 -0.6762  0.2201 -0.0292
 3853SOL    HW123195   3.314   1.392  10.102  0.3110 -1.7971  0.7901
 3853SOL    HW223196   3.219   1.266  10.085  1.9920  0.0883 -0.2760
 3854SOL     OW23197   1.659   4.186   6.078  0.4677  0.7594 -0.2313
 3854SOL    HW123198   1.628   4.098   6.056 -0.2192  0.5935  1.3838
 3854SOL    HW223199   1.657   4.231   5.993 -1.9329  0.7085 -0.1757
 3855SOL     OW23200   2.166   1.690   3.737 -0.1183  0.5211 -0.1630
 3855SOL    HW123201   2.235   1.637   3.698 -1.3592 -0.9002 -0.4387
 3855SOL    HW223202   2.148   1.758   3.671 -1.9948 -0.2590 -0.4510
 3856SOL     OW23203   4.047   0.071   4.484  0.0248 -0.3038 -0.5429
 3856SOL    HW123204   4.076   4.727   4.526 -0.2111 -0.0278  0.1645
 3856SOL    HW223205   4.130   0.108   4.454 -1.3303  2.6958 -0.6000
 3857SOL     OW23206   1.655   1.255   0.050 -0.0082 -0.1293 -0.2323
 3857SOL    HW123207   1.682   1.344   0.074  0.2507  0.1139 -1.4538
 3857SOL    HW223208   1.672   1.252  17.700 -1.7258  2.6063 -0.6214
 3858SOL     OW23209   2.616   2.703   5.883  0.0794  0.0014  0.3035
 3858SOL    HW123210   2.653   2.624   5.843  1.8298  0.1874  1.5611
 3858SOL    HW223211   2.570   2.664   5.957  0.8518  0.7182  1.1571
 3859SOL     OW23212   4.062   3.260   6.642  0.3609  0.2633  0.4524
 3859SOL    HW123213   4.142   3.211   6.665 -0.2857 -0.2190  1.7096
 3859SOL    HW223214   4.016   3.198   6.585  0.2948  0.0164  0.7723
 3860SOL     OW23215   3.529   4.129  13.959  0.3882 -0.9556  0.6120
 3860SOL    HW123216   3.610   4.096  13.998  0.1678 -0.2391  1.6838
 3860SOL    HW223217   3.469   4.059  13.986 -0.2417 -1.2316 -1.4640
 3861SOL     OW23218   0.965   1.170   6.707  0.1950 -0.1927  0.3772
 3861SOL    HW123219   0.946   1.204   6.620 -1.6406 -1.0837  0.4357
 3861SOL    HW223220   1.015   1.091   6.686  0.4063 -1.0013  3.8722
 3862SOL     OW23221   3.259   1.911   7.043 -0.4315  0.0649  0.8318
 3862SOL    HW123222   3.242   1.831   7.092  1.9854  0.2162  1.9130
 3862SOL    HW223223   3.170   1.944   7.047 -0.6118 -0.1719 -1.0297
 3863SOL     OW23224   3.613   4.714   3.328 -0.0215 -0.4187 -0.5959
 3863SOL    HW123225   3.682   4.673   3.380  0.6385  1.8229  0.2979
 3863SOL    HW223226   3.660   0.045   3.281 -1.7657  2.5827  1.9600
 3864SOL     OW23227   3.581   0.701   3.878 -0.0540  0.2262  0.1647
 3864SOL    HW123228   3.549   0.778   3.830 -1.0632 -0.4364 -0.2319
 3864SOL    HW223229   3.622   0.735   3.958 -0.4351  1.9455 -0.3553
 3865SOL     OW23230   1.102   3.674  12.484 -0.1990  0.2220  0.0607
 3865SOL    HW123231   1.039   3.682  12.413  0.6813  0.0055 -0.7475
 3865SOL    HW223232   1.098   3.580  12.502  1.6868  0.6337  2.6380
 3866SOL     OW23233   3.216   3.714   6.884 -0.0776  0.3168 -0.3324
 3866SOL    HW123234   3.200   3.630   6.840  0.8741 -0.8276  1.5457
 3866SOL    HW223235   3.152   3.708   6.955 -0.7622  2.4110 -0.7562
 3867SOL     OW23236   3.454   1.939   5.901 -0.2086  0.0871  0.3863
 3867SOL    HW123237   3.390   1.891   5.953 -0.1626 -0.4939 -0.0914
 3867SOL    HW223238   3.417   1.914   5.816 -1.9418 -0.0445  1.1797
 3868SOL     OW23239   3.292   3.803   8.563 -0.2056 -0.6435  0.0372
 3868SOL    HW123240   3.223   3.861   8.596  1.4036  0.3776  1.6180
 3868SOL    HW223241   3.372   3.835   8.604  1.4216 -1.1725 -2.7121
 3869SOL     OW23242   2.981   0.186  16.584 -0.1090 -0.3528 -0.5429
 3869SOL    HW123243   2.985   0.282  16.582  2.0735 -0.4403 -0.9510
 3869SOL    HW223244   3.005   0.155  16.497 -1.3241  0.7991 -1.2747
 3870SOL     OW23245   3.791   1.371   1.491  0.2687  0.0172 -0.6714
 3870SOL    HW123246   3.714   1.320   1.468  0.2022  0.2202 -0.9015
 3870SOL    HW223247   3.837   1.310   1.548  1.7164 -1.8855 -3.8715
 3871SOL     OW23248   1.788   1.218   6.484 -0.5845 -0.3738  0.3825
 3871SOL    HW123249   1.877   1.241   6.457 -0.9662  0.0899 -0.4613
 3871SOL    HW223250   1.799   1.271   6.564 -0.6960 -0.7642  0.6566
 3872SOL     OW23251   3.192   3.580   7.235  0.0576  0.0469  0.2435
 3872SOL    HW123252   3.121   3.631   7.198  0.5163 -0.3546 -1.1800
 3872SOL    HW223253   3.154   3.492   7.228  1.9680 -0.8007  0.4610
 3873SOL     OW23254   2.440   0.751   3.738  0.1346 -0.0845  0.2439
 3873SOL    HW123255   2.472   0.668   3.702  0.9973 -0.0333  0.8876
 3873SOL    HW223256   2.463   0.737   3.830 -1.0852 -1.7665  0.2938
 3874SOL     OW23257   3.893   4.663   5.864  0.2632 -0.3398 -0.3394
 3874SOL    HW123258   3.932   4.733   5.917  0.5022  1.4272 -2.8631
 3874SOL    HW223259   3.979   4.624   5.846  0.1147 -1.1020  0.5998
 3875SOL     OW23260   1.219   1.904   3.439  0.1556 -0.2450 -0.0624
 3875SOL    HW123261   1.255   1.873   3.356 -2.5797 -0.2684 -1.2439
 3875SOL    HW223262   1.297   1.895   3.493  1.1258  1.2910 -1.2058
 3876SOL     OW23263   4.704   3.036  11.614 -0.2169 -0.1572  0.1213
 3876SOL    HW123264   4.662   3.064  11.695 -1.1961  1.6962 -1.0112
 3876SOL    HW223265   4.691   3.108  11.552  0.5488 -1.1051 -1.1454
 3877SOL     OW23266   4.233   0.119   4.283  0.2458  0.0333 -0.3599
 3877SOL    HW123267   4.161   0.056   4.289  1.2706 -1.0032  0.9952
 3877SOL    HW223268   4.273   0.076   4.207  0.8990 -0.1908  0.1212
 3878SOL     OW23269   4.709   1.798   4.553 -0.1156  0.2677 -0.2286
 3878SOL    HW123270   4.664   1.869   4.599  1.0242  0.4858  0.5457
 3878SOL    HW223271   0.060   1.838   4.553  0.8753 -1.8790 -1.4684
 3879SOL     OW23272   0.862   3.583   7.589  0.5144  0.1639 -0.2253
 3879SOL    HW123273   0.827   3.562   7.676 -1.5997 -0.1458 -1.1308
 3879SOL    HW223274   0.862   3.679   7.588  1.5330  0.1866  2.9398
 3880SOL     OW23275   4.203   2.973   5.917  0.3220 -0.2909 -0.0159
 3880SOL    HW123276   4.291   2.972   5.880  0.0724  0.4512 -0.6423
 3880SOL    HW223277   4.167   3.042   5.861  0.3095  0.9061  1.4569
 3881SOL     OW23278   3.952   2.537  10.570 -0.1802 -0.1558  0.4052
 3881SOL    HW123279   3.887   2.606  10.558 -2.0636 -1.6747  1.7907
 3881SOL    HW223280   3.952   2.522  10.665  0.2755  1.5570  0.6679
 3882SOL     OW23281   1.551   2.543   3.617 -0.4944  0.0385 -0.5034
 3882SOL    HW123282   1.499   2.594   3.554 -2.1015 -2.7129 -1.4429
 3882SOL    HW223283   1.596   2.479   3.562  0.6051  0.1473  0.2784
 3883SOL     OW23284   0.090   3.698  14.032 -0.4648  0.2876  0.7074
 3883SOL    HW123285   0.116   3.776  13.983 -0.4560 -0.6788 -0.8294
 3883SOL    HW223286   0.168   3.672  14.081  0.1199 -0.6577 -0.7181
 3884SOL     OW23287   1.636   4.401   6.254  0.1278  0.3792 -0.0708
 3884SOL    HW123288   1.627   4.363   6.342  0.7663 -1.3724 -0.7744
 3884SOL    HW223289   1.646   4.320   6.206 -0.3305  0.5105 -0.3832
 3885SOL     OW23290   1.103   0.554   4.450  0.2062 -0.2013  0.2227
 3885SOL    HW123291   1.033   0.536   4.387  0.1596  0.8960 -0.0241
 3885SOL    HW223292   1.129   0.462   4.458  0.2692 -0.3326 -1.5192
 3886SOL     OW23293   0.801   2.856   5.097 -0.0675 -0.7207 -0.0772
 3886SOL    HW123294   0.793   2.797   5.171 -1.4195  1.1295  1.2656
 3886SOL    HW223295   0.896   2.867   5.091 -0.0350 -0.7526  0.3710
 3887SOL     OW23296   2.369   2.191  12.252 -0.0977  0.1235 -0.1897
 3887SOL    HW123297   2.371   2.175  12.158 -0.9946 -1.4081  0.0395
 3887SOL    HW223298   2.363   2.104  12.290  3.1211 -0.2660 -0.5647
 3888SOL     OW23299   2.965   1.941   0.585 -0.7097 -0.5924 -0.2708
 3888SOL    HW123300   2.968   1.921   0.678 -0.6333  1.2243  0.1194
 3888SOL    HW223301   2.874   1.967   0.574 -0.9059 -1.7942 -1.3836
 3889SOL     OW23302   3.061   3.751  10.496  0.0542  0.3800 -0.1095
 3889SOL    HW123303   3.134   3.791  10.543  0.9239 -1.7960  0.4109
 3889SOL    HW223304   3.064   3.659  10.523 -0.1054  0.4035 -0.0106
 3890SOL     OW23305   0.541   1.653  10.605 -0.1041 -0.4531  0.2047
 3890SOL    HW123306   0.499   1.728  10.646 -2.4907 -1.7410  0.1019
 3890SOL    HW223307   0.526   1.575  10.659  1.0453 -1.1665 -0.5142
 3891SOL     OW23308   2.685   2.141  11.361  0.0676  0.2012 -0.2422
 3891SOL    HW123309   2.735   2.211  11.319  1.3066 -1.0906 -0.9301
 3891SOL    HW223310   2.634   2.187  11.427 -1.9583 -1.5468 -0.6125
 3892SOL     OW23311   0.930   0.571   4.226  0.1934 -0.0045  0.4950
 3892SOL    HW123312   0.882   0.647   4.192 -1.7867 -0.7867  1.4965
 3892SOL    HW223313   0.878   0.494   4.205  0.9597 -0.6285  0.8871
 3893SOL     OW23314   3.448   1.885  15.535 -0.4198  0.1823 -0.4136
 3893SOL    HW123315   3.423   1.804  15.490  1.5166 -0.9634  0.5503
 3893SOL    HW223316   3.535   1.852  15.557 -0.5054 -0.0028 -0.3511
 3894SOL     OW23317   4.538   2.870   1.198 -0.3973 -0.0248 -0.4669
 3894SOL    HW123318   4.587   2.876   1.116  0.6882 -0.1809  0.1800
 3894SOL    HW223319   4.479   2.796   1.186 -0.4930  0.3651 -2.4479
 3895SOL     OW23320   4.279   1.107  12.766 -0.2317  0.0579  0.4769
 3895SOL    HW123321   4.333   1.034  12.795 -1.6104  0.0387  2.9722
 3895SOL    HW223322   4.348   1.173  12.762  0.1877 -0.5749 -2.5715
 3896SOL     OW23323   4.675   3.843  15.395 -0.8837 -0.4721 -0.9210
 3896SOL    HW123324   0.004   3.884  15.451  1.8042 -3.0297 -2.2140
 3896SOL    HW223325   4.617   3.819  15.468  3.7456  0.3802  3.0608
 3897SOL     OW23326   1.430   3.791   1.540 -0.1086 -0.2991 -0.6167
 3897SOL    HW123327   1.341   3.814   1.513 -0.1305  0.3740  0.0341
 3897SOL    HW223328   1.400   3.717   1.592  1.1642 -0.7870 -0.5846
 3898SOL     OW23329   0.700   3.346   2.732  0.1422  0.0506  0.0699
 3898SOL    HW123330   0.693   3.256   2.700  0.6813 -0.3776  1.1602
 3898SOL    HW223331   0.795   3.345   2.727  0.0490 -2.2220 -1.5152
 3899SOL     OW23332   2.356   3.194   4.637 -0.6619  0.2795 -0.0972
 3899SOL    HW123333   2.354   3.228   4.726 -0.7955 -3.4405  1.3217
 3899SOL    HW223334   2.326   3.104   4.649 -0.4940  0.4962  1.9249
 3900SOL     OW23335   1.786   1.180   3.838 -0.0071  0.4415  0.5542
 3900SOL    HW123336   1.742   1.127   3.771 -0.1699  0.5081  0.6084
 3900SOL    HW223337   1.875   1.162   3.810 -0.0332  0.5539  0.4027
 3901SOL     OW23338   1.404   0.745   0.269  0.0547  0.2639 -0.3380
 3901SOL    HW123339   1.462   0.692   0.324  1.0545  2.0678  0.3505
 3901SOL    HW223340   1.432   0.737   0.178  1.2238  0.8724 -0.0281
 3902SOL     OW23341   2.916   2.168  14.397  0.0967 -0.0301  0.6933
 3902SOL    HW123342   2.904   2.258  14.366 -2.2715 -1.1080 -1.4708
 3902SOL    HW223343   3.011   2.159  14.403  0.0298 -0.2072  1.4945
 3903SOL     OW23344   1.291   1.495   7.388 -0.3410 -0.4343  0.0545
 3903SOL    HW123345   1.353   1.433   7.427 -1.3948 -1.2972  0.3318
 3903SOL    HW223346   1.332   1.508   7.302 -0.2263 -0.5981  0.0834
 3904SOL     OW23347   3.434   2.482   0.786 -0.1477 -0.4795  0.2200
 3904SOL    HW123348   3.419   2.566   0.830 -0.2876  0.0422 -0.8228
 3904SOL    HW223349   3.436   2.520   0.698  1.2267  3.2469  1.8604
 3905SOL     OW23350   3.629   4.677  17.464 -0.1276  0.6564 -0.0595
 3905SOL    HW123351   3.557   4.634  17.418  0.6437 -0.6251 -0.0559
 3905SOL    HW223352   3.712   4.640  17.433 -1.0693  0.1264 -1.9393
 3906SOL     OW23353   4.520   2.522  12.343  0.2211  0.0438 -0.2505
 3906SOL    HW123354   4.604   2.569  12.345  0.7164 -0.7882 -1.5507
 3906SOL    HW223355   4.474   2.572  12.276 -0.6004  0.9396  0.9819
 3907SOL     OW23356   1.432   3.841   7.658 -0.2960 -0.1929  0.2231
 3907SOL    HW123357   1.338   3.828   7.645 -0.6442  1.7436  0.7342
 3907SOL    HW223358   1.464   3.752   7.669  2.2864  0.7535  0.4705
 3908SOL     OW23359   3.569   1.663   6.031  0.2675  0.0878  0.4043
 3908SOL    HW123360   3.479   1.689   6.049  0.1335  0.8675 -1.3155
 3908SOL    HW223361   3.559   1.587   5.974 -1.3694  1.5205 -1.2380
 3909SOL     OW23362   2.754   1.273   6.256 -0.4180 -0.0946  0.4706
 3909SOL    HW123363   2.818   1.202   6.265 -0.2672  0.1362  1.2576
 3909SOL    HW223364   2.718   1.257   6.343 -1.8940  2.5767  0.3492
 3910SOL     OW23365   4.374   4.192   2.301 -0.1112 -0.2174 -0.3071
 3910SOL    HW123366   4.309   4.255   2.271  2.1364  1.2405 -2.1318
 3910SOL    HW223367   4.436   4.242   2.354 -1.2038  1.1415 -0.2981
 3911SOL     OW23368   3.310   3.571   8.906  0.0330 -0.3247 -0.6342
 3911SOL    HW123369   3.261   3.653   8.907 -0.1673 -0.4533  0.0257
 3911SOL    HW223370   3.268   3.531   8.982  0.7350  0.6217  0.2625
 3912SOL     OW23371   3.145   4.458   8.039 -0.2150  0.2806  0.2627
 3912SOL    HW123372   3.132   4.363   8.048 -0.8629  0.2158 -1.4588
 3912SOL    HW223373   3.104   4.478   8.123 -0.4537 -1.8178  0.6585
 3913SOL     OW23374   0.934   3.470  17.212  0.0674 -0.0685 -0.3132
 3913SOL    HW123375   0.975   3.459  17.298  0.4716 -0.5701 -0.5635
 3913SOL    HW223376   1.007   3.440  17.156 -1.5620  0.2002 -2.5819
 3914SOL     OW23377   2.111   0.376  17.741  0.2791  0.0253 -0.2306
 3914SOL    HW123378   2.087   0.371  17.648  0.4163  0.2138 -0.2764
 3914SOL    HW223379   2.199   0.411   0.010 -0.3954  1.2193  1.2281
 3915SOL     OW23380   4.188   1.338  15.051  0.2002  0.1890 -0.2376
 3915SOL    HW123381   4.130   1.304  14.983 -0.5585 -0.4274  0.7136
 3915SOL    HW223382   4.185   1.263  15.111  0.3739  0.3158 -0.0710
 3916SOL     OW23383   2.921   0.679   7.688 -0.4580  0.6103  0.5824
 3916SOL    HW123384   2.998   0.706   7.738  1.4862 -0.3622 -1.8948
 3916SOL    HW223385   2.857   0.689   7.758 -0.0406  2.9480  0.6131
 3917SOL     OW23386   1.631   1.213  16.730  0.1660 -0.0495  0.1488
 3917SOL    HW123387   1.557   1.180  16.680 -0.0225  1.2145 -0.4049
 3917SOL    HW223388   1.697   1.158  16.688 -2.0403 -2.7432  0.2351
 3918SOL     OW23389   1.633   3.460  11.922 -0.1624 -0.0286  0.5870
 3918SOL    HW123390   1.655   3.546  11.957 -0.1833 -0.4643  1.6744
 3918SOL    HW223391   1.657   3.406  11.997 -1.5370  0.1045  1.1268
 3919SOL     OW23392   0.439   1.738  12.191  0.1226 -0.1353 -0.3137
 3919SOL    HW123393   0.485   1.820  12.209  1.7340 -0.9542 -0.6244
 3919SOL    HW223394   0.472   1.679  12.259 -2.8440 -1.8670 -0.3965
 3920SOL     OW23395   0.097   0.559   3.909 -0.1411 -0.0986  0.3044
 3920SOL    HW123396   0.084   0.644   3.952 -2.5953  0.1377 -0.8684
 3920SOL    HW223397   0.007   0.540   3.883 -0.2369  1.0114 -0.1637
 3921SOL     OW23398   2.376   1.012   1.152  0.1991  0.8559  0.5719
 3921SOL    HW123399   2.356   1.003   1.245 -0.8203  0.2341  0.2925
 3921SOL    HW223400   2.287   1.026   1.117  0.0841 -0.6919  0.2826
 3922SOL     OW23401   2.266   0.501  10.907 -0.8846  0.2548 -0.2157
 3922SOL    HW123402   2.325   0.427  10.919 -1.4212 -0.4260 -1.7429
 3922SOL    HW223403   2.223   0.522  10.990  3.7555  0.0470  2.1850
 3923SOL     OW23404   0.718   2.155   3.076 -0.1108  0.7503 -0.0745
 3923SOL    HW123405   0.761   2.078   3.114 -1.5706 -1.1648 -2.2711
 3923SOL    HW223406   0.635   2.122   3.041  0.3574  1.2653 -1.6629
 3924SOL     OW23407   1.166   1.281   9.469  0.1610 -0.0931 -0.1199
 3924SOL    HW123408   1.209   1.278   9.383  1.1335  0.9019  0.3326
 3924SOL    HW223409   1.186   1.367   9.506  1.0224  0.6358 -2.2607
 3925SOL     OW23410   2.059   0.059   2.270  0.0446 -0.7264 -0.3097
 3925SOL    HW123411   2.027   0.125   2.332 -0.3531 -1.5415  0.3624
 3925SOL    HW223412   2.031   4.717   2.317  0.3140 -0.4980  0.2321
 3926SOL     OW23413   3.664   1.932   5.023  0.3717  0.3491 -0.6873
 3926SOL    HW123414   3.611   1.895   4.952  0.8256 -0.4626 -0.6035
 3926SOL    HW223415   3.728   1.992   4.985  2.5132 -0.7530  1.2148
 3927SOL     OW23416   2.092   1.321   2.295 -0.2384  0.3822 -0.3069
 3927SOL    HW123417   2.169   1.354   2.248  0.6109  1.5328  1.8600
 3927SOL    HW223418   2.071   1.255   2.229 -1.4918  0.2908  0.2011
 3928SOL     OW23419   3.299   3.297  15.602 -0.4249 -0.2507  0.0022
 3928SOL    HW123420   3.365   3.306  15.533 -1.5885  1.5083 -0.9039
 3928SOL    HW223421   3.279   3.389  15.621  0.8989 -0.0821  0.5696
 3929SOL     OW23422   2.639   1.015   2.201  0.4459  0.2120 -0.0204
 3929SOL    HW123423   2.610   0.989   2.114 -0.2816  0.0948  0.2537
 3929SOL    HW223424   2.685   1.095   2.176  0.1018  0.3217 -0.3007
 3930SOL     OW23425   3.761   0.782   1.834 -0.3741  1.0920 -0.2506
 3930SOL    HW123426   3.728   0.735   1.758  0.2723  1.8103 -0.9660
 3930SOL    HW223427   3.726   0.732   1.908 -2.2400 -0.6644 -2.3618
 3931SOL     OW23428   3.995   4.454   6.283 -0.0246  0.1330  0.0950
 3931SOL    HW123429   3.924   4.462   6.219  2.1479 -0.5439 -2.3844
 3931SOL    HW223430   4.036   4.368   6.272 -1.2232 -0.8719  3.6258
 3932SOL     OW23431   2.290   2.268   9.396  0.5582  0.7352  0.4643
 3932SOL    HW123432   2.353   2.209   9.437  0.0190  0.9711  1.6396
 3932SOL    HW223433   2.355   2.330   9.365 -0.1448 -0.0805 -2.6783
 3933SOL     OW23434   2.369   3.589   2.457 -0.1968  0.1748 -0.5662
 3933SOL    HW123435   2.396   3.633   2.376  2.3390  0.3844  0.4069
 3933SOL    HW223436   2.450   3.552   2.492 -1.4134 -2.3290 -0.4100
 3934SOL     OW23437   2.556   1.580  12.306 -0.0502 -0.5058 -0.0332
 3934SOL    HW123438   2.559   1.515  12.376 -0.1703 -0.4667  0.0083
 3934SOL    HW223439   2.547   1.659  12.360  0.5334 -1.0556  0.8759
 3935SOL     OW23440   1.029   3.796   4.888  0.2152 -0.3583  0.3068
 3935SOL    HW123441   0.973   3.743   4.946  2.3806 -1.4108  1.4207
 3935SOL    HW223442   1.014   3.758   4.801  0.7332 -1.7082  0.8050
 3936SOL     OW23443   2.762   2.722   8.685 -0.0919  0.5507 -0.1827
 3936SOL    HW123444   2.697   2.780   8.725  0.1253 -0.0728  1.0802
 3936SOL    HW223445   2.836   2.718   8.746  0.9203 -0.0487 -1.4571
 3937SOL     OW23446   2.314   1.757   7.267 -0.1809 -0.2406 -0.0268
 3937SOL    HW123447   2.238   1.705   7.241 -0.0212 -0.3711 -0.2273
 3937SOL    HW223448   2.312   1.735   7.360  0.3273  2.8049  0.7201
 3938SOL     OW23449   2.483   1.805   4.470 -0.1113 -0.4828  0.4340
 3938SOL    HW123450   2.484   1.718   4.509  1.4732  0.2475  2.0403
 3938SOL    HW223451   2.575   1.825   4.490  0.1445 -1.0755 -0.1750
 3939SOL     OW23452   0.672   3.616   4.805 -0.2338 -0.0391  0.2219
 3939SOL    HW123453   0.691   3.534   4.852  0.0775 -0.1658 -0.1267
 3939SOL    HW223454   0.684   3.674   4.880  0.5092 -0.1886  0.2170
 3940SOL     OW23455   0.552   2.587   8.382 -0.0766 -0.2850 -0.1619
 3940SOL    HW123456   0.487   2.585   8.453 -1.1423 -1.4775 -1.1516
 3940SOL    HW223457   0.600   2.504   8.390  3.1071  1.4879 -1.3852
 3941SOL     OW23458   3.456   1.928  17.514  0.2155  0.5114  0.5675
 3941SOL    HW123459   3.423   1.922  17.425  0.8300 -1.9233  0.4985
 3941SOL    HW223460   3.372   1.945  17.555 -1.2810 -1.5893 -1.6219
 3942SOL     OW23461   3.225   0.011   1.273  0.1155 -0.6234  0.1663
 3942SOL    HW123462   3.226   4.660   1.236  0.7911 -0.1931 -0.8349
 3942SOL    HW223463   3.314   0.021   1.308 -0.1634  0.4772  0.5843
 3943SOL     OW23464   0.171   4.325   4.456 -0.2815 -0.3758 -0.4158
 3943SOL    HW123465   0.168   4.241   4.409 -2.7936 -0.5916  0.1253
 3943SOL    HW223466   0.246   4.371   4.417 -2.3190  2.5382 -0.8382
 3944SOL     OW23467   4.078   3.766   4.690  0.1068  0.2842 -0.0031
 3944SOL    HW123468   4.062   3.849   4.735  1.2676  0.2176  0.5578
 3944SOL    HW223469   4.170   3.748   4.712  0.0358 -1.8037 -1.4733
 3945SOL     OW23470   3.184   3.264   2.719 -0.0534  0.3423 -0.1437
 3945SOL    HW123471   3.251   3.230   2.778  0.7301 -0.1221 -1.2879
 3945SOL    HW223472   3.222   3.350   2.697 -0.2893  0.0229 -1.8052
 3946SOL     OW23473   1.300   0.334   0.416  0.3394 -0.2415 -0.7135
 3946SOL    HW123474   1.373   0.280   0.385  0.7247 -0.1804  0.1068
 3946SOL    HW223475   1.295   0.394   0.342  3.4806  0.5453 -0.2979
 3947SOL     OW23476   2.353   2.587  12.657  0.2864 -0.5492  0.3588
 3947SOL    HW123477   2.285   2.654  12.664  0.3279 -0.3328 -1.1769
 3947SOL    HW223478   2.354   2.569  12.751  0.8029  1.2368  0.6851
 3948SOL     OW23479   4.310   4.621   3.180 -0.7206  0.5808  0.5981
 3948SOL    HW123480   4.346   4.689   3.236  0.3890 -0.0014  0.5831
 3948SOL    HW223481   4.389   4.589   3.137 -0.4060 -0.6254  2.0887
 3949SOL     OW23482   4.196   0.602  12.381  0.2657 -0.6253  0.0139
 3949SOL    HW123483   4.102   0.618  12.370  0.6084 -0.0884 -2.0684
 3949SOL    HW223484   4.196   0.506  12.374 -2.0973 -0.7908  1.9674
 3950SOL     OW23485   3.635   3.554   0.700  0.5027  0.1156  0.0331
 3950SOL    HW123486   3.627   3.459   0.708 -2.4892  0.3303 -0.3087
 3950SOL    HW223487   3.578   3.572   0.625  0.2170 -0.7734  0.0378
 3951SOL     OW23488   2.005   2.235   9.002  0.3546 -0.3319  0.1453
 3951SOL    HW123489   1.995   2.262   9.093  3.3526 -1.9798  0.9664
 3951SOL    HW223490   1.917   2.202   8.987 -0.1324  0.2791  1.7166
 3952SOL     OW23491   3.326   2.509   6.304  0.1155  0.3052  0.0801
 3952SOL    HW123492   3.272   2.434   6.282  1.0697 -0.0666 -0.9711
 3952SOL    HW223493   3.364   2.523   6.218  1.0977  0.7585  0.5851
 3953SOL     OW23494   0.625   4.246   5.228 -0.5306 -0.6628  0.1569
 3953SOL    HW123495   0.620   4.192   5.307  2.3446  0.7635  1.3030
 3953SOL    HW223496   0.681   4.192   5.172  1.5449  0.6649  0.9502
 3954SOL     OW23497   0.235   1.617   4.931 -0.1092  0.1856 -0.1026
 3954SOL    HW123498   0.305   1.653   4.877  0.2335  1.4882  1.2129
 3954SOL    HW223499   0.172   1.606   4.859  0.6596  0.9385 -0.8868
 3955SOL     OW23500   2.613   1.165   9.550 -0.3434 -0.3475  0.1004
 3955SOL    HW123501   2.687   1.143   9.607 -0.8698 -1.2123  0.4404
 3955SOL    HW223502   2.572   1.079   9.547 -1.4237  0.1000  1.9203
 3956SOL     OW23503   1.946   4.680   4.534  0.4871 -0.4534  0.0737
 3956SOL    HW123504   1.881   4.612   4.554 -0.6292  1.0344  1.5439
 3956SOL    HW223505   1.990   4.699   4.617 -0.0318  0.4999  0.1232
 3957SOL     OW23506   0.786   2.257   9.668 -0.0740 -0.3755 -0.1355
 3957SOL    HW123507   0.692   2.243   9.677 -0.3180  2.5349  1.7598
 3957SOL    HW223508   0.817   2.167   9.683  0.2400 -0.0110  1.4102
 3958SOL     OW23509   3.040   1.384   4.610  0.1048 -0.4812 -0.0598
 3958SOL    HW123510   3.103   1.420   4.548  1.6094 -1.8847  0.6263
 3958SOL    HW223511   2.955   1.414   4.579  0.2809  0.9209  0.7933
 3959SOL     OW23512   0.292   3.378   1.024  0.4113  0.3291  0.2835
 3959SOL    HW123513   0.211   3.400   1.070  1.8257 -0.5730  3.2377
 3959SOL    HW223514   0.263   3.380   0.933  0.5933  1.5740  0.2497
 3960SOL     OW23515   1.596   1.113   1.603  0.2621  0.4540  0.5027
 3960SOL    HW123516   1.604   1.024   1.570 -0.7264  0.3932  0.4349
 3960SOL    HW223517   1.685   1.132   1.634  1.0832 -0.2312 -1.4102
 3961SOL     OW23518   2.079   1.280   8.692  0.4076  0.1621  0.4327
 3961SOL    HW123519   2.082   1.327   8.775 -0.2754 -0.4621  0.8134
 3961SOL    HW223520   1.984   1.271   8.680  0.5554 -0.2627 -0.4317
 3962SOL     OW23521   3.172   3.063  14.675  0.4519 -0.1573 -0.1455
 3962SOL    HW123522   3.084   3.067  14.711  1.4215  0.0839  2.2252
 3962SOL    HW223523   3.204   3.144  14.714  1.4990 -0.2666 -0.7698
 3963SOL     OW23524   3.816   2.577   6.524 -0.1578  0.4209  0.4010
 3963SOL    HW123525   3.721   2.590   6.518 -0.2728 -0.5355  0.2103
 3963SOL    HW223526   3.840   2.592   6.432 -0.2804  0.4273  0.3694
 3964SOL     OW23527   0.669   3.836   9.069  0.2259 -0.2524 -0.1408
 3964SOL    HW123528   0.672   3.813   9.162 -1.4155  0.6113  0.1060
 3964SOL    HW223529   0.750   3.788   9.050  0.0683 -0.6210  0.1113
 3965SOL     OW23530   0.601   4.333   5.564 -0.3309 -0.4016 -0.0939
 3965SOL    HW123531   0.515   4.369   5.544 -0.6273 -0.9616  0.1624
 3965SOL    HW223532   0.572   4.241   5.560 -0.3568 -0.5342  3.1629
 3966SOL     OW23533   1.748   3.255   2.277  0.3164 -0.2419 -0.1424
 3966SOL    HW123534   1.806   3.240   2.202 -0.8789  0.8019 -1.2748
 3966SOL    HW223535   1.666   3.221   2.242 -0.2212 -1.1549  2.0225
 3967SOL     OW23536   3.535   2.810  10.202  0.0594  0.0240 -0.0156
 3967SOL    HW123537   3.531   2.760  10.284  0.5389  0.1442  0.0793
 3967SOL    HW223538   3.451   2.773  10.176  0.2638 -1.3358  1.2661
 3968SOL     OW23539   3.299   3.583  15.660 -1.1669  0.4273 -0.5105
 3968SOL    HW123540   3.304   3.617  15.571 -0.0263  1.6847  0.0345
 3968SOL    HW223541   3.367   3.634  15.704  0.0462  0.1153 -2.0149
 3969SOL     OW23542   0.376   3.596   6.698 -0.6911 -0.3215 -0.3594
 3969SOL    HW123543   0.315   3.646   6.645 -1.2804 -1.4909 -0.7961
 3969SOL    HW223544   0.415   3.664   6.754 -1.1813 -0.3953  0.0730
 3970SOL     OW23545   3.211   1.871   2.698 -0.1981  0.4354  0.2850
 3970SOL    HW123546   3.164   1.954   2.698 -3.4433 -1.3928 -0.3529
 3970SOL    HW223547   3.144   1.807   2.722 -0.7942  0.5462 -1.0747
 3971SOL     OW23548   0.009   3.927  15.134 -0.3773  0.0070  0.6478
 3971SOL    HW123549   4.726   3.893  15.221 -1.2637 -1.4984 -0.1287
 3971SOL    HW223550   4.670   3.897  15.083  0.5234  0.2953 -0.8570
 3972SOL     OW23551   4.631   2.727   2.292  0.1853 -0.5632  0.5059
 3972SOL    HW123552   4.591   2.734   2.205 -0.8194 -0.5868  0.9608
 3972SOL    HW223553   4.695   2.799   2.291  0.4189 -0.7350  2.8188
 3973SOL     OW23554   0.295   1.419   6.239 -0.2236  0.1325 -0.0843
 3973SOL    HW123555   0.354   1.475   6.289  0.0454 -2.1325  2.1341
 3973SOL    HW223556   0.357   1.351   6.212 -0.9384 -1.3938  2.0788
 3974SOL     OW23557   2.277   2.165  16.950  0.5828 -0.0249 -0.3443
 3974SOL    HW123558   2.196   2.149  16.902 -0.0531 -1.8856  1.3452
 3974SOL    HW223559   2.340   2.174  16.879 -0.9176  2.7007 -1.3600
 3975SOL     OW23560   3.598   3.820   3.942  0.1939  0.1311 -0.5216
 3975SOL    HW123561   3.616   3.898   3.994 -0.4498 -0.0161 -0.0823
 3975SOL    HW223562   3.535   3.854   3.879 -0.1316 -1.6032 -1.1304
 3976SOL     OW23563   0.830   3.607   2.524 -0.0769  0.5667  0.3568
 3976SOL    HW123564   0.794   3.641   2.443 -0.8583  0.6936  0.7607
 3976SOL    HW223565   0.748   3.610   2.573  0.7417 -0.7093  1.8032
 3977SOL     OW23566   2.648   2.085   3.956 -0.0944 -0.1506  0.2645
 3977SOL    HW123567   2.724   2.138   3.978 -0.8696  0.6310  1.0517
 3977SOL    HW223568   2.640   2.036   4.038  2.1023 -1.7420 -0.4413
 3978SOL     OW23569   2.778   4.670  15.953  0.5349 -0.3366  0.1590
 3978SOL    HW123570   2.750   4.588  15.993 -2.2840  0.2368 -0.6032
 3978SOL    HW223571   2.866   4.646  15.925  0.7572  0.6845 -0.0327
 3979SOL     OW23572   1.799   4.662   1.657  0.3770 -0.1492  0.1191
 3979SOL    HW123573   1.762   4.588   1.608 -1.3951  0.4047  0.6025
 3979SOL    HW223574   1.891   4.640   1.666 -0.2680 -3.2101 -0.8831
 3980SOL     OW23575   1.352   4.323   5.970 -0.2305 -0.1544  0.5272
 3980SOL    HW123576   1.413   4.285   6.033  0.3612 -0.7231 -0.3781
 3980SOL    HW223577   1.268   4.314   6.015 -0.3091 -2.6777 -0.1533
 3981SOL     OW23578   3.793   2.615  14.835 -0.0739  0.2007 -0.0442
 3981SOL    HW123579   3.722   2.584  14.779 -0.4677  0.9521  0.0372
 3981SOL    HW223580   3.828   2.680  14.774 -1.4049 -0.4861 -1.5418
 3982SOL     OW23581   2.520   0.768  10.943  0.2861 -0.2391 -0.1834
 3982SOL    HW123582   2.550   0.858  10.954 -0.4759  0.0114 -0.1788
 3982SOL    HW223583   2.600   0.728  10.977 -0.3833 -0.3906  1.1949
 3983SOL     OW23584   0.436   1.824   7.839 -0.1780  0.0391  0.4716
 3983SOL    HW123585   0.412   1.834   7.931  0.5186  2.2585  0.4269
 3983SOL    HW223586   0.476   1.907   7.812  1.1851 -0.8295 -0.1757
 3984SOL     OW23587   1.025   1.254   6.972  0.2294  0.0697 -0.1235
 3984SOL    HW123588   1.119   1.242   6.959  0.3670  0.5538  0.4192
 3984SOL    HW223589   0.993   1.226   6.886  0.2696  2.8278 -1.0328
 3985SOL     OW23590   2.813   4.430   2.903 -0.6722 -0.0964  0.5571
 3985SOL    HW123591   2.888   4.485   2.929 -1.1671  0.0089  1.7856
 3985SOL    HW223592   2.849   4.342   2.916  0.5372  0.4200  0.7063
 3986SOL     OW23593   0.461   3.153  11.311  0.3309 -0.2980 -0.0530
 3986SOL    HW123594   0.452   3.203  11.230 -0.7954 -1.4543 -0.6398
 3986SOL    HW223595   0.399   3.085  11.284  1.1223 -0.1495 -2.2582
 3987SOL     OW23596   1.159   1.370   7.711  0.0043 -0.4268 -0.1258
 3987SOL    HW123597   1.247   1.356   7.677 -0.2375 -0.8589 -0.5726
 3987SOL    HW223598   1.105   1.340   7.638  0.4722  1.3719 -1.2183
 3988SOL     OW23599   2.730   1.135   4.615  0.1188 -0.1170  0.3810
 3988SOL    HW123600   2.687   1.063   4.661 -2.5308  0.5837 -1.0049
 3988SOL    HW223601   2.738   1.200   4.684 -1.0075 -0.6844  1.0439
 3989SOL     OW23602   1.764   2.474   8.628 -0.1988 -0.1228  1.1913
 3989SOL    HW123603   1.773   2.397   8.572  0.2098  0.1452  0.8852
 3989SOL    HW223604   1.812   2.441   8.704 -1.0596  0.8845  2.1743
 3990SOL     OW23605   1.257   4.333  11.944  0.6049 -0.1087  0.0649
 3990SOL    HW123606   1.169   4.300  11.965  1.7037 -2.8115  0.4243
 3990SOL    HW223607   1.270   4.397  12.014  1.0619  0.6018 -0.6719
 3991SOL     OW23608   1.842   4.424  11.204  0.0532 -0.1503 -0.6928
 3991SOL    HW123609   1.929   4.396  11.173 -0.5328 -3.4121  0.5374
 3991SOL    HW223610   1.836   4.357  11.273 -0.8047  2.3058  1.6126
 3992SOL     OW23611   4.369   2.139   7.117  0.0702  0.2006 -0.1194
 3992SOL    HW123612   4.428   2.201   7.075  1.8438 -1.8171 -0.6073
 3992SOL    HW223613   4.281   2.178   7.114 -0.5602 -1.1803  0.0164
 3993SOL     OW23614   2.914   0.009   1.041 -0.0638 -0.5952  0.1123
 3993SOL    HW123615   2.833   0.045   1.078  0.3975  0.0019  0.5299
 3993SOL    HW223616   2.943   0.089   0.998 -1.0840  0.2970  1.0861
 3994SOL     OW23617   3.688   2.606   5.521 -0.5533 -0.9457  0.0333
 3994SOL    HW123618   3.716   2.696   5.538 -2.8701  0.0911 -1.6325
 3994SOL    HW223619   3.745   2.561   5.583 -0.7979 -0.1248  0.8564
 3995SOL     OW23620   3.732   3.265   8.027  0.3912 -0.3979  0.1688
 3995SOL    HW123621   3.686   3.190   7.988 -1.1137  0.9908 -0.7337
 3995SOL    HW223622   3.730   3.320   7.949 -0.5521  0.5683  0.8693
 3996SOL     OW23623   4.414   3.534  15.751  0.5924  0.6761 -0.1080
 3996SOL    HW123624   4.416   3.480  15.672 -0.7184 -0.6939  0.7804
 3996SOL    HW223625   4.399   3.458  15.808  0.4659  0.7560 -0.0354
 3997SOL     OW23626   4.029   3.578   9.958 -0.5710 -0.0166  0.5052
 3997SOL    HW123627   4.069   3.632   9.890 -1.6716  0.8059  0.5197
 3997SOL    HW223628   3.999   3.651  10.012 -2.4383 -0.7113  0.3971
 3998SOL     OW23629   4.558   3.517   6.146 -0.3478 -0.0604  0.7910
 3998SOL    HW123630   4.570   3.501   6.240 -2.4212  1.5999  1.3383
 3998SOL    HW223631   4.501   3.446   6.116 -1.5190  0.7439  1.1016
 3999SOL     OW23632   3.022   3.911   5.016 -0.1738  0.8685  0.7587
 3999SOL    HW123633   3.115   3.922   5.039  0.1814 -0.7892  0.0812
 3999SOL    HW223634   2.982   3.856   5.083  1.0336 -0.9370  0.0009
 4000SOL     OW23635   0.941   2.632   6.910  0.4842 -0.2724  0.9906
 4000SOL    HW123636   0.955   2.542   6.879 -0.6296  0.6257 -2.0498
 4000SOL    HW223637   1.027   2.673   6.901 -0.0314  0.6692  0.3885
 4001SOL     OW23638   3.486   0.429   7.409  0.5262  0.3851  0.3598
 4001SOL    HW123639   3.537   0.440   7.489 -2.1737 -0.0020  2.1327
 4001SOL    HW223640   3.452   0.341   7.425  1.3660 -0.2463 -1.2891
 4002SOL     OW23641   3.956   3.394   5.257  0.3302  0.4932 -0.0358
 4002SOL    HW123642   3.990   3.308   5.284 -0.0577  1.5379  3.8380
 4002SOL    HW223643   3.869   3.375   5.224  0.6884 -2.5371  0.7712
 4003SOL     OW23644   3.389   4.656   9.246  0.2004  0.1286  0.4018
 4003SOL    HW123645   3.455   4.588   9.259  0.3987  0.7215  2.4761
 4003SOL    HW223646   3.449   4.724   9.217  1.0630 -0.0359  1.7829
 4004SOL     OW23647   2.065   0.869  16.726 -0.2686  0.3346  0.1635
 4004SOL    HW123648   2.110   0.947  16.694  0.9167 -0.4810 -0.1567
 4004SOL    HW223649   2.132   0.801  16.730 -1.0514 -0.5292 -1.2562
 4005SOL     OW23650   4.452   4.314   3.833  0.2525 -0.1470 -0.5206
 4005SOL    HW123651   4.393   4.388   3.844 -0.9700 -0.9815 -1.4917
 4005SOL    HW223652   4.431   4.276   3.748  0.6780 -3.8145  0.9810
 4006SOL     OW23653   1.910   1.592  11.469  0.4941 -0.4370  0.5211
 4006SOL    HW123654   1.963   1.667  11.443  1.2292 -0.7230  1.1871
 4006SOL    HW223655   1.905   1.611  11.563  0.5669 -0.4794  0.5337
 4007SOL     OW23656   4.545   0.382  10.734  0.0339  0.1900  0.0262
 4007SOL    HW123657   4.598   0.339  10.801  1.2281 -0.6247 -1.4277
 4007SOL    HW223658   4.529   0.466  10.777 -1.6815 -0.2570  0.2615
 4008SOL     OW23659   3.118   3.545  14.756  0.3993 -0.2514  0.1408
 4008SOL    HW123660   3.189   3.608  14.769 -1.0105  1.3068  0.3560
 4008SOL    HW223661   3.147   3.460  14.790 -0.6277 -0.4829  0.4519
 4009SOL     OW23662   1.429   3.535   2.196 -0.1213 -0.3845 -0.5449
 4009SOL    HW123663   1.426   3.487   2.113 -3.8021 -3.2432  1.2054
 4009SOL    HW223664   1.521   3.560   2.195 -0.3398  0.3830 -1.3079
 4010SOL     OW23665   2.478   1.089   5.164 -0.4916  0.3380  0.0226
 4010SOL    HW123666   2.434   1.173   5.148 -0.5354  0.3218  0.0580
 4010SOL    HW223667   2.523   1.107   5.246  1.5774  0.3586 -1.1281
 4011SOL     OW23668   3.358   0.273   5.918 -0.0722 -0.0624 -1.0804
 4011SOL    HW123669   3.267   0.248   5.902 -0.4107  0.4636 -0.0336
 4011SOL    HW223670   3.407   0.193   5.934 -1.5178 -0.2656  2.4884
 4012SOL     OW23671   3.759   1.567   8.108 -0.4238  0.4654  0.0993
 4012SOL    HW123672   3.813   1.636   8.145  0.3494 -0.4942  0.7696
 4012SOL    HW223673   3.826   1.505   8.079 -0.3495  0.1551  0.9267
 4013SOL     OW23674   2.654   0.427   6.656  0.4832  0.4842 -0.2562
 4013SOL    HW123675   2.634   0.368   6.728  2.2521 -1.4076 -1.3042
 4013SOL    HW223676   2.746   0.439   6.681  1.1112  0.6739 -2.6171
 4014SOL     OW23677   2.076   0.006  14.451  0.9540 -0.3951 -0.5033
 4014SOL    HW123678   2.162   0.036  14.482  0.4372 -0.9954  1.5118
 4014SOL    HW223679   2.062   4.667  14.509  1.7837  0.8045  1.2626
 4015SOL     OW23680   0.554   3.866   0.934 -0.4290 -0.1188  0.0317
 4015SOL    HW123681   0.529   3.777   0.961 -0.1627 -0.2893 -0.2817
 4015SOL    HW223682   0.610   3.878   1.010  0.6114 -1.2253 -0.5579
 4016SOL     OW23683   2.379   1.323   5.145 -0.5166  0.5869  0.3951
 4016SOL    HW123684   2.380   1.318   5.050 -2.0267  0.2611  0.3936
 4016SOL    HW223685   2.463   1.355   5.176 -0.9001  2.6192 -0.6888
 4017SOL     OW23686   4.637   2.313   4.567 -0.0268  0.3363  0.1409
 4017SOL    HW123687   4.647   2.405   4.593  0.0290 -0.1368  1.7475
 4017SOL    HW223688   4.652   2.268   4.650 -0.0654  0.3842  0.1740
 4018SOL     OW23689   3.112   1.687   7.877 -0.2057 -0.0117 -0.4087
 4018SOL    HW123690   3.018   1.686   7.856 -0.1210 -1.8329 -0.6697
 4018SOL    HW223691   3.119   1.611   7.934  0.5841  0.0158 -0.4715
 4019SOL     OW23692   3.526   0.961   6.424 -0.3943  0.6914 -0.9723
 4019SOL    HW123693   3.466   0.924   6.489  2.7419 -0.4631  1.2596
 4019SOL    HW223694   3.532   1.051   6.456  1.5717 -0.9598  3.3523
 4020SOL     OW23695   0.980   0.643  14.989 -0.3678  0.4904  0.1578
 4020SOL    HW123696   0.895   0.605  15.009 -0.4072  0.2585 -0.4546
 4020SOL    HW223697   0.992   0.699  15.066 -0.8659  0.2849  0.3864
 4021SOL     OW23698   4.210   0.600   9.642  0.3773  0.5785 -0.7905
 4021SOL    HW123699   4.168   0.564   9.720  1.5497  0.2508 -0.3109
 4021SOL    HW223700   4.297   0.630   9.669  0.6060 -0.0425 -0.8192
 4022SOL     OW23701   2.291   4.614   5.717  0.4162 -0.4421 -0.1110
 4022SOL    HW123702   2.199   4.603   5.694  1.2411 -0.9439 -3.0746
 4022SOL    HW223703   2.326   4.592   5.631  1.4716 -0.1338  0.2272
 4023SOL     OW23704   1.458   1.219   0.675 -0.0851  0.0942  0.0606
 4023SOL    HW123705   1.510   1.153   0.720 -3.3950 -0.9247  2.3782
 4023SOL    HW223706   1.424   1.162   0.607 -1.8984  1.0166  0.1839
 4024SOL     OW23707   3.472   0.081   6.865  0.3374  0.1936 -0.0152
 4024SOL    HW123708   3.559   0.086   6.903  1.4108 -2.0087 -2.1950
 4024SOL    HW223709   3.490   0.085   6.771  0.3702 -0.5184 -0.0396
 4025SOL     OW23710   0.555   0.883   1.161  0.0731  1.0389  0.4894
 4025SOL    HW123711   0.533   0.928   1.243 -1.3936  1.8866 -0.3676
 4025SOL    HW223712   0.649   0.898   1.152  0.5380 -1.0862  1.8065
 4026SOL     OW23713   2.415   0.660  14.104 -0.2910  0.3159  0.1305
 4026SOL    HW123714   2.501   0.627  14.076  0.1892  1.3717  0.3554
 4026SOL    HW223715   2.437   0.738  14.155 -1.2410 -0.1587  1.2637
 4027SOL     OW23716   3.161   1.143   5.247  0.2469 -0.0232 -0.1260
 4027SOL    HW123717   3.194   1.114   5.332  4.2646  0.5957 -1.4604
 4027SOL    HW223718   3.132   1.061   5.209 -1.2082  0.4014  0.0654
 4028SOL     OW23719   1.234   3.735   4.648  0.3209 -0.5700 -0.2019
 4028SOL    HW123720   1.299   3.775   4.706  0.9867 -1.6393 -0.2035
 4028SOL    HW223721   1.186   3.813   4.619 -0.1612 -0.6947  0.2634
 4029SOL     OW23722   0.521   2.174   7.057 -0.0370 -0.0028 -0.0950
 4029SOL    HW123723   0.446   2.129   7.097 -1.3977  0.1289 -2.4940
 4029SOL    HW223724   0.530   2.259   7.099 -0.7575 -0.7553  1.6202
 4030SOL     OW23725   3.807   0.532   5.020  0.3402  0.1961  0.1470
 4030SOL    HW123726   3.745   0.569   5.083 -1.5478 -2.4600 -0.1630
 4030SOL    HW223727   3.774   0.442   5.023  0.0314  0.2937 -0.4878
 4031SOL     OW23728   3.344   1.333   5.176  0.7508 -0.1476 -0.6405
 4031SOL    HW123729   3.277   1.270   5.205  0.5839 -0.7238 -2.3204
 4031SOL    HW223730   3.287   1.409   5.162 -0.4413 -1.6204 -3.5586
 4032SOL     OW23731   1.891   3.276   2.051 -0.3196  0.6141  0.4702
 4032SOL    HW123732   1.889   3.366   2.082 -0.7334  0.9098 -0.4437
 4032SOL    HW223733   1.864   3.284   1.960 -0.0204  0.6179  0.3820
 4033SOL     OW23734   3.665   4.632  12.500  0.3050  0.4965 -0.3232
 4033SOL    HW123735   3.746   4.580  12.510 -1.0362 -1.1078  2.3252
 4033SOL    HW223736   3.600   4.577  12.544  0.5381 -0.9190 -1.7327
 4034SOL     OW23737   0.075   3.751  11.777 -0.1496 -0.0041  0.5676
 4034SOL    HW123738   0.148   3.769  11.717  0.1896  1.9200  1.5665
 4034SOL    HW223739   0.096   3.824  11.836  0.0437 -0.5582  1.1784
 4035SOL     OW23740   0.488   3.453   2.853 -0.3025  0.5336  0.2590
 4035SOL    HW123741   0.461   3.544   2.853 -0.6576  0.4267 -0.2103
 4035SOL    HW223742   0.563   3.448   2.794 -2.8732  0.5415 -3.0152
 4036SOL     OW23743   3.859   0.764   3.274 -0.4030  0.4544  0.3637
 4036SOL    HW123744   3.840   0.728   3.361  1.2109  0.3978  0.6930
 4036SOL    HW223745   3.777   0.812   3.260 -1.1441 -0.7724  0.5380
 4037SOL     OW23746   0.431   4.402   6.249 -0.1609 -0.4007 -0.4400
 4037SOL    HW123747   0.415   4.308   6.258  0.8118 -0.4334  0.9054
 4037SOL    HW223748   0.471   4.406   6.336 -2.2774 -0.3187  0.5315
 4038SOL     OW23749   0.617   2.999   3.470  0.2014 -0.3015  0.1100
 4038SOL    HW123750   0.561   2.921   3.465 -1.0341  0.6842 -1.1453
 4038SOL    HW223751   0.577   3.045   3.396 -2.0979 -0.4895  1.2400
 4039SOL     OW23752   1.116   2.364   3.022  0.1198 -0.8299 -0.1489
 4039SOL    HW123753   1.150   2.299   3.083 -0.1654 -1.6187 -0.8350
 4039SOL    HW223754   1.090   2.314   2.945  2.7285 -1.6405 -0.4788
 4040SOL     OW23755   3.728   1.009   7.112 -0.0136 -0.0373  0.3951
 4040SOL    HW123756   3.665   1.028   7.182  1.0495  0.4247  1.2295
 4040SOL    HW223757   3.743   0.915   7.120  1.6601  0.1238 -0.8576
 4041SOL     OW23758   1.077   3.263  10.511 -0.6768 -0.7584  0.7010
 4041SOL    HW123759   0.992   3.297  10.487 -0.2988 -0.7403 -0.6023
 4041SOL    HW223760   1.102   3.221  10.429  1.4466 -0.8220  1.3738
 4042SOL     OW23761   2.126   3.210  12.984 -0.7209  0.2652  0.0417
 4042SOL    HW123762   2.079   3.288  13.014 -0.7907  0.8965 -1.6824
 4042SOL    HW223763   2.214   3.231  13.015 -0.3091 -0.0694 -0.8717
 4043SOL     OW23764   3.831   3.810  14.245  0.0918 -0.8877 -0.4864
 4043SOL    HW123765   3.909   3.775  14.289  0.3829 -1.9749 -1.8605
 4043SOL    HW223766   3.770   3.816  14.318  1.3318  2.1426  0.2855
 4044SOL     OW23767   3.576   4.132   8.516 -0.0020  0.6816  0.2661
 4044SOL    HW123768   3.633   4.204   8.489 -2.1850  2.1819 -0.3702
 4044SOL    HW223769   3.543   4.182   8.591  0.1615  0.5135  0.4501
 4045SOL     OW23770   1.033   0.805   2.219 -0.2267 -0.3138  0.5274
 4045SOL    HW123771   1.066   0.836   2.303 -0.5566 -0.9905  0.9053
 4045SOL    HW223772   1.115   0.794   2.170 -0.1299  1.5490  0.2740
 4046SOL     OW23773   0.768   2.852   4.489  0.1612 -0.2753 -0.3152
 4046SOL    HW123774   0.836   2.839   4.423 -0.0777  0.6399 -0.7333
 4046SOL    HW223775   0.817   2.866   4.570 -0.5151 -0.2603  0.0896
 4047SOL     OW23776   4.105   3.022   3.884 -0.0768  0.0861 -0.5220
 4047SOL    HW123777   4.168   3.086   3.917 -0.6843 -0.4004  1.5351
 4047SOL    HW223778   4.155   2.973   3.818 -0.1206  1.7332 -1.7649
 4048SOL     OW23779   4.100   3.317   7.571  0.4592  0.2247 -0.5390
 4048SOL    HW123780   4.187   3.329   7.533  0.9581 -0.6131  0.3272
 4048SOL    HW223781   4.110   3.262   7.649 -0.7988 -2.8037 -2.4800
 4049SOL     OW23782   2.205   1.350  13.668 -0.1495  0.4238  0.2343
 4049SOL    HW123783   2.252   1.336  13.751 -1.5510 -2.1275  0.5858
 4049SOL    HW223784   2.115   1.330  13.695 -0.5853 -1.3912 -2.5797
 4050SOL     OW23785   2.508   4.692   8.552 -0.5780 -0.3890 -0.1869
 4050SOL    HW123786   2.472   4.604   8.563  1.2950 -1.0110  0.9634
 4050SOL    HW223787   2.586   4.687   8.606  0.5457 -3.0050 -2.0099
 4051SOL     OW23788   1.656   2.109   5.881  0.0208  0.5194 -0.1477
 4051SOL    HW123789   1.692   2.043   5.822  0.6625 -1.3071  2.3462
 4051SOL    HW223790   1.642   2.183   5.821 -0.4934  2.6942  2.6285
 4052SOL     OW23791   1.746   4.264   8.704 -0.3190  0.5205  0.4101
 4052SOL    HW123792   1.765   4.216   8.623 -0.8031 -0.7754  1.0730
 4052SOL    HW223793   1.776   4.196   8.764  0.5496 -2.8878 -3.8467
 4053SOL     OW23794   2.718   1.531   6.661  0.2130  0.5143 -0.2403
 4053SOL    HW123795   2.686   1.591   6.729  1.6270  1.9156 -0.8121
 4053SOL    HW223796   2.733   1.456   6.719  0.3718  1.3444  0.7955
 4054SOL     OW23797   4.542   3.804  13.108 -0.1790 -0.1384 -0.3916
 4054SOL    HW123798   4.595   3.823  13.185 -0.8702  0.3189 -0.0284
 4054SOL    HW223799   4.481   3.743  13.150  1.6325 -1.5947  0.1230
 4055SOL     OW23800   2.128   3.726   4.375  0.1465 -0.6321 -0.1954
 4055SOL    HW123801   2.101   3.739   4.283  1.4231 -0.5829 -0.5555
 4055SOL    HW223802   2.221   3.704   4.374 -0.0186 -1.3244 -1.0876
 4056SOL     OW23803   3.553   3.232  11.503  0.2842 -0.0360 -0.0875
 4056SOL    HW123804   3.547   3.326  11.519  0.8433  0.0079 -0.1463
 4056SOL    HW223805   3.467   3.213  11.466  0.8765  0.3787 -1.6641
 4057SOL     OW23806   0.583   1.460  17.495 -0.1352  0.0802  0.6650
 4057SOL    HW123807   0.577   1.435  17.587  0.6562 -2.3786  0.0481
 4057SOL    HW223808   0.603   1.553  17.502 -1.4202  0.1855  2.9653
 4058SOL     OW23809   4.521   2.964  15.491 -0.7265 -0.1141 -0.6547
 4058SOL    HW123810   4.559   2.983  15.406  2.1588 -1.1890  0.4070
 4058SOL    HW223811   4.441   3.016  15.480 -1.5679 -1.6904 -1.9086
 4059SOL     OW23812   0.845   2.682   7.178 -0.4134  0.4319 -0.2801
 4059SOL    HW123813   0.864   2.695   7.085 -1.1407 -3.3577 -0.9697
 4059SOL    HW223814   0.875   2.592   7.189 -0.7969  0.4403  0.7956
 4060SOL     OW23815   2.020   3.495   9.713  0.4883  0.3620 -0.1957
 4060SOL    HW123816   1.981   3.470   9.629 -0.5602  0.6530  0.2087
 4060SOL    HW223817   2.089   3.547   9.672  0.5375 -0.1885 -0.8157
 4061SOL     OW23818   1.356   2.900  10.797  0.2901  0.3706 -1.0320
 4061SOL    HW123819   1.305   2.951  10.734 -1.8562  0.3673  0.7203
 4061SOL    HW223820   1.441   2.940  10.780  1.7198 -2.2179  0.1727
 4062SOL     OW23821   1.284   1.503  14.067 -0.1551  0.4807  0.3542
 4062SOL    HW123822   1.347   1.572  14.087 -0.0977  0.5216  0.0321
 4062SOL    HW223823   1.317   1.461  13.988 -3.2104 -0.8393 -0.2217
 4063SOL     OW23824   2.790   1.135  13.264  0.0578 -0.6512 -0.1341
 4063SOL    HW123825   2.767   1.209  13.208  1.1196 -1.6601 -1.9229
 4063SOL    HW223826   2.831   1.084  13.195  1.6854 -0.2524  0.5410
 4064SOL     OW23827   3.947   1.400   8.083 -0.1604  0.2649  0.0056
 4064SOL    HW123828   4.003   1.357   8.018 -1.4596 -0.8229 -0.3873
 4064SOL    HW223829   3.912   1.327   8.134  2.6350 -0.4307  0.9320
 4065SOL     OW23830   2.942   0.338   0.688  0.1422 -0.2267 -0.0796
 4065SOL    HW123831   2.955   0.433   0.681  2.2540 -0.5217 -0.1478
 4065SOL    HW223832   2.928   0.318   0.596  0.8171 -0.8726 -0.0461
 4066SOL     OW23833   2.727   3.716   2.978  0.9629  0.7972  0.3381
 4066SOL    HW123834   2.702   3.797   3.022 -0.4468  1.1385 -1.0736
 4066SOL    HW223835   2.803   3.694   3.031 -0.3405  0.2624  1.9803
 4067SOL     OW23836   3.582   2.750   0.424 -0.0579  0.3108  0.0414
 4067SOL    HW123837   3.659   2.797   0.459  0.2362 -0.5955  0.6099
 4067SOL    HW223838   3.505   2.805   0.439 -0.2312  0.5010 -1.5787
 4068SOL     OW23839   2.849   1.568   8.985  0.0579 -0.3064 -0.0650
 4068SOL    HW123840   2.924   1.510   8.967  0.2582 -0.0597 -0.0194
 4068SOL    HW223841   2.826   1.605   8.900 -0.1017 -0.5632 -0.1337
 4069SOL     OW23842   3.604   1.227   9.155 -0.1411 -0.2283  0.3672
 4069SOL    HW123843   3.558   1.310   9.165 -0.4183 -0.3209 -0.1007
 4069SOL    HW223844   3.526   1.171   9.156  0.1067 -0.5841 -0.0801
 4070SOL     OW23845   3.785   4.156  11.351  0.1711  0.4950  0.2105
 4070SOL    HW123846   3.878   4.137  11.360  0.1316  0.2886  0.1979
 4070SOL    HW223847   3.798   4.213  11.275  0.3925 -1.6371 -1.3600
 4071SOL     OW23848   2.573   1.281  10.785 -0.7794  0.2038 -0.1782
 4071SOL    HW123849   2.570   1.246  10.696 -2.8276 -0.6073  0.2194
 4071SOL    HW223850   2.519   1.359  10.770 -0.6752  1.1738  4.5597
 4072SOL     OW23851   0.471   4.545   8.299  0.2867  0.0145 -0.4224
 4072SOL    HW123852   0.502   4.597   8.225 -1.9893  0.8717 -0.7645
 4072SOL    HW223853   0.549   4.561   8.351 -0.4580 -1.0802  1.0536
 4073SOL     OW23854   1.277   1.386   7.958  0.8800  0.1193  0.3277
 4073SOL    HW123855   1.270   1.481   7.965  1.1835  0.3079 -1.7048
 4073SOL    HW223856   1.247   1.360   7.870  0.2159  2.2642 -0.0787
 4074SOL     OW23857   1.006   1.750  16.049 -0.4585 -0.3077 -0.1627
 4074SOL    HW123858   0.926   1.703  16.026 -1.0708  0.1725  0.9545
 4074SOL    HW223859   1.072   1.688  16.018 -0.8071 -0.8830  0.2441
 4075SOL     OW23860   3.106   1.550   9.140  0.2333 -0.6823 -0.3857
 4075SOL    HW123861   3.044   1.488   9.103  0.6009 -1.6611  0.6314
 4075SOL    HW223862   3.105   1.532   9.234  0.2785  0.5642 -0.1543
 4076SOL     OW23863   3.271   2.212   6.789 -0.2082 -0.0871  0.3014
 4076SOL    HW123864   3.339   2.182   6.729  0.9436 -0.1250  1.6021
 4076SOL    HW223865   3.232   2.276   6.730  0.3719 -0.1843 -0.1877
 4077SOL     OW23866   2.679   3.573  14.849  0.2491 -0.0454  1.0362
 4077SOL    HW123867   2.690   3.506  14.916  4.0451 -1.1561 -0.6976
 4077SOL    HW223868   2.758   3.627  14.852 -0.3083  0.7490  1.3426
 4078SOL     OW23869   4.662   1.181   1.701  0.0529 -0.4731 -0.3746
 4078SOL    HW123870   0.016   1.202   1.725  0.3807 -1.1293 -1.0288
 4078SOL    HW223871   4.657   1.180   1.605  1.8103 -0.4398 -0.4739
 4079SOL     OW23872   2.028   0.618   9.618 -0.1983 -0.3125  0.2741
 4079SOL    HW123873   1.938   0.592   9.600  0.2448 -0.2485 -2.0035
 4079SOL    HW223874   2.026   0.713   9.605  3.0890 -0.4580 -1.3422
 4080SOL     OW23875   1.025   2.638  14.631 -0.2619 -0.0481 -0.1141
 4080SOL    HW123876   0.961   2.588  14.682 -0.9766  0.4017 -0.5766
 4080SOL    HW223877   1.059   2.697  14.698 -1.5209 -0.4498  0.8755
 4081SOL     OW23878   2.556   4.424   7.836  0.5721 -0.0193 -0.3564
 4081SOL    HW123879   2.586   4.334   7.842  0.6796  0.0344 -0.0669
 4081SOL    HW223880   2.549   4.443   7.930 -1.7509 -2.2976 -0.0502
 4082SOL     OW23881   1.967   0.405  11.393  0.1238  0.0125 -0.5288
 4082SOL    HW123882   2.057   0.379  11.374  0.7867  2.0781 -0.2137
 4082SOL    HW223883   1.947   0.474  11.330  0.3089  2.4632  2.0804
 4083SOL     OW23884   2.902   2.850  11.569 -0.0146  0.4823  0.6389
 4083SOL    HW123885   2.830   2.913  11.558  0.8663  1.5509  0.9968
 4083SOL    HW223886   2.878   2.802  11.648  0.6442  0.9105  1.1018
 4084SOL     OW23887   0.683   2.725   4.003 -0.1105 -0.2152 -0.3378
 4084SOL    HW123888   0.702   2.668   3.929  2.3106 -0.2923  0.3120
 4084SOL    HW223889   0.592   2.706   4.023 -0.5050 -0.3094 -2.2562
 4085SOL     OW23890   3.566   3.347   5.453 -0.0557  0.0101 -0.2616
 4085SOL    HW123891   3.563   3.373   5.361 -0.9402  2.8185  0.5803
 4085SOL    HW223892   3.644   3.292   5.449 -0.8970 -1.1678 -0.7095
 4086SOL     OW23893   1.679   0.845   2.418 -0.3132  0.1377  0.3118
 4086SOL    HW123894   1.713   0.756   2.406 -1.4569 -0.3604  0.7940
 4086SOL    HW223895   1.756   0.894   2.445 -0.5982  1.3662 -1.1158
 4087SOL     OW23896   2.564   2.381   1.883  0.1887 -0.1709  1.0215
 4087SOL    HW123897   2.510   2.388   1.804  0.6160 -1.1049  0.6477
 4087SOL    HW223898   2.513   2.315   1.931 -2.2439 -1.1060 -2.8999
 4088SOL     OW23899   0.822   0.804   4.146  0.6697  0.1132  0.3523
 4088SOL    HW123900   0.775   0.783   4.066  1.1965  1.2796 -0.2688
 4088SOL    HW223901   0.745   0.805   4.203  0.1670 -0.7811 -0.3296
 4089SOL     OW23902   0.340   4.551   1.941  0.8859  0.4471  0.2180
 4089SOL    HW123903   0.375   4.635   1.970  0.9270  0.9482 -1.2691
 4089SOL    HW223904   0.403   4.532   1.871  1.4257  1.3082  0.4691
 4090SOL     OW23905   1.749   1.472   7.006  0.4116  0.7196 -0.0623
 4090SOL    HW123906   1.677   1.513   7.053 -1.1192 -2.2310  0.1732
 4090SOL    HW223907   1.824   1.531   7.012  1.8637 -1.1475  0.3711
 4091SOL     OW23908   0.992   3.891   6.069  0.3351  0.4475 -0.5956
 4091SOL    HW123909   0.963   3.920   6.155 -0.1099 -0.0092 -0.5918
 4091SOL    HW223910   0.907   3.866   6.033 -0.2404  0.1260  1.0108
 4092SOL     OW23911   4.716   4.082  14.928  0.1793  0.8196 -0.2274
 4092SOL    HW123912   4.702   4.021  15.001 -1.0945  1.8158  0.3768
 4092SOL    HW223913   4.633   4.089  14.880  0.5529 -0.0582 -1.0046
 4093SOL     OW23914   2.928   1.609   8.306  0.2058 -0.0697  0.2505
 4093SOL    HW123915   2.938   1.528   8.357 -1.8076  0.2052  1.1143
 4093SOL    HW223916   3.010   1.656   8.315 -0.0786  0.3107  0.8591
 4094SOL     OW23917   3.301   2.014   4.638  0.2463 -0.6830  0.3916
 4094SOL    HW123918   3.371   1.972   4.587  1.1379 -0.4067  1.3817
 4094SOL    HW223919   3.287   2.088   4.578 -0.3601 -1.1736 -0.0788
 4095SOL     OW23920   1.823   0.977  17.697  0.2688 -0.3818 -0.5348
 4095SOL    HW123921   1.786   1.045  17.642 -1.9182 -1.2048 -0.0571
 4095SOL    HW223922   1.794   1.003   0.041  0.3248  1.7361 -1.1536
 4096SOL     OW23923   4.390   0.758   6.564 -0.3098  0.2029  0.2534
 4096SOL    HW123924   4.421   0.794   6.480  0.5087  0.1791  0.5371
 4096SOL    HW223925   4.425   0.818   6.630  0.1987 -1.8635  1.8689
 4097SOL     OW23926   4.318   3.422   5.072 -0.3926 -0.7014  0.0117
 4097SOL    HW123927   4.286   3.355   5.131 -0.3256 -1.6044 -0.9818
 4097SOL    HW223928   4.260   3.496   5.090  1.0174  0.8716 -1.7376
 4098SOL     OW23929   3.027   2.689   5.489 -0.0470  0.3713 -0.0539
 4098SOL    HW123930   2.985   2.749   5.550 -1.4445  0.4750 -1.1118
 4098SOL    HW223931   3.040   2.750   5.417  1.5414  1.3663  1.0892
 4099SOL     OW23932   3.784   2.549   3.734 -0.5145 -0.1014 -0.0750
 4099SOL    HW123933   3.813   2.550   3.643 -0.2666  1.6104  0.0236
 4099SOL    HW223934   3.791   2.456   3.754 -0.4384 -0.4061 -1.4891
 4100SOL     OW23935   3.453   2.090   6.594  0.0691 -0.5371 -0.8513
 4100SOL    HW123936   3.500   2.008   6.611 -0.4647 -0.6144  0.2510
 4100SOL    HW223937   3.517   2.149   6.554 -0.2907  0.9635  0.7831
 4101SOL     OW23938   2.430   3.631   6.275 -0.1048 -0.3092  0.1730
 4101SOL    HW123939   2.473   3.600   6.196  0.4913  1.3164 -0.1464
 4101SOL    HW223940   2.455   3.723   6.277 -0.1130 -0.3086  0.2735
 4102SOL     OW23941   3.106   0.479   9.260 -0.0978 -0.0100  0.7693
 4102SOL    HW123942   3.137   0.426   9.186  0.0376 -0.6340  1.2701
 4102SOL    HW223943   3.163   0.466   9.336 -0.4960  0.6509  1.1793
 4103SOL     OW23944   0.533   0.096   1.927  0.1047 -0.1651  0.6055
 4103SOL    HW123945   0.471   0.095   2.000 -0.3665 -0.4883  0.1982
 4103SOL    HW223946   0.617   0.067   1.963  0.8551  1.6008  0.2505
 4104SOL     OW23947   4.286   3.619  17.338  0.0385 -0.4498  0.3048
 4104SOL    HW123948   4.371   3.592  17.372 -0.0927  0.8754  1.7162
 4104SOL    HW223949   4.307   3.662  17.255 -1.1417 -1.4242 -0.5027
 4105SOL     OW23950   1.663   2.512   2.971 -0.2147  0.0216  0.5223
 4105SOL    HW123951   1.740   2.470   2.932  0.7317  0.8771  1.4774
 4105SOL    HW223952   1.595   2.488   2.909  1.1307  1.0899 -1.3984
 4106SOL     OW23953   2.519   4.707  12.107 -0.5960  0.5448 -0.0118
 4106SOL    HW123954   2.460   4.725  12.035  0.3215 -0.9384 -1.1347
 4106SOL    HW223955   2.487   0.036  12.168 -2.6206 -0.3418 -0.1382
 4107SOL     OW23956   3.012   2.366   4.677  0.6619  0.5290  0.1510
 4107SOL    HW123957   3.072   2.376   4.751  0.2437  1.4196  0.3662
 4107SOL    HW223958   2.992   2.457   4.657  1.6935  0.4963 -1.0562
 4108SOL     OW23959   3.071   4.169   6.786  0.1929  0.7877 -0.9232
 4108SOL    HW123960   3.086   4.238   6.721  2.3714  0.6703 -0.5494
 4108SOL    HW223961   3.153   4.120   6.781 -1.0398 -1.2068 -1.6711
 4109SOL     OW23962   1.470   1.997   5.019 -0.2222  0.3552 -0.2921
 4109SOL    HW123963   1.492   2.065   5.083 -2.0132 -0.4574  1.1723
 4109SOL    HW223964   1.432   2.050   4.950 -1.0725  2.9499  2.1812
 4110SOL     OW23965   1.604   3.726   0.990  0.3126 -0.2318  0.5193
 4110SOL    HW123966   1.511   3.702   0.996  0.6424 -1.4996  0.6876
 4110SOL    HW223967   1.632   3.692   1.075 -2.7107  0.4726  1.7959
 4111SOL     OW23968   2.775   3.484  17.483 -0.3785  0.4972  0.0577
 4111SOL    HW123969   2.811   3.457  17.399 -1.5950 -1.5888  0.2055
 4111SOL    HW223970   2.721   3.414  17.521  0.4560  0.2909  0.8654
 4112SOL     OW23971   4.540   3.093   8.170  0.4247  0.2332 -0.3032
 4112SOL    HW123972   4.502   3.069   8.255  0.4847  0.2160 -0.2817
 4112SOL    HW223973   4.461   3.133   8.134 -0.1988 -1.9470 -1.3713
 4113SOL     OW23974   0.794   2.122   4.270  0.0304 -0.1067 -0.0985
 4113SOL    HW123975   0.734   2.193   4.247 -0.0728 -0.3845 -0.6953
 4113SOL    HW223976   0.837   2.171   4.339  1.2136 -1.2011 -0.0638
 4114SOL     OW23977   3.669   3.487  12.755 -0.5168  0.3235 -0.1916
 4114SOL    HW123978   3.708   3.554  12.698  1.1233 -0.6458 -0.2035
 4114SOL    HW223979   3.575   3.507  12.762 -0.7786 -0.8122 -0.5707
 4115SOL     OW23980   4.305   2.372   2.931  0.1783  1.1561  0.2403
 4115SOL    HW123981   4.244   2.303   2.902  4.8636 -2.4770 -0.8905
 4115SOL    HW223982   4.318   2.426   2.853  0.2440  0.3732 -0.2956
 4116SOL     OW23983   1.577   3.219   3.378 -0.1359 -0.6192  0.0318
 4116SOL    HW123984   1.523   3.143   3.357 -0.1519 -1.7175  3.9667
 4116SOL    HW223985   1.623   3.203   3.461  0.3409 -2.6753 -0.6355
 4117SOL     OW23986   2.668   3.953   1.493  0.1782 -0.8933  0.2444
 4117SOL    HW123987   2.593   4.009   1.516  2.1154  1.4615  0.8290
 4117SOL    HW223988   2.714   3.997   1.421 -2.3950  1.7581  0.2100
 4118SOL     OW23989   2.362   3.945   1.397  0.5878 -0.2903  0.3992
 4118SOL    HW123990   2.420   3.915   1.327  0.5206 -0.3378  0.3638
 4118SOL    HW223991   2.328   4.029   1.367  4.6398  1.2033  0.0190
 4119SOL     OW23992   2.501   0.823   8.134  0.2106 -0.5519 -0.1887
 4119SOL    HW123993   2.543   0.907   8.153  0.2623 -0.6754  0.2582
 4119SOL    HW223994   2.561   0.764   8.180  0.6279 -0.5493 -0.7412
 4120SOL     OW23995   1.696   3.105  12.420 -0.2158 -0.1715  0.4843
 4120SOL    HW123996   1.603   3.115  12.400 -0.0692  1.5019  0.6428
 4120SOL    HW223997   1.697   3.033  12.483 -1.7370 -0.0197  0.6838
 4121SOL     OW23998   3.077   0.568   5.297  0.4397 -0.8891  0.2899
 4121SOL    HW123999   3.000   0.524   5.332  0.4270 -0.6094  0.6186
 4121SOL    HW224000   3.126   0.496   5.258  0.9995 -0.8038  0.8379
 4122SOL     OW24001   0.899   0.601   5.566  0.2724 -0.0727  0.4948
 4122SOL    HW124002   0.986   0.562   5.576  1.1718  1.8010 -0.1382
 4122SOL    HW224003   0.876   0.608   5.473 -0.1741  1.6879  0.7431
 4123SOL     OW24004   3.456   1.084   2.561 -0.0464 -0.0518 -0.0285
 4123SOL    HW124005   3.514   1.132   2.502  0.0211 -0.4458 -0.2757
 4123SOL    HW224006   3.452   1.157   2.623  0.1319  0.7341 -0.9440
 4124SOL     OW24007   4.174   3.360   5.895  0.1452 -0.4426  0.6439
 4124SOL    HW124008   4.130   3.441   5.920 -1.4823 -1.1172 -0.0637
 4124SOL    HW224009   4.263   3.392   5.882  0.2547 -0.5164  1.1869
 4125SOL     OW24010   0.950   2.576  15.084  0.1460 -0.1431  0.0108
 4125SOL    HW124011   0.889   2.509  15.052 -1.2147  1.3751 -0.5733
 4125SOL    HW224012   0.885   2.638  15.117 -0.1900 -0.4016 -0.1587
 4126SOL     OW24013   0.419   4.365   7.657 -0.2817 -0.5500  0.2964
 4126SOL    HW124014   0.513   4.379   7.654 -0.5359  1.3268  0.7551
 4126SOL    HW224015   0.420   4.274   7.686 -0.4063 -1.3723 -2.2499
 4127SOL     OW24016   4.239   1.471   7.876 -0.0935 -0.2132 -0.3832
 4127SOL    HW124017   4.229   1.417   7.955 -1.7808  0.3855 -0.1920
 4127SOL    HW224018   4.259   1.411   7.805  0.3564 -1.7064  0.9947
 4128SOL     OW24019   3.775   3.709   5.765  0.6306 -0.0875  0.1512
 4128SOL    HW124020   3.740   3.620   5.754 -3.4616  1.6549 -1.0593
 4128SOL    HW224021   3.690   3.745   5.791 -0.2266 -2.0366  0.0615
 4129SOL     OW24022   4.697   1.644   6.961  0.1655  0.0869  0.3417
 4129SOL    HW124023   0.055   1.655   6.960  0.2503 -0.6511 -0.2614
 4129SOL    HW224024   4.660   1.731   6.978 -1.4282 -0.7063  0.9696
 4130SOL     OW24025   0.844   0.266   1.998  0.2636 -0.2548 -0.2973
 4130SOL    HW124026   0.890   0.350   1.995  2.3411 -1.2663  3.1597
 4130SOL    HW224027   0.814   0.265   1.907  1.3927  1.2689 -0.6728
 4131SOL     OW24028   0.938   1.574   3.598  0.8299  0.0904  0.3035
 4131SOL    HW124029   1.015   1.575   3.542  1.5842  1.9784  1.3928
 4131SOL    HW224030   0.936   1.667   3.618  3.4742  0.4835 -1.2733
 4132SOL     OW24031   4.688   0.227   5.755  0.6163 -0.0331 -0.0991
 4132SOL    HW124032   4.637   0.156   5.716 -0.5042  2.5443 -3.2881
 4132SOL    HW224033   4.716   0.190   5.839  0.3122 -1.0027 -0.4181
 4133SOL     OW24034   0.408   1.489  14.509 -0.3771 -0.6845  0.7516
 4133SOL    HW124035   0.335   1.517  14.453  0.6787 -0.0301 -0.3062
 4133SOL    HW224036   0.431   1.405  14.470 -0.9515  0.3104 -1.7378
 4134SOL     OW24037   0.677   1.194   8.674 -0.1739  0.4456  0.1500
 4134SOL    HW124038   0.674   1.188   8.578  2.0791  0.1888  0.0913
 4134SOL    HW224039   0.623   1.121   8.702 -1.0952  1.7572  1.7620
 4135SOL     OW24040   2.497   0.511   3.386 -0.1844  0.1972 -0.1104
 4135SOL    HW124041   2.403   0.502   3.370  0.2416  0.1273 -2.5589
 4135SOL    HW224042   2.489   0.593   3.337 -2.2558 -0.2791 -0.5847
 4136SOL     OW24043   1.949   0.042   2.018 -0.3388 -0.2873 -0.6101
 4136SOL    HW124044   1.980   0.076   2.102 -0.9139  0.1539 -0.5743
 4136SOL    HW224045   1.965   4.685   2.023 -0.7932 -0.1754  3.0720
 4137SOL     OW24046   2.331   2.477   7.696 -0.5233  0.5456  0.1819
 4137SOL    HW124047   2.400   2.536   7.669 -0.8165 -0.8210 -3.5569
 4137SOL    HW224048   2.378   2.395   7.712 -0.8161  0.3043 -0.1923
 4138SOL     OW24049   3.856   4.463   8.665 -0.2850 -0.1551  0.2954
 4138SOL    HW124050   3.808   4.542   8.637 -1.6574 -1.1977 -0.2785
 4138SOL    HW224051   3.822   4.464   8.755 -2.5746  1.4416 -0.5666
 4139SOL     OW24052   3.301   4.719  11.729 -0.1658  0.2037  0.2180
 4139SOL    HW124053   3.253   0.063  11.746 -1.3480 -0.8514  1.8706
 4139SOL    HW224054   3.314   4.718  11.634 -0.1050 -1.1052  0.2489
 4140SOL     OW24055   1.922   2.271   2.183 -0.5321  0.0676 -0.0335
 4140SOL    HW124056   1.864   2.287   2.108 -0.3230 -0.6677 -0.3549
 4140SOL    HW224057   2.003   2.258   2.135 -0.6247  2.2002 -0.7977
 4141SOL     OW24058   1.554   3.927   1.940 -0.0579 -0.5349 -0.0539
 4141SOL    HW124059   1.518   3.845   1.908  0.8972 -1.2218  0.6352
 4141SOL    HW224060   1.474   3.979   1.943  1.4037  1.7252 -0.0905
 4142SOL     OW24061   2.302   1.852   8.062 -0.2733 -0.0736 -0.3824
 4142SOL    HW124062   2.359   1.797   8.008 -1.2706  0.6022 -2.0800
 4142SOL    HW224063   2.369   1.883   8.124  0.4599 -0.2320 -1.0905
 4143SOL     OW24064   2.731   3.786   8.146  0.2058 -0.3256  0.0983
 4143SOL    HW124065   2.824   3.764   8.152  0.9903  3.2065  1.4186
 4143SOL    HW224066   2.702   3.724   8.080 -0.5076  0.9584 -0.8127
 4144SOL     OW24067   2.701   2.316   2.423  0.1006  0.6185 -0.0173
 4144SOL    HW124068   2.697   2.411   2.434  3.0197  0.7860 -0.5573
 4144SOL    HW224069   2.609   2.297   2.441  0.2951 -1.1508 -0.9221
 4145SOL     OW24070   4.139   1.005  16.982  0.0061 -0.1735  0.6431
 4145SOL    HW124071   4.176   1.054  17.055 -0.5479  2.9685 -1.2017
 4145SOL    HW224072   4.191   0.925  16.978  1.1742  0.5529  1.2633
 4146SOL     OW24073   0.720   0.323   8.143 -0.1573 -0.4459 -0.4366
 4146SOL    HW124074   0.725   0.418   8.142  0.7608 -0.4927  0.1105
 4146SOL    HW224075   0.715   0.291   8.233 -3.9676  1.4484 -0.0011
 4147SOL     OW24076   2.210   4.608   7.276 -0.0959 -0.1563 -0.3573
 4147SOL    HW124077   2.233   4.588   7.367 -0.0323 -1.0441 -0.5682
 4147SOL    HW224078   2.285   4.658   7.244 -1.2486  1.0996 -1.1105
 4148SOL     OW24079   4.251   2.833  14.247  0.4560  0.1863  0.1999
 4148SOL    HW124080   4.180   2.805  14.189  0.2227  1.2507 -0.0406
 4148SOL    HW224081   4.227   2.794  14.331 -2.2712 -0.5359 -0.9225
 4149SOL     OW24082   2.975   2.982  17.314  0.1215 -0.4106  0.0039
 4149SOL    HW124083   3.018   3.036  17.380  0.1619  1.1458 -1.3043
 4149SOL    HW224084   2.898   3.038  17.303  1.1926  1.1904  0.7924
 4150SOL     OW24085   3.593   3.727  16.550 -0.0545  0.0310 -0.3401
 4150SOL    HW124086   3.683   3.755  16.568  0.4927 -0.8270 -1.7934
 4150SOL    HW224087   3.590   3.701  16.458 -1.2100 -0.3895 -0.1887
 4151SOL     OW24088   3.904   3.968   7.805  0.1519 -0.0075  0.2983
 4151SOL    HW124089   3.932   4.032   7.739 -1.0521  1.4583  1.2053
 4151SOL    HW224090   3.867   3.901   7.746 -0.0093 -0.8255  1.3339
 4152SOL     OW24091   2.176   2.718  16.201 -0.3328 -0.1823  0.4652
 4152SOL    HW124092   2.080   2.713  16.206 -0.3240 -0.2482  0.5711
 4152SOL    HW224093   2.184   2.800  16.250 -2.9154  0.2871  0.1445
 4153SOL     OW24094   0.871   1.280   6.051  0.2774 -0.1358  0.0224
 4153SOL    HW124095   0.956   1.242   6.026 -0.5876 -1.4146 -0.9748
 4153SOL    HW224096   0.809   1.208   6.054  0.5005 -0.2781  1.1973
 4154SOL     OW24097   2.730   3.738   4.339 -0.4703  0.2298 -0.6168
 4154SOL    HW124098   2.642   3.735   4.375 -0.2380  0.9521  0.0071
 4154SOL    HW224099   2.710   3.745   4.245  0.7674  0.8884 -0.8378
 4155SOL     OW24100   4.005   2.859  15.017 -0.3355 -0.3131 -0.0735
 4155SOL    HW124101   4.073   2.882  14.955  0.5108  2.2128  1.7840
 4155SOL    HW224102   4.062   2.834  15.090 -1.4301  0.8341  1.1726
 4156SOL     OW24103   1.630   2.493  10.943 -0.1856  0.2971  0.1129
 4156SOL    HW124104   1.700   2.451  10.892  0.3846 -1.5931  2.4713
 4156SOL    HW224105   1.632   2.443  11.025  0.4587 -0.0998 -0.1395
 4157SOL     OW24106   1.059   3.322   6.129 -0.0151  0.0322  0.3683
 4157SOL    HW124107   0.968   3.309   6.156 -0.9366  0.8456 -2.3207
 4157SOL    HW224108   1.046   3.402   6.078  3.1831  1.0319  1.1356
 4158SOL     OW24109   3.487   0.848   3.652  0.3016 -0.5818  0.0482
 4158SOL    HW124110   3.560   0.849   3.591 -0.8990  1.2981 -1.3680
 4158SOL    HW224111   3.437   0.781   3.605  0.7394 -1.3259  0.6501
 4159SOL     OW24112   4.024   3.127   4.347  0.2673  0.0575  0.8740
 4159SOL    HW124113   4.045   3.068   4.274 -3.5115  1.3657 -1.3069
 4159SOL    HW224114   3.963   3.076   4.400 -0.0161 -2.0730 -1.5073
 4160SOL     OW24115   1.706   2.931   0.770  0.2125  0.3640  0.1517
 4160SOL    HW124116   1.777   2.943   0.707  0.2609 -0.1982  0.0962
 4160SOL    HW224117   1.663   3.016   0.777 -1.2102 -0.4843  1.5718
 4161SOL     OW24118   4.135   1.964   7.277  0.3968 -0.0284  0.1184
 4161SOL    HW124119   4.121   1.908   7.201 -0.6241 -0.4995  0.6615
 4161SOL    HW224120   4.133   2.053   7.241  1.0711  1.1323  2.9122
 4162SOL     OW24121   2.048   0.536   4.134 -0.1302 -0.0577 -0.1330
 4162SOL    HW124122   2.023   0.530   4.226 -0.3459  0.5415 -0.1504
 4162SOL    HW224123   1.966   0.547   4.087 -0.4579  1.1122  0.7124
 4163SOL     OW24124   4.712   1.086   6.833 -0.3451 -0.2632 -0.1411
 4163SOL    HW124125   0.013   1.148   6.771  1.1719 -2.5517 -1.5170
 4163SOL    HW224126   0.053   1.035   6.855  0.3723  0.6848 -0.4714
 4164SOL     OW24127   2.445   4.731   7.961 -0.3110 -0.1099  0.1251
 4164SOL    HW124128   2.392   0.074   7.966  1.7141  1.1543  1.8067
 4164SOL    HW224129   2.479   4.733   7.872 -0.3351  1.8751  0.1648
 4165SOL     OW24130   3.584   1.821   5.500  0.2144 -0.2979  0.0026
 4165SOL    HW124131   3.555   1.827   5.408  0.4905  0.1566 -0.0581
 4165SOL    HW224132   3.604   1.913   5.518 -1.3651  0.5797 -2.5336
 4166SOL     OW24133   2.817   1.453  15.448  0.1692 -0.2739  0.1233
 4166SOL    HW124134   2.769   1.488  15.523  0.6495 -0.8044  0.6730
 4166SOL    HW224135   2.799   1.527  15.390 -1.4454 -0.7819 -0.0332
 4167SOL     OW24136   1.171   4.668   7.030  0.2152 -0.2980 -0.3576
 4167SOL    HW124137   1.181   4.690   6.938 -1.0036  0.8435 -0.2122
 4167SOL    HW224138   1.076   4.657   7.031  0.0966  0.7470 -0.3544
 4168SOL     OW24139   4.176   4.614   4.661  0.0427  0.2007  0.9791
 4168SOL    HW124140   4.205   4.532   4.621 -0.9852 -0.0250  0.6984
 4168SOL    HW224141   4.249   4.642   4.717  0.3963 -3.2612  2.2369
 4169SOL     OW24142   3.568   1.185   0.546  0.1444 -0.3363  0.4829
 4169SOL    HW124143   3.474   1.185   0.524  0.2086 -0.2892  0.2045
 4169SOL    HW224144   3.603   1.221   0.464  0.1568 -1.1538  0.1266
 4170SOL     OW24145   3.637   3.302  17.148  0.2049  0.1437 -0.0774
 4170SOL    HW124146   3.645   3.218  17.102  0.6300 -0.9699  2.0011
 4170SOL    HW224147   3.649   3.366  17.078 -2.0281  0.3265 -0.3039
 4171SOL     OW24148   0.665   1.872  13.378  0.3253  0.6896  0.2868
 4171SOL    HW124149   0.730   1.803  13.389  2.1331  2.4307  0.3714
 4171SOL    HW224150   0.644   1.892  13.287  3.2777  2.2708 -0.0222
 4172SOL     OW24151   4.074   3.115  13.711 -0.3895  0.4805  0.1816
 4172SOL    HW124152   4.147   3.175  13.725  0.8255 -1.1730  0.9939
 4172SOL    HW224153   4.118   3.032  13.731  0.1985  0.1691 -2.4373
 4173SOL     OW24154   0.993   3.297   1.486 -0.1661 -0.3302 -0.0579
 4173SOL    HW124155   0.982   3.342   1.570  0.7406 -1.1269  0.4938
 4173SOL    HW224156   1.027   3.378   1.447  0.7274 -1.1737 -1.0181
 4174SOL     OW24157   2.073   4.190   6.886 -0.0314 -0.0552  0.6081
 4174SOL    HW124158   1.989   4.177   6.842 -0.9731  1.1460  2.0435
 4174SOL    HW224159   2.086   4.285   6.888 -0.7525  0.0410  0.9817
 4175SOL     OW24160   3.056   0.764   9.986 -0.1744  0.1274 -1.0394
 4175SOL    HW124161   3.012   0.691   9.942  0.3304  0.1377 -1.5607
 4175SOL    HW224162   3.076   0.820   9.911  0.9330 -0.9607 -1.5469
 4176SOL     OW24163   2.035   1.503   5.459 -0.0126 -0.2271  0.3508
 4176SOL    HW124164   1.974   1.515   5.386  0.1749 -1.9353 -0.0733
 4176SOL    HW224165   2.017   1.577   5.517  0.3876 -0.9419  1.3726
 4177SOL     OW24166   4.655   0.734   0.014 -0.0244  0.1091 -0.0185
 4177SOL    HW124167   0.014   0.723   0.017 -0.3442 -2.5453  0.4349
 4177SOL    HW224168   4.630   0.655  17.711 -0.1869 -0.1035  0.4266
 4178SOL     OW24169   1.007   1.745   6.927 -0.1043 -0.1535  0.4993
 4178SOL    HW124170   0.986   1.657   6.959 -0.0927 -0.9625 -1.6615
 4178SOL    HW224171   1.085   1.766   6.978  0.3529  0.8731 -0.6141
 4179SOL     OW24172   0.718   4.727   0.813 -0.3270 -0.3077  0.3710
 4179SOL    HW124173   0.658   0.065   0.818 -2.3237 -1.8548 -0.8906
 4179SOL    HW224174   0.672   4.674   0.749 -2.2939 -1.3589  2.6706
 4180SOL     OW24175   4.426   1.955  13.165 -0.4004  0.0224 -0.6470
 4180SOL    HW124176   4.478   1.988  13.091  1.5189 -0.2030  0.5988
 4180SOL    HW224177   4.414   2.042  13.204 -1.4412  0.7504 -2.5923
 4181SOL     OW24178   0.922   1.717   9.307  0.0112  0.2907  0.4075
 4181SOL    HW124179   0.914   1.631   9.266 -1.1201  0.4108  0.3795
 4181SOL    HW224180   0.858   1.707   9.378  1.1820 -0.7243  1.3320
 4182SOL     OW24181   1.452   2.299   3.960 -0.1212 -0.1945  0.2899
 4182SOL    HW124182   1.440   2.362   3.888  1.0786 -1.4247 -0.9867
 4182SOL    HW224183   1.416   2.218   3.925  0.1586 -0.4181  0.5194
 4183SOL     OW24184   3.833   3.866   6.100 -0.0556 -0.0006  0.2139
 4183SOL    HW124185   3.819   3.834   6.189  0.1304 -2.9269 -0.8083
 4183SOL    HW224186   3.762   3.815   6.061  0.2537 -0.9037  0.8257
 4184SOL     OW24187   0.965   0.182   3.909  0.0965  0.3919  0.1687
 4184SOL    HW124188   0.961   0.131   3.828 -2.2797  3.0922 -1.4463
 4184SOL    HW224189   0.985   0.270   3.878 -0.6122  0.7906  0.8150
 4185SOL     OW24190   4.043   1.660   7.902  0.3977 -0.8443  0.0501
 4185SOL    HW124191   4.096   1.582   7.915  0.3722 -0.7299  0.8236
 4185SOL    HW224192   3.993   1.642   7.822  1.8709  0.9579 -1.2808
 4186SOL     OW24193   3.336   1.170   8.244  0.7907 -0.5162 -0.0806
 4186SOL    HW124194   3.390   1.167   8.322 -1.9310  0.2448  1.8479
 4186SOL    HW224195   3.327   1.077   8.224  1.1986 -0.6069  0.1824
 4187SOL     OW24196   4.091   0.324  17.598 -0.0586 -0.0867 -0.9137
 4187SOL    HW124197   4.124   0.393  17.656  1.0074 -1.3734  0.0169
 4187SOL    HW224198   4.067   0.255  17.659 -0.7431  1.3189  0.4046
 4188SOL     OW24199   2.055   4.317  10.827  0.7932 -0.1574 -0.3090
 4188SOL    HW124200   2.109   4.293  10.902  3.7882  0.3412 -2.3349
 4188SOL    HW224201   1.969   4.295  10.864  0.2590  0.2233 -1.3432
 4189SOL     OW24202   3.146   2.963  11.000  0.0629 -0.4492  0.1069
 4189SOL    HW124203   3.070   2.944  11.056 -1.3919  0.7824 -1.4269
 4189SOL    HW224204   3.159   2.876  10.964 -0.4381  0.1447 -1.5256
 4190SOL     OW24205   2.117   0.595   3.005  0.3299 -0.2070  0.1245
 4190SOL    HW124206   2.203   0.637   3.007  0.6290 -1.0155  3.3618
 4190SOL    HW224207   2.072   0.652   2.942  1.1556  1.5027  1.0792
 4191SOL     OW24208   2.435   4.203   7.108  0.1193 -0.0878 -0.4931
 4191SOL    HW124209   2.341   4.199   7.088  0.1042 -1.4228 -0.1248
 4191SOL    HW224210   2.452   4.295   7.129 -1.0129 -0.0996  0.4778
 4192SOL     OW24211   4.336   0.207   5.735 -0.0747  0.4277 -0.0265
 4192SOL    HW124212   4.272   0.253   5.790  1.4899 -0.3437  2.4391
 4192SOL    HW224213   4.298   0.222   5.648  2.1403  0.1446 -1.0295
 4193SOL     OW24214   4.589   4.407  12.505 -0.2832  0.1504 -0.2515
 4193SOL    HW124215   4.676   4.380  12.475 -0.2444  2.2438 -1.9694
 4193SOL    HW224216   4.622   4.488  12.543 -1.6182 -0.3816  2.0342
 4194SOL     OW24217   4.423   0.078  12.972 -0.3827 -0.7523  0.3636
 4194SOL    HW124218   4.343   0.128  12.988 -0.6468  0.1508 -3.7088
 4194SOL    HW224219   4.398   0.045  12.885  0.2041  1.8440 -0.7795
 4195SOL     OW24220   2.387   4.709   3.268  0.3678  0.9118  0.4195
 4195SOL    HW124221   2.472   4.673   3.294  0.2553  0.1591 -0.2713
 4195SOL    HW224222   2.339   4.626   3.264  1.1900  0.5013 -0.8600
 4196SOL     OW24223   2.725   2.393   7.859 -0.2138 -0.3628  0.1921
 4196SOL    HW124224   2.700   2.401   7.767  0.6625  0.2974  0.0103
 4196SOL    HW224225   2.742   2.484   7.884  0.7441 -0.1879 -1.1021
 4197SOL     OW24226   1.126   1.217   5.875 -0.0185 -0.2111 -0.0092
 4197SOL    HW124227   1.085   1.156   5.812 -1.5094 -0.8572  1.5965
 4197SOL    HW224228   1.209   1.170   5.887 -0.3695 -0.4812  1.3604
 4198SOL     OW24229   0.627   0.746   4.324  0.4858 -0.1334  0.4179
 4198SOL    HW124230   0.597   0.814   4.384  2.1737  1.8648 -1.0422
 4198SOL    HW224231   0.650   0.676   4.386 -1.9642  0.9871  2.5944
 4199SOL     OW24232   3.508   2.731   3.322 -0.2912 -0.1238  0.0157
 4199SOL    HW124233   3.514   2.772   3.236  0.6235 -2.4286 -1.0328
 4199SOL    HW224234   3.417   2.752   3.345 -0.5983 -1.2356 -0.1577
 4200SOL     OW24235   1.934   4.305   1.297  0.5297 -0.6055  0.1589
 4200SOL    HW124236   1.931   4.354   1.215  2.0056 -0.8475 -0.0378
 4200SOL    HW224237   1.879   4.229   1.278  0.0245 -0.0742 -0.4862
 4201SOL     OW24238   4.577   3.095  11.821 -0.0626  0.6709  0.3321
 4201SOL    HW124239   4.594   3.103  11.915  2.1264 -0.5555  0.0444
 4201SOL    HW224240   4.519   3.170  11.813 -3.2290 -1.5325  2.7835
 4202SOL     OW24241   4.127   0.909   5.668 -0.5144 -0.0373 -0.0306
 4202SOL    HW124242   4.221   0.895   5.680 -0.1776  0.0219 -2.6308
 4202SOL    HW224243   4.092   0.844   5.606 -1.4033  0.2889  0.1254
 4203SOL     OW24244   0.763   1.137   6.324  0.1066 -0.1314 -0.2497
 4203SOL    HW124245   0.701   1.159   6.393 -0.9077  2.2213 -1.9234
 4203SOL    HW224246   0.813   1.217   6.336  0.8707 -0.8756  1.5562
 4204SOL     OW24247   4.258   1.149   3.964  0.5455 -0.6665  0.2171
 4204SOL    HW124248   4.343   1.149   3.919 -0.4463 -1.9643 -1.6428
 4204SOL    HW224249   4.257   1.235   4.006  3.3489 -0.1790 -0.6779
 4205SOL     OW24250   1.225   0.929   0.788  0.6115  0.5123  0.7506
 4205SOL    HW124251   1.205   0.905   0.697 -0.5426 -1.3663  1.5060
 4205SOL    HW224252   1.318   0.944   0.771  0.7285 -1.6281 -0.4873
 4206SOL     OW24253   1.518   0.833   5.807 -0.2186 -0.5608  0.8841
 4206SOL    HW124254   1.562   0.825   5.892 -0.3138  1.3745  1.1171
 4206SOL    HW224255   1.454   0.763   5.811  0.0742 -0.8136  1.1601
 4207SOL     OW24256   1.787   2.655   6.244 -0.1592 -0.1520 -0.4378
 4207SOL    HW124257   1.851   2.653   6.173  0.7393 -1.0255  0.3948
 4207SOL    HW224258   1.786   2.749   6.265  3.2521 -1.1023  4.1459
 4208SOL     OW24259   4.476   3.050   5.814  0.3307 -0.1082  0.4767
 4208SOL    HW124260   4.504   2.969   5.769  1.5693  1.1478 -1.0386
 4208SOL    HW224261   4.480   3.120   5.749  0.3771 -2.0313 -1.5947
 4209SOL     OW24262   4.477   0.462   6.052  0.0040  0.4179 -0.2118
 4209SOL    HW124263   4.488   0.544   6.099  1.2071  0.0483  0.1346
 4209SOL    HW224264   4.383   0.474   6.041 -0.1888 -0.9998 -0.0747
 4210SOL     OW24265   1.541   2.256  13.277  0.3741 -0.0816  0.7392
 4210SOL    HW124266   1.576   2.213  13.199 -1.2150  0.8580 -0.5024
 4210SOL    HW224267   1.499   2.328  13.230  2.8771 -0.2867 -1.7764
 4211SOL     OW24268   3.808   4.505   6.093 -0.0254 -0.4687 -0.6174
 4211SOL    HW124269   3.720   4.494   6.058 -0.6003  0.9641  0.3840
 4211SOL    HW224270   3.819   4.596   6.065 -0.6788 -0.8294 -2.0443
 4212SOL     OW24271   2.537   4.004  11.105 -0.8590 -0.2445  0.1805
 4212SOL    HW124272   2.446   4.000  11.075 -1.1053  0.7131  0.8078
 4212SOL    HW224273   2.538   4.061  11.182  0.1534  0.4991 -0.3889
 4213SOL     OW24274   2.745   1.255  11.009 -0.4512  0.2925 -0.7443
 4213SOL    HW124275   2.692   1.254  10.929 -1.5823 -0.5316  0.0110
 4213SOL    HW224276   2.758   1.350  11.004 -1.8755  0.4822 -0.7670
 4214SOL     OW24277   3.659   3.038   9.364 -0.3185 -0.0577 -0.6338
 4214SOL    HW124278   3.673   3.117   9.312 -1.0417  0.7234  0.3560
 4214SOL    HW224279   3.646   2.968   9.299 -1.0207  0.3088 -0.8849
 4215SOL     OW24280   0.810   0.144   4.309  0.6998 -0.0874 -0.3768
 4215SOL    HW124281   0.756   0.107   4.379 -0.3194 -1.3834 -1.8399
 4215SOL    HW224282   0.826   0.234   4.337  1.3065  0.3299 -2.0526
 4216SOL     OW24283   3.370   2.214  14.579  0.5326  0.1020  0.3072
 4216SOL    HW124284   3.394   2.269  14.505  1.7683  1.5884  1.7888
 4216SOL    HW224285   3.449   2.225  14.633  0.6806 -0.1611  0.1403
 4217SOL     OW24286   4.659   1.758  13.489  0.3727 -0.2784 -0.0659
 4217SOL    HW124287   4.678   1.771  13.396  0.2994  0.3033 -0.0012
 4217SOL    HW224288   0.008   1.742  13.528  0.2161  1.3339  0.9480
 4218SOL     OW24289   3.775   1.489   6.547 -0.0484  0.2252  0.5448
 4218SOL    HW124290   3.841   1.421   6.536  0.9941  1.0404  1.7524
 4218SOL    HW224291   3.747   1.481   6.638  0.5487  1.4298  0.8435
 4219SOL     OW24292   4.582   3.680  17.350  0.5506  0.2712 -0.1851
 4219SOL    HW124293   4.542   3.674  17.263  2.0619 -0.8098 -0.7887
 4219SOL    HW224294   4.673   3.701  17.333  0.4408 -0.0562 -1.2114
 4220SOL     OW24295   1.940   0.820   5.479  0.1674  0.4972  0.5062
 4220SOL    HW124296   1.928   0.782   5.392  2.7977  1.6184 -0.3409
 4220SOL    HW224297   1.898   0.903   5.459  0.0041  0.4995  0.8656
 4221SOL     OW24298   3.207   0.263   9.111  0.0476  0.0807 -0.0786
 4221SOL    HW124299   3.119   0.270   9.074 -0.9084  1.4987  2.4330
 4221SOL    HW224300   3.227   0.183   9.062 -0.6737  0.3996 -0.8870
 4222SOL     OW24301   4.491   3.088   5.133 -0.4657 -0.1740 -0.4129
 4222SOL    HW124302   4.527   3.001   5.114  1.2620  0.3939  0.3173
 4222SOL    HW224303   4.403   3.091   5.095 -0.3411 -1.8770 -0.8725
 4223SOL     OW24304   4.295   2.283   7.408 -0.2525 -0.3874 -0.0017
 4223SOL    HW124305   4.359   2.218   7.439 -0.0135 -0.1980 -0.0966
 4223SOL    HW224306   4.342   2.366   7.415 -4.6868  2.1223  0.2503
 4224SOL     OW24307   2.721   0.677   1.839 -0.1091  0.2428 -0.6542
 4224SOL    HW124308   2.786   0.607   1.840 -0.8016 -0.3754  1.0126
 4224SOL    HW224309   2.655   0.650   1.775  0.1205  0.1188 -0.8393
 4225SOL     OW24310   0.186   2.818  15.948  0.6806 -0.9644 -0.1036
 4225SOL    HW124311   0.154   2.751  16.009  1.8302 -1.1503  0.2980
 4225SOL    HW224312   0.105   2.868  15.940 -0.0182 -2.1305 -0.3374
 4226SOL     OW24313   2.448   0.734   5.304 -0.0889  0.0620  0.1152
 4226SOL    HW124314   2.353   0.749   5.302 -0.0505  0.4128  0.8371
 4226SOL    HW224315   2.459   0.743   5.399  0.6427 -2.1251  0.2263
 4227SOL     OW24316   1.833   4.357   7.446  0.1007  0.7502 -0.9427
 4227SOL    HW124317   1.889   4.390   7.516 -1.2237 -1.2730  1.0685
 4227SOL    HW224318   1.745   4.351   7.482 -0.4593  2.4659 -2.0523
 4228SOL     OW24319   2.613   0.920  10.321  0.4181 -0.2402 -0.3826
 4228SOL    HW124320   2.677   0.914  10.392 -0.2759 -1.2220  0.1480
 4228SOL    HW224321   2.675   0.936  10.250  2.3255  0.7156  1.4848
 4229SOL     OW24322   3.687   0.090  11.788 -0.6661  0.2231 -0.3468
 4229SOL    HW124323   3.682   0.004  11.745  0.2860  0.2552 -0.5257
 4229SOL    HW224324   3.635   0.060  11.862  1.0782  1.6473  1.4403
 4230SOL     OW24325   4.466   0.042   2.397  0.3522  0.2704  0.2503
 4230SOL    HW124326   4.548   0.090   2.387  1.2947 -1.3664  0.1922
 4230SOL    HW224327   4.422   0.100   2.459  1.1124 -0.0448  1.0766
 4231SOL     OW24328   1.786   2.566   4.170  0.4273  0.1648 -0.4530
 4231SOL    HW124329   1.709   2.521   4.135  1.6025  0.1674 -3.0709
 4231SOL    HW224330   1.749   2.653   4.179 -1.5318 -0.9849  2.6310
 4232SOL     OW24331   0.702   3.804  16.580  0.0627  0.3656  0.3209
 4232SOL    HW124332   0.694   3.894  16.549  3.7007  0.3454 -0.6490
 4232SOL    HW224333   0.795   3.803  16.605  0.1329 -1.7897 -0.0240
 4233SOL     OW24334   0.059   3.491  14.680 -0.2953 -0.0845  0.2180
 4233SOL    HW124335   4.703   3.485  14.657  0.3851 -2.1474 -1.9960
 4233SOL    HW224336   0.065   3.534  14.765  1.4314 -1.0454  0.5774
 4234SOL     OW24337   4.657   3.273  14.160 -1.1396  0.5537  0.1917
 4234SOL    HW124338   4.662   3.342  14.094  0.4243  0.7316  0.4865
 4234SOL    HW224339   4.659   3.317  14.245  1.7095 -1.0145  0.9455
 4235SOL     OW24340   2.347   1.148   2.180  0.1599  0.0332  0.1934
 4235SOL    HW124341   2.376   1.152   2.089  0.5177 -1.4391  0.2513
 4235SOL    HW224342   2.365   1.238   2.207 -0.6328  0.4636 -0.7092
 4236SOL     OW24343   1.430   2.413   8.756  0.4412 -0.5094  0.2610
 4236SOL    HW124344   1.383   2.361   8.822 -1.0349 -0.7321 -0.9776
 4236SOL    HW224345   1.416   2.351   8.685  1.3582 -1.2834  0.7563
 4237SOL     OW24346   4.530   3.974  17.433 -0.4379  0.1315 -0.7623
 4237SOL    HW124347   4.554   3.883  17.414  0.3843  0.0645  0.6113
 4237SOL    HW224348   4.589   4.016  17.370 -0.0613  0.8519  0.0798
 4238SOL     OW24349   1.008   0.130   9.298 -0.0929 -0.0738  0.1794
 4238SOL    HW124350   1.037   0.058   9.353 -1.1861  0.1958  1.1157
 4238SOL    HW224351   1.012   0.086   9.213  0.0611 -0.6644  0.4951
 4239SOL     OW24352   3.927   0.479   9.725  0.2911  0.1302  0.1787
 4239SOL    HW124353   4.011   0.439   9.748  0.4780 -0.0983 -0.9157
 4239SOL    HW224354   3.862   0.421   9.765 -0.7255  1.8771  1.0514
 4240SOL     OW24355   3.218   0.478   8.230 -0.1257 -0.0315  0.4875
 4240SOL    HW124356   3.284   0.547   8.220 -0.3549  0.4133  2.0769
 4240SOL    HW224357   3.182   0.507   8.313 -0.6723 -0.0741  0.2674
 4241SOL     OW24358   2.817   1.190   8.165 -0.2053  0.5386 -0.1147
 4241SOL    HW124359   2.853   1.211   8.252  0.1677 -0.1274 -0.1082
 4241SOL    HW224360   2.891   1.192   8.104 -0.2852  2.1502 -0.1657
 4242SOL     OW24361   2.889   2.436   8.541  0.1784 -0.3986  0.8299
 4242SOL    HW124362   2.800   2.455   8.511 -0.6998 -1.0308  3.0603
 4242SOL    HW224363   2.871   2.444   8.635  1.2136  1.2137  0.8934
 4243SOL     OW24364   2.711   0.632   3.597 -0.6193  0.1641 -0.1941
 4243SOL    HW124365   2.742   0.617   3.686  0.2869 -1.1367 -0.7206
 4243SOL    HW224366   2.628   0.584   3.592  0.5701 -1.8678 -0.5272
 4244SOL     OW24367   0.443   0.463   5.931 -0.8864 -0.1319 -0.5640
 4244SOL    HW124368   0.413   0.377   5.902 -0.5689  0.4658 -2.7172
 4244SOL    HW224369   0.439   0.450   6.025 -1.1402 -0.9774 -0.6925
 4245SOL     OW24370   1.734   3.579   1.755 -0.2109 -0.2650 -0.6603
 4245SOL    HW124371   1.755   3.663   1.714 -2.6049  0.9648  0.6413
 4245SOL    HW224372   1.769   3.592   1.844 -0.9654 -2.4604 -0.0261
 4246SOL     OW24373   1.714   0.860   4.844  0.5620 -0.0219  0.4980
 4246SOL    HW124374   1.692   0.931   4.784 -0.4015 -0.9867 -0.2950
 4246SOL    HW224375   1.626   0.840   4.875  0.3052 -0.8655 -0.7313
 4247SOL     OW24376   4.486   0.940   6.747 -0.5647  0.0535 -0.4917
 4247SOL    HW124377   4.416   1.002   6.767 -1.0497 -0.5164 -0.4159
 4247SOL    HW224378   4.566   0.988   6.770 -0.1725  0.0701 -1.8853
 4248SOL     OW24379   2.764   4.615   0.782 -0.0002  0.1312 -0.2515
 4248SOL    HW124380   2.824   4.572   0.721  1.6220  1.6912  0.2452
 4248SOL    HW224381   2.822   4.638   0.855 -0.6552  0.5063  0.1496
 4249SOL     OW24382   3.934   0.866  12.283  0.1699  0.1663 -0.4644
 4249SOL    HW124383   3.992   0.878  12.359 -0.3809 -1.4713  0.2203
 4249SOL    HW224384   3.992   0.868  12.207  1.1679  3.2622  0.3762
 4250SOL     OW24385   3.288   1.893  11.512 -0.3381  0.0904  0.1598
 4250SOL    HW124386   3.249   1.964  11.461 -0.3158 -1.4560 -2.0651
 4250SOL    HW224387   3.339   1.939  11.578  0.2349 -1.2620  0.6670
 4251SOL     OW24388   2.218   1.874   8.747 -0.6047  0.9763 -0.0617
 4251SOL    HW124389   2.286   1.812   8.772 -2.3956 -1.4452 -1.1136
 4251SOL    HW224390   2.215   1.936   8.820  0.9059  0.6944  0.2455
 4252SOL     OW24391   3.961   2.340   4.562 -0.1569 -0.2164  0.5834
 4252SOL    HW124392   3.933   2.352   4.471 -0.4781  0.7611  0.8098
 4252SOL    HW224393   3.913   2.410   4.606  0.2240 -0.1930  0.9570
 4253SOL     OW24394   2.237   2.054  10.169  0.6225 -0.3917 -0.4207
 4253SOL    HW124395   2.168   1.992  10.192  1.1002 -0.9007 -0.3563
 4253SOL    HW224396   2.190   2.116  10.113  1.0176 -0.4332 -0.7986
 4254SOL     OW24397   0.144   4.591   9.471 -0.7419 -0.2445  0.1696
 4254SOL    HW124398   0.129   4.686   9.464  0.5757 -0.1740 -1.6776
 4254SOL    HW224399   0.210   4.586   9.403 -1.3361  0.4485 -0.4639
 4255SOL     OW24400   1.632   1.170   0.929  0.0159 -0.6256 -0.1591
 4255SOL    HW124401   1.635   1.252   0.979  0.6071 -2.4275  2.7935
 4255SOL    HW224402   1.588   1.121   0.999  0.2735 -1.0561 -0.3034
 4256SOL     OW24403   1.746   0.576   7.421  0.5065 -0.3471  0.9299
 4256SOL    HW124404   1.692   0.500   7.441 -2.8719  1.4572 -1.3859
 4256SOL    HW224405   1.682   0.617   7.363 -2.1434 -1.4951  3.0439
 4257SOL     OW24406   2.959   3.101   4.111 -0.0388  0.8292  0.4898
 4257SOL    HW124407   2.927   3.037   4.174 -0.4869  0.5241 -0.0529
 4257SOL    HW224408   2.905   3.178   4.131  0.2736  0.5776  2.2925
 4258SOL     OW24409   1.663   4.569   1.936  0.0218  0.2832  0.1650
 4258SOL    HW124410   1.685   4.586   1.844 -1.6408  0.6579 -0.1503
 4258SOL    HW224411   1.725   4.497   1.955  0.7543  1.1495  1.0437
 4259SOL     OW24412   1.043   2.452   4.832 -0.0513 -0.5983 -0.3806
 4259SOL    HW124413   0.964   2.398   4.826 -0.6527  0.3560 -0.9723
 4259SOL    HW224414   1.101   2.389   4.876  1.0295  0.5808 -0.0979
 4260SOL     OW24415   3.246   2.105  12.071  0.1082  0.2843 -0.4501
 4260SOL    HW124416   3.331   2.065  12.088 -0.6052 -1.0328  0.0948
 4260SOL    HW224417   3.217   2.053  11.996 -2.7868  2.7023 -1.0247
 4261SOL     OW24418   3.701   3.916   0.558  0.1900 -0.4338 -0.2316
 4261SOL    HW124419   3.759   3.880   0.625  0.8882  2.5331  0.7876
 4261SOL    HW224420   3.633   3.958   0.610 -0.4875 -1.4625 -0.2853
 4262SOL     OW24421   3.336   4.530   8.662  0.4277 -0.0744  0.6013
 4262SOL    HW124422   3.404   4.593   8.684  0.8778 -0.2866 -0.1876
 4262SOL    HW224423   3.347   4.524   8.567 -2.2895 -0.0363  0.2652
 4263SOL     OW24424   4.496   2.371   2.298  0.5330 -0.1275 -0.2523
 4263SOL    HW124425   4.450   2.288   2.314  2.2953 -0.8977  0.7856
 4263SOL    HW224426   4.452   2.423   2.366  1.1647  1.1691 -0.8398
 4264SOL     OW24427   2.936   3.355  10.675  0.6527 -0.2708 -0.2236
 4264SOL    HW124428   2.989   3.400  10.610  3.3807 -1.9063  0.8692
 4264SOL    HW224429   2.883   3.297  10.620  1.0803  1.4140 -2.4093
 4265SOL     OW24430   0.874   1.830   8.135 -0.3841 -0.0582  0.2003
 4265SOL    HW124431   0.781   1.850   8.125 -0.2651 -0.1120 -1.0106
 4265SOL    HW224432   0.891   1.877   8.217  1.1689 -1.3158  0.6025
 4266SOL     OW24433   3.244   4.148   1.686 -0.2064 -0.0218  0.3955
 4266SOL    HW124434   3.175   4.195   1.733  0.5825 -0.9072  2.4699
 4266SOL    HW224435   3.191   4.077   1.650  0.0655 -0.3535  0.6424
 4267SOL     OW24436   2.670   1.128   5.684  0.0206  0.0229  0.0013
 4267SOL    HW124437   2.761   1.135   5.657  0.4868 -0.7593  1.3531
 4267SOL    HW224438   2.677   1.163   5.773 -0.7452  4.3281 -1.6507
 4268SOL     OW24439   1.727   3.278   8.978  0.1109 -0.2370 -0.1176
 4268SOL    HW124440   1.726   3.182   8.975  1.4852 -0.2739  0.8133
 4268SOL    HW224441   1.632   3.290   8.978  0.0147 -1.0254 -4.0600
 4269SOL     OW24442   1.747   0.108   4.439 -0.3754  0.1177  0.0251
 4269SOL    HW124443   1.766   0.200   4.457 -0.8284  0.3545 -0.7041
 4269SOL    HW224444   1.824   0.061   4.472 -0.6426 -1.1533 -1.1477
 4270SOL     OW24445   4.527   4.729   5.237  0.1588 -0.5361 -0.1091
 4270SOL    HW124446   4.587   4.706   5.167 -1.0061  1.1917 -1.6708
 4270SOL    HW224447   4.466   4.655   5.237 -0.3757 -0.1007  1.1404
 4271SOL     OW24448   1.162   1.336   5.052  0.2718 -0.2471  0.8075
 4271SOL    HW124449   1.134   1.245   5.043  1.3260 -0.5949  0.9997
 4271SOL    HW224450   1.088   1.381   5.093 -0.8003 -0.1148 -1.2825
 4272SOL     OW24451   0.684   1.714   7.009  0.0617  0.1335  0.1677
 4272SOL    HW124452   0.715   1.673   7.090  0.0592 -0.2527 -0.0276
 4272SOL    HW224453   0.707   1.805   7.028 -2.4635  0.7719  0.1853
 4273SOL     OW24454   1.080   4.384   9.078 -0.4816 -0.4546  0.3078
 4273SOL    HW124455   1.124   4.305   9.109 -1.6289 -0.2823  2.3856
 4273SOL    HW224456   0.992   4.371   9.114 -0.0958  0.3281  1.5291
 4274SOL     OW24457   2.054   0.082   4.296  0.0600 -0.6000  0.7736
 4274SOL    HW124458   2.031   0.023   4.368 -0.3861 -2.2808 -0.7194
 4274SOL    HW224459   2.081   0.018   4.229  0.0658  0.9624 -0.7112
 4275SOL     OW24460   2.026   2.118   1.318  0.0892  0.4071  0.4462
 4275SOL    HW124461   2.021   2.057   1.392  1.6341  1.5184  1.4728
 4275SOL    HW224462   2.070   2.051   1.265 -2.4299 -1.5536  0.8643
 4276SOL     OW24463   3.531   3.872   9.237  0.1013  0.5397  0.1750
 4276SOL    HW124464   3.522   3.778   9.222  0.0480  0.5741 -0.0113
 4276SOL    HW224465   3.546   3.908   9.149 -1.6417  0.5805 -0.0979
 4277SOL     OW24466   4.502   4.688  11.809  0.6226  0.1857  0.5004
 4277SOL    HW124467   4.592   4.700  11.777  0.1759 -2.8079 -1.8301
 4277SOL    HW224468   4.492   4.594  11.795  0.5278  0.4797 -1.3470
 4278SOL     OW24469   3.168   2.470   4.853 -0.0591  0.1755  0.3175
 4278SOL    HW124470   3.241   2.446   4.910  0.1691  0.0673 -0.0195
 4278SOL    HW224471   3.202   2.556   4.830  1.5281 -0.3870  0.4942
 4279SOL     OW24472   1.638   2.697   6.977  0.3867  0.3781 -0.0112
 4279SOL    HW124473   1.663   2.749   7.053  0.2529  2.4939 -1.4117
 4279SOL    HW224474   1.653   2.760   6.907  1.8096  0.6551  0.5418
 4280SOL     OW24475   2.584   3.622   1.439  0.0701 -0.2845  0.0033
 4280SOL    HW124476   2.590   3.708   1.397 -3.6889  0.9650  1.9611
 4280SOL    HW224477   2.678   3.606   1.442  0.2225  0.6558  0.4845
 4281SOL     OW24478   2.601   1.791   4.804 -0.2575 -0.6247  0.1246
 4281SOL    HW124479   2.533   1.859   4.795  0.4815  0.3052  1.5822
 4281SOL    HW224480   2.661   1.846   4.754 -0.3963 -2.2201 -1.7687
 4282SOL     OW24481   2.959   1.266   2.463 -0.8211  0.0874 -0.4709
 4282SOL    HW124482   2.993   1.339   2.515 -0.9374 -1.2697  1.5202
 4282SOL    HW224483   2.967   1.186   2.516  0.0491  1.2204  1.1149
 4283SOL     OW24484   4.657   2.710   8.253  0.2429  0.3879 -0.3427
 4283SOL    HW124485   4.716   2.773   8.211  1.3816  1.0094  2.1450
 4283SOL    HW224486   4.587   2.703   8.188  1.0303  0.3228 -1.1756
 4284SOL     OW24487   3.638   0.670  13.152 -0.0178  0.1511 -0.2572
 4284SOL    HW124488   3.711   0.729  13.134  0.4971 -0.8121 -1.3070
 4284SOL    HW224489   3.631   0.614  13.076  1.5180  0.9958 -1.0201
 4285SOL     OW24490   1.581   3.053  13.155 -0.4297 -0.6454 -0.2135
 4285SOL    HW124491   1.541   3.138  13.143 -1.8554 -1.2103  0.4962
 4285SOL    HW224492   1.652   3.075  13.215 -0.7847  1.2714 -0.5076
 4286SOL     OW24493   4.271   3.804   2.036 -0.5999 -0.8015 -0.0932
 4286SOL    HW124494   4.247   3.799   2.129  0.1408 -0.0085  0.1361
 4286SOL    HW224495   4.331   3.878   2.041 -2.5142  0.6221  1.8129
 4287SOL     OW24496   4.428   1.534   2.429  0.0712  0.7325 -0.2293
 4287SOL    HW124497   4.395   1.599   2.367  1.1217  1.0728 -0.4182
 4287SOL    HW224498   4.452   1.593   2.500  0.8134 -1.4259  1.3259
 4288SOL     OW24499   4.381   0.418   7.918 -0.1969  0.0412 -0.2966
 4288SOL    HW124500   4.335   0.335   7.925  1.2349 -0.7990 -1.0272
 4288SOL    HW224501   4.470   0.387   7.907 -0.7463 -0.5268 -3.1170
 4289SOL     OW24502   2.156   0.381  16.677 -0.7841  0.0649  0.7361
 4289SOL    HW124503   2.081   0.368  16.619  0.0584 -2.1655  0.1762
 4289SOL    HW224504   2.118   0.391  16.765 -2.9061  0.6195 -0.2501
 4290SOL     OW24505   0.103   2.352  16.707  0.2147 -0.1875 -0.1539
 4290SOL    HW124506   0.197   2.363  16.694  0.1268  0.1462 -0.5152
 4290SOL    HW224507   0.093   2.288  16.637 -2.3785  1.6082 -1.4332
 4291SOL     OW24508   3.030   2.251   7.566  0.3056  0.3610 -0.2881
 4291SOL    HW124509   2.940   2.221   7.559 -0.0540  1.1375  1.2180
 4291SOL    HW224510   3.053   2.220   7.653 -1.4563 -0.4228 -0.0961
 4292SOL     OW24511   2.064   2.354   8.767 -0.3671 -0.3700 -0.0278
 4292SOL    HW124512   2.094   2.435   8.807  2.5348 -1.1612 -0.5632
 4292SOL    HW224513   2.084   2.286   8.832  0.6857  0.4296  0.4683
 4293SOL     OW24514   0.224   2.879   3.329 -0.4007  0.1250 -0.4512
 4293SOL    HW124515   0.296   2.941   3.341 -0.5633 -0.1428  1.8473
 4293SOL    HW224516   0.242   2.839   3.244  0.6684  1.1551 -0.7198
 4294SOL     OW24517   0.597   4.419   3.218  0.2090  0.0096 -0.1229
 4294SOL    HW124518   0.547   4.495   3.189 -0.1043 -0.5233 -0.9712
 4294SOL    HW224519   0.607   4.387   3.128 -1.6811 -1.2645  0.1122
 4295SOL     OW24520   0.592   1.215  13.919 -0.1926 -0.0839 -0.0456
 4295SOL    HW124521   0.654   1.272  13.874 -0.5066 -0.0561 -0.4460
 4295SOL    HW224522   0.649   1.144  13.947 -2.2285 -1.4785  0.5767
 4296SOL     OW24523   0.075   4.503   6.328 -0.5314 -0.1978  0.2457
 4296SOL    HW124524   0.060   4.436   6.395 -0.0969 -1.6974 -1.1527
 4296SOL    HW224525   4.733   4.553   6.349  0.0560  1.9949 -2.7910
 4297SOL     OW24526   2.795   4.551   4.241  0.1099  0.0596 -0.0083
 4297SOL    HW124527   2.861   4.575   4.177  1.4882 -1.7922  0.7042
 4297SOL    HW224528   2.813   4.457   4.246 -1.1796 -0.3601 -3.0117
 4298SOL     OW24529   1.022   1.881   2.405 -0.5487  0.2695 -0.5009
 4298SOL    HW124530   0.927   1.885   2.399 -0.6628  0.7518  1.7538
 4298SOL    HW224531   1.039   1.853   2.315 -0.4387 -0.9070 -0.1121
 4299SOL     OW24532   3.225   4.373  17.690  0.0768  0.3146  0.6136
 4299SOL    HW124533   3.237   4.335  17.603 -1.6113  0.6787  0.2261
 4299SOL    HW224534   3.314   4.401  17.711  0.5062  0.0320 -0.8882
 4300SOL     OW24535   0.257   1.075   9.704 -0.3167 -0.3099  0.3874
 4300SOL    HW124536   0.280   1.008   9.768 -1.0571  0.0218  0.9986
 4300SOL    HW224537   0.216   1.138   9.763 -1.3789  1.5530 -2.3502
 4301SOL     OW24538   4.322   0.527   5.145  0.0272 -0.5237 -0.8615
 4301SOL    HW124539   4.228   0.529   5.163  0.7313 -1.7632  2.8226
 4301SOL    HW224540   4.356   0.448   5.186  1.4981  1.5930  1.9737
 4302SOL     OW24541   4.548   2.069   7.532  0.8501 -0.4205  0.6905
 4302SOL    HW124542   4.504   2.077   7.617 -1.0569 -0.5616 -0.2663
 4302SOL    HW224543   4.600   2.149   7.523  0.1361 -0.1381 -1.0337
 4303SOL     OW24544   4.579   1.808   0.300  0.1754 -0.5593 -0.1943
 4303SOL    HW124545   4.633   1.729   0.304  1.9807  0.5906 -2.0577
 4303SOL    HW224546   4.509   1.793   0.237 -0.6895 -0.8242  0.8468
 4304SOL     OW24547   0.548   2.181   4.838 -0.8370 -0.1952 -0.5920
 4304SOL    HW124548   0.597   2.244   4.892 -0.0530 -0.7488 -0.6495
 4304SOL    HW224549   0.512   2.247   4.779 -1.1089 -0.0433 -0.2528
 4305SOL     OW24550   0.663   2.587  17.718 -0.4037 -0.3424  0.6425
 4305SOL    HW124551   0.582   2.626   0.007 -0.4236 -1.2876  1.7264
 4305SOL    HW224552   0.612   2.507  17.709  1.2988 -1.1610 -1.6822
 4306SOL     OW24553   1.504   2.377  14.918 -0.5606 -0.2982 -0.0434
 4306SOL    HW124554   1.449   2.302  14.940  0.7486 -1.5327 -0.9908
 4306SOL    HW224555   1.566   2.379  14.991 -0.3886  1.2246 -0.2286
 4307SOL     OW24556   3.049   2.046   8.641 -0.6386 -0.2180  0.2109
 4307SOL    HW124557   3.004   1.961   8.643 -1.6910  0.3871  1.9237
 4307SOL    HW224558   3.049   2.063   8.547 -0.8269 -1.7344 -0.0639
 4308SOL     OW24559   2.607   4.605   0.171 -0.0248 -0.4398 -0.3403
 4308SOL    HW124560   2.645   4.531   0.218 -0.2935  0.3456  1.0901
 4308SOL    HW224561   2.660   4.595   0.092  0.4744 -0.3012 -0.0232
 4309SOL     OW24562   0.288   3.448  13.963  0.3201 -0.0941 -0.0890
 4309SOL    HW124563   0.376   3.486  13.968 -0.0763  0.7335  0.4882
 4309SOL    HW224564   0.234   3.524  13.944 -1.7309 -1.0127  2.0005
 4310SOL     OW24565   3.594   3.778   0.869 -0.7764 -0.5205 -0.5481
 4310SOL    HW124566   3.636   3.727   0.799 -0.4698 -0.8904 -0.0900
 4310SOL    HW224567   3.602   3.723   0.947  0.1271  1.5965  0.8637
 4311SOL     OW24568   1.590   4.041   4.519 -0.3373 -0.8050  0.6038
 4311SOL    HW124569   1.569   3.977   4.451  0.3012  0.2972 -0.6398
 4311SOL    HW224570   1.518   4.103   4.507  2.2364  2.3549  1.4103
 4312SOL     OW24571   3.666   1.267   8.037  1.0824  0.5750  0.2731
 4312SOL    HW124572   3.702   1.179   8.043 -1.5164 -0.4417  0.6880
 4312SOL    HW224573   3.576   1.261   8.068  0.8810  1.3599 -0.1727
 4313SOL     OW24574   3.043   0.398   9.722 -0.7199  0.4398 -0.3105
 4313SOL    HW124575   3.042   0.389   9.627  1.8728  0.2211 -0.3165
 4313SOL    HW224576   3.055   0.305   9.741 -0.6936  0.1223 -1.9414
 4314SOL     OW24577   0.462   1.072   5.177  0.3737 -0.0474 -0.5863
 4314SOL    HW124578   0.397   1.037   5.238  0.1967  0.1180 -0.6805
 4314SOL    HW224579   0.463   1.166   5.196 -2.0003 -0.0306 -0.6094
 4315SOL     OW24580   2.955   1.013  12.480 -0.1100 -0.4851 -0.5307
 4315SOL    HW124581   2.999   0.995  12.396  2.2039  0.9012  0.3888
 4315SOL    HW224582   2.934   0.923  12.504 -0.5738 -0.1660  0.2626
 4316SOL     OW24583   2.298   3.387   0.199 -0.0073 -0.6511  0.3619
 4316SOL    HW124584   2.215   3.347   0.225 -0.1974 -0.0516  0.6709
 4316SOL    HW224585   2.281   3.433   0.117  2.0075  1.8304  1.3185
 4317SOL     OW24586   3.040   2.374   2.835  0.3582  0.1934 -0.0984
 4317SOL    HW124587   2.986   2.430   2.891  1.8029  0.3621  1.1161
 4317SOL    HW224588   2.999   2.383   2.749 -0.6202  1.9410  0.5352
 4318SOL     OW24589   1.351   1.512   6.801  0.5288 -0.0899 -0.2966
 4318SOL    HW124590   1.281   1.540   6.742  0.1157  0.8569  0.6371
 4318SOL    HW224591   1.423   1.556   6.756 -0.1139  0.3092 -0.9298
 4319SOL     OW24592   1.933   4.699   7.633  0.4039 -0.3269 -0.0738
 4319SOL    HW124593   1.959   4.608   7.620  0.2236 -0.4394  0.3662
 4319SOL    HW224594   1.871   4.703   7.560  1.9711 -0.2545 -1.4159
 4320SOL     OW24595   1.865   4.656   1.244  0.2627 -0.5755  0.7070
 4320SOL    HW124596   1.911   4.615   1.171 -2.2247  0.5152 -1.4498
 4320SOL    HW224597   1.904   0.005   1.227 -0.2778 -0.4526  0.0897
 4321SOL     OW24598   2.863   1.256   2.977  0.3291 -0.6938 -0.1073
 4321SOL    HW124599   2.899   1.210   3.053 -0.2330  1.3333  1.3991
 4321SOL    HW224600   2.793   1.197   2.949 -0.1213 -0.0985 -0.2317
 4322SOL     OW24601   0.338   4.335   5.926  0.1337  0.3642  0.6460
 4322SOL    HW124602   0.372   4.376   6.005 -1.5697  1.3880  0.8496
 4322SOL    HW224603   0.243   4.330   5.942 -0.2441  0.6633 -1.4016
 4323SOL     OW24604   1.216   1.626   9.915 -0.5887 -0.3556 -0.3511
 4323SOL    HW124605   1.288   1.689   9.914 -1.9456  1.2160  0.4665
 4323SOL    HW224606   1.171   1.650   9.834 -2.2843 -2.2452  0.0269
 4324SOL     OW24607   0.321   2.037   6.349 -0.2353 -0.5113 -0.0680
 4324SOL    HW124608   0.393   2.018   6.289  0.7730  2.4699  0.1942
 4324SOL    HW224609   0.239   2.015   6.306 -0.0586  2.5006 -1.8984
 4325SOL     OW24610   2.967   0.272   9.008  0.2206  0.3013 -0.1968
 4325SOL    HW124611   2.943   0.211   8.938 -2.3866 -0.5533  1.4261
 4325SOL    HW224612   2.886   0.312   9.041  0.5410 -0.7831  1.8618
 4326SOL     OW24613   2.310   3.961   0.877 -0.2976  0.3329  0.1821
 4326SOL    HW124614   2.377   3.902   0.842  1.4795  0.0128  4.1930
 4326SOL    HW224615   2.233   3.917   0.842 -0.0073  0.1881 -0.2743
 4327SOL     OW24616   2.856   1.830   7.512 -0.2134 -0.2889 -0.3566
 4327SOL    HW124617   2.765   1.837   7.483 -0.7243 -0.5426  1.1566
 4327SOL    HW224618   2.881   1.920   7.532  1.1640 -1.2601  2.3631
 4328SOL     OW24619   4.288   2.011   9.274 -0.6467  0.0823  0.1225
 4328SOL    HW124620   4.319   1.938   9.327  0.6842  1.3844  1.1466
 4328SOL    HW224621   4.365   2.046   9.229  1.1361 -3.0456  0.7853
 4329SOL     OW24622   2.467   0.197   3.108 -0.5296  0.0351  0.7618
 4329SOL    HW124623   2.452   0.123   3.167  1.0586 -0.5222  0.4622
 4329SOL    HW224624   2.465   0.150   3.024 -1.3092  1.7424 -0.1693
 4330SOL     OW24625   4.029   4.060   7.059 -0.4903  0.3979  0.9094
 4330SOL    HW124626   3.957   4.093   7.004 -0.0323  1.3954  0.8958
 4330SOL    HW224627   4.091   4.133   7.063  3.4323 -2.7648 -1.8152
 4331SOL     OW24628   0.629   4.012  12.238  0.2980 -0.1851 -0.2279
 4331SOL    HW124629   0.636   3.961  12.319  2.7358 -0.6895 -0.7713
 4331SOL    HW224630   0.639   3.938  12.178  0.9648 -0.9722  0.8371
 4332SOL     OW24631   0.972   1.279   3.349  0.3968  0.4529 -0.2199
 4332SOL    HW124632   0.952   1.325   3.267  0.2986  1.8490  0.5830
 4332SOL    HW224633   0.972   1.360   3.400 -0.6551 -0.2015  0.8076
 4333SOL     OW24634   4.070   4.237  15.247 -0.2633 -0.0849  0.0276
 4333SOL    HW124635   4.157   4.199  15.263 -1.0994 -2.0333 -0.0499
 4333SOL    HW224636   4.006   4.166  15.247 -0.8838  0.4738  0.1323
 4334SOL     OW24637   0.559   0.396   4.249  0.1619  0.2612  0.2811
 4334SOL    HW124638   0.500   0.467   4.221  0.9515  0.7216 -0.2197
 4334SOL    HW224639   0.515   0.316   4.222  0.6524 -0.5371  1.8726
 4335SOL     OW24640   3.116   0.588   6.194  0.4857 -0.1380 -0.2144
 4335SOL    HW124641   3.196   0.558   6.238  0.8567 -1.3292 -1.7160
 4335SOL    HW224642   3.148   0.616   6.109 -1.2505 -0.7330 -1.0653
 4336SOL     OW24643   4.533   3.735   6.830 -0.3182  0.2469  0.0863
 4336SOL    HW124644   4.451   3.777   6.857  0.1400  0.6927  0.7929
 4336SOL    HW224645   4.596   3.800   6.861 -1.5711  0.8155  1.4194
 4337SOL     OW24646   1.938   4.637   7.233 -0.5199 -0.0048 -0.5574
 4337SOL    HW124647   1.936   4.585   7.152 -2.2371  0.3681 -0.7662
 4337SOL    HW224648   2.029   4.638   7.261 -0.8683 -3.5233  0.6395
 4338SOL     OW24649   2.970   2.584   9.957  0.3933  0.7523  0.0903
 4338SOL    HW124650   2.974   2.675   9.927  2.6515  0.6084 -0.0423
 4338SOL    HW224651   2.965   2.592  10.052 -0.6275 -0.0616  0.0988
 4339SOL     OW24652   0.101   2.931   5.647 -0.2529 -0.1927 -0.3986
 4339SOL    HW124653   0.033   2.908   5.710 -0.3573  0.1363 -0.3931
 4339SOL    HW224654   0.048   2.977   5.582 -1.9896 -1.3817  0.1765
 4340SOL     OW24655   0.825   0.051   0.326  0.1099  0.9271  0.0635
 4340SOL    HW124656   0.896   0.078   0.268  1.7831 -0.0428  1.6355
 4340SOL    HW224657   0.863   0.066   0.413 -0.6268 -1.6356  0.8337
 4341SOL     OW24658   0.169   0.956  16.989  0.0934 -0.9773 -1.0246
 4341SOL    HW124659   0.109   0.990  16.922  0.1806  0.1542 -0.5363
 4341SOL    HW224660   0.133   0.873  17.020 -2.5157  0.9317  1.1467
 4342SOL     OW24661   3.859   2.018   3.905  0.5988 -0.4341  0.4226
 4342SOL    HW124662   3.913   2.069   3.965  0.3988 -0.9469  1.0437
 4342SOL    HW224663   3.771   2.046   3.931  0.3507  0.9611 -1.9480
 4343SOL     OW24664   2.826   1.773  15.070 -0.0987 -0.0590  0.0261
 4343SOL    HW124665   2.770   1.851  15.064 -0.3050 -0.2102 -0.0001
 4343SOL    HW224666   2.828   1.746  14.978  0.0268 -0.8224  0.2564
 4344SOL     OW24667   1.252   1.386   4.570 -0.5328  0.3066 -0.4923
 4344SOL    HW124668   1.256   1.456   4.634  1.5643 -0.4714  0.2531
 4344SOL    HW224669   1.344   1.381   4.542  0.1816  1.4775  1.6676
 4345SOL     OW24670   1.010   2.570  12.102 -0.0242 -0.2538  0.2470
 4345SOL    HW124671   0.957   2.566  12.022  1.6348  0.9734 -0.8971
 4345SOL    HW224672   1.088   2.517  12.087 -1.7399 -2.0853 -2.1019
 4346SOL     OW24673   3.470   0.673   3.330  0.8127 -0.2361  0.0175
 4346SOL    HW124674   3.552   0.697   3.373 -0.1350  2.3677  0.3682
 4346SOL    HW224675   3.443   0.604   3.390 -1.5614  0.8282  0.1572
 4347SOL     OW24676   2.811   0.265   6.354  0.3233 -0.0713  0.1472
 4347SOL    HW124677   2.726   0.262   6.309  0.8763 -1.4587 -0.8417
 4347SOL    HW224678   2.865   0.296   6.282  0.2511 -0.3178 -0.0137
 4348SOL     OW24679   1.967   1.336   5.857  0.1729  1.0667  0.2550
 4348SOL    HW124680   1.879   1.371   5.868 -0.2626  0.9161 -2.6001
 4348SOL    HW224681   1.977   1.278   5.932  1.8208  0.2487 -0.5896
 4349SOL     OW24682   0.138   2.744   3.039  0.5066 -0.0256 -0.1658
 4349SOL    HW124683   0.167   2.654   3.054  0.5880 -0.4916 -2.9971
 4349SOL    HW224684   0.216   2.782   3.080  1.6486 -3.1447  0.5794
 4350SOL     OW24685   2.321   3.590   8.877  0.1649  0.2553 -0.0757
 4350SOL    HW124686   2.390   3.628   8.822  2.0151 -1.6570  0.9073
 4350SOL    HW224687   2.269   3.670   8.883 -2.1761 -1.4058  1.7286
 4351SOL     OW24688   4.042   2.270   1.527 -0.5805 -0.5613 -0.1510
 4351SOL    HW124689   4.057   2.279   1.621  1.9890 -3.3314 -0.2838
 4351SOL    HW224690   4.132   2.244   1.506 -0.1042  0.2085  0.9069
 4352SOL     OW24691   0.355   2.181  15.335 -0.1635 -0.6145  0.7441
 4352SOL    HW124692   0.371   2.276  15.330 -1.5557 -0.4120  0.1422
 4352SOL    HW224693   0.277   2.179  15.279  0.3056 -1.6199  0.1373
 4353SOL     OW24694   3.450   0.154  17.516 -0.1678  0.2110  0.5379
 4353SOL    HW124695   3.507   0.078  17.503 -0.0885  0.6759 -1.6930
 4353SOL    HW224696   3.508   0.220  17.479 -0.4457 -0.2490 -0.7024
 4354SOL     OW24697   2.771   3.362   5.057 -0.1309  0.1286 -0.2190
 4354SOL    HW124698   2.859   3.363   5.095 -0.0316  1.0045 -0.4750
 4354SOL    HW224699   2.724   3.364   5.141 -0.4158  1.4781 -0.4182
 4355SOL     OW24700   2.480   3.836   7.464  0.5410  0.1356  0.1220
 4355SOL    HW124701   2.415   3.796   7.522  2.1898 -2.4058  0.1891
 4355SOL    HW224702   2.420   3.885   7.407 -1.3696  0.0400  2.0372
 4356SOL     OW24703   0.133   0.288   7.227 -0.2291 -0.5669 -0.2340
 4356SOL    HW124704   0.167   0.233   7.299  2.8701 -1.1408 -2.1250
 4356SOL    HW224705   0.091   0.223   7.171  0.8072 -1.7684  0.3674
 4357SOL     OW24706   0.216   1.728  13.474 -0.0106 -0.0218 -0.0851
 4357SOL    HW124707   0.280   1.719  13.545 -0.1690  0.9113  0.1852
 4357SOL    HW224708   0.274   1.735  13.399  0.4193 -0.0197  0.2495
 4358SOL     OW24709   3.228   3.674   1.706 -0.1163 -0.0429  0.1452
 4358SOL    HW124710   3.302   3.727   1.736  1.2339 -0.0703 -3.1214
 4358SOL    HW224711   3.207   3.731   1.632 -0.7659 -2.0226 -1.1975
 4359SOL     OW24712   3.604   2.086   5.592 -0.4699 -0.0867 -0.1477
 4359SOL    HW124713   3.564   2.166   5.558  0.2709 -1.3861 -4.0689
 4359SOL    HW224714   3.693   2.102   5.561 -0.5890 -0.5294 -0.7255
 4360SOL     OW24715   0.864   0.315   1.710 -0.3792 -0.2689 -0.2937
 4360SOL    HW124716   0.855   0.243   1.648  2.1605 -1.3564  0.5837
 4360SOL    HW224717   0.837   0.387   1.653  0.5830 -0.7704 -1.3655
 4361SOL     OW24718   0.546   1.091   2.101 -0.1815 -0.7909  0.1174
 4361SOL    HW124719   0.636   1.113   2.080 -0.4288  0.0689 -0.0520
 4361SOL    HW224720   0.503   1.177   2.106 -3.0125 -2.0637 -2.1708
 4362SOL     OW24721   0.739   1.814   5.642 -0.0474  0.0034 -0.3334
 4362SOL    HW124722   0.703   1.863   5.716 -1.0820  0.9174 -1.4649
 4362SOL    HW224723   0.713   1.728   5.676 -2.2639  0.4744 -0.8889
 4363SOL     OW24724   4.484   0.977  16.570  0.1576  0.1582 -0.5311
 4363SOL    HW124725   4.423   1.034  16.616  1.1586  0.4552  0.4372
 4363SOL    HW224726   4.439   0.976  16.486  0.6129  0.1030 -0.7776
 4364SOL     OW24727   2.856   0.588  15.093 -0.2850  0.3412 -0.5372
 4364SOL    HW124728   2.858   0.683  15.101  1.3983  0.4637 -2.5013
 4364SOL    HW224729   2.893   0.570  15.180 -1.6192 -2.6146 -0.5612
 4365SOL     OW24730   0.944   1.775   5.224  0.4385 -0.1850 -0.5570
 4365SOL    HW124731   1.021   1.771   5.280 -0.4860 -0.4643  0.6956
 4365SOL    HW224732   0.884   1.810   5.290  0.1347 -1.3705 -0.1989
 4366SOL     OW24733   0.117   3.980   1.769  0.0868  0.2845 -0.1843
 4366SOL    HW124734   0.038   3.992   1.823  2.3110 -0.9867  3.3088
 4366SOL    HW224735   0.094   3.903   1.717 -0.8140  1.4434 -1.4857
 4367SOL     OW24736   1.843   4.727   5.443  0.0792  0.5951 -0.1101
 4367SOL    HW124737   1.755   4.718   5.406 -0.1413  0.4592  0.4470
 4367SOL    HW224738   1.865   0.074   5.400 -1.6291  0.2466 -1.6472
 4368SOL     OW24739   4.143   1.103  15.208  0.5293  0.3856  0.3124
 4368SOL    HW124740   4.110   1.014  15.224 -1.9121  1.0487 -1.2575
 4368SOL    HW224741   4.130   1.132  15.298 -0.0433 -0.2956  0.4498
 4369SOL     OW24742   1.802   2.060   5.557  0.0760  0.3555  0.8454
 4369SOL    HW124743   1.856   2.037   5.633 -0.5820 -0.1533  1.1557
 4369SOL    HW224744   1.838   2.148   5.544  0.1509 -0.1281 -2.2282
 4370SOL     OW24745   4.547   3.785  11.083  0.1459  0.3591 -0.0127
 4370SOL    HW124746   4.560   3.764  10.990  0.7185 -0.2798  0.2102
 4370SOL    HW224747   4.461   3.753  11.110  0.8247 -0.7025  0.8844
 4371SOL     OW24748   0.431   2.108   9.872 -0.4915  0.3126 -0.1529
 4371SOL    HW124749   0.371   2.085   9.943 -0.2651 -2.3416 -0.8017
 4371SOL    HW224750   0.485   2.028   9.872  0.5561  1.0231  0.7820
 4372SOL     OW24751   0.214   3.864   4.541 -0.3373  0.5023  0.0788
 4372SOL    HW124752   0.275   3.838   4.472  1.6315  0.5503  1.7902
 4372SOL    HW224753   0.257   3.830   4.619  0.8413 -0.0662 -0.8176
 4373SOL     OW24754   2.202   3.283   3.019  0.0594 -0.5312  0.1162
 4373SOL    HW124755   2.146   3.206   3.011 -0.3626 -0.1451 -0.7044
 4373SOL    HW224756   2.128   3.343   3.027 -0.9869 -1.9355  0.8702
 4374SOL     OW24757   0.137   4.065   5.022  0.2279  0.0538  0.2071
 4374SOL    HW124758   0.180   4.080   4.938 -1.3110  0.1760 -0.5519
 4374SOL    HW224759   0.051   4.041   4.988  0.7337  0.8082 -1.5782
 4375SOL     OW24760   4.679   0.584   7.771  0.0519 -0.3105 -0.3870
 4375SOL    HW124761   4.727   0.503   7.753 -1.2670 -1.3317  0.5686
 4375SOL    HW224762   4.618   0.570   7.698 -0.3836 -0.1870 -0.0526
 4376SOL     OW24763   4.137   3.402  11.289 -0.2354  0.7910 -0.2644
 4376SOL    HW124764   4.222   3.419  11.328 -0.8595  2.3572  0.4063
 4376SOL    HW224765   4.114   3.492  11.268  2.1422  1.6638  0.9925
 4377SOL     OW24766   3.805   3.136  11.550  0.0177 -0.0928 -0.7025
 4377SOL    HW124767   3.716   3.167  11.530  0.1219  0.2629 -0.6043
 4377SOL    HW224768   3.848   3.182  11.478 -0.4798 -2.0163 -2.2177
 4378SOL     OW24769   2.591   3.739   6.949  0.0493 -0.6909 -0.3564
 4378SOL    HW124770   2.621   3.825   6.918 -0.8184 -0.8300 -1.5696
 4378SOL    HW224771   2.663   3.707   7.003 -2.2687 -3.0341  1.3162
 4379SOL     OW24772   2.641   0.135   0.809 -0.7034  0.0581  0.6984
 4379SOL    HW124773   2.649   0.039   0.812 -0.2990  0.1645  2.9838
 4379SOL    HW224774   2.679   0.162   0.726 -0.1129 -2.2458  0.1955
 4380SOL     OW24775   1.456   3.371   8.972 -0.1044  0.4668 -0.3170
 4380SOL    HW124776   1.382   3.380   9.032  0.2067 -0.8014  0.2726
 4380SOL    HW224777   1.421   3.302   8.915 -0.1786  0.5780 -0.4053
 4381SOL     OW24778   1.572   4.424   3.577  0.1764 -0.4783  0.0430
 4381SOL    HW124779   1.542   4.477   3.651  1.9006  0.1310  0.2953
 4381SOL    HW224780   1.547   4.336   3.606 -0.4410 -0.1915  0.3669
 4382SOL     OW24781   1.572   1.169   7.923 -0.2324  0.7833  0.2448
 4382SOL    HW124782   1.592   1.251   7.878 -2.6767  1.0232 -0.4165
 4382SOL    HW224783   1.656   1.124   7.920 -1.3539 -1.2383 -0.6776
 4383SOL     OW24784   2.237   4.689   1.891 -0.5722 -0.7762 -0.7519
 4383SOL    HW124785   2.162   4.640   1.860  0.5133 -2.0925 -1.2759
 4383SOL    HW224786   2.306   4.625   1.877  0.3971  0.0021  0.4649
 4384SOL     OW24787   0.627   1.812  11.391 -0.1520 -0.1808 -0.6130
 4384SOL    HW124788   0.673   1.774  11.465  0.7711  2.6936  0.2623
 4384SOL    HW224789   0.605   1.891  11.440 -0.9747 -1.0838  0.4696
 4385SOL     OW24790   3.862   3.984   4.592  0.4494 -0.1382  0.4850
 4385SOL    HW124791   3.957   3.991   4.607  0.6875  0.5883 -1.3444
 4385SOL    HW224792   3.849   4.077   4.574 -1.1719 -0.6730 -1.1420
 4386SOL     OW24793   2.597   1.859   7.438 -0.1991 -0.4088 -0.1325
 4386SOL    HW124794   2.546   1.915   7.379 -0.8954  1.2636  2.0439
 4386SOL    HW224795   2.540   1.785   7.459  1.3945 -1.6675 -0.3350
 4387SOL     OW24796   3.022   3.838   6.414  0.4928  0.0081 -0.4177
 4387SOL    HW124797   3.058   3.925   6.396 -0.1636  0.4171  0.2424
 4387SOL    HW224798   2.935   3.870   6.441  0.7819 -1.3044  2.0507
 4388SOL     OW24799   3.156   3.678   7.487  0.1057  0.2706 -0.3339
 4388SOL    HW124800   3.236   3.672   7.540 -0.6705  1.2863  0.9463
 4388SOL    HW224801   3.189   3.654   7.400 -2.0584  0.8318 -1.3227
 4389SOL     OW24802   1.632   4.050   2.925 -0.2386  0.4404  0.4220
 4389SOL    HW124803   1.557   4.104   2.898 -0.1549 -0.8664 -2.4370
 4389SOL    HW224804   1.631   3.987   2.853  2.3456 -0.4965  1.2118
 4390SOL     OW24805   3.515   2.127   2.024  0.0576 -0.2165  0.5026
 4390SOL    HW124806   3.609   2.128   2.042  0.4720  0.1557 -1.6042
 4390SOL    HW224807   3.479   2.090   2.104 -0.5938 -2.5346 -0.8511
 4391SOL     OW24808   3.586   2.109   2.690  0.1256 -0.4666 -0.4982
 4391SOL    HW124809   3.637   2.190   2.685 -1.2798  0.2756 -2.7215
 4391SOL    HW224810   3.656   2.045   2.706 -0.4976 -1.2018 -0.7209
 4392SOL     OW24811   0.747   2.968   7.618  0.1549 -0.6415 -0.1797
 4392SOL    HW124812   0.678   2.904   7.637  0.3130 -1.0907 -1.1195
 4392SOL    HW224813   0.806   2.908   7.572 -0.9920 -0.3389 -2.0480
 4393SOL     OW24814   0.235   0.988   6.348  0.2064  0.0057 -0.2757
 4393SOL    HW124815   0.253   0.922   6.280 -0.8351 -1.8353  1.2398
 4393SOL    HW224816   0.221   0.935   6.426 -0.0613  0.4238 -0.0383
 4394SOL     OW24817   2.222   3.815  12.985  0.3571  0.0643  0.3952
 4394SOL    HW124818   2.237   3.776  12.899 -0.5559 -2.0672  1.2227
 4394SOL    HW224819   2.170   3.892  12.959  2.1518  1.0557 -0.2821
 4395SOL     OW24820   1.314   1.078   8.346 -0.1740  0.6314  0.4283
 4395SOL    HW124821   1.336   1.110   8.258 -0.1437 -0.5344 -0.0030
 4395SOL    HW224822   1.262   0.998   8.332 -0.8936  1.2344 -0.3938
 4396SOL     OW24823   3.583   1.915   4.565  0.4870 -0.1499  0.2168
 4396SOL    HW124824   3.579   2.002   4.524  0.0467 -0.3712 -0.2039
 4396SOL    HW224825   3.678   1.912   4.567  0.4996  0.5794  1.3529
 4397SOL     OW24826   3.538   1.221   1.435 -0.7755 -0.6736 -0.5379
 4397SOL    HW124827   3.495   1.247   1.354 -0.4362 -0.9840 -0.8171
 4397SOL    HW224828   3.498   1.283   1.495 -0.3794 -0.4189 -0.5342
 4398SOL     OW24829   4.279   0.791  12.167  0.2699  0.2154 -0.3281
 4398SOL    HW124830   4.313   0.851  12.234 -1.2433  0.0647  0.5712
 4398SOL    HW224831   4.273   0.708  12.214  0.3002  0.9242  0.9324
 4399SOL     OW24832   2.857   3.828   0.690 -0.4399  0.1737 -0.4947
 4399SOL    HW124833   2.882   3.771   0.762 -2.4360  0.3538  0.3504
 4399SOL    HW224834   2.764   3.817   0.670 -0.1543  0.1010 -1.8047
 4400SOL     OW24835   3.822   3.022  14.348  0.1900 -0.0426  0.2509
 4400SOL    HW124836   3.862   3.069  14.422  2.5121 -1.7470  0.0902
 4400SOL    HW224837   3.833   3.087  14.279  0.0393 -0.3044 -0.0148
 4401SOL     OW24838   1.697   1.658   3.036  0.2538  0.4709 -0.2039
 4401SOL    HW124839   1.724   1.604   3.110  1.2193  0.6490 -0.4238
 4401SOL    HW224840   1.607   1.629   3.022  0.5007 -1.4040  2.2025
 4402SOL     OW24841   1.345   2.699   6.512 -0.0889  0.5153 -0.0670
 4402SOL    HW124842   1.427   2.683   6.557 -1.0734 -0.6536  1.2930
 4402SOL    HW224843   1.294   2.619   6.522  0.2019  0.1131 -1.7556
 4403SOL     OW24844   2.550   4.713   1.795  0.1332  0.4511  0.1137
 4403SOL    HW124845   2.631   4.686   1.753  0.3304  0.5221  0.4459
 4403SOL    HW224846   2.547   0.066   1.760 -1.4194  0.4328  0.1892
 4404SOL     OW24847   1.033   0.247   2.994  0.2385 -0.0645  0.4947
 4404SOL    HW124848   0.940   0.266   2.982  0.0127 -0.4747  1.5663
 4404SOL    HW224849   1.079   0.323   2.959 -0.5044  0.6919  1.1728
 4405SOL     OW24850   3.849   0.163  13.628  0.0539 -0.1616  0.2447
 4405SOL    HW124851   3.902   0.225  13.677 -0.8895  0.9965 -0.2013
 4405SOL    HW224852   3.839   0.215  13.548  0.4331  0.7167  0.7668
 4406SOL     OW24853   2.272   1.724   6.303  0.0843 -0.0093  0.3788
 4406SOL    HW124854   2.209   1.757   6.239  0.1154  0.2417  0.4754
 4406SOL    HW224855   2.309   1.647   6.261  0.9961 -0.3206  1.7517
 4407SOL     OW24856   0.377   3.664  17.282 -0.3782 -0.3175  0.0969
 4407SOL    HW124857   0.463   3.706  17.274 -0.6418 -0.1495 -1.9250
 4407SOL    HW224858   0.352   3.691  17.370 -2.0526  0.2257 -0.5478
 4408SOL     OW24859   4.510   1.068   3.825 -0.3950 -1.1989  0.2598
 4408SOL    HW124860   4.561   1.070   3.744 -0.0110 -1.5335  0.4910
 4408SOL    HW224861   4.566   1.114   3.888 -0.1645 -0.9419 -0.1368
 4409SOL     OW24862   3.078   4.730  17.474  1.0217 -0.1691  0.1385
 4409SOL    HW124863   3.005   4.671  17.490 -0.5750  1.1103 -2.3497
 4409SOL    HW224864   3.132   4.688  17.408  1.4528  1.6419 -0.6617
 4410SOL     OW24865   2.433   3.559   0.378  0.2106 -0.0576  0.3663
 4410SOL    HW124866   2.365   3.508   0.334 -1.2399  1.9536  0.2573
 4410SOL    HW224867   2.499   3.491   0.385  2.1959  1.7867 -0.6055
 4411SOL     OW24868   1.994   1.929   2.284  0.5999  0.3369 -0.0505
 4411SOL    HW124869   1.914   1.941   2.335  1.1239  1.9390  0.3957
 4411SOL    HW224870   1.985   1.834   2.277 -2.7496  0.6356  0.0687
 4412SOL     OW24871   2.849   1.346   9.721  0.7403 -0.1082  0.4033
 4412SOL    HW124872   2.886   1.338   9.809 -0.0709  0.0835  0.7642
 4412SOL    HW224873   2.778   1.410   9.733  1.8784  1.0646  0.8831
 4413SOL     OW24874   4.467   4.060   4.669  0.1536  0.0555  0.2392
 4413SOL    HW124875   4.400   4.125   4.647 -1.1916 -1.7785 -1.0254
 4413SOL    HW224876   4.460   4.004   4.592  1.5678  0.9760 -0.5703
 4414SOL     OW24877   1.019   3.879   8.448 -0.0148 -0.5510 -0.8727
 4414SOL    HW124878   0.942   3.899   8.395  0.0522  0.3025 -0.6491
 4414SOL    HW224879   1.078   3.948   8.416  2.0808 -1.3068  1.3123
 4415SOL     OW24880   2.865   0.537  13.023 -0.0032  0.1576 -1.0006
 4415SOL    HW124881   2.927   0.607  13.002  1.0661  0.0254  1.7181
 4415SOL    HW224882   2.890   0.473  12.957 -1.8289  0.2176 -1.7693
 4416SOL     OW24883   4.245   0.135   4.006 -0.7175 -0.4000  0.0964
 4416SOL    HW124884   4.273   0.155   3.916 -2.2035  3.4540  0.5137
 4416SOL    HW224885   4.162   0.089   3.995 -1.1404  0.5277 -0.5994
 4417SOL     OW24886   0.735   4.008   7.268  0.1181  0.1636  0.1176
 4417SOL    HW124887   0.717   3.922   7.231  0.1440  0.1497  0.1378
 4417SOL    HW224888   0.827   4.022   7.246 -0.5096  2.9593 -0.8371
 4418SOL     OW24889   1.016   3.594   6.025  0.3589 -0.5902  0.5612
 4418SOL    HW124890   1.033   3.603   5.931 -2.0534  0.9148  0.2616
 4418SOL    HW224891   0.974   3.675   6.052  0.1344 -0.2643 -0.7473
 4419SOL     OW24892   2.417   2.887   0.997 -0.7270 -0.3788 -0.1831
 4419SOL    HW124893   2.443   2.916   0.910 -1.2847  1.0381  0.1134
 4419SOL    HW224894   2.338   2.941   1.008 -2.5319 -2.6973 -1.8680
 4420SOL     OW24895   3.653   0.729   7.111 -0.4685  0.1875  0.6482
 4420SOL    HW124896   3.624   0.691   7.194  0.2300 -0.5555  0.5451
 4420SOL    HW224897   3.567   0.758   7.079  0.0304 -0.0916 -0.9841
 4421SOL     OW24898   2.055   0.033   9.465  0.1969 -0.3240  0.5068
 4421SOL    HW124899   1.998   0.070   9.532 -0.8908  0.6359 -0.9544
 4421SOL    HW224900   2.100   0.112   9.436  0.3826 -1.3509 -1.9495
 4422SOL     OW24901   4.473   2.642  13.934 -0.0517  0.2802 -0.0249
 4422SOL    HW124902   4.438   2.715  13.883  1.6790  0.3383 -1.1403
 4422SOL    HW224903   4.465   2.568  13.874  1.0665  0.1936 -0.0632
 4423SOL     OW24904   3.305   2.067   1.819 -0.2846  0.2676 -0.2272
 4423SOL    HW124905   3.368   2.076   1.890 -1.8672  1.7676  0.9697
 4423SOL    HW224906   3.341   2.007   1.753  0.5462  0.1516  0.3312
 4424SOL     OW24907   4.259   3.249   5.481  0.2253 -0.1611  0.1770
 4424SOL    HW124908   4.208   3.206   5.413  1.9900 -1.4743 -0.3111
 4424SOL    HW224909   4.247   3.341   5.454  0.0319 -0.6556 -1.4093
 4425SOL     OW24910   2.838   0.464  14.713 -0.6089 -0.3275 -0.4236
 4425SOL    HW124911   2.852   0.391  14.652  1.9704  1.2654 -1.7757
 4425SOL    HW224912   2.899   0.532  14.685 -0.6317  0.1956  0.8036
 4426SOL     OW24913   3.196   3.408   4.631  0.3592  0.0456 -0.4609
 4426SOL    HW124914   3.118   3.416   4.687  0.9369 -0.4578  0.4196
 4426SOL    HW224915   3.163   3.423   4.543  0.1822  2.4264 -0.0099
 4427SOL     OW24916   4.553   0.888   4.956 -0.3782  0.2183 -0.4635
 4427SOL    HW124917   4.538   0.889   5.050  2.0263  0.9890 -0.0892
 4427SOL    HW224918   4.477   0.835   4.932 -0.7622  0.8823 -0.7136
 4428SOL     OW24919   0.113   3.613   4.967  0.2022  0.1829  0.1075
 4428SOL    HW124920   0.091   3.632   5.058 -2.2303 -1.0262 -0.2113
 4428SOL    HW224921   0.097   3.519   4.957  0.5341 -0.1132  2.3592
 4429SOL     OW24922   1.222   0.076   6.768  0.1751 -0.4392 -0.1861
 4429SOL    HW124923   1.201   0.060   6.676  0.2559  0.6928 -0.4008
 4429SOL    HW224924   1.165   0.148   6.795 -2.4020 -2.0927 -1.2488
 4430SOL     OW24925   4.532   2.937   4.065  0.4696  0.4286 -0.0013
 4430SOL    HW124926   4.486   2.859   4.097  1.4578  0.0148  0.4096
 4430SOL    HW224927   4.582   2.958   4.144 -1.0375  3.1940  0.2122
 4431SOL     OW24928   2.640   2.823   1.439  0.7958 -0.7960  0.1595
 4431SOL    HW124929   2.724   2.784   1.460 -1.0624 -3.2055  3.1083
 4431SOL    HW224930   2.656   2.915   1.458 -1.2668 -0.2633 -0.5967
 4432SOL     OW24931   1.775   3.315   5.710 -0.3770 -0.1369  0.2778
 4432SOL    HW124932   1.818   3.232   5.731  0.0654  0.3203  1.2049
 4432SOL    HW224933   1.727   3.293   5.631  0.6904 -1.4354 -0.0151
 4433SOL     OW24934   4.052   1.893   8.817 -0.3379  0.2510  0.1901
 4433SOL    HW124935   4.129   1.837   8.832  1.0957  2.3558  0.6900
 4433SOL    HW224936   4.024   1.898   8.908 -1.0531 -0.1097 -0.0103
 4434SOL     OW24937   3.025   1.284  17.362  0.1623  0.1374  0.6322
 4434SOL    HW124938   3.039   1.360  17.419 -1.2774 -0.3040  1.5905
 4434SOL    HW224939   2.975   1.324  17.290  0.5694 -0.4419  0.0389
 4435SOL     OW24940   4.639   3.131  12.118 -0.0019  0.2676  0.2608
 4435SOL    HW124941   4.594   3.161  12.196 -0.9415  0.5098 -0.3698
 4435SOL    HW224942   4.689   3.057  12.150  0.1572  0.8040  1.2525
 4436SOL     OW24943   0.297   4.602  16.512 -0.7309  0.0552 -0.2758
 4436SOL    HW124944   0.385   4.615  16.547 -0.7055 -0.1598 -0.2587
 4436SOL    HW224945   0.287   4.681  16.459  0.9868 -0.2985 -1.1108
 4437SOL     OW24946   2.398   3.019  17.598 -0.0668 -0.4056 -0.2462
 4437SOL    HW124947   2.479   2.980  17.565  0.8751  1.3233  0.0239
 4437SOL    HW224948   2.416   3.009  17.691 -1.2259 -0.4583 -0.0329
 4438SOL     OW24949   2.079   2.374   4.847 -0.1601 -0.4119 -0.2812
 4438SOL    HW124950   2.041   2.294   4.811 -2.0989  1.8879 -3.3533
 4438SOL    HW224951   2.086   2.357   4.941 -1.6574 -1.7188 -0.3960
 4439SOL     OW24952   3.072   0.226   2.184  0.3393 -0.4111  0.5736
 4439SOL    HW124953   3.015   0.243   2.259 -0.4035 -0.0890 -0.0630
 4439SOL    HW224954   3.148   0.197   2.234  1.0565  0.5964  0.0538
 4440SOL     OW24955   3.087   1.238   9.218  0.0691  0.4152  0.2249
 4440SOL    HW124956   3.122   1.152   9.239  2.5895  0.7204 -2.8168
 4440SOL    HW224957   3.142   1.288   9.277  1.0580  0.0446 -0.3876
 4441SOL     OW24958   3.458   1.627  16.133 -0.1817  0.3231 -0.0025
 4441SOL    HW124959   3.494   1.650  16.218 -1.1873 -0.9562  0.7851
 4441SOL    HW224960   3.399   1.699  16.113  0.7922  1.3875  1.0079
 4442SOL     OW24961   4.292   1.819   8.748  0.7973 -0.5141 -0.0108
 4442SOL    HW124962   4.323   1.868   8.824 -1.2167 -1.7869  1.6432
 4442SOL    HW224963   4.370   1.821   8.693  1.2388  1.9662  0.7046
 4443SOL     OW24964   3.581   1.493   7.293 -0.4637 -0.3757  0.2373
 4443SOL    HW124965   3.618   1.497   7.382 -0.2351  2.5604 -0.0029
 4443SOL    HW224966   3.581   1.584   7.266 -0.6188 -0.7391 -0.9718
 4444SOL     OW24967   2.185   3.357   7.485  0.1610  0.2935  0.1541
 4444SOL    HW124968   2.186   3.418   7.411  0.8955 -0.7362 -0.6850
 4444SOL    HW224969   2.279   3.347   7.495  0.2107 -0.7038 -1.3142
 4445SOL     OW24970   4.187   1.823  16.841 -0.5729 -0.2042  0.3171
 4445SOL    HW124971   4.273   1.792  16.869 -1.3343  0.1363  3.0738
 4445SOL    HW224972   4.156   1.852  16.927 -0.4382 -2.9583  1.3143
 4446SOL     OW24973   1.938   2.593   8.990 -0.0538  0.2245 -0.0777
 4446SOL    HW124974   1.954   2.671   8.936  2.4870 -0.7209 -0.6935
 4446SOL    HW224975   1.862   2.546   8.955  0.8625 -0.6787 -0.8689
 4447SOL     OW24976   4.266   2.993   7.042 -0.4157 -0.1010 -0.3691
 4447SOL    HW124977   4.280   2.916   6.987 -3.4792  0.7149 -2.3024
 4447SOL    HW224978   4.176   2.983   7.074  0.9089 -2.2172  2.7915
 4448SOL     OW24979   0.206   0.343  15.375 -0.0907 -0.0629  0.3060
 4448SOL    HW124980   0.128   0.297  15.407  1.4981 -1.6635  1.9070
 4448SOL    HW224981   0.237   0.293  15.300 -1.0482 -1.0136  0.5426
 4449SOL     OW24982   0.994   3.631   1.928  0.2376 -0.1655  0.6044
 4449SOL    HW124983   0.929   3.690   1.890  2.2628  0.4849 -1.7797
 4449SOL    HW224984   1.075   3.678   1.909 -0.0326 -0.3118 -0.9162
 4450SOL     OW24985   0.415   3.292   6.242  0.0582  0.4491 -0.0909
 4450SOL    HW124986   0.391   3.384   6.245  0.6079  0.5904  0.1385
 4450SOL    HW224987   0.373   3.262   6.322 -1.9912  2.2089 -0.5258
 4451SOL     OW24988   1.273   1.066   5.217  0.7053  0.3756 -0.3090
 4451SOL    HW124989   1.304   1.155   5.202 -1.5006  1.7436  3.2499
 4451SOL    HW224990   1.213   1.050   5.144  0.6903  0.9079 -0.4147
 4452SOL     OW24991   0.286   2.268   2.913 -0.0306 -0.0992  0.0735
 4452SOL    HW124992   0.326   2.270   2.826  0.0746  0.9531  0.1463
 4452SOL    HW224993   0.208   2.323   2.901 -0.4996 -0.1364  3.0261
 4453SOL     OW24994   3.565   3.734   2.573  0.6480  0.2006  0.2570
 4453SOL    HW124995   3.544   3.808   2.516  1.5772 -0.0511 -0.3976
 4453SOL    HW224996   3.616   3.679   2.514 -0.1417 -0.2250 -0.0379
 4454SOL     OW24997   0.425   0.076   5.548  0.3721  0.0007 -0.0290
 4454SOL    HW124998   0.516   0.049   5.534  0.0540 -0.4682 -1.1767
 4454SOL    HW224999   0.427   0.131   5.626  0.6605 -0.6796  0.4398
 4455SOL     OW25000   3.481   2.085  11.325  0.0651  0.5307 -0.0641
 4455SOL    HW125001   3.489   2.037  11.407  1.0254  0.5705 -0.1320
 4455SOL    HW225002   3.562   2.066  11.276 -0.2863  4.1778 -2.0786
 4456SOL     OW25003   1.435   0.200  12.493 -0.0834  0.0075  0.3634
 4456SOL    HW125004   1.524   0.215  12.461  0.1414  0.6959  1.2945
 4456SOL    HW225005   1.412   0.268  12.556 -4.0230  1.2174 -2.3524
 4457SOL     OW25006   3.964   2.171  10.829 -0.5348 -0.2674 -0.3671
 4457SOL    HW125007   3.999   2.158  10.917 -1.9780  0.6747  0.3504
 4457SOL    HW225008   4.026   2.233  10.791 -0.0583  0.2667  1.2822
 4458SOL     OW25009   0.511   0.264  15.392 -0.1031 -0.6114  0.2137
 4458SOL    HW125010   0.446   0.260  15.321  0.2965  0.4817 -0.2089
 4458SOL    HW225011   0.577   0.317  15.347  2.0861 -1.8028  2.0663
 4459SOL     OW25012   1.813   0.776  12.854 -0.1414 -0.2632  0.4560
 4459SOL    HW125013   1.867   0.697  12.851 -0.3802 -0.3626 -1.1332
 4459SOL    HW225014   1.790   0.786  12.762 -1.0767 -0.8818  0.6266
 4460SOL     OW25015   3.149   3.083   5.186 -0.2907 -0.1993  0.5818
 4460SOL    HW125016   3.105   3.167   5.179 -2.8783 -1.6356 -0.5904
 4460SOL    HW225017   3.168   3.077   5.093  0.2766 -0.0583  0.6877
 4461SOL     OW25018   1.122   3.944  13.725 -0.2089 -0.0515  0.8696
 4461SOL    HW125019   1.167   3.931  13.642  0.3907 -0.6038  1.2751
 4461SOL    HW225020   1.126   4.039  13.731 -2.0510 -0.0333  2.1262
 4462SOL     OW25021   2.940   1.080   6.295 -0.4308  0.1311 -0.6395
 4462SOL    HW125022   3.020   1.106   6.251 -2.1768 -0.0787 -3.9340
 4462SOL    HW225023   2.966   1.020   6.365  4.1154  1.8970 -0.8237
 4463SOL     OW25024   3.134   3.802   9.584 -0.4375  0.6582  0.3291
 4463SOL    HW125025   3.064   3.858   9.619 -2.3726  0.0887 -2.6197
 4463SOL    HW225026   3.193   3.863   9.540 -0.9098  0.6787 -0.2827
 4464SOL     OW25027   2.670   4.075   2.786 -0.1844 -0.8262  0.3453
 4464SOL    HW125028   2.717   3.993   2.769 -1.7717 -1.7221  0.2489
 4464SOL    HW225029   2.744   4.117   2.829 -0.3124 -1.0604  0.7968
 4465SOL     OW25030   4.077   2.636   3.756 -0.4368 -0.3839  0.2127
 4465SOL    HW125031   4.019   2.615   3.683 -0.4597  1.4436 -0.3030
 4465SOL    HW225032   4.150   2.680   3.714 -1.2089 -0.5236 -1.2838
 4466SOL     OW25033   4.294   2.472   4.379  0.4004 -1.0083 -0.4365
 4466SOL    HW125034   4.252   2.505   4.300  0.5387 -3.0825 -1.3967
 4466SOL    HW225035   4.251   2.535   4.436  2.4403  0.6445 -0.7566
 4467SOL     OW25036   0.532   3.139   9.236 -0.0213  0.1800  0.2737
 4467SOL    HW125037   0.543   3.224   9.193  2.4718  0.8099  2.1986
 4467SOL    HW225038   0.450   3.120   9.189 -0.3096  0.3567  0.7036
 4468SOL     OW25039   1.194   2.773   9.385 -0.3073 -0.1258 -1.2177
 4468SOL    HW125040   1.261   2.831   9.421 -0.4500 -1.0646  0.5634
 4468SOL    HW225041   1.163   2.732   9.466  0.1602  1.6797 -0.1309
 4469SOL     OW25042   4.663   1.434   7.139 -0.0221  0.0072 -0.4254
 4469SOL    HW125043   4.643   1.479   7.221 -1.0270  0.3055 -0.8421
 4469SOL    HW225044   4.665   1.502   7.072 -0.8295  0.2953 -0.1603
 4470SOL     OW25045   2.368   3.355   4.412 -0.1382 -0.0615  0.1540
 4470SOL    HW125046   2.285   3.330   4.372  0.1539  0.9120 -1.0684
 4470SOL    HW225047   2.364   3.304   4.492  1.2944  0.9532  0.8735
 4471SOL     OW25048   3.627   1.825   0.997  0.3601  0.7036  0.4620
 4471SOL    HW125049   3.680   1.807   0.920  2.3978  1.3396  1.7202
 4471SOL    HW225050   3.661   1.911   1.024  2.2411  0.0539  0.1696
 4472SOL     OW25051   4.061   4.478   1.724  0.3719 -0.4150 -0.5322
 4472SOL    HW125052   4.083   4.433   1.806  0.8148 -1.1083 -1.0345
 4472SOL    HW225053   3.990   4.533   1.758  1.1075  1.3204 -1.8566
 4473SOL     OW25054   1.693   0.862   7.641  0.7333  0.6317 -0.5374
 4473SOL    HW125055   1.733   0.945   7.668 -1.3153  1.1552  0.8732
 4473SOL    HW225056   1.764   0.797   7.638  0.5291  0.3835  0.1563
 4474SOL     OW25057   0.896   3.958   6.319  0.0741 -0.3497  1.0153
 4474SOL    HW125058   0.840   3.895   6.365 -0.6836 -0.0093  0.5727
 4474SOL    HW225059   0.924   4.024   6.382  0.2764  1.1725 -0.6664
 4475SOL     OW25060   3.769   4.428   3.010  0.0588  0.1793 -0.0211
 4475SOL    HW125061   3.780   4.519   3.038  1.4671  0.9125 -2.9656
 4475SOL    HW225062   3.746   4.428   2.917  1.2035  0.6837 -0.2940
 4476SOL     OW25063   3.507   3.378  15.431 -0.1665  0.0671 -0.4448
 4476SOL    HW125064   3.592   3.343  15.405  0.5981  1.4971  0.1764
 4476SOL    HW225065   3.511   3.456  15.377  0.2512  0.0698 -0.4066
 4477SOL     OW25066   1.285   2.632   8.573 -0.2022  0.0333  0.5220
 4477SOL    HW125067   1.293   2.589   8.658  1.1282 -0.0092  0.3763
 4477SOL    HW225068   1.190   2.630   8.564 -0.1561 -0.6852  0.2179
 4478SOL     OW25069   3.479   0.350   4.869 -0.4064  0.1959 -0.2124
 4478SOL    HW125070   3.457   0.425   4.923 -0.9624 -0.7168  0.8130
 4478SOL    HW225071   3.540   0.395   4.811 -0.8916  0.7611 -0.2834
 4479SOL     OW25072   3.197   0.043   9.417  0.4313  0.0528  0.4127
 4479SOL    HW125073   3.261   4.725   9.371 -1.8851 -1.5503 -0.8863
 4479SOL    HW225074   3.259   0.106   9.455 -1.2688  1.6893  0.4725
 4480SOL     OW25075   3.192   3.001   2.993 -0.0273 -0.3686  0.2348
 4480SOL    HW125076   3.272   2.999   2.940  0.0070 -3.6683  0.4094
 4480SOL    HW225077   3.184   2.907   3.014 -0.3411 -0.2343  0.7177
 4481SOL     OW25078   0.954   0.570   2.426 -0.7742 -0.1318  0.0935
 4481SOL    HW125079   1.002   0.504   2.376 -0.4000 -0.1652  0.4970
 4481SOL    HW225080   1.006   0.646   2.402  1.3640 -0.8272  2.4751
 4482SOL     OW25081   3.222   2.187   8.797  0.8450 -0.1345  0.1828
 4482SOL    HW125082   3.166   2.149   8.729  0.2049  0.1385  0.5590
 4482SOL    HW225083   3.210   2.123   8.867  1.4920  0.8150  1.1784
 4483SOL     OW25084   2.263   0.675   3.283  0.0362 -0.5979 -0.4242
 4483SOL    HW125085   2.238   0.726   3.360  1.5564 -1.2907  0.5327
 4483SOL    HW225086   2.338   0.727   3.252  0.5972 -0.5714  0.9924
 4484SOL     OW25087   0.806   2.746   8.807 -0.2548  0.5516  0.2084
 4484SOL    HW125088   0.751   2.758   8.884 -1.3322  0.5987 -0.5838
 4484SOL    HW225089   0.742   2.762   8.738 -1.2118 -2.1521  0.4555
 4485SOL     OW25090   2.555   1.459   9.239 -0.8357 -0.4277 -0.2832
 4485SOL    HW125091   2.559   1.425   9.150  0.6068  0.4600 -0.5548
 4485SOL    HW225092   2.463   1.486   9.237 -0.7477  0.1566  2.8351
 4486SOL     OW25093   3.930   0.311   8.315 -0.2368  0.1801  0.1297
 4486SOL    HW125094   3.954   0.254   8.242  0.2687 -0.1417  0.5497
 4486SOL    HW225095   3.965   0.263   8.390  3.1053 -1.8130 -2.6990
 4487SOL     OW25096   0.020   4.090  16.552 -0.0157  0.7784  0.0215
 4487SOL    HW125097   0.087   4.067  16.487  1.0600 -0.1089  1.4177
 4487SOL    HW225098   0.014   4.004  16.594 -0.6023  0.0788 -1.5159
 4488SOL     OW25099   0.133   0.349   3.554  0.2174  0.1043 -0.0320
 4488SOL    HW125100   0.155   0.280   3.618 -2.4536 -0.7753 -0.0616
 4488SOL    HW225101   0.219   0.390   3.544  1.1936 -1.3569  2.3482
 4489SOL     OW25102   3.543   2.261  11.762 -0.5535  0.3766  0.2432
 4489SOL    HW125103   3.530   2.345  11.719 -2.6067 -1.1040 -2.0931
 4489SOL    HW225104   3.565   2.273  11.854 -1.2551 -1.9035  0.7203
 4490SOL     OW25105   1.223   1.329   2.769  0.0776  0.3032  0.4697
 4490SOL    HW125106   1.138   1.367   2.745  0.8659  1.9464  0.3189
 4490SOL    HW225107   1.255   1.411   2.807 -1.0168  0.3211  1.3725
 4491SOL     OW25108   0.814   4.591   3.851 -0.4893 -0.3386 -0.2674
 4491SOL    HW125109   0.881   4.645   3.810 -1.5751  1.9860  1.0520
 4491SOL    HW225110   0.787   4.644   3.926  0.5600  0.8921 -0.7535
 4492SOL     OW25111   3.760   1.818   2.043  0.1015  0.0901  0.2188
 4492SOL    HW125112   3.761   1.913   2.056 -2.6221  0.2568 -0.9513
 4492SOL    HW225113   3.681   1.811   1.991 -1.3624  0.1790  2.4239
 4493SOL     OW25114   1.011   0.496   3.766 -0.6935 -0.0968  0.3245
 4493SOL    HW125115   1.002   0.567   3.703 -0.5603 -0.9277 -0.6189
 4493SOL    HW225116   1.017   0.533   3.854  0.2875  2.2732 -0.7339
 4494SOL     OW25117   1.107   2.908   6.273  0.0527 -0.1464 -0.2210
 4494SOL    HW125118   1.082   2.880   6.185 -0.7899 -1.3730  0.4048
 4494SOL    HW225119   1.129   2.998   6.250 -0.3874 -0.2968 -1.2278
 4495SOL     OW25120   0.154   1.377   2.340  0.8170 -0.3794  0.8469
 4495SOL    HW125121   0.144   1.417   2.427 -0.5916  0.8194  0.1282
 4495SOL    HW225122   0.160   1.284   2.362  0.2572 -0.4599  0.6478
 4496SOL     OW25123   0.039   2.391   3.051  0.1133  0.3725 -0.2585
 4496SOL    HW125124   0.089   2.329   3.104 -1.9276 -0.4398  0.6967
 4496SOL    HW225125   4.690   2.350   3.037 -1.5796  3.5891  0.5605
 4497SOL     OW25126   1.161   2.216   4.450 -0.0294 -0.1440 -0.2221
 4497SOL    HW125127   1.204   2.131   4.465 -2.2785 -1.3302 -0.4325
 4497SOL    HW225128   1.243   2.263   4.437  1.3280 -1.9465  1.6659
 4498SOL     OW25129   2.284   0.416   4.378 -0.4959 -0.6323 -0.0626
 4498SOL    HW125130   2.225   0.427   4.452 -0.1144  2.3131 -0.2031
 4498SOL    HW225131   2.362   0.441   4.427 -1.5761 -0.0534  1.3538
 4499SOL     OW25132   4.281   1.309   1.683  0.2441  0.1039 -0.3759
 4499SOL    HW125133   4.347   1.356   1.735  0.0798 -1.4740  1.2535
 4499SOL    HW225134   4.244   1.249   1.747  0.5581 -0.9398 -1.1821
 4500SOL     OW25135   2.877   1.771   6.587 -0.0517  0.1678  0.4773
 4500SOL    HW125136   2.829   1.775   6.504 -0.1027 -1.1105  0.4521
 4500SOL    HW225137   2.852   1.684   6.617  3.4881 -0.7884  0.6438
 4501SOL     OW25138   3.086   3.212   3.718  0.0435 -0.7128 -0.0611
 4501SOL    HW125139   3.114   3.234   3.807 -2.0831  1.5041  0.0644
 4501SOL    HW225140   3.169   3.177   3.686  1.2924  1.8192  0.3856
 4502SOL     OW25141   2.790   2.509   6.313 -0.2810  0.1815  0.0135
 4502SOL    HW125142   2.828   2.552   6.389  0.5223 -0.5260  0.0040
 4502SOL    HW225143   2.861   2.518   6.249 -0.1039  1.3516  0.3704
 4503SOL     OW25144   2.783   0.518  13.783  0.0687 -0.7882  0.4620
 4503SOL    HW125145   2.725   0.444  13.766  0.6703 -1.6320  2.0841
 4503SOL    HW225146   2.833   0.531  13.703  1.9136  0.8498  1.8746
 4504SOL     OW25147   3.120   0.532  10.480 -0.0141  0.3809 -0.5177
 4504SOL    HW125148   3.082   0.471  10.543 -0.3722 -1.1549 -2.2301
 4504SOL    HW225149   3.045   0.544  10.422  0.1792  0.3362 -0.7771
 4505SOL     OW25150   0.185   3.651   0.765  0.1096 -0.3182  0.4524
 4505SOL    HW125151   0.178   3.555   0.771 -1.8457 -0.1586  0.7267
 4505SOL    HW225152   0.206   3.662   0.673 -1.9703  0.3928  0.0643
 4506SOL     OW25153   2.927   1.321   9.972 -0.1191 -0.5180  0.6948
 4506SOL    HW125154   2.962   1.385  10.034  1.7314 -2.3080  1.5184
 4506SOL    HW225155   2.920   1.249  10.036 -0.0900 -0.9782  0.1773
 4507SOL     OW25156   4.506   2.688  15.724  0.1458 -0.2052  0.1459
 4507SOL    HW125157   4.495   2.603  15.768 -1.3144 -0.9759 -1.7011
 4507SOL    HW225158   4.437   2.697  15.659 -0.2652 -2.5254  0.2631
 4508SOL     OW25159   3.151   4.365   7.799 -0.3230  0.1784 -0.0796
 4508SOL    HW125160   3.158   4.407   7.885  1.4498  0.6233 -0.4520
 4508SOL    HW225161   3.172   4.274   7.821 -0.7078  0.1020 -0.0257
 4509SOL     OW25162   4.038   2.319  11.691 -0.0075 -0.0893 -0.0432
 4509SOL    HW125163   3.969   2.258  11.666 -0.7599  1.5006 -1.8170
 4509SOL    HW225164   4.027   2.336  11.784 -1.8118 -1.9227  0.0656
 4510SOL     OW25165   3.463   3.392   4.706  0.3172 -0.1336  0.4588
 4510SOL    HW125166   3.476   3.419   4.797 -1.0626 -0.3071  0.6988
 4510SOL    HW225167   3.369   3.408   4.698  0.4006  0.4187  0.5329
 4511SOL     OW25168   0.467   0.270   7.772 -0.5929 -0.1882 -0.1219
 4511SOL    HW125169   0.506   0.336   7.829  0.6144 -0.3679 -0.7402
 4511SOL    HW225170   0.486   0.185   7.811 -2.0783  0.3255  1.7275
 4512SOL     OW25171   3.719   2.427   1.241  0.1265 -0.2724  0.6100
 4512SOL    HW125172   3.812   2.408   1.230  0.5652  2.5973 -0.5566
 4512SOL    HW225173   3.726   2.508   1.291 -0.1657  0.7919 -1.0938
 4513SOL     OW25174   2.640   0.828   7.258  0.5135  0.0898  0.1627
 4513SOL    HW125175   2.678   0.884   7.190 -0.9926  0.6420 -0.2182
 4513SOL    HW225176   2.707   0.817   7.325 -0.1504 -0.2311  0.7732
 4514SOL     OW25177   3.609   2.679   4.218  0.2736 -0.2638  0.6177
 4514SOL    HW125178   3.615   2.660   4.124  1.2656  1.2832  0.3633
 4514SOL    HW225179   3.650   2.765   4.212 -0.3253 -0.1685 -2.2765
 4515SOL     OW25180   2.366   3.615   5.186  0.5992  0.6543  0.2888
 4515SOL    HW125181   2.360   3.557   5.111 -0.1540  1.0410  0.0499
 4515SOL    HW225182   2.327   3.694   5.148 -3.8665 -0.2176  3.1433
 4516SOL     OW25183   4.716   3.298   3.171  0.0240 -0.2440  0.5111
 4516SOL    HW125184   4.685   3.213   3.140 -1.9473  0.6187  0.0998
 4516SOL    HW225185   0.018   3.265   3.252 -0.9433  0.6323  1.3380
 4517SOL     OW25186   0.367   2.967   6.742 -0.1537 -0.3477 -0.3333
 4517SOL    HW125187   0.427   3.001   6.675 -1.4313 -1.6167 -2.1362
 4517SOL    HW225188   0.312   3.045   6.745  1.8102  1.0406 -0.1218
 4518SOL     OW25189   1.719   4.730   8.387 -0.2747 -0.5715  0.3015
 4518SOL    HW125190   1.733   0.078   8.343  2.1957 -1.3577 -0.4314
 4518SOL    HW225191   1.628   0.010   8.409 -0.1462 -0.3530  0.6778
 4519SOL     OW25192   4.180   3.971   6.630 -0.0658  0.1722  0.1428
 4519SOL    HW125193   4.145   3.883   6.615 -1.6111  0.9485 -0.8791
 4519SOL    HW225194   4.108   4.020   6.593 -0.0391 -0.2516 -0.4796
 4520SOL     OW25195   2.708   4.415   1.919 -0.0736  0.2043  0.1246
 4520SOL    HW125196   2.679   4.364   1.843 -2.4596 -0.6955  1.6584
 4520SOL    HW225197   2.718   4.500   1.875 -0.2271 -1.4524 -3.1441
 4521SOL     OW25198   0.211   2.917   4.179 -0.2727 -0.4184 -0.2416
 4521SOL    HW125199   0.162   2.988   4.220  1.3041 -0.1320  1.1725
 4521SOL    HW225200   0.245   2.867   4.254 -1.1206 -1.3834 -0.4939
 4522SOL     OW25201   0.826   3.721   3.926 -0.1679  0.0346 -0.3021
 4522SOL    HW125202   0.858   3.777   3.997 -0.6574  0.1156 -0.1436
 4522SOL    HW225203   0.803   3.791   3.865  2.8191  1.0599 -0.2398
 4523SOL     OW25204   4.213   2.380   8.225 -0.0051 -0.2109 -0.4474
 4523SOL    HW125205   4.206   2.412   8.315  0.9210 -1.4359  0.0452
 4523SOL    HW225206   4.125   2.397   8.190 -1.3079  0.9708  3.3856
 4524SOL     OW25207   1.609   3.785  15.949 -0.8277 -0.3871  0.4254
 4524SOL    HW125208   1.698   3.819  15.959 -0.8537 -0.3655  0.5859
 4524SOL    HW225209   1.575   3.845  15.882  1.9742 -1.0043 -1.5326
 4525SOL     OW25210   2.508   0.317   7.638 -0.1418  0.6065 -0.0472
 4525SOL    HW125211   2.465   0.388   7.685 -1.9463 -0.2471 -0.4015
 4525SOL    HW225212   2.580   0.367   7.600  0.1877 -0.0630 -0.3142
 4526SOL     OW25213   2.211   1.485  14.037 -0.0694  0.5220  0.2946
 4526SOL    HW125214   2.239   1.574  14.017  0.6760  0.3184  0.4206
 4526SOL    HW225215   2.144   1.511  14.100 -1.4690  1.6620 -1.6421
 4527SOL     OW25216   0.694   0.417   5.800 -0.1771 -0.3675 -0.0633
 4527SOL    HW125217   0.616   0.422   5.857 -0.8002  2.3634 -1.1172
 4527SOL    HW225218   0.751   0.354   5.844 -0.1681 -0.4970 -0.2629
 4528SOL     OW25219   1.843   4.337  16.460  0.0963 -0.5125  0.3762
 4528SOL    HW125220   1.826   4.263  16.402 -1.3739 -1.2867  1.8098
 4528SOL    HW225221   1.887   4.398  16.401 -0.4689 -0.6879 -0.2239
 4529SOL     OW25222   2.407   0.827   8.544 -0.3949 -0.3135 -0.0513
 4529SOL    HW125223   2.410   0.816   8.639 -1.1439  0.3457  0.0473
 4529SOL    HW225224   2.386   0.920   8.538 -0.0133  0.0941  4.3891
 4530SOL     OW25225   2.708   2.875   5.445  0.1535 -0.3933  0.5510
 4530SOL    HW125226   2.763   2.952   5.428  0.4593 -0.4382  1.3081
 4530SOL    HW225227   2.748   2.810   5.388 -0.6447 -0.7718  0.4284
 4531SOL     OW25228   1.986   1.826   3.909  0.4239 -0.1867 -0.0556
 4531SOL    HW125229   1.892   1.810   3.904  0.0845  1.8905 -0.3310
 4531SOL    HW225230   2.021   1.763   3.846 -2.1069 -0.4827 -1.1433
 4532SOL     OW25231   0.355   2.729   1.844  0.2275 -0.0265  0.1508
 4532SOL    HW125232   0.362   2.825   1.843  0.7374 -0.0531  0.9081
 4532SOL    HW225233   0.383   2.706   1.756 -0.6328 -1.8437  0.3630
 4533SOL     OW25234   1.537   0.429   8.125  0.1726 -0.1400 -0.5175
 4533SOL    HW125235   1.497   0.419   8.038  0.9710 -0.8290 -0.8087
 4533SOL    HW225236   1.622   0.463   8.095  0.1982 -0.2933 -0.6195
 4534SOL     OW25237   4.415   3.550  11.250  0.2872 -0.6025 -0.1029
 4534SOL    HW125238   4.455   3.499  11.179  3.5748  0.3991  1.0246
 4534SOL    HW225239   4.487   3.611  11.268  1.3545 -2.0797  0.6188
 4535SOL     OW25240   4.619   0.451   3.780  0.0851  0.6783 -0.5272
 4535SOL    HW125241   4.679   0.378   3.791 -0.1563  0.6513  0.5654
 4535SOL    HW225242   4.545   0.431   3.838  0.1671  3.0097  0.3980
 4536SOL     OW25243   2.002   0.055   6.123  0.4463  0.2576  0.2686
 4536SOL    HW125244   1.960   0.075   6.039 -1.1418 -2.2496  0.4823
 4536SOL    HW225245   1.961   4.705   6.125  1.6439 -0.2796  1.2655
 4537SOL     OW25246   3.288   2.714   0.811  0.5450  0.1754 -0.2934
 4537SOL    HW125247   3.289   2.758   0.726 -0.6888  1.9867  0.6258
 4537SOL    HW225248   3.215   2.654   0.794 -1.0777  1.5367  1.8316
 4538SOL     OW25249   4.030   0.483   5.498  0.1976 -0.5356 -0.0728
 4538SOL    HW125250   3.942   0.455   5.522 -0.1663  0.0447 -0.7127
 4538SOL    HW225251   4.018   0.578   5.491  1.4620 -0.2357  1.8356
 4539SOL     OW25252   3.196   0.611   9.728 -0.3572  0.5545  0.0852
 4539SOL    HW125253   3.138   0.686   9.720 -1.0944 -0.1754 -1.4174
 4539SOL    HW225254   3.138   0.536   9.746  0.1610  0.1362  0.0085
 4540SOL     OW25255   2.530   4.459   6.130 -0.0840 -0.1432  0.7301
 4540SOL    HW125256   2.475   4.518   6.181 -1.7851  0.0730 -1.3636
 4540SOL    HW225257   2.477   4.396   6.082 -0.7796 -0.1445  1.5031
 4541SOL     OW25258   4.586   1.404   8.181 -0.1614 -0.1398  0.6432
 4541SOL    HW125259   4.576   1.427   8.273 -0.5764 -2.2524  1.1266
 4541SOL    HW225260   4.531   1.326   8.187  0.7090 -0.9401 -1.6750
 4542SOL     OW25261   0.191   3.351   3.014 -0.1416  0.1121  0.2819
 4542SOL    HW125262   0.150   3.316   2.936  0.9231 -1.7948  0.5888
 4542SOL    HW225263   0.114   3.340   3.070 -0.5050  0.7451 -0.0948
 4543SOL     OW25264   2.235   2.711   3.626  0.1721 -0.2086 -0.1387
 4543SOL    HW125265   2.177   2.635   3.635  0.2222 -0.4072 -1.4520
 4543SOL    HW225266   2.173   2.782   3.610  0.3464 -0.2351 -0.9255
 4544SOL     OW25267   0.764   2.906   3.692 -0.2433 -0.0810 -0.8938
 4544SOL    HW125268   0.709   2.935   3.620  1.5022  1.6376 -1.5491
 4544SOL    HW225269   0.729   2.818   3.703  1.4295 -0.5636  0.7236
 4545SOL     OW25270   1.023   4.662  16.393  0.7523 -0.3047 -0.1381
 4545SOL    HW125271   0.963   4.712  16.338 -0.6387 -1.2814  0.4996
 4545SOL    HW225272   1.050   4.727  16.458  0.8982  1.4342 -1.9132
 4546SOL     OW25273   1.298   0.753   2.159 -0.1987  1.0628 -0.4425
 4546SOL    HW125274   1.336   0.823   2.211  1.9662 -1.8427  1.9187
 4546SOL    HW225275   1.304   0.682   2.223  0.9974  1.4438 -0.1410
 4547SOL     OW25276   0.343   4.047   5.207 -0.5478  0.4597 -0.4084
 4547SOL    HW125277   0.274   4.055   5.141 -0.4308 -0.3232 -0.6157
 4547SOL    HW225278   0.375   3.957   5.206  0.6262  0.8698 -0.2755
 4548SOL     OW25279   0.417   0.916   1.825 -0.4525  0.2224  0.4628
 4548SOL    HW125280   0.433   0.872   1.908  1.7338 -0.2278 -0.1824
 4548SOL    HW225281   0.335   0.963   1.841  0.7254  2.1035  0.9772
 4549SOL     OW25282   0.961   0.191   8.885  0.7526 -0.2228 -0.0566
 4549SOL    HW125283   0.966   0.269   8.941  1.8337  1.6511 -2.7740
 4549SOL    HW225284   1.050   0.165   8.861  0.5070 -2.5588  1.6341
 4550SOL     OW25285   1.245   2.468   6.912 -0.2729  0.3745  0.5781
 4550SOL    HW125286   1.226   2.536   6.848 -3.7208 -1.4165 -0.2673
 4550SOL    HW225287   1.265   2.402   6.846 -0.5589  0.5772  0.2858
 4551SOL     OW25288   3.457   3.860   6.594  0.1717 -0.7084 -0.3230
 4551SOL    HW125289   3.409   3.783   6.564 -0.3718  0.0551 -1.3959
 4551SOL    HW225290   3.470   3.823   6.682  2.2593  0.5184 -0.0963
 4552SOL     OW25291   1.414   4.360   5.254 -0.0965 -0.0434 -0.1379
 4552SOL    HW125292   1.381   4.270   5.253  1.0723 -0.4435 -2.2350
 4552SOL    HW225293   1.505   4.352   5.280 -0.0497  2.0332  0.3312
 4553SOL     OW25294   0.601   1.547   9.055 -0.5618 -0.3105  0.4173
 4553SOL    HW125295   0.565   1.581   9.137  0.1235  0.1171  0.5451
 4553SOL    HW225296   0.611   1.623   8.999 -0.5054  0.6280  1.6948
 4554SOL     OW25297   4.093   3.787   2.566  0.1866  0.0661 -0.1763
 4554SOL    HW125298   4.148   3.767   2.642  0.0694 -1.9896 -0.6589
 4554SOL    HW225299   4.040   3.709   2.555 -1.3762  1.0426  0.4061
 4555SOL     OW25300   2.258   4.685   9.780 -0.0533  0.0430 -0.1176
 4555SOL    HW125301   2.336   4.700   9.728 -0.6862  1.5262 -0.6216
 4555SOL    HW225302   2.199   0.019   9.752  1.2715  0.8951 -0.7297
 4556SOL     OW25303   1.638   3.946   5.271  0.1757 -0.0132  0.0848
 4556SOL    HW125304   1.718   3.896   5.289  0.2729  0.5622  1.2343
 4556SOL    HW225305   1.574   3.916   5.336  0.5072 -2.5886 -0.7652
 4557SOL     OW25306   1.880   1.406   1.570 -0.6823  0.0384 -0.1043
 4557SOL    HW125307   1.915   1.491   1.597  0.3712 -0.1228 -0.9989
 4557SOL    HW225308   1.963   1.359   1.575 -1.3671 -1.3275 -1.9119
 4558SOL     OW25309   4.007   2.776   1.947  0.0755 -0.1596  0.1818
 4558SOL    HW125310   3.929   2.783   1.892  1.1843  0.3452 -1.3227
 4558SOL    HW225311   4.003   2.861   1.991  1.0586 -0.1284  0.2277
 4559SOL     OW25312   4.262   1.624   3.933  0.3610 -0.8310 -0.2865
 4559SOL    HW125313   4.346   1.649   3.894  0.8299 -1.0235  0.6026
 4559SOL    HW225314   4.256   1.697   3.995 -0.3461  0.1657 -1.5400
 4560SOL     OW25315   0.088   2.736   7.954 -0.2389  0.4311  0.0757
 4560SOL    HW125316   0.023   2.764   7.890  0.6372  1.0675 -0.5359
 4560SOL    HW225317   0.098   2.809   8.015 -0.7255  2.3487 -2.1340
 4561SOL     OW25318   0.959   3.586   8.316  0.1220 -0.1662  0.0601
 4561SOL    HW125319   0.912   3.610   8.395  0.7568 -0.4667  0.5358
 4561SOL    HW225320   0.912   3.628   8.245  1.2664  1.9820  0.5629
 4562SOL     OW25321   0.390   1.762  13.287  0.3210  0.0295  0.4991
 4562SOL    HW125322   0.467   1.794  13.334  2.8715 -2.9451 -1.6622
 4562SOL    HW225323   0.435   1.767  13.203 -1.2193 -0.9838 -0.3799
 4563SOL     OW25324   4.410   1.313   7.103 -0.4427  0.7424  0.4308
 4563SOL    HW125325   4.373   1.388   7.150  0.4015  2.4570 -1.6400
 4563SOL    HW225326   4.501   1.341   7.092 -0.1273 -0.5497 -0.2908
 4564SOL     OW25327   0.258   1.799   2.642 -0.4495  0.5495 -0.0356
 4564SOL    HW125328   0.212   1.716   2.625 -0.6475  0.7095 -0.2893
 4564SOL    HW225329   0.308   1.762   2.715  0.5223  1.7745 -0.0731
 4565SOL     OW25330   3.586   3.508  10.352  0.5200 -0.0079 -0.8412
 4565SOL    HW125331   3.572   3.447  10.279 -2.0401 -0.7284  0.2503
 4565SOL    HW225332   3.681   3.518  10.358  0.0697  5.2615 -2.2609
 4566SOL     OW25333   4.680   3.114   6.196  0.4647  0.3090  0.1418
 4566SOL    HW125334   4.648   3.031   6.232  0.6334 -0.0103 -0.4454
 4566SOL    HW225335   0.036   3.122   6.221  0.4894  2.9508 -0.7773
 4567SOL     OW25336   3.828   2.387   4.317 -0.6500 -0.2343 -0.1446
 4567SOL    HW125337   3.845   2.459   4.256  1.0530 -0.2479  0.3145
 4567SOL    HW225338   3.752   2.422   4.364  0.2804 -1.1955  2.1016
 4568SOL     OW25339   4.343   0.181   6.300 -0.3233 -0.0818 -0.0505
 4568SOL    HW125340   4.328   0.140   6.215  0.8560 -2.6621  0.9819
 4568SOL    HW225341   4.428   0.223   6.285 -0.6163  0.1356 -1.0862
 4569SOL     OW25342   1.938   2.566   7.263  0.3464  0.1989 -0.1157
 4569SOL    HW125343   1.921   2.598   7.175 -0.7994  0.4541  0.1889
 4569SOL    HW225344   2.005   2.625   7.299  1.1608 -0.9743  0.2812
 4570SOL     OW25345   1.676   2.490   1.532 -0.3952  0.1517 -1.0141
 4570SOL    HW125346   1.659   2.447   1.448  0.3922  2.9743 -2.6154
 4570SOL    HW225347   1.592   2.478   1.576 -0.1867 -0.4568 -0.7773
 4571SOL     OW25348   3.659   1.606   1.155  0.2848  0.1322  0.6942
 4571SOL    HW125349   3.580   1.609   1.209 -1.8083 -0.8859 -2.3274
 4571SOL    HW225350   3.656   1.681   1.096 -2.8030 -1.3643 -1.0721
 4572SOL     OW25351   3.126   2.749   3.084 -0.4747  0.6403  0.4972
 4572SOL    HW125352   3.110   2.712   3.171  2.1591 -0.6253  0.4283
 4572SOL    HW225353   3.039   2.751   3.044 -0.4291 -1.5869  0.2542
 4573SOL     OW25354   0.475   1.398   9.663  0.3276  0.0679 -0.0765
 4573SOL    HW125355   0.388   1.405   9.624  0.0613 -1.2940  0.2973
 4573SOL    HW225356   0.523   1.337   9.606 -0.7134 -0.4900 -0.3480
 4574SOL     OW25357   0.669   0.544   1.795  0.2091  0.4501  0.1496
 4574SOL    HW125358   0.581   0.580   1.793  0.1362  0.2013 -0.7718
 4574SOL    HW225359   0.662   0.453   1.767 -3.7947  0.6789  0.4655
 4575SOL     OW25360   2.297   3.426  10.589  0.4451  0.3732  0.0303
 4575SOL    HW125361   2.203   3.424  10.571 -0.1073  2.4292  2.6223
 4575SOL    HW225362   2.293   3.456  10.680 -0.9559 -2.0286  0.7646
 4576SOL     OW25363   2.834   2.928   6.131 -0.6565 -0.0950 -0.6863
 4576SOL    HW125364   2.750   2.884   6.123 -0.0273 -1.6853  1.3684
 4576SOL    HW225365   2.816   3.022   6.121  2.1808  0.3951 -1.4772
 4577SOL     OW25366   3.371   3.206   0.670  0.5022  0.6161 -0.4629
 4577SOL    HW125367   3.298   3.219   0.611  1.2843 -0.2759 -1.6310
 4577SOL    HW225368   3.442   3.243   0.618 -0.4516  3.1563  0.0542
 4578SOL     OW25369   0.409   2.555   4.642  0.4524 -0.3298 -0.1857
 4578SOL    HW125370   0.363   2.496   4.582 -1.3527  1.7291 -0.8250
 4578SOL    HW225371   0.461   2.610   4.583 -0.1805 -1.8724 -2.1747
 4579SOL     OW25372   4.251   0.793   8.260 -0.7367 -0.5221  0.0731
 4579SOL    HW125373   4.332   0.803   8.311 -0.2288 -1.4309 -0.5562
 4579SOL    HW225374   4.268   0.730   8.190  1.1563 -1.1203  1.0672
 4580SOL     OW25375   1.745   1.319  12.792 -0.0260 -0.6397 -0.4718
 4580SOL    HW125376   1.796   1.398  12.810 -0.6862 -0.3504  0.1134
 4580SOL    HW225377   1.810   1.263  12.750  0.7758 -1.8167  2.3576
 4581SOL     OW25378   2.259   2.708   6.263 -0.0644  0.3559  1.0372
 4581SOL    HW125379   2.334   2.720   6.205  0.2597 -1.4600  1.0616
 4581SOL    HW225380   2.293   2.740   6.347  0.5163 -0.1782  1.0062
 4582SOL     OW25381   1.654   2.324  15.125  0.0954 -0.2140  0.3406
 4582SOL    HW125382   1.649   2.295  15.216 -0.2525 -0.1977  0.3290
 4582SOL    HW225383   1.731   2.380  15.124  0.4577 -0.7431 -1.9773
 4583SOL     OW25384   3.519   1.235   8.480  0.6289  0.1614 -0.2722
 4583SOL    HW125385   3.558   1.296   8.417 -0.8131  0.1468 -1.1926
 4583SOL    HW225386   3.529   1.291   8.556 -0.8109  0.3953 -0.2510
 4584SOL     OW25387   4.462   2.133   8.761 -0.2355 -0.0669 -0.7285
 4584SOL    HW125388   4.511   2.054   8.737  1.3208 -0.1306  2.6495
 4584SOL    HW225389   4.407   2.137   8.683 -0.1280  0.5448 -0.7697
 4585SOL     OW25390   0.557   2.369  10.662 -0.3545 -0.1670 -0.3092
 4585SOL    HW125391   0.535   2.447  10.712  0.4060 -0.7581  0.9644
 4585SOL    HW225392   0.590   2.409  10.582  1.3426 -1.4754 -0.2741
 4586SOL     OW25393   1.506   4.539   3.836 -0.4625  0.8953  0.2371
 4586SOL    HW125394   1.584   4.583   3.871  1.1975 -1.5790 -0.4081
 4586SOL    HW225395   1.509   4.459   3.888 -0.8335  0.1273 -0.9174
 4587SOL     OW25396   0.887   4.108  13.556  0.0823 -0.4352  0.7357
 4587SOL    HW125397   0.894   4.016  13.531  0.5133  0.0267 -0.8651
 4587SOL    HW225398   0.905   4.140  13.467 -0.5228 -2.3112 -0.0666
 4588SOL     OW25399   1.694   1.234   3.100  0.5491  0.2623 -0.0312
 4588SOL    HW125400   1.611   1.236   3.051  0.4853 -0.1213  0.0643
 4588SOL    HW225401   1.710   1.140   3.098  1.4381  0.4678 -2.5138
 4589SOL     OW25402   2.381   4.232  17.625  0.0881 -0.4820  0.6620
 4589SOL    HW125403   2.323   4.276  17.687 -0.8214 -0.9754  0.1706
 4589SOL    HW225404   2.427   4.303  17.579  0.5353 -2.1110 -1.4176
 4590SOL     OW25405   2.852   2.648   3.623 -0.1234  0.7684 -0.3517
 4590SOL    HW125406   2.773   2.610   3.660 -1.8633  2.2253 -2.5971
 4590SOL    HW225407   2.823   2.728   3.578  1.9794  1.2256 -0.9060
 4591SOL     OW25408   2.164   3.020   4.098 -0.4551 -0.2877 -0.3465
 4591SOL    HW125409   2.215   3.010   4.018  0.0643  3.1965 -0.4501
 4591SOL    HW225410   2.076   3.019   4.060 -2.1500  1.5847  3.5115
 4592SOL     OW25411   4.721   1.294   5.830  0.6825  1.0296  0.2043
 4592SOL    HW125412   4.717   1.244   5.749  0.1408  1.2950  0.0719
 4592SOL    HW225413   0.019   1.222   5.882  0.0456 -0.0230 -0.8396
 4593SOL     OW25414   1.190   4.219  15.617 -0.8286  0.7709 -0.0960
 4593SOL    HW125415   1.169   4.126  15.616 -1.4935  0.9379 -1.5610
 4593SOL    HW225416   1.264   4.208  15.677 -1.6259  0.1127  0.7661
 4594SOL     OW25417   1.807   2.461   3.802 -0.1368 -0.0016 -0.1056
 4594SOL    HW125418   1.852   2.396   3.749 -0.8216 -1.6822  1.3719
 4594SOL    HW225419   1.722   2.484   3.763 -0.2579 -0.2896 -0.0141
 4595SOL     OW25420   4.304   2.468  14.529 -1.0160  0.0006 -0.0038
 4595SOL    HW125421   4.277   2.377  14.536 -2.0016  0.3965  1.3839
 4595SOL    HW225422   4.345   2.465  14.443  2.5793 -2.5502  1.8089
 4596SOL     OW25423   2.292   4.483   6.812 -0.1690 -0.0180 -0.1843
 4596SOL    HW125424   2.234   4.544   6.767  0.1939  0.6771  0.2950
 4596SOL    HW225425   2.271   4.504   6.903 -0.1473  3.1838 -0.9235
 4597SOL     OW25426   2.278   1.148   6.267 -0.3606  0.0181  0.2343
 4597SOL    HW125427   2.265   1.198   6.186  3.2021  0.9695  0.2331
 4597SOL    HW225428   2.214   1.079   6.253 -0.5331  0.5501 -1.6191
 4598SOL     OW25429   2.205   2.746   3.956  0.4804  0.1224 -0.1559
 4598SOL    HW125430   2.199   2.782   3.868 -2.8545  1.5756  0.6702
 4598SOL    HW225431   2.115   2.716   3.973 -0.3633  2.0921 -1.1012
 4599SOL     OW25432   2.727   0.290   3.109 -0.7139 -0.0281 -0.4585
 4599SOL    HW125433   2.741   0.329   3.195 -1.1484 -0.9648  0.0281
 4599SOL    HW225434   2.638   0.258   3.125 -1.6664  2.7806 -0.0860
 4600SOL     OW25435   2.111   4.110  10.662 -0.8348  0.3336  0.5321
 4600SOL    HW125436   2.086   4.188  10.710 -0.0233  0.9683 -0.0745
 4600SOL    HW225437   2.150   4.149  10.584 -1.0459  0.1874  0.3519
 4601SOL     OW25438   4.512   2.280  11.766 -0.0742  0.8012 -0.0931
 4601SOL    HW125439   4.574   2.244  11.703  0.9842 -0.8553  1.8953
 4601SOL    HW225440   4.448   2.209  11.773  0.5367  0.4505  2.0009
 4602SOL     OW25441   0.989   3.091   6.858 -0.5133  0.6845  0.2649
 4602SOL    HW125442   0.928   3.018   6.848 -0.3689  0.4175  1.2948
 4602SOL    HW225443   1.048   3.074   6.931 -1.3124 -0.8585  0.5518
 4603SOL     OW25444   2.984   1.335  13.435 -0.1024  0.4296 -0.1593
 4603SOL    HW125445   3.011   1.274  13.367 -1.8944  1.4600 -1.7820
 4603SOL    HW225446   2.997   1.417  13.388 -0.8173  0.0506 -1.0046
 4604SOL     OW25447   2.124   4.705   1.520  0.3020 -0.3377  0.2617
 4604SOL    HW125448   2.061   4.662   1.462 -0.2998  1.1223 -0.1698
 4604SOL    HW225449   2.149   4.634   1.579  1.1747  0.1440  0.4574
 4605SOL     OW25450   1.068   3.276   4.748  0.4549 -0.5973  0.0996
 4605SOL    HW125451   0.999   3.338   4.726  0.4585  0.0295  1.8448
 4605SOL    HW225452   1.147   3.324   4.723  0.0676  0.6592  1.3097
 4606SOL     OW25453   3.463   1.413   4.538 -0.1119  0.5290  1.0803
 4606SOL    HW125454   3.431   1.458   4.460  0.7418 -0.3388  0.2200
 4606SOL    HW225455   3.416   1.330   4.533  0.1457  0.4396  0.1267
 4607SOL     OW25456   0.756   1.151  17.496  0.4467  0.1180  0.1387
 4607SOL    HW125457   0.714   1.236  17.512 -0.6613 -0.4974  0.4930
 4607SOL    HW225458   0.781   1.119  17.582  1.3861 -0.3866 -0.3205
 4608SOL     OW25459   4.555   3.641  10.538 -0.2982  0.4482 -0.6166
 4608SOL    HW125460   4.627   3.703  10.544 -0.5182  0.6901 -0.4918
 4608SOL    HW225461   4.484   3.694  10.502  0.3044  0.9271 -1.0780
 4609SOL     OW25462   3.982   0.769   8.023 -0.6520 -0.4365 -0.1741
 4609SOL    HW125463   3.985   0.679   7.991 -1.8792 -0.0278 -1.4460
 4609SOL    HW225464   4.002   0.760   8.116  0.3585 -1.7184 -0.5242
 4610SOL     OW25465   2.720   3.543   9.084  0.1521 -0.1605  0.3152
 4610SOL    HW125466   2.755   3.460   9.051  0.7201  0.3266 -0.3132
 4610SOL    HW225467   2.737   3.594   9.005 -1.6511  1.4593  0.9804
 4611SOL     OW25468   1.067   2.098   5.124 -0.8426 -0.0088  0.3361
 4611SOL    HW125469   1.138   2.059   5.073 -0.0289  2.4210 -0.3748
 4611SOL    HW225470   1.057   2.037   5.197 -1.0067 -1.1456 -0.6270
 4612SOL     OW25471   0.204   1.281  16.215 -0.6637 -0.0327  0.4867
 4612SOL    HW125472   0.213   1.373  16.190 -1.3941 -0.0359  0.1889
 4612SOL    HW225473   0.196   1.243  16.128 -1.8796  0.7385  0.2533
 4613SOL     OW25474   2.380   1.542   2.669  0.7600 -0.1807  0.8739
 4613SOL    HW125475   2.371   1.597   2.746  0.9276  0.4112  0.4753
 4613SOL    HW225476   2.310   1.481   2.691 -0.4650  1.4153  1.4196
 4614SOL     OW25477   1.533   3.964   6.977 -0.1672  0.9094 -0.1501
 4614SOL    HW125478   1.494   4.025   7.041 -2.4770 -0.0751 -0.6220
 4614SOL    HW225479   1.456   3.937   6.928  0.8356  0.2725 -1.3512
 4615SOL     OW25480   1.461   2.634   2.071  0.1783  0.0254 -0.4478
 4615SOL    HW125481   1.424   2.579   2.001 -3.3531 -0.7743  2.0465
 4615SOL    HW225482   1.481   2.559   2.126 -2.2874 -0.6067 -0.4151
 4616SOL     OW25483   2.294   4.578  17.519  0.0592 -0.2412  0.3691
 4616SOL    HW125484   2.340   4.573  17.602  0.6966  2.2419  0.1726
 4616SOL    HW225485   2.346   4.519  17.465  0.3176  1.9045 -1.7815
 4617SOL     OW25486   2.361   4.274   1.597 -0.4828 -0.1038  0.3280
 4617SOL    HW125487   2.298   4.252   1.665  1.8552 -2.1253  1.8050
 4617SOL    HW225488   2.304   4.268   1.520  1.3925  0.2543 -1.0965
 4618SOL     OW25489   4.626   1.379   0.201 -0.3599  0.6208  0.3311
 4618SOL    HW125490   4.662   1.392   0.113 -1.4571  0.4599 -0.1358
 4618SOL    HW225491   4.556   1.317   0.184  0.8215 -0.6857  0.2238
 4619SOL     OW25492   2.649   4.097  11.878  0.1089 -0.0625  0.5829
 4619SOL    HW125493   2.671   4.080  11.969 -1.0903  1.0403  1.0838
 4619SOL    HW225494   2.678   4.187  11.865  1.8725 -0.5684  1.0884
 4620SOL     OW25495   3.841   3.551  11.505 -0.1717 -0.1653  0.8783
 4620SOL    HW125496   3.875   3.631  11.544  0.5893 -0.6954  1.3032
 4620SOL    HW225497   3.913   3.488  11.514 -1.4347 -1.9390 -1.6643
 4621SOL     OW25498   3.215   0.643   4.915 -0.4325  0.2221 -0.1751
 4621SOL    HW125499   3.160   0.566   4.896  3.7792 -2.3667 -1.8897
 4621SOL    HW225500   3.220   0.687   4.830  1.4781  0.5745  0.1388
 4622SOL     OW25501   0.622   1.884   9.841  0.3766 -0.3062  0.0934
 4622SOL    HW125502   0.632   1.829   9.764 -0.4569 -1.9176  1.1227
 4622SOL    HW225503   0.595   1.819   9.907  0.5700  0.8165  1.2775
 4623SOL     OW25504   0.793   1.203  10.647 -0.0301 -0.0770 -0.6575
 4623SOL    HW125505   0.812   1.109  10.649  1.0798  0.2254  2.0560
 4623SOL    HW225506   0.823   1.233  10.733 -1.5580  0.9242 -0.4898
 4624SOL     OW25507   2.301   4.254  10.989 -0.3837 -0.2417 -0.1286
 4624SOL    HW125508   2.333   4.232  10.901 -0.4948 -1.7475  0.2044
 4624SOL    HW225509   2.382   4.257  11.039 -0.7396 -0.3792  0.4649
 4625SOL     OW25510   0.791   0.807   3.059  0.3758  0.2980 -0.0013
 4625SOL    HW125511   0.732   0.861   3.111 -0.7597 -0.7459 -0.2130
 4625SOL    HW225512   0.760   0.822   2.970  0.9251 -0.4728 -0.3248
 4626SOL     OW25513   3.899   3.314   1.388  0.4604  0.0756 -0.4165
 4626SOL    HW125514   3.889   3.219   1.394 -2.0048  0.4445  1.1871
 4626SOL    HW225515   3.956   3.333   1.462 -1.8368  0.6787  1.1854
 4627SOL     OW25516   2.653   3.120   4.516  0.3964  0.1382 -0.4273
 4627SOL    HW125517   2.617   3.194   4.468 -0.3229  0.1393  0.1155
 4627SOL    HW225518   2.587   3.052   4.500  1.0995 -0.3081 -1.4711
 4628SOL     OW25519   1.323   2.423   6.218 -0.3264 -0.2010 -0.0985
 4628SOL    HW125520   1.375   2.490   6.261  2.2462 -3.7496  2.3401
 4628SOL    HW225521   1.240   2.415   6.265 -0.1204  1.3532  0.5175
 4629SOL     OW25522   1.183   1.717   1.646  0.6252 -0.2928  0.3225
 4629SOL    HW125523   1.190   1.779   1.719  2.8384  1.9117 -1.7670
 4629SOL    HW225524   1.087   1.711   1.644  0.6003  0.9394 -2.4752
 4630SOL     OW25525   2.791   2.901   2.824 -0.2915  0.0163  0.1734
 4630SOL    HW125526   2.700   2.886   2.797 -0.0570  1.5323 -1.4764
 4630SOL    HW225527   2.783   2.985   2.870  0.2889  0.7390 -1.0473
 4631SOL     OW25528   2.080   4.443   5.378  0.8597 -0.0690 -0.0091
 4631SOL    HW125529   2.048   4.493   5.303  0.6545 -1.2880 -0.7372
 4631SOL    HW225530   2.154   4.398   5.338  0.0373 -1.7932  0.3867
 4632SOL     OW25531   2.613   3.540   8.679 -0.3324  0.5162  0.4852
 4632SOL    HW125532   2.676   3.478   8.714 -0.3281  1.2777  1.8182
 4632SOL    HW225533   2.654   3.578   8.601  1.5893  0.2193  1.3436
 4633SOL     OW25534   2.130   0.928   1.994  0.4826  0.2326  0.1153
 4633SOL    HW125535   2.094   0.887   1.915  1.1237 -0.2065  0.0507
 4633SOL    HW225536   2.224   0.923   1.975  0.4918  5.8605 -1.4167
 4634SOL     OW25537   4.484   1.457   2.961  0.5852  0.4727 -0.1416
 4634SOL    HW125538   4.528   1.379   2.927 -2.5344 -1.6396  0.7423
 4634SOL    HW225539   4.392   1.434   2.970  1.1531 -2.2168 -1.0250
 4635SOL     OW25540   4.694   2.494   8.964  0.0457 -0.1919  0.0835
 4635SOL    HW125541   0.039   2.448   8.984  1.5749  1.8146 -1.4220
 4635SOL    HW225542   4.663   2.443   8.889  1.5516  1.2682 -1.5608
 4636SOL     OW25543   2.910   2.259   5.051 -0.1286 -0.6957  0.0292
 4636SOL    HW125544   2.994   2.220   5.073  1.5239  1.4552 -2.5015
 4636SOL    HW225545   2.875   2.268   5.140 -0.3528  2.3771 -0.3594
 4637SOL     OW25546   4.285   3.207   7.784  0.6246 -0.0617  0.1050
 4637SOL    HW125547   4.274   3.191   7.878  0.2929  0.8653  0.2234
 4637SOL    HW225548   4.352   3.275   7.792  0.7016 -0.2316  0.9234
 4638SOL     OW25549   3.334   0.511  12.447  0.5994  0.1012 -0.2088
 4638SOL    HW125550   3.289   0.504  12.363  0.2216 -1.2739  0.1161
 4638SOL    HW225551   3.371   0.426  12.468  3.4346  1.1618 -0.8514
 4639SOL     OW25552   2.181   4.252   1.348  0.8058  0.0628  0.4555
 4639SOL    HW125553   2.183   4.210   1.262 -0.2226 -0.2720  0.5949
 4639SOL    HW225554   2.087   4.271   1.352  0.8780  0.7631 -1.1662
 4640SOL     OW25555   4.699   1.126  15.305  0.7931  0.5327 -0.2765
 4640SOL    HW125556   0.005   1.203  15.343  0.2243  0.4341  0.5464
 4640SOL    HW225557   4.735   1.131  15.217  0.1755 -2.4988 -0.7014
 4641SOL     OW25558   3.538   1.478   0.799 -0.4232  0.1407  0.1311
 4641SOL    HW125559   3.500   1.546   0.854 -1.1935 -0.9085  0.8958
 4641SOL    HW225560   3.505   1.396   0.836  0.6115  0.4548  1.7882
 4642SOL     OW25561   2.337   3.291   3.264 -0.1572  0.7571  0.2993
 4642SOL    HW125562   2.410   3.342   3.228  1.6253 -1.4753  0.7847
 4642SOL    HW225563   2.287   3.270   3.185  0.5038  0.2546  0.0161
 4643SOL     OW25564   4.061   1.521  12.147 -0.0446 -0.4697  0.2884
 4643SOL    HW125565   4.089   1.613  12.144  0.2753 -0.6694 -3.0455
 4643SOL    HW225566   4.147   1.483  12.161  0.5697  0.4269 -1.0363
 4644SOL     OW25567   2.783   1.639   8.731 -0.4382  0.5300 -0.2964
 4644SOL    HW125568   2.757   1.729   8.748  0.5696  1.1419 -1.9839
 4644SOL    HW225569   2.851   1.661   8.668 -1.5576 -0.8421 -1.9877
 4645SOL     OW25570   4.520   0.770   8.399  0.0934 -0.3202 -0.1122
 4645SOL    HW125571   4.476   0.824   8.464  0.7455  0.8640 -0.6466
 4645SOL    HW225572   4.546   0.698   8.456 -2.7871 -0.9685  0.3794
 4646SOL     OW25573   0.545   4.266   8.040 -0.3743 -0.0578  0.6155
 4646SOL    HW125574   0.499   4.342   8.006 -1.9710 -0.4970  1.7501
 4646SOL    HW225575   0.637   4.276   8.014 -0.4257 -1.6672 -0.2045
 4647SOL     OW25576   2.126   1.347   0.722  0.1671  0.4186 -0.6586
 4647SOL    HW125577   2.089   1.435   0.718 -0.4839  0.1296 -0.9407
 4647SOL    HW225578   2.051   1.299   0.756 -0.0429 -0.6096 -2.5452
 4648SOL     OW25579   1.441   2.626  12.677  0.2533  0.5580 -0.8068
 4648SOL    HW125580   1.475   2.712  12.700  0.2549 -0.2584  2.1563
 4648SOL    HW225581   1.464   2.569  12.750  2.8894 -1.0224 -2.8901
 4649SOL     OW25582   1.068   4.700   5.423  0.4951  0.1569 -0.0892
 4649SOL    HW125583   1.114   4.621   5.452  0.4101  0.5801  1.2162
 4649SOL    HW225584   1.028   0.001   5.502  2.1387  3.4777 -0.8590
 4650SOL     OW25585   3.211   2.176   7.378  0.0320  0.1139 -0.5506
 4650SOL    HW125586   3.151   2.169   7.304 -0.2628 -1.2240 -0.1765
 4650SOL    HW225587   3.151   2.202   7.448 -0.5557  0.2689 -1.1158
 4651SOL     OW25588   2.925   3.832  15.192  0.4147 -0.1183 -0.3881
 4651SOL    HW125589   3.010   3.797  15.166  1.6029  0.9540  2.1031
 4651SOL    HW225590   2.945   3.924  15.208  0.3022  0.0747 -1.3278
 4652SOL     OW25591   2.069   3.210   8.014 -0.1838 -0.0034 -0.3215
 4652SOL    HW125592   2.106   3.176   8.096  1.2656 -0.7116 -1.2765
 4652SOL    HW225593   1.976   3.186   8.015 -0.7438  2.1572  0.9814
 4653SOL     OW25594   3.801   4.054   5.333 -0.4400 -0.1267 -0.0929
 4653SOL    HW125595   3.826   3.961   5.333  3.4437  0.8809 -1.6732
 4653SOL    HW225596   3.755   4.067   5.415  0.3072 -1.2618  0.5070
 4654SOL     OW25597   3.795   3.040   7.657  0.1063  0.7712  0.1073
 4654SOL    HW125598   3.823   3.055   7.567  1.8652 -2.8851  0.0281
 4654SOL    HW225599   3.873   2.994   7.690  0.5446  1.7178  0.4177
 4655SOL     OW25600   4.669   2.288   7.339 -0.0029 -0.2878 -0.3490
 4655SOL    HW125601   4.615   2.367   7.336 -0.0702 -0.3175  0.0698
 4655SOL    HW225602   4.669   2.266   7.246 -2.1920 -1.3221 -0.1078
 4656SOL     OW25603   2.455   4.196   1.934 -0.4659  0.1178  0.1181
 4656SOL    HW125604   2.471   4.104   1.956  0.5459  0.3479  0.3440
 4656SOL    HW225605   2.499   4.241   2.006 -0.1088  0.0182 -0.0385
 4657SOL     OW25606   4.581   4.176   6.322 -0.5121 -0.3537  0.0720
 4657SOL    HW125607   4.532   4.157   6.402  0.3935  0.0106  0.7112
 4657SOL    HW225608   4.640   4.245   6.354  0.9338 -1.7655  0.4066
 4658SOL     OW25609   0.005   3.464  10.423 -0.0764 -0.4719  0.0495
 4658SOL    HW125610   4.675   3.519  10.466  1.3281  0.5192  0.9557
 4658SOL    HW225611   0.018   3.522  10.348  0.4985 -2.7869 -1.6293
 4659SOL     OW25612   0.909   0.309   6.526  0.3995  0.0265  0.2968
 4659SOL    HW125613   0.893   0.400   6.501  0.0363 -0.0693  0.1698
 4659SOL    HW225614   0.962   0.265   6.459 -0.5662 -2.3409  1.1003
 4660SOL     OW25615   3.818   2.060   8.359 -0.3132  0.1672  0.2002
 4660SOL    HW125616   3.810   2.072   8.454 -2.5495 -1.5976  0.2380
 4660SOL    HW225617   3.909   2.078   8.339 -0.1662  0.6777  1.3328
 4661SOL     OW25618   2.922   1.999   4.361  0.8742  0.1813 -0.2834
 4661SOL    HW125619   2.875   2.076   4.394 -0.7961 -0.7301 -0.5392
 4661SOL    HW225620   2.978   1.985   4.438 -0.0538 -1.2754  0.1160
 4662SOL     OW25621   1.508   4.153   7.193 -0.3700 -0.1097 -0.3967
 4662SOL    HW125622   1.488   4.126   7.283  3.1423  0.7237  0.6287
 4662SOL    HW225623   1.512   4.248   7.204  1.2389 -0.1572 -0.5688
 4663SOL     OW25624   3.052   0.987  12.727  0.4019 -0.6096 -0.0063
 4663SOL    HW125625   3.141   0.984  12.694  0.6751 -0.5727  0.7207
 4663SOL    HW225626   3.011   1.026  12.650  0.0193 -0.1770  0.4116
 4664SOL     OW25627   3.391   3.956   8.338 -0.0915  0.1474  0.1720
 4664SOL    HW125628   3.357   3.987   8.422  0.1061 -2.8368  1.3547
 4664SOL    HW225629   3.411   3.866   8.363  0.0660 -0.6101 -2.7137
 4665SOL     OW25630   1.583   4.587   5.968  0.1836 -0.5164 -0.5759
 4665SOL    HW125631   1.627   4.574   5.884 -0.7825 -0.0004 -1.1479
 4665SOL    HW225632   1.551   4.500   5.992 -1.1614 -0.2232 -1.3562
 4666SOL     OW25633   0.712   1.982   2.507 -0.3184 -0.0215 -0.5306
 4666SOL    HW125634   0.652   2.050   2.477 -0.5370  0.0128 -0.0145
 4666SOL    HW225635   0.750   1.959   2.422  1.4561  1.8005 -0.2185
 4667SOL     OW25636   3.887   1.239  13.913  0.0826 -0.2353  0.3204
 4667SOL    HW125637   3.808   1.225  13.861  0.3451 -0.0933 -0.1246
 4667SOL    HW225638   3.842   1.285  13.984 -1.8051 -1.9240  0.2030
 4668SOL     OW25639   2.809   0.769   4.000 -0.5804 -0.2184  0.6185
 4668SOL    HW125640   2.839   0.683   3.973  0.2901 -0.3740  2.1026
 4668SOL    HW225641   2.735   0.734   4.049 -0.0791  2.0904  3.0170
 4669SOL     OW25642   2.691   0.976   6.136  0.1806 -0.4035 -1.1029
 4669SOL    HW125643   2.755   0.984   6.207  1.6962  0.9206 -2.6104
 4669SOL    HW225644   2.678   0.882   6.140 -1.7179 -0.0915  0.4129
 4670SOL     OW25645   0.154   2.862   7.579  0.1232  0.1381 -0.2267
 4670SOL    HW125646   0.092   2.925   7.618  1.3694  3.4833 -3.6559
 4670SOL    HW225647   0.113   2.836   7.497 -0.4118 -0.1294  0.1249
 4671SOL     OW25648   0.537   3.206   8.277 -0.0780  0.0248 -0.8718
 4671SOL    HW125649   0.475   3.223   8.206 -0.9585  1.5873  0.2715
 4671SOL    HW225650   0.610   3.262   8.251 -1.6706  2.3489 -0.3200
 4672SOL     OW25651   3.423   1.174   7.801  0.1696  0.1843 -0.8255
 4672SOL    HW125652   3.406   1.244   7.865 -0.8034  0.1627 -1.0505
 4672SOL    HW225653   3.362   1.186   7.729 -0.0697  0.8010 -0.5223
 4673SOL     OW25654   1.436   2.952   6.470  0.9543  0.4191 -0.5546
 4673SOL    HW125655   1.394   2.870   6.446  0.6462  1.2280 -2.8680
 4673SOL    HW225656   1.362   3.012   6.472  0.9877  0.4978 -1.7585
 4674SOL     OW25657   3.823   3.415   8.644  0.1369  0.1954 -0.4031
 4674SOL    HW125658   3.796   3.327   8.617  1.4573 -0.6015  0.8771
 4674SOL    HW225659   3.907   3.436   8.604  0.4458 -0.3772 -0.0542
 4675SOL     OW25660   0.344   4.216   1.354 -0.3916  0.1260  0.2061
 4675SOL    HW125661   0.365   4.309   1.348 -1.0166  0.2704  0.2598
 4675SOL    HW225662   0.274   4.232   1.417 -0.4272  3.2209 -0.6454
 4676SOL     OW25663   0.721   3.852   6.007  0.0253  0.2588  0.5023
 4676SOL    HW125664   0.700   3.759   6.014  0.0347  0.3028  1.0621
 4676SOL    HW225665   0.688   3.871   5.919 -0.2592  0.6893  0.7008
 4677SOL     OW25666   1.133   4.007  10.051 -0.4281  0.3798 -0.2242
 4677SOL    HW125667   1.080   4.080  10.019  0.8258  3.1375  4.1210
 4677SOL    HW225668   1.115   4.014  10.144 -0.5770  3.7846 -0.4992
 4678SOL     OW25669   2.779   0.926   1.679 -0.0451 -0.3254 -0.6310
 4678SOL    HW125670   2.752   0.853   1.735 -2.5914  1.1306  0.0208
 4678SOL    HW225671   2.849   0.968   1.729  1.2207 -0.0589 -2.6141
 4679SOL     OW25672   2.602   1.432   5.235  0.2945  0.3435 -0.1784
 4679SOL    HW125673   2.647   1.505   5.278  0.7805  0.0727 -0.2247
 4679SOL    HW225674   2.680   1.395   5.195  1.1103  1.4895  0.3581
 4680SOL     OW25675   0.459   2.571   4.097 -0.0136  0.3911 -0.0397
 4680SOL    HW125676   0.452   2.589   4.190  1.0153  1.2723 -0.1333
 4680SOL    HW225677   0.380   2.608   4.058  0.8801  1.5290 -0.7754
 4681SOL     OW25678   2.113   2.346   0.174  0.3415 -0.7727 -0.1423
 4681SOL    HW125679   2.091   2.395   0.095 -2.1711 -0.2419  0.8663
 4681SOL    HW225680   2.184   2.396   0.215  1.3062 -1.4170 -1.0307
 4682SOL     OW25681   0.857   4.540   8.422  0.6065 -0.2470  0.3044
 4682SOL    HW125682   0.921   4.561   8.490  1.5652  0.0217 -0.6766
 4682SOL    HW225683   0.774   4.558   8.466  0.7686 -0.2275  0.6026
 4683SOL     OW25684   1.783   4.725   3.537 -0.1751 -0.2059  0.0900
 4683SOL    HW125685   1.877   4.714   3.528 -0.3975 -1.1809 -0.9862
 4683SOL    HW225686   1.745   4.645   3.500 -2.3408  0.2828  1.2166
 4684SOL     OW25687   0.358   0.318   6.719  0.3660 -0.4975  0.2081
 4684SOL    HW125688   0.264   0.311   6.735 -0.4258  1.9727 -3.3581
 4684SOL    HW225689   0.381   0.242   6.773 -0.5526  1.0384  2.7137
 4685SOL     OW25690   3.721   4.159  12.417 -0.2868  0.0362 -0.0977
 4685SOL    HW125691   3.782   4.218  12.461  1.0490  0.3373 -2.2952
 4685SOL    HW225692   3.717   4.194  12.328  0.5338 -1.3485 -0.6974
 4686SOL     OW25693   0.644   1.753  14.259  0.1295  0.6330 -0.3078
 4686SOL    HW125694   0.550   1.762  14.247 -0.2060  1.1425  2.6342
 4686SOL    HW225695   0.650   1.713  14.346  0.1917 -0.3101 -0.7553
 4687SOL     OW25696   1.746   4.592   3.217  0.7027 -0.1994 -0.6528
 4687SOL    HW125697   1.821   4.533   3.207  0.6407 -0.1089 -1.6404
 4687SOL    HW225698   1.671   4.541   3.189  0.3027  0.9453 -1.6641
 4688SOL     OW25699   0.780   0.463   1.475  0.2615 -0.5605  0.0318
 4688SOL    HW125700   0.720   0.390   1.489  0.7093 -0.8977  0.2013
 4688SOL    HW225701   0.743   0.497   1.394 -2.6487  0.4383  1.7970
 4689SOL     OW25702   2.625   3.268  17.530 -0.3549  0.2710 -0.1532
 4689SOL    HW125703   2.551   3.300  17.479  0.8047 -1.3798 -2.8942
 4689SOL    HW225704   2.598   3.289  17.620  1.0733 -2.6029  0.9791
 4690SOL     OW25705   0.548   0.087   5.273  0.6153  0.0356  0.0755
 4690SOL    HW125706   0.471   0.031   5.282  0.2136  0.4694 -0.6887
 4690SOL    HW225707   0.507   0.173   5.269 -1.1066 -0.7596  0.5777
 4691SOL     OW25708   2.847   1.111  14.767 -0.3207 -0.0519  0.2005
 4691SOL    HW125709   2.808   1.071  14.690  0.5312 -2.8560  1.2242
 4691SOL    HW225710   2.809   1.062  14.840 -1.2668  0.2454 -0.0973
 4692SOL     OW25711   2.067   1.098   3.775  0.2195 -0.7253  0.1906
 4692SOL    HW125712   2.022   1.014   3.764 -1.3482  0.2113 -0.6445
 4692SOL    HW225713   2.160   1.076   3.770 -0.1823 -2.3191 -0.2100
 4693SOL     OW25714   2.369   3.688   8.356  0.4319  0.2104  0.1890
 4693SOL    HW125715   2.314   3.727   8.288  1.5398 -1.2556 -1.5386
 4693SOL    HW225716   2.334   3.725   8.437 -3.6330 -1.2564 -0.9107
 4694SOL     OW25717   2.175   2.339   8.420 -0.0456  0.8989 -0.1950
 4694SOL    HW125718   2.117   2.269   8.451  1.0098 -0.0958 -0.4759
 4694SOL    HW225719   2.255   2.334   8.472  0.4814 -1.6354 -1.2452
 4695SOL     OW25720   4.729   4.458   7.907 -0.7319 -0.2408 -0.4001
 4695SOL    HW125721   0.006   4.546   7.870  0.5308 -0.3531 -0.2212
 4695SOL    HW225722   0.009   4.475   7.999  2.3444 -1.7852 -0.6480
 4696SOL     OW25723   2.729   2.347   2.898 -0.4249 -0.2450 -0.0455
 4696SOL    HW125724   2.739   2.415   2.831  0.1386  2.5822  2.8870
 4696SOL    HW225725   2.717   2.395   2.980 -0.2235  0.2926 -0.3282
 4697SOL     OW25726   4.596   4.705   0.248 -0.3365 -0.4608 -0.5959
 4697SOL    HW125727   4.579   4.611   0.251  0.4595 -0.5304  1.1714
 4697SOL    HW225728   4.683   4.698   0.209 -0.3744 -2.9149 -0.2066
 4698SOL     OW25729   1.086   1.992  16.734  0.8480 -0.2039 -0.7323
 4698SOL    HW125730   1.070   1.955  16.647 -2.2641 -2.2865  0.7605
 4698SOL    HW225731   1.169   1.948  16.754  1.1054 -1.0861 -3.7370
 4699SOL     OW25732   4.486   3.351  12.776 -0.1501  0.6671  0.0567
 4699SOL    HW125733   4.479   3.271  12.828 -0.2382 -0.8769 -2.2950
 4699SOL    HW225734   4.509   3.406  12.851 -0.8237  1.1194 -0.0707
 4700SOL     OW25735   2.298   4.418   5.225  0.1466  0.2096 -0.3881
 4700SOL    HW125736   2.317   4.325   5.209  0.4076  0.4829 -1.6712
 4700SOL    HW225737   2.316   4.469   5.146 -1.6955  0.9341 -0.3250
 4701SOL     OW25738   1.333   1.893   6.876 -0.6675 -0.2262  0.2050
 4701SOL    HW125739   1.357   1.984   6.895  2.2410 -0.7937 -0.7559
 4701SOL    HW225740   1.315   1.864   6.965  1.2273  0.5307  0.8526
 4702SOL     OW25741   3.267   0.506  12.191  0.1094 -0.2081  0.0431
 4702SOL    HW125742   3.310   0.430  12.152  1.7681  1.6584 -1.7362
 4702SOL    HW225743   3.322   0.578  12.162  1.8312 -0.9516  1.4966
 4703SOL     OW25744   3.911   0.776   6.521 -0.3876 -0.2351  0.1332
 4703SOL    HW125745   4.000   0.789   6.488  0.1126 -1.2034  1.1148
 4703SOL    HW225746   3.946   0.721   6.591  1.1725  0.2618 -0.2492
 4704SOL     OW25747   1.230   3.058   4.773 -0.8576  0.2344  0.1036
 4704SOL    HW125748   1.184   3.141   4.787 -0.2256  0.7659 -1.0214
 4704SOL    HW225749   1.201   3.033   4.686  1.0319 -0.4715 -0.3218
 4705SOL     OW25750   3.004   2.901   0.275  0.0820  0.2796 -0.4531
 4705SOL    HW125751   2.952   2.823   0.255 -0.2516  0.1311  0.9625
 4705SOL    HW225752   3.066   2.866   0.340 -1.4244  1.2376  1.4962
 4706SOL     OW25753   2.362   4.541   5.469  0.9515  0.2554  0.5872
 4706SOL    HW125754   2.375   4.627   5.428 -0.5162 -0.9044 -2.3972
 4706SOL    HW225755   2.342   4.487   5.392  0.5857  1.1860  0.0275
 4707SOL     OW25756   3.409   3.582  17.402  0.3734 -0.1685  0.0321
 4707SOL    HW125757   3.393   3.491  17.426  0.8522 -0.7023 -1.6219
 4707SOL    HW225758   3.453   3.623  17.476 -1.3214  0.0217  0.9277
 4708SOL     OW25759   1.968   0.750   2.836  0.1600  0.1454 -0.3135
 4708SOL    HW125760   1.879   0.725   2.858  0.0186  1.9823  1.1912
 4708SOL    HW225761   1.965   0.845   2.842 -0.6538  0.1407 -0.6706
 4709SOL     OW25762   2.645   0.437  10.070  0.5681 -0.4322  0.0953
 4709SOL    HW125763   2.692   0.497  10.128 -0.0797 -0.9900  1.1881
 4709SOL    HW225764   2.556   0.450  10.102  0.7793  1.7194 -0.2197
 4710SOL     OW25765   3.800   2.219   2.484 -0.0750 -0.0494 -0.4161
 4710SOL    HW125766   3.807   2.310   2.513 -1.0898 -0.3859  0.9167
 4710SOL    HW225767   3.877   2.172   2.515 -1.8550 -1.6401  1.6232
 4711SOL     OW25768   2.033   3.775   4.087 -0.0218 -0.1736 -0.2935
 4711SOL    HW125769   2.038   3.707   4.020 -1.2674  1.9964 -2.5548
 4711SOL    HW225770   2.041   3.855   4.036 -2.7875 -1.0854 -2.1731
 4712SOL     OW25771   3.153   0.975   6.804 -0.8757 -0.4661  0.3574
 4712SOL    HW125772   3.177   0.904   6.863  0.6425  0.0236  0.3525
 4712SOL    HW225773   3.096   1.022   6.864 -1.5935  1.3638 -1.7780
 4713SOL     OW25774   4.311   0.576   8.853  0.1466 -0.3658  0.3636
 4713SOL    HW125775   4.284   0.618   8.771 -1.4238  0.7049  1.4239
 4713SOL    HW225776   4.226   0.556   8.892  0.4441 -1.1271  0.6168
 4714SOL     OW25777   3.601   3.130   6.306  0.0488 -0.3705 -0.2960
 4714SOL    HW125778   3.621   3.105   6.396 -1.6137 -0.4024  0.0648
 4714SOL    HW225779   3.590   3.225   6.302 -0.5469 -0.3582  1.6285
 4715SOL     OW25780   3.733   2.819   3.757 -0.1927  0.1489 -0.1859
 4715SOL    HW125781   3.794   2.794   3.827  1.5612  1.1092 -1.3858
 4715SOL    HW225782   3.734   2.729   3.722  0.0512  0.4746 -1.0134
 4716SOL     OW25783   3.229   0.896   7.375  0.3945  0.2355  0.0056
 4716SOL    HW125784   3.170   0.855   7.312  0.6544 -1.3144  0.7775
 4716SOL    HW225785   3.313   0.903   7.331  0.9625  0.4228  1.1331
 4717SOL     OW25786   2.593   1.848  11.771  0.0930  0.3403  0.0524
 4717SOL    HW125787   2.559   1.918  11.716  0.7750  0.5134 -0.1498
 4717SOL    HW225788   2.601   1.891  11.857  1.8201  0.3430 -0.1019
 4718SOL     OW25789   2.089   4.286  11.150 -0.3352  0.0143  0.2892
 4718SOL    HW125790   2.169   4.279  11.099 -0.7521 -1.0295 -0.2211
 4718SOL    HW225791   2.090   4.204  11.200 -0.2710  1.0356  1.9991
 4719SOL     OW25792   1.067   0.722  10.171  0.0052 -0.2127  0.0035
 4719SOL    HW125793   1.006   0.772  10.117 -1.3833  1.0528  2.7692
 4719SOL    HW225794   1.149   0.761  10.140 -0.5335  1.2870  0.5110
 4720SOL     OW25795   1.147   4.001   2.037  0.0662  0.7380  0.1012
 4720SOL    HW125796   1.165   3.953   1.956  2.3265  1.2395  0.2990
 4720SOL    HW225797   1.054   3.984   2.050  0.7568 -3.5891 -0.5112
 4721SOL     OW25798   1.575   2.357   4.189  0.5294  0.6640 -0.6290
 4721SOL    HW125799   1.516   2.346   4.114  3.0758 -0.8390 -2.4191
 4721SOL    HW225800   1.639   2.289   4.169 -0.2133 -0.5454  1.0914
 4722SOL     OW25801   2.770   1.284  17.650 -0.1742  0.4076  0.2854
 4722SOL    HW125802   2.773   1.295  17.555  0.0730  2.4322  0.5127
 4722SOL    HW225803   2.690   1.328  17.679  0.0821  1.1288 -0.0975
 4723SOL     OW25804   0.310   3.773   8.509 -0.0042 -0.0253  0.6824
 4723SOL    HW125805   0.317   3.821   8.591  1.3833  0.2520  0.4036
 4723SOL    HW225806   0.232   3.810   8.467  0.7804 -0.1171 -0.8805
 4724SOL     OW25807   1.509   1.503   9.354  0.5599  0.1917 -0.1534
 4724SOL    HW125808   1.498   1.580   9.409 -2.2577 -0.6036  0.3791
 4724SOL    HW225809   1.571   1.542   9.292  0.5080  0.4768 -0.0230
 4725SOL     OW25810   2.635   4.211   5.742  0.2128  0.0947  0.1008
 4725SOL    HW125811   2.680   4.294   5.755 -1.2279  0.9502 -0.3456
 4725SOL    HW225812   2.559   4.237   5.689 -0.8096  0.8211  1.9397
 4726SOL     OW25813   1.033   1.036   5.680  0.1326  0.2231 -0.6046
 4726SOL    HW125814   1.000   1.088   5.607  0.4741 -0.3456 -1.1742
 4726SOL    HW225815   1.087   0.971   5.633  0.3644 -1.0905  1.4756
 4727SOL     OW25816   1.152   1.384   3.956 -0.0796  0.3268  0.1273
 4727SOL    HW125817   1.166   1.442   4.031  0.6616 -1.4454  1.3785
 4727SOL    HW225818   1.171   1.302   4.001 -0.4806 -0.0722 -0.4405
 4728SOL     OW25819   2.277   0.340   2.842 -0.1723 -0.1635  0.1729
 4728SOL    HW125820   2.361   0.374   2.812 -0.7795 -0.4127 -1.8601
 4728SOL    HW225821   2.239   0.413   2.891  3.2649  0.6272  1.6484
 4729SOL     OW25822   2.134   4.445   7.055 -0.2741 -0.2274  0.3055
 4729SOL    HW125823   2.183   4.484   7.127 -2.8045  1.4026  1.1224
 4729SOL    HW225824   2.068   4.402   7.109 -0.5167 -1.1602 -0.7358
 4730SOL     OW25825   4.361   4.497   7.941  0.4586 -0.0285  0.8412
 4730SOL    HW125826   4.351   4.420   7.886  1.9897 -0.6675  1.4578
 4730SOL    HW225827   4.395   4.556   7.873 -1.5644 -0.5651 -0.6142
 4731SOL     OW25828   0.449   3.050   4.955  0.2578  0.0031  0.6023
 4731SOL    HW125829   0.497   3.102   5.020  0.0640  0.3191  0.4902
 4731SOL    HW225830   0.514   2.998   4.907 -1.4186 -0.6381 -0.9681
 4732SOL     OW25831   3.944   4.543   4.803  0.2980 -0.3244 -0.3396
 4732SOL    HW125832   4.030   4.565   4.765 -0.7533  1.5835 -1.6262
 4732SOL    HW225833   3.943   4.609   4.872 -0.3930  0.9749 -1.5990
 4733SOL     OW25834   2.461   1.438   3.299 -0.1171  0.5037  0.5474
 4733SOL    HW125835   2.555   1.421   3.307 -0.2208 -0.2996  0.0562
 4733SOL    HW225836   2.464   1.533   3.306  0.6827  0.6120 -1.4505
 4734SOL     OW25837   0.167   2.349   6.642  0.4032 -0.3857 -0.2649
 4734SOL    HW125838   0.252   2.319   6.673  0.7224 -0.9361 -1.7001
 4734SOL    HW225839   0.108   2.296   6.696  0.2249  1.1201  1.0269
 4735SOL     OW25840   4.627   1.264   2.846  0.5735  0.3189  0.0953
 4735SOL    HW125841   4.615   1.202   2.774  1.2343  0.1085  0.1622
 4735SOL    HW225842   4.652   1.205   2.917 -3.1481 -1.3065  0.0554
 4736SOL     OW25843   1.950   0.448   5.280 -0.0040 -0.3659  0.2554
 4736SOL    HW125844   1.929   0.459   5.372 -1.6328  0.5032 -0.2303
 4736SOL    HW225845   1.939   0.537   5.247 -0.3470 -0.5956 -0.2557
 4737SOL     OW25846   4.327   3.887   0.350  0.4828  0.1279 -0.2137
 4737SOL    HW125847   4.233   3.907   0.344  0.4057 -0.2576 -0.3600
 4737SOL    HW225848   4.351   3.886   0.442  0.0776 -0.5239 -0.1084
 4738SOL     OW25849   1.285   4.361   2.376  0.1221  0.0924  0.3173
 4738SOL    HW125850   1.274   4.315   2.293  1.8326 -0.7606  0.5576
 4738SOL    HW225851   1.257   4.294   2.438 -0.1259 -0.0953 -0.0019
 4739SOL     OW25852   3.656   3.961   3.017  0.0197  0.1580 -0.5335
 4739SOL    HW125853   3.614   3.946   3.101  3.0949 -1.8942  0.6147
 4739SOL    HW225854   3.622   3.889   2.964  1.7615 -0.7909 -0.3497
 4740SOL     OW25855   0.171   4.426   2.112 -0.1768 -0.3552  0.1475
 4740SOL    HW125856   0.215   4.481   2.047 -1.7679 -1.6181 -1.9558
 4740SOL    HW225857   0.240   4.420   2.179  0.2509  2.6832 -0.0122
 4741SOL     OW25858   4.590   2.894   3.413 -0.3411 -0.0899 -0.0990
 4741SOL    HW125859   4.572   2.802   3.396 -0.4650  0.3309 -2.2194
 4741SOL    HW225860   4.662   2.894   3.476 -0.5287  1.8586  0.1129
 4742SOL     OW25861   1.384   0.558   6.885 -0.6440  0.4538 -0.1530
 4742SOL    HW125862   1.368   0.651   6.875  1.3571  0.8482  0.3329
 4742SOL    HW225863   1.350   0.548   6.974  0.9781 -0.2157  0.4034
 4743SOL     OW25864   1.556   4.556  13.754 -0.3094 -0.3697  0.1493
 4743SOL    HW125865   1.504   4.518  13.825  1.5993 -3.4222 -0.1149
 4743SOL    HW225866   1.555   4.650  13.774  2.2399 -0.7470  1.9833
 4744SOL     OW25867   2.031   4.272   8.577 -0.5420  0.2406  0.0354
 4744SOL    HW125868   2.050   4.306   8.665 -0.5783  0.3492  0.0004
 4744SOL    HW225869   1.996   4.345   8.527  0.4649 -0.8671 -2.3076
 4745SOL     OW25870   1.078   2.764   8.897  0.5493  0.1576 -0.0626
 4745SOL    HW125871   0.987   2.773   8.868  1.3315  3.5453 -1.3722
 4745SOL    HW225872   1.088   2.852   8.934 -0.6563  0.5214 -0.6237
 4746SOL     OW25873   2.449   2.519   3.274  0.1616 -0.1850  0.0197
 4746SOL    HW125874   2.376   2.578   3.253  0.1850 -1.1953 -2.9812
 4746SOL    HW225875   2.503   2.540   3.198 -0.7761 -1.5908 -1.0472
 4747SOL     OW25876   4.304   3.256   7.371  0.1780 -0.4681 -0.1289
 4747SOL    HW125877   4.346   3.202   7.437  1.0395  0.1416 -0.1854
 4747SOL    HW225878   4.352   3.219   7.296  0.9452  0.1669  0.0466
 4748SOL     OW25879   1.293   3.902   6.828  0.1582  0.4343 -0.6429
 4748SOL    HW125880   1.235   3.907   6.752 -0.3664 -1.8949 -0.4051
 4748SOL    HW225881   1.263   3.965   6.893 -0.8780 -0.3925 -0.3157
 4749SOL     OW25882   0.995   0.516  14.747 -0.0310 -0.5963  0.1370
 4749SOL    HW125883   0.995   0.425  14.776 -1.2181 -0.7972 -0.4842
 4749SOL    HW225884   1.019   0.565  14.825  0.4024 -3.5426  1.8584
 4750SOL     OW25885   4.618   1.855   5.352 -1.1231  0.2796 -0.0361
 4750SOL    HW125886   4.554   1.905   5.301 -1.6378 -0.4894 -0.1409
 4750SOL    HW225887   4.634   1.776   5.300  0.4387  2.4605 -2.8994
 4751SOL     OW25888   1.729   4.645   4.243  0.2020 -0.2042  0.2692
 4751SOL    HW125889   1.697   4.568   4.290 -0.4428  0.3320  0.7249
 4751SOL    HW225890   1.709   4.718   4.303 -0.6596  0.6803 -1.0874
 4752SOL     OW25891   2.318   0.231   0.276 -0.1291  0.2920 -0.1316
 4752SOL    HW125892   2.342   0.316   0.312 -0.7141 -0.2409  1.5295
 4752SOL    HW225893   2.384   0.178   0.319 -2.1933 -1.4958  0.8361
 4753SOL     OW25894   4.607   2.201   6.302  0.1296  0.2712  0.2679
 4753SOL    HW125895   4.549   2.275   6.319 -0.1175  0.4001 -1.1317
 4753SOL    HW225896   4.691   2.236   6.333  0.7374  1.0736 -2.2863
 4754SOL     OW25897   1.932   0.382   5.646 -0.1456  0.2821 -0.3695
 4754SOL    HW125898   1.957   0.301   5.602 -0.7413 -0.0479 -0.0949
 4754SOL    HW225899   1.869   0.423   5.587  0.9477  0.8043 -1.1754
 4755SOL     OW25900   4.573   1.886   4.805 -0.3121  0.1419 -0.3469
 4755SOL    HW125901   4.590   1.977   4.829  1.2298 -0.6052  1.3058
 4755SOL    HW225902   4.661   1.855   4.826 -0.3278  0.8435  0.7124
 4756SOL     OW25903   4.622   2.376   8.734  0.2935 -0.7638 -0.0896
 4756SOL    HW125904   4.684   2.314   8.694  0.0611 -0.2088 -1.3050
 4756SOL    HW225905   4.553   2.316   8.762 -1.0953  0.0457 -1.7881
 4757SOL     OW25906   1.444   0.641   9.420  0.0954  0.5280  0.4711
 4757SOL    HW125907   1.382   0.629   9.348  1.9179 -1.6075 -0.7369
 4757SOL    HW225908   1.413   0.728   9.445 -0.6156  0.2262  0.6342
 4758SOL     OW25909   0.816   1.965   5.447  0.4044 -0.1049 -0.5399
 4758SOL    HW125910   0.734   1.971   5.398  0.2728 -0.3830 -0.3463
 4758SOL    HW225911   0.795   1.919   5.528 -1.3209  1.2145 -0.2490
 4759SOL     OW25912   4.684   2.030   3.164 -0.1186  0.2789  0.4021
 4759SOL    HW125913   4.631   2.109   3.161  0.4533  0.6790  0.7815
 4759SOL    HW225914   4.630   1.971   3.218  0.2651  1.2264  1.8372
 4760SOL     OW25915   3.230   2.672   8.616  0.0852 -0.1867 -0.6471
 4760SOL    HW125916   3.286   2.682   8.693  0.2226  0.7172 -0.8749
 4760SOL    HW225917   3.234   2.580   8.591 -0.4106  0.6806 -3.8176
 4761SOL     OW25918   3.217   3.068   5.934 -0.1168  0.4153  0.5952
 4761SOL    HW125919   3.141   3.119   5.909 -0.9088  0.0610  2.3181
 4761SOL    HW225920   3.273   3.128   5.984 -0.9615  0.3549  1.6027
 4762SOL     OW25921   4.472   3.309  14.657  0.1213  0.5052  0.1731
 4762SOL    HW125922   4.513   3.317  14.743  1.5157  0.7483 -0.5148
 4762SOL    HW225923   4.380   3.320  14.677  0.0712 -0.5234  0.5134
 4763SOL     OW25924   0.052   4.014   8.545 -0.4779  0.4486  0.0345
 4763SOL    HW125925   4.720   3.978   8.602 -1.8391  2.5368 -0.2865
 4763SOL    HW225926   0.123   4.033   8.607  1.8279 -0.8245 -2.2111
 4764SOL     OW25927   1.586   2.341  17.307  0.2581 -0.3687  0.3508
 4764SOL    HW125928   1.596   2.311  17.398  0.9850 -2.1141 -0.3235
 4764SOL    HW225929   1.546   2.427  17.321 -1.2310 -1.2324  1.4229
 4765SOL     OW25930   3.315   3.453   7.586  0.1606  0.4585  0.2646
 4765SOL    HW125931   3.304   3.374   7.639 -0.3436  0.4347  0.1152
 4765SOL    HW225932   3.405   3.439   7.556  0.1257  0.3342  0.2176
 4766SOL     OW25933   1.406   1.550  16.694  0.2243  0.0414 -0.0741
 4766SOL    HW125934   1.367   1.638  16.692 -0.8300 -0.3988  1.9151
 4766SOL    HW225935   1.332   1.495  16.721  2.9322 -1.6353  3.8345
 4767SOL     OW25936   2.761   2.358   0.371 -0.5473 -0.0593 -0.5489
 4767SOL    HW125937   2.854   2.339   0.377 -0.6312  0.4882  2.4205
 4767SOL    HW225938   2.725   2.284   0.422 -1.0573 -0.8497 -2.0546
 4768SOL     OW25939   1.334   1.757   6.260  0.4747  0.3629  0.1939
 4768SOL    HW125940   1.269   1.692   6.232  1.0520 -0.2770  0.3610
 4768SOL    HW225941   1.335   1.794   6.172  2.7833 -0.1258  0.0253
 4769SOL     OW25942   2.710   2.195   3.512 -0.2208  0.3891  0.0663
 4769SOL    HW125943   2.674   2.255   3.446  0.3523  0.2201 -0.3926
 4769SOL    HW225944   2.745   2.249   3.582 -0.7981  0.6326  0.1723
 4770SOL     OW25945   2.442   2.181   3.103  0.4435  0.5644  0.0804
 4770SOL    HW125946   2.366   2.212   3.151 -0.3428  2.6285 -2.5135
 4770SOL    HW225947   2.440   2.227   3.019 -0.5687  3.5266  1.7264
 4771SOL     OW25948   0.156   4.317   3.464  0.7047  0.2147 -0.0350
 4771SOL    HW125949   0.065   4.327   3.491  1.3150  1.1215  1.6662
 4771SOL    HW225950   0.174   4.232   3.502  0.3944 -1.2870 -3.2182
 4772SOL     OW25951   0.377   0.430   3.082  0.3778 -0.0867 -0.3467
 4772SOL    HW125952   0.376   0.504   3.021 -3.9405 -0.7489 -1.0728
 4772SOL    HW225953   0.447   0.454   3.141  0.9835  0.4895 -1.2974
 4773SOL     OW25954   4.220   0.308   6.515 -0.3060 -0.5902  0.0660
 4773SOL    HW125955   4.254   0.262   6.438 -0.2669  1.2174 -0.9820
 4773SOL    HW225956   4.280   0.382   6.526 -0.0763 -0.6670 -0.6978
 4774SOL     OW25957   2.633   1.523  15.636  0.0253  0.0524  0.0122
 4774SOL    HW125958   2.587   1.443  15.662  1.2100 -0.3006  0.9834
 4774SOL    HW225959   2.561   1.582  15.616 -1.0387 -0.8037  1.3006
 4775SOL     OW25960   0.620   3.557   3.924 -0.8310  0.4180 -0.3882
 4775SOL    HW125961   0.563   3.581   3.852 -0.6287  0.8311 -0.4122
 4775SOL    HW225962   0.671   3.638   3.926 -1.4977  0.7701  2.0183
 4776SOL     OW25963   0.632   3.096  13.423 -0.1479  0.0620  0.0762
 4776SOL    HW125964   0.653   3.032  13.491  1.5409 -0.4379 -0.9141
 4776SOL    HW225965   0.712   3.117  13.374 -0.0112 -2.3675 -0.7379
 4777SOL     OW25966   0.058   1.997   2.561 -0.1396 -0.0014  0.5845
 4777SOL    HW125967   0.122   1.927   2.577  1.0150  0.9911  0.2692
 4777SOL    HW225968   4.728   1.989   2.630  0.5166 -4.5275  0.7030
 4778SOL     OW25969   4.428   3.207  16.247  0.0000  0.1303 -0.2337
 4778SOL    HW125970   4.344   3.231  16.208  0.1836 -0.0017 -0.7122
 4778SOL    HW225971   4.477   3.289  16.236 -1.3828  1.0877  0.7985
 4779SOL     OW25972   0.540   4.017   3.723  0.0315 -0.0998 -0.1035
 4779SOL    HW125973   0.570   4.032   3.634 -0.5174 -1.5059 -0.5297
 4779SOL    HW225974   0.582   3.933   3.743 -0.3121  0.5680  3.4099
 4780SOL     OW25975   4.363   0.740   3.427  0.3974 -0.5233 -0.0415
 4780SOL    HW125976   4.436   0.802   3.427 -1.9529  2.2409  1.2200
 4780SOL    HW225977   4.310   0.777   3.498 -0.1784 -2.4129  0.5011
 4781SOL     OW25978   0.333   2.059   2.680  0.0610  0.5586 -0.1635
 4781SOL    HW125979   0.312   1.967   2.665  0.3133  0.5226 -0.2887
 4781SOL    HW225980   0.255   2.107   2.652 -0.7820 -0.1684  0.9349
 4782SOL     OW25981   4.217   4.027   1.081  0.3504 -0.3470  0.3504
 4782SOL    HW125982   4.236   4.109   1.127 -0.8245  0.3726 -0.4405
 4782SOL    HW225983   4.251   3.965   1.146 -0.3713 -1.5405 -0.4069
 4783SOL     OW25984   4.013   3.639  17.317  0.0615  0.4560  0.8320
 4783SOL    HW125985   3.982   3.589  17.393 -1.4877  0.6722  0.3277
 4783SOL    HW225986   4.107   3.622  17.312 -0.3022 -0.6396 -1.8357
 4784SOL     OW25987   4.000   3.867   0.366 -0.0805 -0.3932  0.1458
 4784SOL    HW125988   3.988   3.845   0.274  0.1559 -1.9989  0.4950
 4784SOL    HW225989   3.943   3.941   0.384 -0.7529 -0.7002 -0.7450
 4785SOL     OW25990   3.890   0.863   6.084 -0.1463 -0.1471  0.4150
 4785SOL    HW125991   3.882   0.918   6.162 -0.7318 -0.0415  0.2807
 4785SOL    HW225992   3.962   0.801   6.098  1.4046  1.3010 -1.0972
 4786SOL     OW25993   3.751   3.338   0.037  0.1745 -0.2326  0.8071
 4786SOL    HW125994   3.841   3.319   0.062  0.8030 -1.1186 -2.1789
 4786SOL    HW225995   3.748   3.296  17.695 -0.4243 -0.2951  0.8581
 4787SOL     OW25996   1.560   1.585   8.695  0.3393  0.0708 -0.4096
 4787SOL    HW125997   1.536   1.631   8.614  0.1445  0.4945 -0.1098
 4787SOL    HW225998   1.480   1.539   8.720 -0.9638  3.4065  1.6081
 4788SOL     OW25999   1.507   2.664   6.248  0.3083  0.1802 -0.4372
 4788SOL    HW126000   1.596   2.636   6.269  0.6343 -0.7977 -3.0321
 4788SOL    HW226001   1.489   2.712   6.328  0.0740 -1.0916  0.2806
 4789SOL     OW26002   4.019   2.868   1.555 -0.2980 -0.5835 -0.4310
 4789SOL    HW126003   4.011   2.916   1.637  0.1372 -1.5548  0.1786
 4789SOL    HW226004   3.935   2.821   1.553 -0.9479  0.4778  1.6427
 4790SOL     OW26005   2.037   1.172   2.063 -0.1956  0.1729  0.0640
 4790SOL    HW126006   1.951   1.130   2.058 -0.1111  0.0222 -0.1404
 4790SOL    HW226007   2.076   1.110   2.002  0.5920 -0.2530  1.0108
 4791SOL     OW26008   1.971   2.944   3.908  0.7061  0.2039 -0.1706
 4791SOL    HW126009   1.958   2.850   3.922  0.8157  0.2617  0.3457
 4791SOL    HW226010   1.937   2.954   3.819 -1.3336 -1.2523  0.4401
 4792SOL     OW26011   1.648   0.576   2.677 -0.0215 -0.7963  0.1158
 4792SOL    HW126012   1.615   0.572   2.587  0.2826  0.0274 -0.0321
 4792SOL    HW226013   1.716   0.509   2.672  0.2978 -0.5627  1.2318
 4793SOL     OW26014   4.640   1.276  10.725 -0.2487 -0.0906  0.3867
 4793SOL    HW126015   4.590   1.198  10.701  1.7019 -0.7659 -1.4590
 4793SOL    HW226016   4.577   1.319  10.784 -1.0036 -0.2955 -0.2795
 4794SOL     OW26017   0.564   2.326   9.920  0.1844  0.1235 -0.1352
 4794SOL    HW126018   0.526   2.244   9.889  2.7846 -0.9034 -0.5873
 4794SOL    HW226019   0.490   2.357   9.972  0.7902  0.3143  0.6219
 4795SOL     OW26020   1.223   0.448   6.392 -0.5226 -0.3211 -0.9552
 4795SOL    HW126021   1.286   0.467   6.322  1.5586 -0.6559  0.8560
 4795SOL    HW226022   1.181   0.529   6.419  0.7064 -0.2442  0.6996
 4796SOL     OW26023   2.529   1.557   7.432 -0.2499  0.0394  0.8102
 4796SOL    HW126024   2.612   1.593   7.400  0.0420 -0.8225  0.6105
 4796SOL    HW226025   2.559   1.521   7.515 -0.5129 -0.5753  0.6341
 4797SOL     OW26026   1.853   2.029   4.991  0.5994  0.4943 -0.2598
 4797SOL    HW126027   1.847   2.074   4.907 -1.8091 -0.6914 -0.7403
 4797SOL    HW226028   1.930   2.074   5.025  1.2911 -0.1556 -0.9728
 4798SOL     OW26029   1.303   2.765   9.151  0.3186  0.0028 -0.2132
 4798SOL    HW126030   1.240   2.732   9.087 -0.3956  3.5316 -1.2992
 4798SOL    HW226031   1.237   2.771   9.221 -0.4391 -0.9604 -0.8485
 4799SOL     OW26032   1.172   4.603   5.789 -0.3557 -0.3821  0.2472
 4799SOL    HW126033   1.185   4.622   5.882  1.3252  0.1490 -0.1009
 4799SOL    HW226034   1.141   4.513   5.799 -1.1308 -0.3117 -1.5163
 4800SOL     OW26035   0.874   2.918   8.160 -0.5737 -0.2183 -0.2671
 4800SOL    HW126036   0.921   2.891   8.081 -1.5521  0.9867 -1.2491
 4800SOL    HW226037   0.786   2.901   8.128 -0.4178 -2.6843  0.6257
 4801SOL     OW26038   1.808   4.359   1.994  0.1088 -0.0098  0.7070
 4801SOL    HW126039   1.830   4.267   1.981 -2.0449 -0.3328 -0.7198
 4801SOL    HW226040   1.846   4.371   2.081 -1.7540 -1.0925  1.6690
 4802SOL     OW26041   0.086   4.585   8.131 -0.2374  0.6644 -1.1275
 4802SOL    HW126042   0.026   4.635   8.186 -1.3039 -3.1118  1.1647
 4802SOL    HW226043   0.158   4.645   8.149 -1.0477  1.7055 -1.3748
 4803SOL     OW26044   4.137   3.274   3.069  0.4435  0.3016  0.3332
 4803SOL    HW126045   4.207   3.320   3.115  0.3134  1.4879 -0.6526
 4803SOL    HW226046   4.172   3.185   3.067  0.7906  0.4172  1.4124
 4804SOL     OW26047   0.240   1.002   2.837  0.6479  0.1352  0.2339
 4804SOL    HW126048   0.158   0.955   2.826  0.3391  1.2868 -2.4868
 4804SOL    HW226049   0.292   0.952   2.774 -3.1726 -0.2299 -2.6114
 4805SOL     OW26050   4.084   0.300   2.589 -0.4607  0.0588  0.7086
 4805SOL    HW126051   4.022   0.230   2.567  0.3807 -0.1476 -0.9728
 4805SOL    HW226052   4.097   0.289   2.684  0.1861 -2.0635  0.3763
 4806SOL     OW26053   3.287   1.016  14.692  0.1956 -0.0191 -0.6949
 4806SOL    HW126054   3.251   0.935  14.657  1.3166 -0.2559 -1.3143
 4806SOL    HW226055   3.379   1.006  14.666 -0.1433 -0.8976 -1.5748
 4807SOL     OW26056   2.793   1.504  10.962 -0.1048  0.8973  0.0756
 4807SOL    HW126057   2.867   1.529  11.017 -0.1989 -4.6224  2.7134
 4807SOL    HW226058   2.754   1.591  10.956 -2.3047 -0.0279  0.6682
 4808SOL     OW26059   4.315   4.246  16.945  0.4077  0.2274 -0.3803
 4808SOL    HW126060   4.326   4.248  17.040 -2.3861 -1.3177 -0.0434
 4808SOL    HW226061   4.358   4.165  16.919  0.2348 -0.4894  1.6146
 4809SOL     OW26062   4.688   4.217   4.708  0.2911 -0.2471 -0.3109
 4809SOL    HW126063   4.620   4.150   4.705 -0.0021  0.0260  0.1841
 4809SOL    HW226064   0.032   4.167   4.712  0.0377 -0.5671  0.7115
 4810SOL     OW26065   2.780   3.079   0.201 -0.0847 -0.0414  0.0796
 4810SOL    HW126066   2.849   3.018   0.227 -2.3216 -2.8503 -0.5207
 4810SOL    HW226067   2.825   3.140   0.143  0.6765  0.3921  1.1327
 4811SOL     OW26068   4.146   0.977   7.033  0.4342  0.1307 -0.1390
 4811SOL    HW126069   4.134   0.909   7.099  0.4773 -0.0690 -0.3406
 4811SOL    HW226070   4.239   0.995   7.039  0.5200  0.0672 -1.2553
 4812SOL     OW26071   4.043   3.836   5.919 -0.5278 -0.0811 -0.8230
 4812SOL    HW126072   3.962   3.836   5.969  0.1638 -0.8992  0.2871
 4812SOL    HW226073   4.096   3.769   5.963 -0.2580  0.8919  0.3367
 4813SOL     OW26074   2.392   4.380   2.466 -0.5337 -0.4274  0.3992
 4813SOL    HW126075   2.414   4.296   2.508  0.7076 -0.7668 -0.9303
 4813SOL    HW226076   2.378   4.433   2.544 -1.2635  0.9135 -0.6332
 4814SOL     OW26077   0.419   4.235   2.356  0.1916 -0.2125 -0.1323
 4814SOL    HW126078   0.410   4.281   2.272  0.1763  1.8834  1.0121
 4814SOL    HW226079   0.474   4.295   2.407 -1.2138 -0.1400  1.3125
 4815SOL     OW26080   1.895   3.847   5.299 -0.4626  0.3980 -0.3691
 4815SOL    HW126081   1.913   3.869   5.391  2.3001  0.9415 -1.0430
 4815SOL    HW226082   1.978   3.881   5.267  1.9145 -2.9565  2.2958
 4816SOL     OW26083   0.961   1.094  14.615  0.0870 -0.4832 -0.4422
 4816SOL    HW126084   1.008   1.053  14.542  1.1093  2.8949 -1.6696
 4816SOL    HW226085   1.006   1.178  14.612  2.8527 -1.9851 -1.3093
 4817SOL     OW26086   3.609   2.844   9.130 -1.2050  0.1496  0.1324
 4817SOL    HW126087   3.525   2.877   9.161 -1.7770 -0.9314 -0.2725
 4817SOL    HW226088   3.574   2.761   9.100 -0.0291 -0.1425 -0.4350
 4818SOL     OW26089   1.065   3.177   7.889 -0.2782 -0.0199  0.0770
 4818SOL    HW126090   1.083   3.206   7.799  0.4170  1.0101  0.5434
 4818SOL    HW226091   1.013   3.097   7.879 -2.4395  1.3291  0.3886
 4819SOL     OW26092   2.953   3.922   9.235 -0.4621  0.3227 -0.0922
 4819SOL    HW126093   2.934   3.990   9.170 -2.2306 -1.6737 -1.6621
 4819SOL    HW226094   3.045   3.915   9.209  0.1921  1.1787  1.9547
 4820SOL     OW26095   4.480   1.441   5.241  0.7425 -0.2318 -0.0910
 4820SOL    HW126096   4.491   1.522   5.190 -1.6466 -0.5955 -1.2020
 4820SOL    HW226097   4.473   1.382   5.166  0.1574 -0.5538  0.2175
 4821SOL     OW26098   3.218   2.591   2.251 -0.0281  0.3112  0.1954
 4821SOL    HW126099   3.279   2.518   2.265 -0.8646 -0.3154  0.5645
 4821SOL    HW226100   3.258   2.648   2.317  0.6452  0.4271 -0.3081
 4822SOL     OW26101   4.009   4.337   2.778  0.1369  0.0584 -0.1513
 4822SOL    HW126102   3.967   4.262   2.736  0.3098 -0.0114 -0.2004
 4822SOL    HW226103   3.929   4.388   2.783 -0.5449 -1.0806  0.6268
 4823SOL     OW26104   2.142   1.753   6.522  0.3334  0.4554 -0.3578
 4823SOL    HW126105   2.137   1.844   6.550 -1.3777  0.1833  0.1965
 4823SOL    HW226106   2.178   1.767   6.435  0.0564  2.0525 -0.2073
 4824SOL     OW26107   3.262   2.223  13.717 -0.5020 -0.2618 -0.4047
 4824SOL    HW126108   3.237   2.186  13.632  0.3317 -2.5381  0.3263
 4824SOL    HW226109   3.336   2.165  13.736 -0.8081 -0.1564  1.0857
 4825SOL     OW26110   3.165   3.029   0.097  0.1716 -0.1551  0.0807
 4825SOL    HW126111   3.128   2.982   0.172 -1.3719  1.2260  0.1770
 4825SOL    HW226112   3.235   3.084   0.133  0.9054 -0.6040 -0.6567
 4826SOL     OW26113   3.119   0.229  14.505  0.2461 -0.5195 -0.7141
 4826SOL    HW126114   3.101   0.153  14.560 -0.6490  0.4255  0.2963
 4826SOL    HW226115   3.035   0.273  14.518  1.7060  2.5520 -1.8073
 4827SOL     OW26116   2.306   0.162   9.393 -0.2747  0.1784  0.2897
 4827SOL    HW126117   2.285   0.250   9.424 -0.7213  0.7881 -1.7451
 4827SOL    HW226118   2.339   0.121   9.473  1.1601 -1.1245 -0.9672
 4828SOL     OW26119   0.870   2.496  14.789  0.1844  0.2949  0.5765
 4828SOL    HW126120   0.849   2.465  14.877  1.5792 -2.0905  0.0793
 4828SOL    HW226121   0.785   2.477  14.748 -0.2009 -1.3985  2.1750
 4829SOL     OW26122   4.113   1.597   1.571 -0.3040  0.5720 -0.1653
 4829SOL    HW126123   4.045   1.580   1.637 -0.6481 -2.8496 -1.3918
 4829SOL    HW226124   4.147   1.681   1.600  0.4259 -0.1866  1.2249
 4830SOL     OW26125   3.169   0.914   4.143  1.0419 -0.0894 -0.1529
 4830SOL    HW126126   3.195   0.940   4.054 -1.0007  1.0901 -0.4275
 4830SOL    HW226127   3.092   0.971   4.145  0.6624 -0.7480  3.1534
 4831SOL     OW26128   2.672   0.276   8.115 -0.2442  0.0364  0.0050
 4831SOL    HW126129   2.673   0.283   8.019  1.6284  2.6794  0.2244
 4831SOL    HW226130   2.742   0.211   8.125 -0.0553 -0.0441 -1.6870
 4832SOL     OW26131   0.419   4.633   4.127  0.3691  0.3805  0.0699
 4832SOL    HW126132   0.377   4.565   4.074  0.9931 -0.1729  0.2890
 4832SOL    HW226133   0.357   4.707   4.123 -1.5817 -1.2282  0.5032
 4833SOL     OW26134   4.291   2.566  11.122 -0.1466 -0.3291  0.6199
 4833SOL    HW126135   4.334   2.483  11.139  1.0314 -0.0805 -1.1488
 4833SOL    HW226136   4.237   2.559  11.043 -0.0752  0.7654  0.4661
 4834SOL     OW26137   3.144   3.663  17.743  0.5368  0.5619 -0.2801
 4834SOL    HW126138   3.144   3.609  17.665  2.6392 -2.8248  2.0536
 4834SOL    HW226139   3.173   3.747  17.706  0.4810  1.1091  0.8931
 4835SOL     OW26140   1.280   3.319   3.406 -0.2253  0.1648  0.9292
 4835SOL    HW126141   1.348   3.270   3.359 -0.1852 -0.9256  2.1124
 4835SOL    HW226142   1.237   3.254   3.461 -0.3218  0.0900  0.7633
 4836SOL     OW26143   1.972   2.676   4.919 -0.1266 -0.1589 -0.1794
 4836SOL    HW126144   2.044   2.739   4.926 -0.7442  0.9292 -3.3172
 4836SOL    HW226145   2.013   2.595   4.950 -0.2000  0.9182  2.6680
 4837SOL     OW26146   4.579   2.921   0.455 -0.8281  1.1108  0.2766
 4837SOL    HW126147   4.568   2.849   0.517 -0.3386  1.3352  0.6258
 4837SOL    HW226148   4.546   2.992   0.510  1.9637  0.7595  2.4332
 4838SOL     OW26149   1.081   3.516  15.282 -0.0398 -0.5215 -0.6370
 4838SOL    HW126150   1.139   3.506  15.358 -0.9244 -0.2597  0.0763
 4838SOL    HW226151   1.106   3.442  15.228  2.3112  0.7674 -1.3143
 4839SOL     OW26152   1.886   3.322  11.336  1.1161  0.3950 -0.1846
 4839SOL    HW126153   1.931   3.353  11.415 -0.4964  1.7577  0.1952
 4839SOL    HW226154   1.797   3.308  11.369  1.9990 -3.3486  0.6043
 4840SOL     OW26155   1.926   0.643  16.024  0.1010 -0.2432 -0.5705
 4840SOL    HW126156   1.854   0.629  15.962 -0.0470  1.5889 -0.8111
 4840SOL    HW226157   1.888   0.616  16.108 -1.1485 -0.2682 -1.1387
 4841SOL     OW26158   0.490   0.251   7.492 -0.0297  0.6724 -0.1922
 4841SOL    HW126159   0.540   0.178   7.456 -0.3015 -0.4957  1.7699
 4841SOL    HW226160   0.505   0.234   7.585  0.1113  1.7575 -0.0293
 4842SOL     OW26161   4.413   1.686  15.084  0.1545  0.4832  0.0081
 4842SOL    HW126162   4.324   1.656  15.103  0.0790 -0.1615 -1.3639
 4842SOL    HW226163   4.456   1.605  15.056 -2.3925 -1.3866  1.4395
 4843SOL     OW26164   1.821   4.666   0.281 -0.4429 -0.0862 -0.0565
 4843SOL    HW126165   1.869   0.009   0.305  1.0426 -0.9330 -0.1927
 4843SOL    HW226166   1.846   4.662   0.189  2.1442 -2.6961  0.7239
 4844SOL     OW26167   1.452   3.342   6.675 -0.4508 -0.4143 -0.1291
 4844SOL    HW126168   1.466   3.303   6.589  0.7718  3.7417 -1.8293
 4844SOL    HW226169   1.395   3.281   6.721 -3.4857 -0.1922 -3.5736
 4845SOL     OW26170   1.797   3.768  17.329 -0.3472  0.2176 -0.6869
 4845SOL    HW126171   1.859   3.748  17.399 -0.8976 -0.1371 -0.3018
 4845SOL    HW226172   1.730   3.819  17.374 -0.4960 -1.5290  1.0365
 4846SOL     OW26173   3.474   3.436   2.191  0.0717  0.0977  0.0466
 4846SOL    HW126174   3.562   3.470   2.177 -0.7225  1.6926 -1.0484
 4846SOL    HW226175   3.429   3.520   2.185  0.6665  0.5052  1.4187
 4847SOL     OW26176   1.101   0.780  11.305 -0.2751  0.0027 -0.6481
 4847SOL    HW126177   1.014   0.739  11.305 -0.1149 -0.3349 -0.9339
 4847SOL    HW226178   1.100   0.838  11.381 -0.3932 -0.0589 -0.6018
 4848SOL     OW26179   3.265   2.373   7.889  0.7000  0.0172  0.2672
 4848SOL    HW126180   3.231   2.452   7.933 -1.2832 -1.3933  1.2422
 4848SOL    HW226181   3.292   2.418   7.809  0.1151  0.7178  0.4642
 4849SOL     OW26182   3.870   2.461   5.683 -0.1178 -0.0156 -0.1894
 4849SOL    HW126183   3.823   2.449   5.766  2.7724 -2.9221  1.0240
 4849SOL    HW226184   3.875   2.372   5.649 -2.9832 -0.3276  0.2359
 4850SOL     OW26185   3.942   1.634   5.710  0.3990  0.1963  0.4217
 4850SOL    HW126186   3.940   1.725   5.738 -0.1107  0.4572 -0.4524
 4850SOL    HW226187   3.964   1.583   5.788  0.3082  1.6576  1.4084
 4851SOL     OW26188   4.072   4.661   7.172  0.0972 -0.6034 -0.5654
 4851SOL    HW126189   3.985   4.651   7.210 -1.0791 -0.0600 -3.1311
 4851SOL    HW226190   4.048   4.717   7.098 -0.4385 -3.4639 -2.5617
 4852SOL     OW26191   1.634   0.540  10.572 -0.0297 -0.1303  0.0161
 4852SOL    HW126192   1.624   0.452  10.608 -0.4435  0.4293  1.2655
 4852SOL    HW226193   1.573   0.592  10.623  0.8050  0.9170 -0.0582
 4853SOL     OW26194   3.052   1.782   5.135  1.1221  0.6852 -0.5659
 4853SOL    HW126195   2.976   1.835   5.109  0.0031 -0.2819  0.7006
 4853SOL    HW226196   3.079   1.816   5.220 -1.1301  2.1089 -0.4137
 4854SOL     OW26197   1.844   1.688  11.950 -0.3831 -0.3948 -0.2840
 4854SOL    HW126198   1.859   1.768  11.900  1.3728  0.3252  1.4154
 4854SOL    HW226199   1.896   1.629  11.895  0.3895  1.3616 -1.4398
 4855SOL     OW26200   4.105   1.249  16.657 -0.0291 -0.3836  0.2036
 4855SOL    HW126201   4.087   1.335  16.694 -0.8923 -0.3168 -0.3639
 4855SOL    HW226202   4.112   1.263  16.562 -3.4568 -0.8018 -0.1430
 4856SOL     OW26203   2.865   3.389  13.741  0.0377 -0.0999  0.1149
 4856SOL    HW126204   2.861   3.296  13.766 -3.5591  0.1516  0.5239
 4856SOL    HW226205   2.889   3.426  13.826 -1.1482 -0.9310  0.8235
 4857SOL     OW26206   1.441   3.456   2.451 -0.5556  0.2718  0.8544
 4857SOL    HW126207   1.418   3.456   2.358 -1.3923  0.4498  1.0625
 4857SOL    HW226208   1.495   3.534   2.459  0.6473 -0.4711  0.0952
 4858SOL     OW26209   4.507   4.102   0.216 -0.0272 -0.6242  0.0983
 4858SOL    HW126210   4.522   4.100   0.121 -0.1243 -0.4614  0.0793
 4858SOL    HW226211   4.427   4.052   0.231 -1.6732  1.6321 -1.0583
 4859SOL     OW26212   0.467   2.991   3.860 -0.4645  0.6507  0.8764
 4859SOL    HW126213   0.509   3.049   3.797 -3.4825  1.0069 -0.7798
 4859SOL    HW226214   0.470   3.043   3.941  1.0557  2.4662 -0.3715
 4860SOL     OW26215   1.976   2.686  13.169 -0.1134 -0.1388 -0.3989
 4860SOL    HW126216   1.900   2.743  13.180 -0.0419 -0.2004  0.4253
 4860SOL    HW226217   2.042   2.751  13.144 -0.9031  0.5705 -0.6660
 4861SOL     OW26218   1.145   2.529   9.023 -0.3250 -0.6765 -0.0430
 4861SOL    HW126219   1.142   2.601   8.961  2.1635  0.8707  1.6327
 4861SOL    HW226220   1.051   2.527   9.042 -0.3120  0.4297  0.1072
 4862SOL     OW26221   4.285   0.259   3.720  0.1184 -0.3983  0.1100
 4862SOL    HW126222   4.333   0.341   3.707  0.5991 -0.8705 -1.0169
 4862SOL    HW226223   4.199   0.286   3.686 -0.0456  1.2470  1.8023
 4863SOL     OW26224   2.294   2.980   5.687  0.1684 -0.1005  0.1636
 4863SOL    HW126225   2.259   3.055   5.639  2.0680  0.3326 -0.5338
 4863SOL    HW226226   2.383   2.991   5.655  0.7031 -0.7843  1.3965
 4864SOL     OW26227   3.374   2.090   4.902  0.9426  0.5157  0.2161
 4864SOL    HW126228   3.310   2.098   4.832  0.3946 -0.0344  0.6511
 4864SOL    HW226229   3.414   2.006   4.878 -2.3568 -0.1648 -2.9295
 4865SOL     OW26230   4.407   2.518   3.699 -0.2631 -0.2881  0.6327
 4865SOL    HW126231   4.469   2.537   3.628 -1.9121 -0.0222 -0.7400
 4865SOL    HW226232   4.360   2.601   3.694 -1.3502 -0.7906  2.5077
 4866SOL     OW26233   1.577   2.767  16.066  0.6664 -1.0509 -0.4453
 4866SOL    HW126234   1.571   2.733  16.155 -0.6720 -2.1311 -0.9424
 4866SOL    HW226235   1.529   2.693  16.028 -0.6279 -0.8152  0.7336
 4867SOL     OW26236   2.279   3.763   7.167 -0.5922 -0.2991 -0.2768
 4867SOL    HW126237   2.340   3.818   7.117 -0.1771  0.7795  1.4209
 4867SOL    HW226238   2.271   3.815   7.247  1.3094 -1.3971  0.6373
 4868SOL     OW26239   0.809   3.920   3.762  0.4911 -0.5037 -0.1111
 4868SOL    HW126240   0.888   3.948   3.715 -0.2882  1.0663 -0.4870
 4868SOL    HW226241   0.798   3.995   3.821 -2.5205  0.5393 -1.9887
 4869SOL     OW26242   3.593   4.587   4.249  0.4001 -0.3605  0.6414
 4869SOL    HW126243   3.578   4.535   4.328  1.1831 -0.5468  0.6754
 4869SOL    HW226244   3.670   4.633   4.283 -0.0692 -0.3245  1.6417
 4870SOL     OW26245   0.868   2.279  10.636 -0.0102 -0.0087 -0.7834
 4870SOL    HW126246   0.939   2.332  10.600  0.6989 -0.6983 -0.3895
 4870SOL    HW226247   0.809   2.354  10.624 -0.7638 -0.1737  1.6770
 4871SOL     OW26248   3.871   4.716   3.011  0.6319  0.6448  0.0297
 4871SOL    HW126249   3.962   4.711   2.980  0.2199  1.0672 -1.2349
 4871SOL    HW226250   3.886   4.727   3.105  1.9597  1.2847 -0.2661
 4872SOL     OW26251   0.094   3.494   2.719 -0.3174 -0.2888 -0.2866
 4872SOL    HW126252   0.047   3.437   2.780  0.3254  1.0196  1.4102
 4872SOL    HW226253   0.176   3.449   2.701 -0.8811 -0.4254 -2.5923
 4873SOL     OW26254   4.365   2.463   7.099 -0.3846  0.2290 -0.0883
 4873SOL    HW126255   4.450   2.508   7.106 -0.0917 -0.6440  1.8006
 4873SOL    HW226256   4.298   2.522   7.133  0.3042  1.8905 -1.5557
 4874SOL     OW26257   4.525   0.094   5.494 -0.8648  0.0073  0.2802
 4874SOL    HW126258   4.517   0.182   5.457  0.5923  0.9270  2.1538
 4874SOL    HW226259   4.512   0.050   5.410  0.9828  1.8252 -0.9583
 4875SOL     OW26260   1.088   4.588  16.884 -0.6887 -0.0490  0.4546
 4875SOL    HW126261   1.171   4.562  16.924 -0.1735 -0.8158 -1.1121
 4875SOL    HW226262   1.033   4.511  16.868  0.7288 -1.3078  1.6476
 4876SOL     OW26263   0.023   2.444   5.956  0.0823 -0.8237  0.2613
 4876SOL    HW126264   4.706   2.477   6.027  1.9763 -2.6665  2.5356
 4876SOL    HW226265   4.691   2.413   5.896 -1.5505  0.4301  1.4745
 4877SOL     OW26266   2.385   1.302  13.966  0.0773  0.0251  0.1022
 4877SOL    HW126267   2.313   1.359  13.992  0.3562  0.2538  0.3729
 4877SOL    HW226268   2.415   1.286  14.056  3.1465  1.0089 -0.7656
 4878SOL     OW26269   0.153   1.167   8.788  0.1585  0.1783  0.2452
 4878SOL    HW126270   0.226   1.111   8.814  0.6266  0.8389  0.3521
 4878SOL    HW226271   0.082   1.103   8.780  0.6101 -0.6734  3.1593
 4879SOL     OW26272   3.457   3.828   9.855  0.3407 -0.3560 -0.2602
 4879SOL    HW126273   3.512   3.903   9.878 -0.6017  0.5379 -0.9412
 4879SOL    HW226274   3.458   3.800   9.946  1.8035 -0.5115 -0.3263
 4880SOL     OW26275   1.052   0.346   7.983  0.0896 -0.1333  0.5945
 4880SOL    HW126276   1.030   0.411   8.049  0.5619  0.3213  0.3097
 4880SOL    HW226277   0.974   0.346   7.927  0.5580  1.3116 -0.0700
 4881SOL     OW26278   1.076   2.907   1.616  0.0207  0.1251  0.0003
 4881SOL    HW126279   1.023   2.986   1.616  0.4032  0.3840 -0.0693
 4881SOL    HW226280   1.020   2.835   1.646 -2.1896  1.9712  0.1972
 4882SOL     OW26281   2.428   1.079   6.689  0.2813 -0.1524  0.1604
 4882SOL    HW126282   2.471   1.162   6.710  2.2007 -0.8027 -1.1538
 4882SOL    HW226283   2.342   1.104   6.723  0.8998 -2.2399  3.3250
 4883SOL     OW26284   1.399   0.450   7.382  0.5587 -0.2117  0.3219
 4883SOL    HW126285   1.375   0.530   7.429 -0.8744 -0.4342 -0.0130
 4883SOL    HW226286   1.455   0.406   7.445 -0.1378 -0.7295  0.5738
 4884SOL     OW26287   3.925   2.557  14.542 -0.0736  0.0701  0.4698
 4884SOL    HW126288   3.840   2.594  14.516 -0.1785  0.6714  1.6681
 4884SOL    HW226289   3.955   2.509  14.465 -2.4286 -0.9660  0.1944
 4885SOL     OW26290   1.134   2.993   9.007 -0.7832 -0.2278 -0.3901
 4885SOL    HW126291   1.216   3.004   8.959 -0.8891 -1.4182 -0.8379
 4885SOL    HW226292   1.161   3.011   9.097 -1.4733  1.7332 -0.5845
 4886SOL     OW26293   4.655   2.018   2.287  0.3823 -0.7796  0.0797
 4886SOL    HW126294   4.726   1.955   2.278 -0.7919 -2.1751  0.5036
 4886SOL    HW226295   4.666   2.054   2.375 -0.7948  2.3093 -1.0032
 4887SOL     OW26296   4.388   0.488   4.508  0.2956 -0.0088 -0.7051
 4887SOL    HW126297   4.295   0.473   4.493 -0.1638  1.9619  0.1775
 4887SOL    HW226298   4.392   0.492   4.603  0.4972 -1.4665 -0.6537
 4888SOL     OW26299   1.970   0.503   7.258  0.1491  1.1959 -0.3607
 4888SOL    HW126300   1.878   0.478   7.245  0.0262  1.4822 -0.0355
 4888SOL    HW226301   1.964   0.552   7.340 -0.4984 -0.4609  0.5838
 4889SOL     OW26302   0.209   1.268   1.775 -0.0630  0.2197 -0.4738
 4889SOL    HW126303   0.194   1.215   1.854  0.9151  0.3750 -0.1891
 4889SOL    HW226304   0.286   1.235   1.729 -0.2086 -1.4039  0.4354
 4890SOL     OW26305   1.752   2.265   6.565  0.0341  0.2748 -0.4352
 4890SOL    HW126306   1.788   2.315   6.491  0.9217 -2.8082 -2.0897
 4890SOL    HW226307   1.672   2.230   6.526 -0.0995 -1.4275  1.4239
 4891SOL     OW26308   3.664   4.595  11.682 -0.2922 -0.5432  0.4264
 4891SOL    HW126309   3.696   4.528  11.622 -2.3947  1.7498 -3.2830
 4891SOL    HW226310   3.611   4.538  11.738  0.8433 -1.9521  0.0590
 4892SOL     OW26311   0.126   2.176  15.116 -0.1538  0.3661 -0.3005
 4892SOL    HW126312   0.036   2.200  15.094 -1.1644 -0.9447  2.3704
 4892SOL    HW226313   0.149   2.110  15.051  0.4519  0.4304 -0.1516
 4893SOL     OW26314   1.550   2.838  11.007  0.3032  0.4985 -0.5170
 4893SOL    HW126315   1.601   2.813  10.930 -0.4711  0.4474 -1.0257
 4893SOL    HW226316   1.500   2.760  11.033  0.0711  0.8536  0.0832
 4894SOL     OW26317   2.503   0.238  14.980  0.1514  0.1142 -0.3058
 4894SOL    HW126318   2.437   0.286  14.931  0.0638  0.8728  0.5550
 4894SOL    HW226319   2.585   0.287  14.970 -0.2430  0.4914 -1.6011
 4895SOL     OW26320   1.216   3.063  14.335  0.5410  0.4443 -0.0651
 4895SOL    HW126321   1.225   3.144  14.385 -1.2068  0.4981  0.1656
 4895SOL    HW226322   1.210   2.998  14.404  0.5959 -1.2484 -1.6371
 4896SOL     OW26323   1.342   4.362  15.987  0.0693  0.6686 -0.7104
 4896SOL    HW126324   1.382   4.443  16.020 -0.1520 -0.1021  1.4505
 4896SOL    HW226325   1.292   4.332  16.062  0.6661 -1.3990 -1.1192
 4897SOL     OW26326   0.161   0.110  10.381 -0.0230 -0.0484 -0.3197
 4897SOL    HW126327   0.161   0.041  10.314 -0.0583  0.2175 -0.5919
 4897SOL    HW226328   0.090   0.077  10.436  1.7951  0.8909  2.6184
 4898SOL     OW26329   3.035   4.341  14.480  0.1825 -0.1915 -0.0044
 4898SOL    HW126330   3.002   4.425  14.448 -0.2666 -0.4529 -0.2288
 4898SOL    HW226331   2.984   4.329  14.561 -0.7293  1.4831 -0.3162
 4899SOL     OW26332   1.490   1.804   4.233  0.1747 -0.2771  0.2607
 4899SOL    HW126333   1.476   1.778   4.142 -0.6336 -0.4081  0.4237
 4899SOL    HW226334   1.434   1.735   4.269  0.0496 -0.3154 -0.0070
 4900SOL     OW26335   0.622   1.841   5.037 -0.2135  0.1669  0.5573
 4900SOL    HW126336   0.562   1.787   5.088 -0.3843 -1.8547 -1.7799
 4900SOL    HW226337   0.569   1.877   4.966 -1.8561 -2.3146  0.5418
 4901SOL     OW26338   1.014   3.627   5.526  0.3710  0.0667  0.5716
 4901SOL    HW126339   0.964   3.701   5.491  1.7314 -0.6826 -2.9574
 4901SOL    HW226340   1.011   3.648   5.619  1.0815  1.4740  0.2834
 4902SOL     OW26341   3.376   0.977   8.700 -0.1728  0.3839  0.0976
 4902SOL    HW126342   3.294   0.967   8.651 -1.1195 -1.3791  2.0343
 4902SOL    HW226343   3.444   0.978   8.632  0.9533  2.4188  1.2485
 4903SOL     OW26344   2.362   1.800   3.936 -0.5632  0.1379 -0.6818
 4903SOL    HW126345   2.269   1.786   3.919 -0.4041 -1.3191 -0.3640
 4903SOL    HW226346   2.393   1.841   3.855  1.1737  0.2066  0.0250
 4904SOL     OW26347   3.582   3.976   4.170  0.0511  0.1804 -0.1886
 4904SOL    HW126348   3.570   4.045   4.235 -0.0162 -0.8563  0.9051
 4904SOL    HW226349   3.626   3.914   4.228  1.2904  0.7816 -0.4973
 4905SOL     OW26350   0.303   3.920   3.863  0.0815 -0.3079  0.0056
 4905SOL    HW126351   0.396   3.898   3.867 -0.0417 -0.7615  0.3167
 4905SOL    HW226352   0.261   3.856   3.804 -2.4519  0.8338  0.5909
 4906SOL     OW26353   0.547   4.426  17.653 -0.0212  0.1536  0.0510
 4906SOL    HW126354   0.566   4.463  17.567 -0.3319  1.6547  0.6403
 4906SOL    HW226355   0.633   4.392  17.679 -0.5593 -1.6024 -0.4303
 4907SOL     OW26356   3.842   3.978   9.991  0.3562 -0.5743 -0.2815
 4907SOL    HW126357   3.757   4.021  10.002  1.5348  1.3279  1.1014
 4907SOL    HW226358   3.847   3.960   9.897  1.4362 -0.0298 -0.3149
 4908SOL     OW26359   1.441   0.863   1.742  0.0671  0.5352  0.3099
 4908SOL    HW126360   1.373   0.822   1.796 -0.0216  1.5148  0.9512
 4908SOL    HW226361   1.402   0.860   1.655  0.3523  1.9711  0.1378
 4909SOL     OW26362   0.177   4.362  16.437  0.1392 -0.0714 -0.2736
 4909SOL    HW126363   0.240   4.434  16.436  1.2875 -1.0359  2.2497
 4909SOL    HW226364   0.238   4.289  16.446 -0.2444 -0.2034  1.2604
 4910SOL     OW26365   0.312   3.774   2.384  0.0200 -0.1523  0.2062
 4910SOL    HW126366   0.273   3.836   2.445  1.8057  0.5770  0.5983
 4910SOL    HW226367   0.236   3.716   2.375 -0.2000  0.3548 -1.2487
 4911SOL     OW26368   0.299   4.631   6.271 -0.4504 -0.0044 -0.2027
 4911SOL    HW126369   0.217   4.593   6.302 -1.4196  2.3966  0.1824
 4911SOL    HW226370   0.353   4.554   6.254  0.3767  0.4577  0.3477
 4912SOL     OW26371   2.699   2.948  17.553  0.4004  0.6350  0.7027
 4912SOL    HW126372   2.790   2.925  17.570  0.8988  1.9134 -0.1901
 4912SOL    HW226373   2.714   3.037  17.522  2.5805  0.6064  1.6370
 4913SOL     OW26374   4.140   1.106  16.070  0.4384  0.5269  0.0149
 4913SOL    HW126375   4.058   1.058  16.084  1.3270 -0.6879  0.9817
 4913SOL    HW226376   4.195   1.051  16.014  0.2378  0.8817 -0.5304
 4914SOL     OW26377   2.870   4.092   7.149 -0.8022 -0.3120 -0.8518
 4914SOL    HW126378   2.811   4.153   7.105 -2.4768 -0.6322  0.9273
 4914SOL    HW226379   2.903   4.043   7.073  1.9640  2.4969 -1.4280
 4915SOL     OW26380   0.436   3.789   5.108 -0.1516 -0.6494  0.4259
 4915SOL    HW126381   0.440   3.707   5.058 -0.5362 -0.9708  0.9223
 4915SOL    HW226382   0.483   3.846   5.047 -1.1597  0.8665  1.0504
 4916SOL     OW26383   1.575   4.684   2.166  0.0107  0.4722  0.2252
 4916SOL    HW126384   1.582   4.648   2.078 -1.6088 -2.0298  1.1332
 4916SOL    HW226385   1.596   4.610   2.222  0.6658 -0.3046 -1.0513
 4917SOL     OW26386   1.473   2.898   2.895 -0.6191 -0.2056  0.0786
 4917SOL    HW126387   1.468   2.980   2.845  1.9918  0.7456  1.3948
 4917SOL    HW226388   1.475   2.835   2.824 -0.8072  1.8349 -1.7580
 4918SOL     OW26389   1.756   2.169  12.281  0.2531  0.7050  0.0172
 4918SOL    HW126390   1.775   2.235  12.348 -2.3061 -0.7693  2.2090
 4918SOL    HW226391   1.771   2.227  12.207 -0.0354 -0.4258 -0.9135
 4919SOL     OW26392   4.662   4.521   2.217 -0.1620  0.0881 -0.5265
 4919SOL    HW126393   0.005   4.503   2.168  0.0735 -0.0160 -0.1001
 4919SOL    HW226394   4.662   4.444   2.273 -0.6780 -0.6495 -1.5327
 4920SOL     OW26395   1.734   2.171   7.887  0.8645  0.0150  0.0674
 4920SOL    HW126396   1.654   2.223   7.890  1.3182  0.7517 -0.8779
 4920SOL    HW226397   1.788   2.215   7.822 -0.8836  0.0802 -1.3415
 4921SOL     OW26398   3.002   1.385   1.722  0.2419 -0.3358  0.3112
 4921SOL    HW126399   2.983   1.414   1.633 -1.3250 -1.6744  0.2113
 4921SOL    HW226400   3.073   1.322   1.707 -1.1587 -2.2916  1.9300
 4922SOL     OW26401   4.641   1.182   1.419 -0.1123  0.4100  0.3614
 4922SOL    HW126402   4.720   1.130   1.403 -0.0223  0.2015  1.4259
 4922SOL    HW226403   4.634   1.239   1.343 -1.4774 -0.0022  0.1772
 4923SOL     OW26404   3.821   0.563   0.617 -0.6124 -0.1006  0.1109
 4923SOL    HW126405   3.827   0.615   0.697 -1.2286  1.1146 -0.6348
 4923SOL    HW226406   3.755   0.499   0.645 -2.0399  1.9397  1.4339
 4924SOL     OW26407   1.393   1.898   9.929 -0.8638 -0.1775  0.4543
 4924SOL    HW126408   1.325   1.885   9.995 -0.5670 -2.2307  0.3505
 4924SOL    HW226409   1.392   1.994   9.927 -1.2178 -0.2514 -2.2374
 4925SOL     OW26410   0.082   4.713   5.486 -0.0727 -0.3376 -0.4925
 4925SOL    HW126411   0.104   4.700   5.578 -2.8253 -1.2925  0.0564
 4925SOL    HW226412   4.728   0.010   5.486  0.4202  0.9980  0.3730
 4926SOL     OW26413   2.455   2.604   5.433  0.0193 -0.6060 -0.0474
 4926SOL    HW126414   2.392   2.592   5.504  1.6954 -1.7088  1.2409
 4926SOL    HW226415   2.474   2.514   5.410 -0.1634 -0.5460 -0.4332
 4927SOL     OW26416   2.761   1.965   4.670  0.1167  0.0796  0.8208
 4927SOL    HW126417   2.854   1.950   4.657 -0.5690 -3.2777 -0.1732
 4927SOL    HW226418   2.755   2.060   4.658 -2.6383 -0.1068  0.6868
 4928SOL     OW26419   1.486   4.139   8.251 -0.1343  0.4446 -0.1144
 4928SOL    HW126420   1.448   4.111   8.168  0.6982 -2.5241  0.4883
 4928SOL    HW226421   1.429   4.099   8.317  1.5324  1.2219  1.8195
 4929SOL     OW26422   1.643   2.287   7.242  0.3630  0.0801  0.3214
 4929SOL    HW126423   1.720   2.232   7.230 -0.8584 -1.6101  0.2655
 4929SOL    HW226424   1.628   2.316   7.152  1.6051  2.3977  0.8368
 4930SOL     OW26425   0.697   1.524  10.266  0.5424  0.2244 -0.4044
 4930SOL    HW126426   0.785   1.559  10.252  1.0183 -0.1855  1.6510
 4930SOL    HW226427   0.665   1.531  10.175 -0.1139  0.0038 -0.1914
 4931SOL     OW26428   1.773   0.809   3.897  0.0596  0.0011 -0.5944
 4931SOL    HW126429   1.802   0.723   3.928  1.2980  1.1267  1.3561
 4931SOL    HW226430   1.824   0.834   3.821  0.8616  2.9619  0.9151
 4932SOL     OW26431   2.273   1.988   8.340  0.0341 -0.4958  0.3536
 4932SOL    HW126432   2.293   1.935   8.417 -0.6687 -0.8912  0.2664
 4932SOL    HW226433   2.344   1.973   8.278 -0.0014 -2.7804  0.8509
 4933SOL     OW26434   4.723   0.973   0.063  0.2310 -0.2266  0.1059
 4933SOL    HW126435   4.682   0.963   0.148 -1.4467  0.7139 -0.5926
 4933SOL    HW226436   4.708   0.883   0.034  0.6337 -0.2888  0.0870
 4934SOL     OW26437   2.318   4.342   7.733 -0.1400  0.5936 -0.1689
 4934SOL    HW126438   2.410   4.358   7.755 -0.0985  1.2533 -0.8370
 4934SOL    HW226439   2.283   4.344   7.822  0.4417 -0.3831  0.0791
 4935SOL     OW26440   2.499   2.238   5.108 -0.0243  0.4248 -0.3508
 4935SOL    HW126441   2.580   2.197   5.076  0.0530 -0.6055  1.1868
 4935SOL    HW226442   2.478   2.295   5.034 -0.7879  2.1206  1.1902
 4936SOL     OW26443   4.692   2.237  13.200  0.7209 -0.8505  0.0082
 4936SOL    HW126444   0.020   2.166  13.196  1.1858 -0.3784 -0.7642
 4936SOL    HW226445   0.007   2.315  13.221  1.1676 -0.9432 -0.7584
 4937SOL     OW26446   3.009   1.294   5.959  0.7717 -0.4292 -0.1280
 4937SOL    HW126447   3.090   1.340   5.934  0.0605  2.0885  2.2633
 4937SOL    HW226448   2.987   1.333   6.043 -1.7791 -0.9719 -0.5542
 4938SOL     OW26449   4.276   0.575   7.112 -0.2000 -0.2624 -0.2592
 4938SOL    HW126450   4.355   0.612   7.072 -1.2974  1.7931 -0.4806
 4938SOL    HW226451   4.273   0.618   7.197  1.8543 -0.4323 -0.0967
 4939SOL     OW26452   0.727   3.037  16.092  0.0707 -0.3350 -0.0736
 4939SOL    HW126453   0.802   3.067  16.143 -1.8649  1.9377  1.4209
 4939SOL    HW226454   0.658   3.087  16.136  1.4605  0.9621  0.6148
 4940SOL     OW26455   2.046   1.699   2.079  0.4012  0.3773 -0.9031
 4940SOL    HW126456   2.127   1.749   2.072 -1.0819  2.8546 -0.1942
 4940SOL    HW226457   2.081   1.612   2.059  0.6942  0.1395  0.5988
 4941SOL     OW26458   1.394   0.969   8.745  0.4872  0.3434  0.2611
 4941SOL    HW126459   1.481   0.993   8.776  0.3771  1.8163 -0.5499
 4941SOL    HW226460   1.369   1.033   8.678 -0.1326  0.9612  1.0877
 4942SOL     OW26461   3.137   3.847  13.006  0.0702 -0.5472  0.0585
 4942SOL    HW126462   3.048   3.852  13.040 -1.2701  2.4612 -3.8330
 4942SOL    HW226463   3.122   3.866  12.913  0.7223  0.7019  0.2063
 4943SOL     OW26464   3.670   4.250   3.218  0.0660 -0.1462  0.0813
 4943SOL    HW126465   3.625   4.328   3.184  0.7885  0.6002  0.8541
 4943SOL    HW226466   3.751   4.254   3.167 -0.6060  1.5933 -0.8850
 4944SOL     OW26467   2.868   0.322  14.490  0.2363 -0.1517  0.0992
 4944SOL    HW126468   2.786   0.277  14.511 -0.0626 -0.3822 -1.5330
 4944SOL    HW226469   2.841   0.378  14.417  0.5811  0.1814  0.2274
 4945SOL     OW26470   3.042   3.951   1.067 -0.1656  0.3623  0.2290
 4945SOL    HW126471   3.103   3.967   0.995  1.6482 -1.3697  1.3961
 4945SOL    HW226472   2.976   4.018   1.050 -0.3352  0.0936 -0.1784
 4946SOL     OW26473   2.204   1.244   8.296 -0.0688  0.4133  0.0865
 4946SOL    HW126474   2.233   1.231   8.206  0.8706  0.2487  0.4065
 4946SOL    HW226475   2.202   1.339   8.295  1.1419  0.4283 -1.6882
 4947SOL     OW26476   4.193   2.263  15.519 -0.3138 -0.3051  0.1469
 4947SOL    HW126477   4.228   2.338  15.567 -1.5050 -0.3969  1.1677
 4947SOL    HW226478   4.116   2.237  15.569  0.5524 -1.0777  1.0965
 4948SOL     OW26479   2.877   0.859  15.073  0.1162 -0.7371  0.5248
 4948SOL    HW126480   2.795   0.878  15.027  0.2216  1.5276  1.3005
 4948SOL    HW226481   2.888   0.945  15.113  0.5221 -1.7074  2.4809
 4949SOL     OW26482   2.914   0.611  16.128  0.2357 -0.0967 -0.2877
 4949SOL    HW126483   2.889   0.599  16.220  1.5777  0.7884  0.1896
 4949SOL    HW226484   2.976   0.683  16.140  1.0925 -0.8487 -0.2730
 4950SOL     OW26485   0.265   1.333   7.703  0.2572 -0.6715  0.1175
 4950SOL    HW126486   0.233   1.256   7.656  0.2731 -1.3091  1.1445
 4950SOL    HW226487   0.352   1.349   7.665  0.3867 -2.1882 -0.2114
 4951SOL     OW26488   2.420   0.063   5.852 -0.7278  0.2023  0.1817
 4951SOL    HW126489   2.362   0.078   5.927 -0.9901 -0.8821  0.2015
 4951SOL    HW226490   2.375   4.720   5.825 -4.0661  1.5656  1.6641
 4952SOL     OW26491   1.038   0.542   7.321 -0.6247  0.5685 -0.2283
 4952SOL    HW126492   1.079   0.461   7.290  0.3584  1.0200 -0.1103
 4952SOL    HW226493   1.086   0.568   7.399 -0.8367 -1.2216  0.5156
 4953SOL     OW26494   2.497   3.858   6.516 -0.0268 -0.6458 -0.3349
 4953SOL    HW126495   2.405   3.838   6.532  0.0485 -0.9821 -0.3161
 4953SOL    HW226496   2.499   3.832   6.424  0.6837  1.6011 -0.9458
 4954SOL     OW26497   4.134   3.242   2.774 -0.2912 -0.1787 -0.0261
 4954SOL    HW126498   4.118   3.237   2.869 -2.0718  2.3300 -0.2024
 4954SOL    HW226499   4.155   3.333   2.755  2.9460 -0.5960  1.4181
 4955SOL     OW26500   2.935   2.006   3.700  0.4854 -0.2549 -0.5243
 4955SOL    HW126501   2.988   2.037   3.773 -0.5100  0.9074 -0.2849
 4955SOL    HW226502   2.868   1.952   3.741  1.1755 -3.1534 -3.1822
 4956SOL     OW26503   1.373   4.127   4.979  0.1361  0.6096  0.4491
 4956SOL    HW126504   1.279   4.110   4.973  0.3032 -0.8457  1.9075
 4956SOL    HW226505   1.396   4.058   5.042 -1.8678 -0.8310 -0.3939
 4957SOL     OW26506   3.213   3.843  17.532 -0.1130  0.2577  0.1459
 4957SOL    HW126507   3.227   3.807  17.444  2.9629 -0.5389  0.9553
 4957SOL    HW226508   3.255   3.929  17.522 -0.5923  0.5848  0.9494
 4958SOL     OW26509   3.800   4.014  14.022  0.0469  0.6073  0.4745
 4958SOL    HW126510   3.824   3.973  13.939 -1.6665 -1.0562  0.7872
 4958SOL    HW226511   3.821   3.949  14.090  0.6610 -1.5729 -1.7777
 4959SOL     OW26512   4.610   0.627   6.367 -0.0255 -0.1150  0.1337
 4959SOL    HW126513   4.663   0.577   6.305  2.2174  3.5643 -0.9335
 4959SOL    HW226514   4.562   0.681   6.304 -1.2771 -2.3009 -0.7868
 4960SOL     OW26515   2.284   2.164   8.038  0.8756  0.2471  0.0150
 4960SOL    HW126516   2.290   2.247   8.086  2.0162 -0.2567  0.7345
 4960SOL    HW226517   2.317   2.100   8.100  1.7717  0.0683 -0.6502
 4961SOL     OW26518   4.511   2.252   3.106  0.1198 -0.3687 -0.1620
 4961SOL    HW126519   4.448   2.244   3.035  1.0132 -1.8139 -0.7895
 4961SOL    HW226520   4.461   2.262   3.187 -0.3373 -1.0563 -0.3593
 4962SOL     OW26521   2.529   4.061   3.824  0.1467  0.4098  0.4248
 4962SOL    HW126522   2.589   4.061   3.749  0.0020 -0.9901  0.2928
 4962SOL    HW226523   2.453   4.038   3.770 -0.1855 -0.1664  1.1443
 4963SOL     OW26524   2.479   2.052   6.600  0.1503 -0.2955 -0.3099
 4963SOL    HW126525   2.487   1.960   6.575  0.8876 -0.6102  1.0883
 4963SOL    HW226526   2.566   2.086   6.578  0.4244 -0.8991 -0.1607
 4964SOL     OW26527   2.628   2.517   4.483  0.3823  0.5696 -0.2086
 4964SOL    HW126528   2.614   2.444   4.543  0.5108  1.3957  0.8142
 4964SOL    HW226529   2.722   2.511   4.464  0.1341  0.7243 -1.4945
 4965SOL     OW26530   2.850   3.150  12.104 -0.3343  0.6471  0.6244
 4965SOL    HW126531   2.837   3.154  12.009 -1.1140 -1.3716  0.6392
 4965SOL    HW226532   2.863   3.056  12.116 -0.1597  0.5660 -0.2012
 4966SOL     OW26533   4.313   0.734   4.118  1.2088  0.1866  0.3967
 4966SOL    HW126534   4.378   0.670   4.147  1.2469 -0.2199 -0.5761
 4966SOL    HW226535   4.236   0.714   4.171  1.4510  1.6518  1.2855
 4967SOL     OW26536   4.620   1.956   4.038  0.4377 -0.3674  0.9630
 4967SOL    HW126537   4.567   1.993   4.108 -0.4241 -1.6749  1.0091
 4967SOL    HW226538   4.701   1.972   4.087  0.1787 -0.7500  1.5234
 4968SOL     OW26539   0.744   1.217   3.779  0.9709 -0.1685 -0.5653
 4968SOL    HW126540   0.697   1.277   3.721 -1.3377 -0.2563  1.2272
 4968SOL    HW226541   0.795   1.283   3.826  1.1496  1.4247 -2.9933
 4969SOL     OW26542   3.218   2.408  14.700  0.1254  0.1651 -0.6550
 4969SOL    HW126543   3.205   2.418  14.605  0.2094  1.7867 -0.4945
 4969SOL    HW226544   3.263   2.323  14.694 -0.7833 -0.4110  0.7082
 4970SOL     OW26545   3.169   3.403   4.975 -0.1147  0.2376  0.4207
 4970SOL    HW126546   3.247   3.440   4.933 -0.9470 -0.6149 -1.8485
 4970SOL    HW226547   3.106   3.406   4.904  0.1716 -2.1349  0.0613
 4971SOL     OW26548   3.201   1.671   7.178  0.1893  0.2491 -0.0545
 4971SOL    HW126549   3.155   1.605   7.231 -1.1935  2.3687  1.4142
 4971SOL    HW226550   3.274   1.692   7.237 -0.4137  0.5467  0.5853
 4972SOL     OW26551   2.611   0.946   9.705 -0.7123  0.4174 -0.4363
 4972SOL    HW126552   2.544   0.923   9.770 -2.3370 -0.9679 -2.6042
 4972SOL    HW226553   2.681   0.985   9.758 -1.7893 -2.0478  2.8265
 4973SOL     OW26554   3.030   4.593   5.691  0.4055  0.0042 -0.7399
 4973SOL    HW126555   2.974   4.518   5.669  0.8297 -0.3260 -0.6870
 4973SOL    HW226556   2.983   4.633   5.764 -0.7835  3.1064 -3.2182
 4974SOL     OW26557   4.362   0.636  11.949 -0.5305  0.8137 -0.0107
 4974SOL    HW126558   4.382   0.650  12.042  0.1243 -1.8021  0.2397
 4974SOL    HW226559   4.270   0.614  11.938 -0.4058 -0.4960  1.5155
 4975SOL     OW26560   0.975   0.065   3.677 -0.4976  0.2814 -0.1156
 4975SOL    HW126561   1.041   0.041   3.611  0.7729  0.6796  1.0091
 4975SOL    HW226562   0.918   0.120   3.624  0.9409  0.2070 -1.7636
 4976SOL     OW26563   2.121   3.761   8.694 -0.3687 -0.5412 -0.2321
 4976SOL    HW126564   2.133   3.666   8.688  0.1850 -0.4389 -0.8113
 4976SOL    HW226565   2.057   3.775   8.764  0.9451 -2.7394  1.4101
 4977SOL     OW26566   4.171   1.181   2.133  0.9763 -0.3408  0.2357
 4977SOL    HW126567   4.219   1.262   2.147 -2.0507  1.2958  1.0576
 4977SOL    HW226568   4.203   1.124   2.202  2.8035  1.0782  0.5471
 4978SOL     OW26569   1.552   2.533   5.242  0.3568  0.2938 -0.0059
 4978SOL    HW126570   1.483   2.548   5.307  0.8110  2.3862  0.0010
 4978SOL    HW226571   1.538   2.618   5.199 -2.0915  0.0260  0.2194
 4979SOL     OW26572   0.613   2.757   2.639  0.5871  0.2550  0.3434
 4979SOL    HW126573   0.600   2.700   2.564  2.5076 -0.8632  0.8654
 4979SOL    HW226574   0.620   2.685   2.702  1.1967 -0.8320 -0.9919
 4980SOL     OW26575   2.510   0.048   2.879  0.5946  0.4222  0.1312
 4980SOL    HW126576   2.473   0.032   2.793  0.1830  0.2499  0.3369
 4980SOL    HW226577   2.520   4.695   2.912  0.1481  1.0350  1.9679
 4981SOL     OW26578   2.127   3.827   0.717 -0.1539 -0.6383 -0.2035
 4981SOL    HW126579   2.185   3.772   0.665  2.8759  1.5427  0.8335
 4981SOL    HW226580   2.055   3.765   0.717 -0.2354 -0.5555  1.7626
 4982SOL     OW26581   4.482   3.687   9.775  0.2139  0.1983  0.2454
 4982SOL    HW126582   4.509   3.741   9.700  0.6048  0.4570  0.5739
 4982SOL    HW226583   4.423   3.754   9.811  0.9953  0.7844  0.4484
 4983SOL     OW26584   4.587   1.883   1.605  0.1829 -0.3470  0.6356
 4983SOL    HW126585   4.618   1.844   1.687 -0.3979  0.2210  1.1320
 4983SOL    HW226586   4.561   1.805   1.557 -1.3943  0.8453 -0.4577
 4984SOL     OW26587   0.791   3.960   8.332 -0.7100 -0.3067  0.1626
 4984SOL    HW126588   0.801   4.055   8.326  0.6538 -0.4939 -0.6047
 4984SOL    HW226589   0.770   3.950   8.239 -2.7890  1.0371  0.4628
 4985SOL     OW26590   3.012   3.736   5.878 -0.1723  1.0603  0.5103
 4985SOL    HW126591   3.009   3.643   5.858 -0.0793  0.5983  2.6183
 4985SOL    HW226592   2.937   3.750   5.936 -0.9592 -0.3961 -0.1656
 4986SOL     OW26593   3.541   0.306  10.414 -0.0156  0.0123  0.7243
 4986SOL    HW126594   3.449   0.289  10.436 -0.7948  1.7220 -1.2016
 4986SOL    HW226595   3.540   0.259  10.331  0.7454  1.6185 -0.1909
 4987SOL     OW26596   3.018   3.690   2.358  0.6588 -0.5830 -0.3049
 4987SOL    HW126597   3.062   3.772   2.334 -0.1903  0.1255  0.5706
 4987SOL    HW226598   3.007   3.645   2.274 -1.1095 -4.9188  2.2898
 4988SOL     OW26599   0.409   3.232  14.782 -0.3651 -0.3266  0.1964
 4988SOL    HW126600   0.451   3.316  14.801 -2.9901  0.4874  2.4595
 4988SOL    HW226601   0.475   3.169  14.811  0.6645  0.9489  0.6276
 4989SOL     OW26602   0.559   1.910   3.717 -0.9782 -0.2322 -0.3969
 4989SOL    HW126603   0.613   1.851   3.769  0.0700  2.1600  1.2294
 4989SOL    HW226604   0.481   1.929   3.770 -0.4337  0.6152  0.0927
 4990SOL     OW26605   3.159   4.626  15.762  0.0325 -0.2927 -0.1707
 4990SOL    HW126606   3.105   4.631  15.682 -0.9151  0.6244  0.5247
 4990SOL    HW226607   3.106   4.665  15.832 -1.6361 -0.9842 -1.0322
 4991SOL     OW26608   3.212   0.004   9.027 -0.1001  0.4935  0.6506
 4991SOL    HW126609   3.149   4.718   9.095 -1.8537  0.4101 -0.9881
 4991SOL    HW226610   3.293   4.713   9.069  1.7060  1.2678 -2.2950
 4992SOL     OW26611   4.629   1.658   9.745  0.0566 -0.4873 -0.1469
 4992SOL    HW126612   4.542   1.649   9.782  0.1835 -1.6394 -0.1370
 4992SOL    HW226613   4.680   1.592   9.792  0.1514 -0.8310 -0.7362
 4993SOL     OW26614   2.514   1.742   7.947 -0.1040 -0.0528 -0.1482
 4993SOL    HW126615   2.566   1.780   7.877 -0.4066 -1.3918 -1.1045
 4993SOL    HW226616   2.561   1.658   7.955  0.4355  0.0526 -2.2911
 4994SOL     OW26617   4.349   3.182  11.632 -0.1490  0.7966  0.0286
 4994SOL    HW126618   4.343   3.141  11.546 -1.3667 -0.6479  0.7987
 4994SOL    HW226619   4.444   3.185  11.622 -0.1914  2.1954  0.0438
 4995SOL     OW26620   2.233   4.638   8.903 -0.4568  0.4857 -0.3929
 4995SOL    HW126621   2.213   4.729   8.879 -2.8779 -0.4378 -1.9385
 4995SOL    HW226622   2.306   4.615   8.846 -0.4610 -0.3282 -0.0586
 4996SOL     OW26623   4.735   2.821   3.892  0.0515 -0.7889 -0.4772
 4996SOL    HW126624   4.659   2.860   3.935 -0.5577 -2.3673 -0.1201
 4996SOL    HW226625   4.724   2.852   3.802  1.9661  2.9462  0.5918
 4997SOL     OW26626   0.818   1.660   8.468  0.4320  0.3722  0.5404
 4997SOL    HW126627   0.857   1.595   8.409  1.1239  0.5866  0.7565
 4997SOL    HW226628   0.749   1.614   8.516  1.1148 -0.8158  0.3961
 4998SOL     OW26629   0.955   4.708  12.429 -0.1419 -0.5317  0.0321
 4998SOL    HW126630   0.881   4.671  12.478  0.2950 -0.3921  0.7986
 4998SOL    HW226631   1.026   4.702  12.492 -1.6749  1.8433  1.9740
 4999SOL     OW26632   3.938   3.225  17.151  0.1603  0.6766 -0.3079
 4999SOL    HW126633   3.853   3.250  17.114 -0.5755 -2.3366 -0.6026
 4999SOL    HW226634   4.005   3.271  17.100  2.9223  0.8927  3.4903
 5000SOL     OW26635   4.343   4.678  14.879 -0.3451 -0.1075 -0.4062
 5000SOL    HW126636   4.375   4.695  14.791 -3.2569  1.5525 -1.1485
 5000SOL    HW226637   4.369   4.586  14.880  2.5326  0.7116  0.2405
 5001SOL     OW26638   2.016   2.311   5.098  0.1459  0.6871 -0.1479
 5001SOL    HW126639   1.926   2.342   5.110  0.4474  1.0492  1.1944
 5001SOL    HW226640   2.049   2.312   5.188 -2.0772 -0.8835  0.6628
 5002SOL     OW26641   4.430   4.357   5.535  0.0893  0.3251  0.2312
 5002SOL    HW126642   4.440   4.317   5.621 -0.8248 -2.0056 -0.7410
 5002SOL    HW226643   4.339   4.335   5.516  0.1947  0.7362 -0.7731
 5003SOL     OW26644   0.408   4.258   4.187  0.0296 -0.2124  0.4121
 5003SOL    HW126645   0.389   4.313   4.111 -1.8655 -0.7637  0.4747
 5003SOL    HW226646   0.387   4.174   4.146 -0.3412  0.0526  0.0547
 5004SOL     OW26647   4.237   3.991   4.098  0.0560 -0.5915  0.5788
 5004SOL    HW126648   4.163   3.992   4.159 -0.8907  0.6153 -0.5855
 5004SOL    HW226649   4.247   3.896   4.090 -0.0999 -0.5421 -0.2708
 5005SOL     OW26650   4.055   4.150  10.246 -0.0748  0.0329  0.1366
 5005SOL    HW126651   4.148   4.140  10.266 -1.1078 -2.7158  3.5137
 5005SOL    HW226652   4.018   4.068  10.277 -1.8731  0.7432 -0.1665
 5006SOL     OW26653   3.456   2.716  12.966  0.3170 -0.1215 -0.0362
 5006SOL    HW126654   3.493   2.749  12.884  2.9991 -0.7876  0.9044
 5006SOL    HW226655   3.533   2.730  13.022  0.5594 -0.5195 -0.2753
 5007SOL     OW26656   0.952   0.082  13.693  0.2712  0.4491 -0.2960
 5007SOL    HW126657   0.968   0.005  13.640  2.5931  1.1841 -0.6650
 5007SOL    HW226658   0.930   0.149  13.628 -1.2902 -1.0698 -1.3390
 5008SOL     OW26659   4.335   4.373   6.297  0.0642  0.2097  0.5767
 5008SOL    HW126660   4.302   4.284   6.293  2.6070 -0.7799  1.2401
 5008SOL    HW226661   4.302   4.401   6.383 -0.3906  0.9923  0.1452
 5009SOL     OW26662   2.559   2.067   8.576 -0.2858 -0.1199 -0.3201
 5009SOL    HW126663   2.480   2.014   8.565 -0.0951 -0.4416 -0.1403
 5009SOL    HW226664   2.554   2.094   8.668 -1.3037  0.7952 -0.6426
 5010SOL     OW26665   4.043   1.070   4.643  0.7654 -0.5240  0.0852
 5010SOL    HW126666   3.970   1.117   4.603  1.1715  0.8367  0.9556
 5010SOL    HW226667   3.985   1.006   4.684 -1.6672 -0.0463 -2.5474
 5011SOL     OW26668   1.871   0.179   5.263  0.8432 -0.6952  0.7655
 5011SOL    HW126669   1.928   0.232   5.207 -0.4731 -0.6498 -0.5273
 5011SOL    HW226670   1.787   0.221   5.245  1.5455 -0.6341 -2.3442
 5012SOL     OW26671   2.976   2.653  17.647  0.5006  0.2885 -0.1364
 5012SOL    HW126672   3.022   2.587  17.594  0.9106 -0.4687  1.1576
 5012SOL    HW226673   3.023   2.632  17.728 -0.1343 -2.1466 -0.3923
 5013SOL     OW26674   2.712   2.111  15.852  0.1295  0.1504 -0.5235
 5013SOL    HW126675   2.726   2.083  15.942  0.0246 -1.0260 -0.8601
 5013SOL    HW226676   2.658   2.188  15.867  1.4983  0.6236  1.8129
 5014SOL     OW26677   0.682   0.626   4.570  0.0254  0.1149 -0.2138
 5014SOL    HW126678   0.612   0.661   4.626  0.0018 -1.7893  0.9820
 5014SOL    HW226679   0.760   0.647   4.621  1.7779 -1.6281 -2.1604
 5015SOL     OW26680   0.951   0.582  11.624  0.1698  0.2260 -0.8503
 5015SOL    HW126681   0.914   0.500  11.659 -0.4922  0.6233 -0.6018
 5015SOL    HW226682   0.941   0.577  11.529 -2.4604 -1.0241 -0.5117
 5016SOL     OW26683   1.974   2.384   1.329 -0.2251  0.2151 -0.1038
 5016SOL    HW126684   1.988   2.291   1.313  0.7329  0.3742 -0.1852
 5016SOL    HW226685   1.949   2.385   1.422  0.0095 -0.3003 -0.0344
 5017SOL     OW26686   0.558   0.564   5.608  0.4181  0.0823  0.5478
 5017SOL    HW126687   0.585   0.510   5.682 -0.1316 -0.4090  0.3961
 5017SOL    HW226688   0.464   0.570   5.625  0.4954  0.9670  0.6783
 5018SOL     OW26689   2.147   3.249   1.955  0.4454 -0.0453  0.4321
 5018SOL    HW126690   2.057   3.241   1.988 -0.0509  2.0024 -0.4316
 5018SOL    HW226691   2.153   3.177   1.891 -0.1324  0.1880  0.1086
 5019SOL     OW26692   4.236   3.333  14.754 -0.0477  0.1834  0.5552
 5019SOL    HW126693   4.155   3.292  14.785 -1.3061  0.6045 -2.1400
 5019SOL    HW226694   4.271   3.355  14.841 -0.1224 -0.6710  0.8041
 5020SOL     OW26695   3.481   0.958   6.131 -0.2138 -0.1940 -0.2017
 5020SOL    HW126696   3.527   0.959   6.215  1.6141 -0.3866 -1.2067
 5020SOL    HW226697   3.477   0.863   6.120  0.9504 -0.2384 -0.2078
 5021SOL     OW26698   0.127   4.326   8.144 -0.3231  0.0872  0.1471
 5021SOL    HW126699   0.099   4.417   8.149  0.3359  0.4021 -1.8195
 5021SOL    HW226700   0.042   4.284   8.156  0.2608 -1.6332 -1.6973
 5022SOL     OW26701   1.315   3.566   1.665  0.2940 -0.1463 -0.3337
 5022SOL    HW126702   1.345   3.485   1.707 -0.6147  0.4035  1.3869
 5022SOL    HW226703   1.242   3.543   1.607  1.4131 -1.0132 -1.3960
 5023SOL     OW26704   4.141   2.665   4.467  0.2769 -0.2833  0.0308
 5023SOL    HW126705   4.127   2.707   4.382 -1.0826  1.2544  1.0172
 5023SOL    HW226706   4.146   2.743   4.522  1.0006  0.0462 -0.4984
 5024SOL     OW26707   4.136   3.962   4.508 -0.2127 -0.0637  0.4611
 5024SOL    HW126708   4.232   3.959   4.512 -0.2367 -2.1694 -0.7301
 5024SOL    HW226709   4.128   3.882   4.560  2.7906 -0.9826 -0.4650
 5025SOL     OW26710   2.478   3.548   9.206 -0.1960  0.2725 -0.3033
 5025SOL    HW126711   2.545   3.567   9.141 -1.8305  1.7882 -1.5245
 5025SOL    HW226712   2.533   3.546   9.284 -0.8229  0.1156  0.1353
 5026SOL     OW26713   2.934   2.013   8.066  0.1515 -0.5946  0.1423
 5026SOL    HW126714   2.894   1.929   8.087 -2.1645  0.0350 -1.7402
 5026SOL    HW226715   3.024   1.995   8.092  0.2546 -0.8481 -0.4123
 5027SOL     OW26716   2.762   3.417  16.970  0.2359  0.0023 -0.4936
 5027SOL    HW126717   2.832   3.369  16.925  1.2295 -0.4299  1.5017
 5027SOL    HW226718   2.725   3.484  16.912  3.4874  1.8510 -0.4260
 5028SOL     OW26719   0.940   2.013   4.037  0.4799 -0.3527 -0.0490
 5028SOL    HW126720   0.983   2.013   4.123  0.2488 -4.1768  0.0889
 5028SOL    HW226721   0.852   1.990   4.065  0.1808 -0.3914 -1.0230
 5029SOL     OW26722   3.626   0.878   3.184  0.1915  0.0221 -1.0059
 5029SOL    HW126723   3.599   0.962   3.149  0.2079  0.4314 -0.0374
 5029SOL    HW226724   3.540   0.844   3.210 -0.6849  3.1254  0.0942
 5030SOL     OW26725   0.224   3.572   3.931 -0.0641  0.1328 -0.1615
 5030SOL    HW126726   0.140   3.536   3.903 -0.5308  0.0017  1.3725
 5030SOL    HW226727   0.278   3.575   3.852 -0.4390  0.7683 -0.3932
 5031SOL     OW26728   3.695   1.796   8.971 -0.0487 -0.2099  0.7731
 5031SOL    HW126729   3.656   1.814   9.056  1.0575  3.3206  0.5527
 5031SOL    HW226730   3.700   1.701   8.963  1.1300 -0.1543  0.7967
 5032SOL     OW26731   4.026   0.137   8.116  0.0734 -0.2515  0.3960
 5032SOL    HW126732   3.987   0.192   8.048  0.3506 -1.4540 -0.7376
 5032SOL    HW226733   3.953   0.080   8.140 -0.9205  0.9754  0.3004
 5033SOL     OW26734   0.911   4.388   6.879 -0.0077 -0.0587  0.0781
 5033SOL    HW126735   0.930   4.459   6.818  0.1662  0.6613  0.9701
 5033SOL    HW226736   0.904   4.310   6.824 -1.1115  0.5016 -0.5614
 5034SOL     OW26737   2.238   1.513   6.542 -0.3583 -0.2645 -0.4594
 5034SOL    HW126738   2.327   1.518   6.508 -0.0088  2.1815  0.7927
 5034SOL    HW226739   2.208   1.603   6.526 -0.9890 -0.5166 -0.7142
 5035SOL     OW26740   4.460   4.389   8.391  0.0627 -0.1199 -0.3834
 5035SOL    HW126741   4.493   4.399   8.301  1.9605 -0.2907  0.3026
 5035SOL    HW226742   4.550   4.387   8.424  0.0539 -0.1362 -0.3605
 5036SOL     OW26743   2.331   4.057  14.093 -0.1853 -0.7828 -0.0572
 5036SOL    HW126744   2.342   4.151  14.079  1.2844 -1.3574 -2.9342
 5036SOL    HW226745   2.419   4.028  14.117 -0.1157 -0.5461 -0.0321
 5037SOL     OW26746   2.732   1.352   3.376 -0.1931 -0.0879 -0.1760
 5037SOL    HW126747   2.798   1.396   3.323 -1.8138  0.7886 -1.4655
 5037SOL    HW226748   2.770   1.357   3.463 -0.3514  0.8525 -0.1584
 5038SOL     OW26749   3.125   1.165  13.253 -0.1284  0.4318  0.1500
 5038SOL    HW126750   3.196   1.101  13.245 -0.3922  0.3449 -1.5660
 5038SOL    HW226751   3.079   1.151  13.170  0.7069  0.1316 -0.2669
 5039SOL     OW26752   0.930   2.165   7.031  0.4177 -0.2255 -0.0923
 5039SOL    HW126753   1.016   2.186   7.068  0.3127 -0.5519  0.3339
 5039SOL    HW226754   0.923   2.220   6.953  1.2352 -0.9072 -0.6454
 5040SOL     OW26755   2.953   1.611   9.855 -0.0743  0.1172  0.0780
 5040SOL    HW126756   3.009   1.678   9.893 -0.6114  0.8410 -0.4005
 5040SOL    HW226757   2.888   1.589   9.922  0.0426  0.8892  0.4400
 5041SOL     OW26758   0.202   3.587   8.917  0.8216 -0.4236 -0.5518
 5041SOL    HW126759   0.141   3.513   8.916 -1.4197  1.4384 -1.2539
 5041SOL    HW226760   0.142   3.662   8.923  0.4363 -0.7084 -0.8679
 5042SOL     OW26761   0.347   3.664  14.981 -0.1515 -0.9666 -0.2343
 5042SOL    HW126762   0.376   3.686  15.069  0.3308  0.7068 -0.8085
 5042SOL    HW226763   0.397   3.730  14.934 -0.9148  0.8635  1.5121
 5043SOL     OW26764   0.556   4.402   6.523 -0.4031 -0.1022 -0.8115
 5043SOL    HW126765   0.542   4.475   6.583 -1.3087 -2.3959  1.7284
 5043SOL    HW226766   0.597   4.346   6.589 -2.2003  2.7031  2.7096
 5044SOL     OW26767   0.704   3.958   4.573  0.3088 -0.6298  0.0061
 5044SOL    HW126768   0.683   3.883   4.518  0.6579 -1.0844  0.5000
 5044SOL    HW226769   0.724   4.022   4.505  0.8878 -1.2510 -0.3965
 5045SOL     OW26770   0.759   2.751   0.877 -0.7234  0.4583  0.3459
 5045SOL    HW126771   0.720   2.678   0.924  0.4985 -0.2631  0.2433
 5045SOL    HW226772   0.789   2.809   0.948 -1.6615 -0.0754  1.1742
 5046SOL     OW26773   0.581   1.387   6.709  0.5758  0.0581 -0.3534
 5046SOL    HW126774   0.527   1.389   6.788  2.4980  0.7008  0.9356
 5046SOL    HW226775   0.654   1.445   6.731 -0.5570  2.0711 -1.8026
 5047SOL     OW26776   2.137   4.495  12.736  0.6310 -0.0291 -0.2492
 5047SOL    HW126777   2.211   4.551  12.713 -0.0432  1.2034  0.6199
 5047SOL    HW226778   2.068   4.485  12.670  0.7235 -0.6875 -0.2521
 5048SOL     OW26779   3.594   0.254   7.764 -0.1493  0.2803  0.5299
 5048SOL    HW126780   3.621   0.345   7.777  0.8375  0.3184 -1.9259
 5048SOL    HW226781   3.502   0.274   7.747 -0.1548  0.9422  1.3183
 5049SOL     OW26782   0.142   1.222   8.309 -0.1431 -0.1748 -0.1248
 5049SOL    HW126783   0.175   1.142   8.267 -2.8557 -0.7096 -1.2127
 5049SOL    HW226784   0.049   1.201   8.308 -0.5536  1.5978  1.0440
 5050SOL     OW26785   3.550   2.955   7.420  0.1207 -0.3945  0.1523
 5050SOL    HW126786   3.462   2.986   7.441 -0.2686 -2.0130  0.8937
 5050SOL    HW226787   3.592   2.939   7.505 -2.5726 -0.5936  1.4367
 5051SOL     OW26788   4.295   2.373   9.773 -0.3622  0.0504 -0.2372
 5051SOL    HW126789   4.329   2.314   9.840 -0.5019 -0.5641 -0.7048
 5051SOL    HW226790   4.371   2.397   9.720 -0.8204  0.6403 -0.6218
 5052SOL     OW26791   4.201   3.709   2.314  0.6813 -0.4029 -0.0116
 5052SOL    HW126792   4.263   3.780   2.332  0.5388 -0.9150  2.5173
 5052SOL    HW226793   4.137   3.726   2.383  0.5532  0.5946 -0.3770
 5053SOL     OW26794   3.137   3.114   6.681 -0.6369 -0.5885  0.3692
 5053SOL    HW126795   3.222   3.153   6.660 -2.0187  2.0649 -0.3385
 5053SOL    HW226796   3.104   3.087   6.595  1.0958  0.1095 -0.5277
 5054SOL     OW26797   0.871   1.929   8.389 -0.6086  0.2276  0.7394
 5054SOL    HW126798   0.848   1.845   8.430  2.7140 -0.4272  1.3045
 5054SOL    HW226799   0.868   1.978   8.472  1.0142  0.8171  0.4535
 5055SOL     OW26800   0.478   3.323   5.143  0.3565  0.0092  0.1499
 5055SOL    HW126801   0.507   3.359   5.227  0.6731  0.2559 -0.0648
 5055SOL    HW226802   0.561   3.289   5.110  1.4377  0.5225  2.3078
 5056SOL     OW26803   2.429   2.640   3.774  0.1665  0.2263 -0.1905
 5056SOL    HW126804   2.384   2.670   3.852  1.7292 -0.4450  0.9628
 5056SOL    HW226805   2.359   2.662   3.713  1.7727 -0.1096 -2.1732
 5057SOL     OW26806   4.060   0.695   3.566  0.6542  0.3286  0.7060
 5057SOL    HW126807   4.120   0.759   3.603  1.2528 -0.5189  1.1950
 5057SOL    HW226808   3.973   0.726   3.594  0.3578 -0.6158  0.8529
 5058SOL     OW26809   4.175   2.235   0.008 -0.3188 -0.4468 -0.0864
 5058SOL    HW126810   4.264   2.251  17.718 -1.2997  3.4460 -0.7506
 5058SOL    HW226811   4.146   2.226  17.661  2.0085  2.0972 -1.0980
 5059SOL     OW26812   0.097   3.799   6.581 -0.4445  0.1086  0.1960
 5059SOL    HW126813   0.150   3.861   6.532 -1.3812  0.4478 -0.3750
 5059SOL    HW226814   0.031   3.856   6.621 -1.3015 -1.3824  0.9145
 5060SOL     OW26815   2.123   4.265   7.925 -0.0526 -0.6364 -0.2135
 5060SOL    HW126816   2.091   4.175   7.930 -2.3341  0.1575 -0.4179
 5060SOL    HW226817   2.093   4.313   8.002 -0.4613  0.4008 -1.0194
 5061SOL     OW26818   0.607   2.044  16.894  0.0276 -0.8125 -0.1843
 5061SOL    HW126819   0.643   2.033  16.806  2.1061 -0.2669  0.5945
 5061SOL    HW226820   0.589   1.952  16.914  0.9676 -0.5349  1.9226
 5062SOL     OW26821   4.262   4.147   2.645  0.0084 -0.1616  0.0898
 5062SOL    HW126822   4.247   4.241   2.649  1.0676  0.0333 -0.4980
 5062SOL    HW226823   4.237   4.125   2.735 -0.2807  0.0909  0.0689
 5063SOL     OW26824   2.517   1.110   7.510 -0.5431  0.2037 -0.2548
 5063SOL    HW126825   2.515   1.098   7.416 -2.7654  0.5756 -0.2507
 5063SOL    HW226826   2.555   1.026   7.537  1.8973  0.4820 -2.8526
 5064SOL     OW26827   2.795   4.650   8.633  0.1839 -0.2459 -0.4373
 5064SOL    HW126828   2.837   4.569   8.663 -1.0646 -1.1456 -1.1044
 5064SOL    HW226829   2.817   4.718   8.696  2.2145 -1.4788  0.1735
 5065SOL     OW26830   2.623   3.358  14.508  0.1546 -0.3272 -0.0208
 5065SOL    HW126831   2.636   3.431  14.448  1.4256  0.2188  0.9266
 5065SOL    HW226832   2.650   3.397  14.591 -0.2249 -1.1590  0.5006
 5066SOL     OW26833   1.587   4.188   2.229 -0.6286 -0.6674  0.0743
 5066SOL    HW126834   1.524   4.187   2.157 -0.4063 -1.9699 -0.1044
 5066SOL    HW226835   1.668   4.145   2.202 -1.3028  0.4017 -3.6776
 5067SOL     OW26836   3.917   2.801   0.384 -0.0496  0.0249 -0.4522
 5067SOL    HW126837   3.874   2.728   0.340 -0.7400 -0.1662  0.5419
 5067SOL    HW226838   3.909   2.765   0.472  1.1365 -1.2551 -0.8738
 5068SOL     OW26839   2.494   2.098   7.599 -0.0763  0.0766 -0.1782
 5068SOL    HW126840   2.435   2.133   7.665  0.8365  0.7258  0.2957
 5068SOL    HW226841   2.445   2.110   7.517  0.3447  2.1736 -0.1333
 5069SOL     OW26842   1.804   1.434   1.070 -0.4751  0.3124  0.5275
 5069SOL    HW126843   1.834   1.494   1.138  2.5781 -1.6840  0.9463
 5069SOL    HW226844   1.744   1.378   1.118  1.7860 -0.4074  2.5075
 5070SOL     OW26845   0.322   3.871   8.779 -0.3200  1.0578 -0.1593
 5070SOL    HW126846   0.256   3.831   8.834  0.0101  0.0014 -0.5340
 5070SOL    HW226847   0.395   3.898   8.835  0.6262  3.7270 -2.6117
 5071SOL     OW26848   0.243   4.145   0.840  0.5045 -0.1821  0.0560
 5071SOL    HW126849   0.264   4.054   0.859  0.4841 -0.1449  0.2551
 5071SOL    HW226850   0.283   4.193   0.912 -0.7577 -1.3413  1.5173
 5072SOL     OW26851   2.553   4.559   6.743  0.1292  0.1358 -0.0699
 5072SOL    HW126852   2.471   4.513   6.763  1.1080 -2.2765 -1.7299
 5072SOL    HW226853   2.579   4.589   6.830 -0.0847  1.5942 -0.5073
 5073SOL     OW26854   3.864   3.275   3.009  0.0970 -0.3790  0.0794
 5073SOL    HW126855   3.956   3.286   3.033 -0.5942  1.3635  1.9474
 5073SOL    HW226856   3.831   3.222   3.082  1.5203 -3.1870 -1.3188
 5074SOL     OW26857   4.475   2.754   7.160  0.1876 -0.8093  0.3728
 5074SOL    HW126858   4.410   2.799   7.106  1.0200  1.1018  0.9800
 5074SOL    HW226859   4.538   2.733   7.091 -0.3340 -0.0554 -0.3368
 5075SOL     OW26860   4.525   3.327   7.769 -0.0391 -0.5212  0.2895
 5075SOL    HW126861   4.542   3.303   7.860 -0.0662 -0.8797  0.2015
 5075SOL    HW226862   4.617   3.333   7.744 -0.6131  0.9900 -1.4866
 5076SOL     OW26863   1.420   3.642   6.786 -0.7117  0.5100 -0.3048
 5076SOL    HW126864   1.431   3.602   6.700 -2.0728 -2.2175  0.7719
 5076SOL    HW226865   1.396   3.730   6.757 -2.0585 -0.3555 -1.8058
 5077SOL     OW26866   0.383   3.056   2.622  0.0312 -0.3882  0.0011
 5077SOL    HW126867   0.322   2.990   2.591 -0.2719 -0.4842  0.8024
 5077SOL    HW226868   0.444   3.053   2.548  0.5626  2.0645  0.3276
 5078SOL     OW26869   3.628   4.205   7.234 -0.1736 -0.7979 -0.1992
 5078SOL    HW126870   3.619   4.122   7.186 -1.0969  0.0720 -1.5096
 5078SOL    HW226871   3.543   4.217   7.276 -0.3564 -2.7262 -0.0015
 5079SOL     OW26872   1.718   4.457   4.934  0.7345  0.0197 -0.1848
 5079SOL    HW126873   1.770   4.410   4.999 -2.1956 -3.0925 -0.0579
 5079SOL    HW226874   1.672   4.387   4.888  0.7828 -0.6382  0.7670
 5080SOL     OW26875   0.257   0.545   7.941 -0.0150 -0.4428 -0.4456
 5080SOL    HW126876   0.272   0.588   7.856  0.8973  2.1357  1.0068
 5080SOL    HW226877   0.235   0.626   7.988 -0.3887 -0.6043 -0.3449
 5081SOL     OW26878   4.479   2.127   4.998 -0.2975 -0.0076  0.1015
 5081SOL    HW126879   4.557   2.073   4.985 -1.4832 -1.8729  0.7199
 5081SOL    HW226880   4.423   2.059   5.036  0.1164 -0.9364 -0.9577
 5082SOL     OW26881   4.481   3.646   3.689  0.5962 -0.2126 -0.3949
 5082SOL    HW126882   4.537   3.616   3.760  0.4101 -0.3109 -0.2896
 5082SOL    HW226883   4.519   3.606   3.610 -0.4849 -0.3266 -0.8605
 5083SOL     OW26884   3.392   1.643   4.186 -0.2914  0.3902 -0.1752
 5083SOL    HW126885   3.338   1.590   4.244  1.4257 -0.0233  1.0447
 5083SOL    HW226886   3.428   1.709   4.246 -0.9946  0.6220 -0.0051
 5084SOL     OW26887   3.495   2.613   9.072  0.5292 -0.2282  0.4672
 5084SOL    HW126888   3.423   2.557   9.043  0.1662 -0.5610  2.0076
 5084SOL    HW226889   3.560   2.552   9.106  1.7173  1.3222  1.0047
 5085SOL     OW26890   1.910   0.483   6.148  0.3248 -0.6843 -0.1236
 5085SOL    HW126891   1.868   0.492   6.063 -0.9411 -2.8502  0.2508
 5085SOL    HW226892   2.003   0.485   6.125  1.1100  1.4750  3.2227
 5086SOL     OW26893   1.528   3.373   8.660  0.3274  0.7348 -0.3196
 5086SOL    HW126894   1.587   3.395   8.732  1.2724 -1.2628 -0.4943
 5086SOL    HW226895   1.481   3.300   8.700 -0.0249  1.8528  1.2830
 5087SOL     OW26896   4.509   0.820   9.099 -0.7575  0.1576  0.1252
 5087SOL    HW126897   4.521   0.764   9.175  0.5452  0.0466 -0.1609
 5087SOL    HW226898   4.591   0.819   9.050 -0.5659  1.9471  0.4014
 5088SOL     OW26899   0.317   1.564   5.189  0.4473 -0.8672 -0.2996
 5088SOL    HW126900   0.287   1.596   5.103  0.5761 -0.6207 -0.2522
 5088SOL    HW226901   0.255   1.594   5.255 -0.9055  1.4264 -2.5963
 5089SOL     OW26902   3.780   3.365  14.278  0.6058  0.4390 -0.4484
 5089SOL    HW126903   3.821   3.300  14.222  0.7678 -0.2038  0.4138
 5089SOL    HW226904   3.694   3.366  14.235  2.0863  0.6940 -3.4056
 5090SOL     OW26905   2.122   0.339  12.928  0.4146 -0.3855  0.1694
 5090SOL    HW126906   2.115   0.278  13.001  2.7051 -1.3350 -0.4110
 5090SOL    HW226907   2.200   0.303  12.885 -1.1946 -2.1995 -1.2229
 5091SOL     OW26908   1.819   3.774   1.930 -0.7806 -0.0062 -0.5142
 5091SOL    HW126909   1.733   3.809   1.908 -1.9191 -1.0090  2.3615
 5091SOL    HW226910   1.871   3.851   1.908  1.6278 -1.5700 -0.3407
 5092SOL     OW26911   2.272   3.267  17.595 -0.2864 -0.0352 -0.2593
 5092SOL    HW126912   2.320   3.290  17.516 -0.8877  0.2576 -0.5435
 5092SOL    HW226913   2.303   3.177  17.602  0.5718  0.2518 -0.4915
 5093SOL     OW26914   2.280   1.826  15.424 -0.1160 -0.5058 -0.4636
 5093SOL    HW126915   2.286   1.910  15.379 -1.0130 -0.6354 -0.8095
 5093SOL    HW226916   2.185   1.827  15.430 -0.1997  1.1109 -2.1823
 5094SOL     OW26917   1.416   3.845   5.409 -0.5323 -0.8643 -0.3740
 5094SOL    HW126918   1.343   3.784   5.400 -0.4558 -0.9992 -0.0767
 5094SOL    HW226919   1.428   3.854   5.503  0.7298  0.5091 -0.6521
 5095SOL     OW26920   1.369   0.708  10.322 -0.2427 -0.3314 -0.5784
 5095SOL    HW126921   1.295   0.703  10.383  0.4299  0.4450  0.3019
 5095SOL    HW226922   1.321   0.736  10.244  0.6076 -0.5543 -1.1804
 5096SOL     OW26923   2.623   4.141  14.565 -0.3623  0.8782 -0.2603
 5096SOL    HW126924   2.646   4.163  14.475  1.3554 -0.9066 -0.2525
 5096SOL    HW226925   2.675   4.207  14.612 -0.3756  2.0043 -1.8208
 5097SOL     OW26926   0.891   1.227  13.239  0.2666  0.3779 -0.4149
 5097SOL    HW126927   0.964   1.278  13.274  1.1005 -1.3224  0.3283
 5097SOL    HW226928   0.930   1.148  13.201 -2.6205 -0.8615 -0.8350
 5098SOL     OW26929   4.474   1.802  13.690 -0.9246  0.6186 -0.2089
 5098SOL    HW126930   4.513   1.793  13.777  0.1342  0.4296 -0.7011
 5098SOL    HW226931   4.541   1.771  13.629 -1.4915  0.6296 -0.8503
 5099SOL     OW26932   2.460   2.488   2.396 -0.2133 -0.3086  0.6266
 5099SOL    HW126933   2.368   2.514   2.406  0.2221  1.6232 -0.4415
 5099SOL    HW226934   2.458   2.439   2.313  2.1034  0.2948  0.2123
 5100SOL     OW26935   2.833   0.081  15.374 -0.0495  0.1168  0.7114
 5100SOL    HW126936   2.907   0.086  15.313  1.2282  2.6638  2.4418
 5100SOL    HW226937   2.757   0.074  15.317  0.2502  1.4679  0.1255
 5101SOL     OW26938   3.149   0.419   4.210  0.5650 -0.4912  0.0303
 5101SOL    HW126939   3.116   0.390   4.125 -1.6503 -1.5054  1.2327
 5101SOL    HW226940   3.204   0.489   4.175  0.7283 -0.3998  0.4667
 5102SOL     OW26941   3.371   0.734  13.265 -0.4454 -0.0128  0.4630
 5102SOL    HW126942   3.459   0.697  13.269  0.0027  1.1206  1.0917
 5102SOL    HW226943   3.314   0.661  13.241 -1.8404  0.5814  1.9586
 5103SOL     OW26944   2.283   1.822   3.470  0.5965  0.1642 -0.1177
 5103SOL    HW126945   2.214   1.816   3.404  2.3651 -0.0515 -1.9385
 5103SOL    HW226946   2.288   1.915   3.492  2.6913  0.1835 -0.6812
 5104SOL     OW26947   2.570   1.070   9.093 -0.7427 -0.2761  0.0091
 5104SOL    HW126948   2.547   1.135   9.027  1.9066  0.1736 -0.4801
 5104SOL    HW226949   2.659   1.091   9.123 -0.2078 -4.0243  1.1148
 5105SOL     OW26950   3.933   3.804   6.602 -0.1753 -0.4976  0.0332
 5105SOL    HW126951   3.894   3.891   6.600  0.0424 -0.4197 -0.9696
 5105SOL    HW226952   3.928   3.776   6.694  1.2698 -1.5111 -0.1979
 5106SOL     OW26953   2.839   1.850   2.803  0.2785  0.0277 -0.2570
 5106SOL    HW126954   2.823   1.899   2.723 -1.0017  0.8637  0.5019
 5106SOL    HW226955   2.762   1.863   2.859 -0.8753 -0.8383 -1.6756
 5107SOL     OW26956   0.875   1.002   7.640  0.2092 -0.1992  0.5861
 5107SOL    HW126957   0.926   1.053   7.704  1.4286 -0.1126 -0.4509
 5107SOL    HW226958   0.814   1.064   7.602  0.5420 -1.3361 -1.8016
 5108SOL     OW26959   0.628   1.512  10.981  0.2242  0.5664 -0.7442
 5108SOL    HW126960   0.551   1.565  10.961 -1.4828 -1.2480  1.1723
 5108SOL    HW226961   0.646   1.464  10.900 -0.5574 -0.0231 -0.5661
 5109SOL     OW26962   1.835   3.851   1.481  0.7151 -0.3754 -0.3348
 5109SOL    HW126963   1.921   3.875   1.515  0.6009  0.4345 -0.6186
 5109SOL    HW226964   1.781   3.865   1.559  4.0340 -1.1023  2.0942
 5110SOL     OW26965   4.411   4.119   7.848  0.3978  0.9764  0.3472
 5110SOL    HW126966   4.355   4.195   7.830 -1.6085 -0.8985 -1.3401
 5110SOL    HW226967   4.409   4.074   7.764 -1.5476  2.3656 -0.3533
 5111SOL     OW26968   1.359   2.182  11.165 -0.3461  0.2602 -0.0944
 5111SOL    HW126969   1.313   2.101  11.142  0.3929 -0.2013  0.0192
 5111SOL    HW226970   1.412   2.152  11.240 -1.4058  0.5792  0.7751
 5112SOL     OW26971   3.089   1.952   5.694 -0.2997 -0.8561 -0.0678
 5112SOL    HW126972   3.025   1.906   5.638 -0.0067 -0.0142 -1.0830
 5112SOL    HW226973   3.163   1.942   5.635 -1.2403 -0.6128 -1.2838
 5113SOL     OW26974   4.273   2.821  11.182  0.1158  0.4437 -0.0530
 5113SOL    HW126975   4.223   2.814  11.263  2.0908 -0.2969  1.0940
 5113SOL    HW226976   4.285   2.728  11.160 -2.3752  0.0006  0.4340
 5114SOL     OW26977   0.407   1.196   6.131  0.3171  0.0128  0.0922
 5114SOL    HW126978   0.356   1.130   6.084 -1.0675 -0.5760  2.4502
 5114SOL    HW226979   0.492   1.155   6.147 -0.3394 -2.3282 -2.4339
 5115SOL     OW26980   3.645   4.388  10.849  0.3009 -0.0051 -0.6660
 5115SOL    HW126981   3.734   4.352  10.852  0.5184  0.5620 -0.2869
 5115SOL    HW226982   3.663   4.477  10.819 -0.8762  0.7016  0.7319
 5116SOL     OW26983   0.313   1.516   0.753 -0.0653 -0.0321 -0.5944
 5116SOL    HW126984   0.295   1.545   0.843  3.2380 -0.9762  0.3767
 5116SOL    HW226985   0.384   1.576   0.731 -0.0340 -0.0054 -0.4242
 5117SOL     OW26986   2.498   2.716   1.220 -0.3333 -0.1621  0.2378
 5117SOL    HW126987   2.487   2.797   1.171  0.5556  0.3505  0.8910
 5117SOL    HW226988   2.545   2.745   1.298 -2.0036  0.2667  1.0830
 5118SOL     OW26989   4.722   2.382  14.633  0.6599 -0.5391 -0.3915
 5118SOL    HW126990   4.677   2.300  14.614  0.6518 -1.3279  3.0279
 5118SOL    HW226991   0.041   2.404  14.558  0.0939 -0.5602 -0.8207
 5119SOL     OW26992   0.848   2.463   8.986  0.4446  0.5713  0.8952
 5119SOL    HW126993   0.777   2.512   8.945  0.6506  0.3893  0.3270
 5119SOL    HW226994   0.829   2.490   9.076  0.5278  0.1605  1.0344
 5120SOL     OW26995   0.424   0.490   5.331  0.1804 -0.5917  0.2756
 5120SOL    HW126996   0.443   0.443   5.250  1.5128 -0.5268  0.5582
 5120SOL    HW226997   0.516   0.504   5.355 -0.4183  0.3421  2.0568
 5121SOL     OW26998   3.133   0.045   8.614 -0.0092  0.6218 -0.3094
 5121SOL    HW126999   3.096   4.702   8.651 -0.1718  1.1211  0.5999
 5121SOL    HW227000   3.165   0.016   8.529  0.0848 -0.4906  0.1039
 5122SOL     OW27001   2.386   2.657   2.877 -0.0644  0.1569 -0.7853
 5122SOL    HW127002   2.454   2.724   2.869  0.7581 -0.4290  1.2363
 5122SOL    HW227003   2.349   2.661   2.789  0.0242  0.6459 -0.7982
 5123SOL     OW27004   3.304   3.240   0.962  0.5580 -0.4380 -0.5661
 5123SOL    HW127005   3.351   3.162   0.991  0.5977 -0.4846 -0.7572
 5123SOL    HW227006   3.314   3.237   0.867 -0.5226  0.0303 -0.6959
 5124SOL     OW27007   1.536   0.035   8.137  0.3604  0.3352 -0.2837
 5124SOL    HW127008   1.627   0.064   8.130 -0.0944  2.0112  0.6632
 5124SOL    HW227009   1.536   4.676   8.139 -1.1801  0.3582  0.4968
 5125SOL     OW27010   4.528   2.239   1.558 -0.4905  0.3886 -0.1867
 5125SOL    HW127011   4.493   2.325   1.582  2.8947  1.8621 -0.3972
 5125SOL    HW227012   4.547   2.198   1.642 -0.3993  1.4328  0.3020
 5126SOL     OW27013   3.983   0.102   0.535  0.1102  0.0843  0.4066
 5126SOL    HW127014   3.942   0.015   0.531  1.6773 -0.5578 -1.7559
 5126SOL    HW227015   4.068   0.095   0.577 -0.7163  3.8489  2.6315
 5127SOL     OW27016   2.946   4.582  12.474 -0.3343 -0.3505  0.1221
 5127SOL    HW127017   2.975   4.525  12.402 -0.8872  1.4665 -1.5451
 5127SOL    HW227018   2.917   4.518  12.539 -0.8613 -0.4127 -0.1787
 5128SOL     OW27019   1.287   4.300   3.682 -0.1817  0.0898 -0.1423
 5128SOL    HW127020   1.222   4.272   3.617  0.3063  1.0920 -1.0569
 5128SOL    HW227021   1.252   4.388   3.698  0.0870  0.1468  0.1126
 5129SOL     OW27022   0.011   4.319  16.209  0.0001 -0.2378  0.4726
 5129SOL    HW127023   0.051   4.347  16.291  3.0809 -1.0186 -0.7590
 5129SOL    HW227024   0.059   4.238  16.193 -1.4767 -0.6623 -1.8977
 5130SOL     OW27025   0.083   1.647   9.528  0.4276  0.0642  0.0569
 5130SOL    HW127026   0.049   1.728   9.490  0.9694 -1.0811 -2.8751
 5130SOL    HW227027   0.028   1.637   9.605 -1.3648  2.7471 -0.8568
 5131SOL     OW27028   0.497   1.421   4.243 -0.2384  0.1952 -0.4538
 5131SOL    HW127029   0.565   1.441   4.179  1.3736  3.2274  2.1836
 5131SOL    HW227030   0.554   1.372   4.304  0.8077  3.9128  1.5421
 5132SOL     OW27031   0.155   0.351  12.439  0.3314 -0.7729 -0.3841
 5132SOL    HW127032   0.141   0.366  12.346 -0.2954 -1.1292 -0.3456
 5132SOL    HW227033   0.081   0.295  12.462  1.3563 -1.6177  0.8996
 5133SOL     OW27034   1.895   2.098   6.264 -0.1437  0.3472  0.1474
 5133SOL    HW127035   1.839   2.175   6.255 -0.8343 -0.0505  1.0826
 5133SOL    HW227036   1.842   2.031   6.307 -0.1734 -0.4448 -1.1103
 5134SOL     OW27037   4.680   3.029  14.585  0.4013  0.0540 -0.4364
 5134SOL    HW127038   4.716   3.002  14.501  0.2620 -0.1303 -0.4364
 5134SOL    HW227039   0.029   3.045  14.626  1.3898  0.8836 -2.8347
 5135SOL     OW27040   2.339   2.914  13.978  0.4488  0.6168 -0.0861
 5135SOL    HW127041   2.351   2.959  14.061  1.8390  2.6264 -1.3893
 5135SOL    HW227042   2.284   2.840  14.006  0.2826  0.0342 -1.9301
 5136SOL     OW27043   0.569   4.283   4.513  0.4287  0.4617  0.0458
 5136SOL    HW127044   0.618   4.365   4.508  0.8648  0.2203  0.4643
 5136SOL    HW227045   0.588   4.251   4.425 -1.9424 -0.5718 -0.1137
 5137SOL     OW27046   2.554   1.758   1.602  0.3735  0.2131  0.4173
 5137SOL    HW127047   2.618   1.827   1.618 -0.5075  1.2791 -0.6145
 5137SOL    HW227048   2.580   1.694   1.669 -0.5076 -0.1991  0.3658
 5138SOL     OW27049   3.835   2.552   5.111 -0.9614  0.4332  0.2095
 5138SOL    HW127050   3.889   2.611   5.165  1.5162  0.4000 -2.2417
 5138SOL    HW227051   3.832   2.596   5.026 -2.4867  0.4618  0.2784
 5139SOL     OW27052   3.342   3.220   6.128 -0.3905 -0.5024 -0.2420
 5139SOL    HW127053   3.327   3.309   6.095  0.7408 -0.0821  0.3608
 5139SOL    HW227054   3.278   3.223   6.199 -1.2117 -1.2371 -0.9489
 5140SOL     OW27055   1.647   1.021  12.674  0.1634 -0.1263 -0.0364
 5140SOL    HW127056   1.741   1.034  12.660  0.2422 -1.4978 -0.7299
 5140SOL    HW227057   1.637   1.006  12.768 -0.7800 -1.5906 -0.3665
 5141SOL     OW27058   3.112   0.512   2.348 -0.3419 -0.2117 -0.0389
 5141SOL    HW127059   3.022   0.481   2.356 -0.1983 -0.6366 -0.0725
 5141SOL    HW227060   3.099   0.581   2.413  1.3047  1.0785 -1.0760
 5142SOL     OW27061   0.850   2.568   2.081 -0.1878  0.2063 -0.0489
 5142SOL    HW127062   0.768   2.589   2.036  0.1405  0.1057 -0.7040
 5142SOL    HW227063   0.912   2.611   2.022 -1.3816 -0.0743 -1.5052
 5143SOL     OW27064   0.651   3.726   4.403 -0.1898  0.1671  0.1405
 5143SOL    HW127065   0.670   3.676   4.323 -1.2167 -0.1733  0.1136
 5143SOL    HW227066   0.610   3.660   4.459  0.7623 -0.8910 -0.3996
 5144SOL     OW27067   3.441   4.693  15.739 -0.2578  0.5319 -0.6659
 5144SOL    HW127068   3.475   4.718  15.825  0.7797  0.4316 -1.0518
 5144SOL    HW227069   3.354   4.662  15.764 -0.0241  0.6747  0.3567
 5145SOL     OW27070   2.028   2.002   4.452 -0.5929 -0.7625 -0.2428
 5145SOL    HW127071   1.977   1.977   4.374 -1.4441  1.5608 -0.4403
 5145SOL    HW227072   2.116   1.975   4.425  0.0185  0.1773  0.8337
 5146SOL     OW27073   0.582   2.976   6.373 -0.2537 -0.4968  0.3513
 5146SOL    HW127074   0.556   2.888   6.399 -1.7682  0.3825  1.8780
 5146SOL    HW227075   0.664   2.972   6.422  0.9161  0.3083 -1.5750
 5147SOL     OW27076   0.588   2.993   2.271 -0.1937 -0.7466  0.3356
 5147SOL    HW127077   0.558   3.066   2.217  0.6347 -1.4116 -1.0005
 5147SOL    HW227078   0.682   3.007   2.275 -0.2554  0.2316 -2.1776
 5148SOL     OW27079   2.112   4.635   4.069  0.0285  0.2139 -0.0909
 5148SOL    HW127080   2.045   4.641   4.000  1.5703 -0.0661 -1.5998
 5148SOL    HW227081   2.113   4.545   4.100 -1.5231 -0.4458 -1.8865
 5149SOL     OW27082   1.375   0.417   6.154 -0.0827 -0.1385  0.1860
 5149SOL    HW127083   1.377   0.348   6.087  0.8851 -2.6057  2.8003
 5149SOL    HW227084   1.468   0.427   6.174 -0.2677 -0.4426  1.1529
 5150SOL     OW27085   1.534   1.769   5.903  0.4458 -0.1088  0.3027
 5150SOL    HW127086   1.447   1.801   5.926 -0.5105 -3.4886  1.2976
 5150SOL    HW227087   1.585   1.792   5.981 -0.1717 -2.3613  1.3810
 5151SOL     OW27088   0.147   0.240   3.884 -0.4375  0.5930  0.0985
 5151SOL    HW127089   0.208   0.166   3.884 -1.8761 -0.5942  0.8052
 5151SOL    HW227090   0.171   0.284   3.965 -0.7098  2.6236 -0.9073
 5152SOL     OW27091   0.723   2.079  11.519 -0.2049 -0.2874 -0.3233
 5152SOL    HW127092   0.765   2.029  11.449  2.6469  0.7943  0.6366
 5152SOL    HW227093   0.790   2.146  11.530  1.0463 -1.7069  0.7277
 5153SOL     OW27094   0.730   1.485   5.295 -0.5444 -0.1483  0.0280
 5153SOL    HW127095   0.676   1.544   5.348  1.7254  2.3140 -0.3669
 5153SOL    HW227096   0.761   1.418   5.357 -2.0864 -1.6024 -0.7810
 5154SOL     OW27097   3.037   2.611  12.146  0.2555  0.5892 -0.2353
 5154SOL    HW127098   3.124   2.611  12.187  0.7093  1.5844 -1.2178
 5154SOL    HW227099   3.006   2.690  12.189 -1.3629 -0.1356 -0.0631
 5155SOL     OW27100   3.025   4.664   1.666 -0.0501  0.1791  0.4359
 5155SOL    HW127101   3.062   4.732   1.609 -1.0434  0.5736  0.2553
 5155SOL    HW227102   3.104   4.631   1.709  0.3219  0.5310  0.0251
 5156SOL     OW27103   2.507   4.374   0.679  0.0468  0.2463  0.0297
 5156SOL    HW127104   2.426   4.330   0.654  0.2060 -1.0670  1.7888
 5156SOL    HW227105   2.491   4.391   0.772 -0.2967  0.8338 -0.1319
 5157SOL     OW27106   4.531   3.235   5.622 -0.0258 -0.6338  0.0325
 5157SOL    HW127107   4.462   3.250   5.557 -1.7109  0.6889  2.1322
 5157SOL    HW227108   4.603   3.214   5.564  0.1899 -0.9757  0.4228
 5158SOL     OW27109   0.662   3.627  16.336  0.0087 -0.6270  0.1834
 5158SOL    HW127110   0.568   3.639  16.351  0.0623  0.1531 -0.1401
 5158SOL    HW227111   0.697   3.687  16.402  1.3120 -0.7726 -0.3771
 5159SOL     OW27112   4.020   2.900   7.354  0.1048  0.0886  0.0375
 5159SOL    HW127113   4.031   2.917   7.261 -3.0635  2.4314  0.1091
 5159SOL    HW227114   4.078   2.964   7.397  1.6504 -0.7646 -0.7573
 5160SOL     OW27115   2.250   2.450   4.233 -0.4450 -0.0121  0.2517
 5160SOL    HW127116   2.312   2.379   4.246  0.2715 -0.0321 -3.4316
 5160SOL    HW227117   2.165   2.408   4.218  1.4060 -4.0926  1.1850
 5161SOL     OW27118   2.431   2.203   2.488 -0.4490 -0.3042  0.7934
 5161SOL    HW127119   2.342   2.198   2.453 -0.3399 -0.0444  0.4816
 5161SOL    HW227120   2.437   2.135   2.556 -2.8319 -1.4312 -0.1445
 5162SOL     OW27121   0.175   4.094   7.570 -0.0848 -0.3937 -0.6810
 5162SOL    HW127122   0.120   4.128   7.641  0.4581 -4.2573  1.5715
 5162SOL    HW227123   0.207   4.177   7.536 -0.3214 -0.8284 -1.9562
 5163SOL     OW27124   0.344   1.717   9.538 -0.3365 -0.0342  0.8772
 5163SOL    HW127125   0.339   1.812   9.525 -0.6877 -0.1983 -0.2424
 5163SOL    HW227126   0.258   1.679   9.521 -0.0270 -0.4777  0.3117
 5164SOL     OW27127   3.259   3.043   9.442  0.5751  0.5456  0.1499
 5164SOL    HW127128   3.343   3.038   9.489  0.2896  2.4664  0.8590
 5164SOL    HW227129   3.278   3.034   9.349 -0.6436 -2.0000  0.1521
 5165SOL     OW27130   3.087   1.402   5.636  0.0773 -0.4600 -0.4432
 5165SOL    HW127131   3.056   1.321   5.677 -0.3172 -1.5231 -2.8526
 5165SOL    HW227132   3.054   1.410   5.547 -0.3833  1.1498 -0.1220
 5166SOL     OW27133   1.808   0.246  13.117 -0.7207 -0.0600 -0.1686
 5166SOL    HW127134   1.796   0.312  13.048  1.9845  0.6109  0.0004
 5166SOL    HW227135   1.897   0.221  13.092 -0.4266 -1.5688  2.4527
 5167SOL     OW27136   0.663   1.085   6.091  0.1541 -0.0126 -0.4520
 5167SOL    HW127137   0.691   1.090   6.182 -0.2503  2.9856 -0.5131
 5167SOL    HW227138   0.675   0.990   6.080 -1.4273 -0.0195 -2.1482
 5168SOL     OW27139   3.198   4.636  13.705  0.0734  0.5411 -0.4568
 5168SOL    HW127140   3.186   4.545  13.676 -0.7305  0.6846 -0.5835
 5168SOL    HW227141   3.238   4.679  13.629 -1.1923  0.5384 -1.1355
 5169SOL     OW27142   4.389   3.308   3.454  0.3755  0.1571  0.0583
 5169SOL    HW127143   4.463   3.368   3.454 -1.7511  2.7603  2.0968
 5169SOL    HW227144   4.330   3.349   3.391 -1.3406  1.8734  2.7448
 5170SOL     OW27145   3.903   0.174  11.542  0.0375 -0.0264 -0.1629
 5170SOL    HW127146   3.910   0.136  11.630 -0.9917  1.9434  0.7733
 5170SOL    HW227147   3.869   0.261  11.561  0.5462  0.7360 -2.7180
 5171SOL     OW27148   2.821   0.224   7.305 -0.0681  1.0922 -0.2118
 5171SOL    HW127149   2.856   0.236   7.217  0.3488 -0.9953 -0.3437
 5171SOL    HW227150   2.887   0.261   7.364  0.2274 -0.8185  0.6877
 5172SOL     OW27151   2.666   3.580   9.421 -0.4319 -0.6377 -1.2845
 5172SOL    HW127152   2.692   3.655   9.368 -1.8066  1.6328  1.3093
 5172SOL    HW227153   2.734   3.588   9.488 -0.2129 -1.7326 -1.3726
 5173SOL     OW27154   2.842   2.922   4.276  0.3180  0.0302  0.0068
 5173SOL    HW127155   2.748   2.938   4.283  0.2835  1.1088 -2.8301
 5173SOL    HW227156   2.861   2.893   4.365  0.4797 -0.6003 -0.2288
 5174SOL     OW27157   2.158   1.171   1.039  0.1318 -0.1341  0.3921
 5174SOL    HW127158   2.072   1.196   1.006  0.9956  1.7931 -0.3884
 5174SOL    HW227159   2.204   1.238   1.089  0.4596 -0.3943  0.4406
 5175SOL     OW27160   0.310   1.277   2.679 -0.0181 -0.3494 -0.2087
 5175SOL    HW127161   0.343   1.226   2.754 -1.0752  0.3020  0.6976
 5175SOL    HW227162   0.380   1.258   2.617  0.7211  1.0462  0.1986
 5176SOL     OW27163   0.732   2.872   9.281 -0.4805 -0.1861 -0.4926
 5176SOL    HW127164   0.701   2.963   9.284  2.2895  0.6896  2.4787
 5176SOL    HW227165   0.778   2.859   9.364  1.6512 -0.7886 -1.7842
 5177SOL     OW27166   0.059   2.469   8.046 -0.1767  0.2204 -0.1251
 5177SOL    HW127167   0.017   2.429   7.969 -0.0520  0.7094 -0.4513
 5177SOL    HW227168   0.071   2.555   8.005 -0.1688  0.6167  0.7209
 5178SOL     OW27169   1.115   1.525   4.833 -0.1512  0.2073  0.5082
 5178SOL    HW127170   1.118   1.596   4.896 -1.1921  0.9213 -0.2402
 5178SOL    HW227171   1.130   1.450   4.891 -1.3333 -2.9483 -3.2324
 5179SOL     OW27172   2.196   1.434   1.226  0.6573  0.6065  0.7909
 5179SOL    HW127173   2.285   1.468   1.233  0.1956  2.2587 -1.5615
 5179SOL    HW227174   2.147   1.504   1.269 -0.6372 -0.1303  0.4954
 5180SOL     OW27175   3.654   1.859   9.229  0.4835 -0.2006  0.3104
 5180SOL    HW127176   3.736   1.837   9.273  0.5673  0.2283  0.3769
 5180SOL    HW227177   3.659   1.954   9.240  0.7742 -0.2311  0.4251
 5181SOL     OW27178   3.762   3.607  17.653 -0.5826 -0.0248 -0.1816
 5181SOL    HW127179   3.844   3.583  17.609 -0.3946 -1.0650  0.7291
 5181SOL    HW227180   3.751   3.533  17.713 -1.4619  0.1421 -0.1426
 5182SOL     OW27181   2.694   3.097   3.061 -0.5849  0.1096  0.4657
 5182SOL    HW127182   2.612   3.092   3.011 -0.4779  0.8632  0.2107
 5182SOL    HW227183   2.716   3.190   3.061  0.1663 -0.0534 -2.2204
 5183SOL     OW27184   2.513   2.819  12.041 -0.3075  0.0302  0.4762
 5183SOL    HW127185   2.472   2.905  12.042 -0.1581  0.1082 -0.0786
 5183SOL    HW227186   2.451   2.762  12.088 -0.3608  0.4655  0.9332
 5184SOL     OW27187   4.533   3.612   7.714 -0.1958 -0.2390 -0.1676
 5184SOL    HW127188   4.511   3.540   7.773  0.7790  0.5344  1.1394
 5184SOL    HW227189   4.612   3.579   7.670  1.6367  2.9941  0.6565
 5185SOL     OW27190   1.812   1.801   2.835  0.0112  0.4167  0.2974
 5185SOL    HW127191   1.773   1.764   2.914  0.1105 -0.2668  0.0195
 5185SOL    HW227192   1.902   1.774   2.854  0.0731 -0.1231 -0.7637
 5186SOL     OW27193   0.536   3.270   1.544 -0.1133  0.1868  0.1441
 5186SOL    HW127194   0.464   3.284   1.482 -0.9006 -2.2865  0.5112
 5186SOL    HW227195   0.489   3.241   1.621  1.5115  1.6380  1.6873
 5187SOL     OW27196   4.025   2.126   7.005 -0.6067 -0.3706 -0.5548
 5187SOL    HW127197   4.007   2.218   6.985 -0.6922 -0.3163 -0.2339
 5187SOL    HW227198   3.932   2.106   7.017 -0.7092 -0.8765 -2.2936
 5188SOL     OW27199   2.179   1.554   5.818  0.5204  0.1747 -0.7603
 5188SOL    HW127200   2.097   1.507   5.826  1.4977 -1.2932  0.7068
 5188SOL    HW227201   2.247   1.493   5.845  0.1628 -0.0117 -0.2864
 5189SOL     OW27202   4.641   0.583   8.043 -0.0163  0.0744  0.0065
 5189SOL    HW127203   4.656   0.489   8.051 -0.4270 -0.0916 -1.1763
 5189SOL    HW227204   4.660   0.599   7.950  2.6495  3.6630  1.1676
 5190SOL     OW27205   4.579   3.538   3.448  0.3131 -0.6034 -0.0415
 5190SOL    HW127206   4.660   3.586   3.459 -0.0902  0.0824 -0.0687
 5190SOL    HW227207   4.572   3.526   3.354  1.0097  1.7715 -0.3977
 5191SOL     OW27208   3.580   4.129   8.214 -0.1731 -0.2969  0.2382
 5191SOL    HW127209   3.652   4.138   8.277  1.1180 -1.7541 -1.0152
 5191SOL    HW227210   3.507   4.102   8.269  1.2860  0.6486  2.6533
 5192SOL     OW27211   0.503   3.104   0.318 -0.5247 -0.4843 -0.1247
 5192SOL    HW127212   0.534   3.151   0.241 -1.2566  1.2595  0.6417
 5192SOL    HW227213   0.422   3.147   0.342 -0.1485 -0.4482  1.1034
 5193SOL     OW27214   2.674   1.645   1.398  0.2911  0.4092 -0.3743
 5193SOL    HW127215   2.668   1.550   1.392 -1.3507  0.5280 -0.6495
 5193SOL    HW227216   2.635   1.657   1.485 -1.6413 -3.2607 -0.7505
 5194SOL     OW27217   0.406   3.480   7.769 -0.0230  0.6333 -0.0202
 5194SOL    HW127218   0.454   3.397   7.768 -1.3137 -0.1209 -0.9898
 5194SOL    HW227219   0.366   3.475   7.682  0.0118  0.0070 -0.0021
 5195SOL     OW27220   0.218   4.557   3.094  0.1822  0.0920 -0.7095
 5195SOL    HW127221   0.308   4.576   3.122  1.0437 -3.2023 -1.2378
 5195SOL    HW227222   0.205   4.466   3.119 -0.4014  0.1506 -0.8029
 5196SOL     OW27223   2.623   0.670  11.746  0.3346 -0.4202  0.4453
 5196SOL    HW127224   2.718   0.669  11.754  0.2489  1.3056  1.7262
 5196SOL    HW227225   2.591   0.683  11.835 -3.3972  2.5663 -1.3028
 5197SOL     OW27226   0.745   2.669   3.489  0.3227  0.7081 -0.0583
 5197SOL    HW127227   0.815   2.635   3.433 -1.1729  0.4438 -1.7743
 5197SOL    HW227228   0.687   2.691   3.416  0.1779  3.3009  0.8593
 5198SOL     OW27229   0.224   0.606  17.437 -0.6269  0.2928  0.4002
 5198SOL    HW127230   0.260   0.581  17.352 -0.9916 -0.9993  0.6278
 5198SOL    HW227231   0.183   0.526  17.468  0.7655 -0.4607  0.3278
 5199SOL     OW27232   3.777   2.300   3.426  0.1870  0.0014  0.5875
 5199SOL    HW127233   3.866   2.268   3.418 -0.5516 -1.4160 -1.9248
 5199SOL    HW227234   3.728   2.234   3.377 -0.2085 -0.0993  1.1192
 5200SOL     OW27235   1.481   0.057  10.236 -0.5844 -0.2566  0.2411
 5200SOL    HW127236   1.447   0.140  10.204  0.5173  0.1412  0.0759
 5200SOL    HW227237   1.575   0.065  10.220 -0.6886  1.8062  0.6440
 5201SOL     OW27238   0.686   0.144   8.468  0.0223  0.2615  0.6648
 5201SOL    HW127239   0.643   0.061   8.489  1.3928 -0.4935  0.4637
 5201SOL    HW227240   0.777   0.129   8.493  0.1506  1.6814  1.0512
 5202SOL     OW27241   0.562   1.973   0.704 -0.4066  0.6200  0.0296
 5202SOL    HW127242   0.597   2.062   0.705  0.2580  0.3492  1.0968
 5202SOL    HW227243   0.626   1.925   0.651  0.0811 -1.8470  2.8256
 5203SOL     OW27244   2.825   3.328   8.388  0.3908 -0.7047  0.1159
 5203SOL    HW127245   2.774   3.263   8.435 -0.3968  0.4616  0.8885
 5203SOL    HW227246   2.910   3.285   8.398 -0.7623 -2.6694  1.2395
 5204SOL     OW27247   3.370   2.509   3.151 -0.0344 -0.7287 -0.2738
 5204SOL    HW127248   3.335   2.581   3.203 -2.4023 -1.9887 -0.1240
 5204SOL    HW227249   3.299   2.446   3.136  0.1870 -1.6882  2.6939
 5205SOL     OW27250   1.986   2.877  12.563  0.5875  0.7120  0.0685
 5205SOL    HW127251   2.011   2.959  12.520 -0.3179  0.3278 -1.1596
 5205SOL    HW227252   2.035   2.896  12.643  0.7008  2.9690 -0.5351
 5206SOL     OW27253   4.017   2.810  11.963 -0.1241  0.3811  0.2080
 5206SOL    HW127254   3.925   2.791  11.981  0.2284 -0.7015  0.9033
 5206SOL    HW227255   4.017   2.900  11.929 -2.8356  0.2848 -0.0268
 5207SOL     OW27256   4.286   0.815  15.071  0.0723  0.3761 -0.6064
 5207SOL    HW127257   4.370   0.846  15.104  0.2071  0.6539 -1.2171
 5207SOL    HW227258   4.286   0.872  14.995 -0.9390 -0.1458 -0.9974
 5208SOL     OW27259   4.361   3.454   6.388  0.6582 -0.0558 -0.0415
 5208SOL    HW127260   4.326   3.466   6.476 -1.8774 -0.0122 -1.0376
 5208SOL    HW227261   4.285   3.467   6.330  0.9381  2.9351  0.2596
 5209SOL     OW27262   0.132   3.595  17.168 -0.0565 -0.5982  0.7848
 5209SOL    HW127263   0.198   3.642  17.220  0.0049 -0.0279  0.1780
 5209SOL    HW227264   0.190   3.522  17.143  0.1197  0.5989 -2.2826
 5210SOL     OW27265   2.468   4.284  10.775 -0.3552  0.5696 -0.1315
 5210SOL    HW127266   2.500   4.245  10.694  1.9330  1.9488  0.1320
 5210SOL    HW227267   2.507   4.370  10.762 -0.0811  0.2564 -1.3967
 5211SOL     OW27268   4.666   1.266  17.071 -0.3211  0.8120  0.2591
 5211SOL    HW127269   4.663   1.176  17.103 -1.3462  1.1079  0.9993
 5211SOL    HW227270   4.714   1.316  17.137  1.0251  0.7402 -0.6646
 5212SOL     OW27271   2.964   1.556   9.406  0.5162  0.0970  0.4298
 5212SOL    HW127272   2.913   1.475   9.417  1.0663 -0.2862  0.1359
 5212SOL    HW227273   2.894   1.583   9.346  1.3153 -0.5147 -0.7662
 5213SOL     OW27274   3.782   4.360  11.139 -0.3008 -0.2760  0.1843
 5213SOL    HW127275   3.784   4.455  11.125 -3.3024 -0.3280 -0.4361
 5213SOL    HW227276   3.827   4.323  11.063  0.7645 -0.5240  0.9362
 5214SOL     OW27277   0.699   0.921   5.421 -0.0745 -0.3393  0.2272
 5214SOL    HW127278   0.608   0.950   5.421 -0.5234 -1.7383  0.9881
 5214SOL    HW227279   0.705   0.885   5.510  1.4674 -0.3901  0.0993
 5215SOL     OW27280   1.380   0.713   5.454 -0.3290 -0.7003 -0.3506
 5215SOL    HW127281   1.448   0.746   5.396 -0.9164 -0.7312 -1.0647
 5215SOL    HW227282   1.317   0.785   5.448 -0.1416 -0.4730  0.4073
 5216SOL     OW27283   1.729   1.253   2.314 -0.2122  0.1130  0.3935
 5216SOL    HW127284   1.710   1.302   2.234 -2.0727 -0.9061  0.2065
 5216SOL    HW227285   1.790   1.190   2.276 -0.9321 -0.8778  0.8796
 5217SOL     OW27286   4.239   3.923   8.821 -1.0462  0.4192 -0.2150
 5217SOL    HW127287   4.153   3.958   8.844 -0.7730  1.3622 -0.6593
 5217SOL    HW227288   4.266   3.958   8.736 -2.9072 -0.1036 -1.0063
 5218SOL     OW27289   2.971   0.863   8.849  0.2882  0.7864  0.6187
 5218SOL    HW127290   2.998   0.835   8.936 -0.4218  0.9457  0.8853
 5218SOL    HW227291   2.889   0.815   8.838  0.6857  0.1135  0.6228
 5219SOL     OW27292   0.801   1.285   1.415 -0.0706 -0.0787  0.2363
 5219SOL    HW127293   0.770   1.351   1.477 -1.7183  0.3830 -1.0853
 5219SOL    HW227294   0.874   1.328   1.372  1.0245 -1.7854  0.3869
 5220SOL     OW27295   3.852   2.106   4.322  0.0472  0.3020  0.1288
 5220SOL    HW127296   3.858   2.202   4.323  0.5550  0.2455  1.5036
 5220SOL    HW227297   3.803   2.105   4.239  0.2857  0.0492 -0.0077
 5221SOL     OW27298   2.871   1.300   7.247  0.1221  0.1920  0.2786
 5221SOL    HW127299   2.845   1.218   7.290 -2.5100  0.9504  0.1182
 5221SOL    HW227300   2.793   1.356   7.241 -0.9661 -1.4057 -0.4631
 5222SOL     OW27301   0.927   3.717  14.368 -0.3137  0.0381  0.6045
 5222SOL    HW127302   0.988   3.758  14.307 -0.0918 -1.8788 -0.4693
 5222SOL    HW227303   0.949   3.625  14.356  2.6212  0.8182  0.0648
 5223SOL     OW27304   2.628   0.587  15.525  0.3825  0.2554  0.0559
 5223SOL    HW127305   2.599   0.511  15.473  3.1033 -0.9890  0.3658
 5223SOL    HW227306   2.579   0.653  15.476 -0.6831 -0.4051  0.2087
 5224SOL     OW27307   2.415   0.138  13.107 -0.1508  0.3114  0.0844
 5224SOL    HW127308   2.352   0.107  13.173  0.1786 -0.5118  0.0034
 5224SOL    HW227309   2.372   0.144  13.022 -0.9866  1.1226  0.5569
 5225SOL     OW27310   2.397   3.998   6.738 -0.1849 -0.4178 -0.3705
 5225SOL    HW127311   2.419   3.931   6.674  0.1099 -1.7670  1.1552
 5225SOL    HW227312   2.314   3.981   6.783  0.1327 -0.3055  0.2607
 5226SOL     OW27313   1.351   3.265   6.087 -0.4033  0.0395 -0.4360
 5226SOL    HW127314   1.258   3.286   6.092 -0.6166 -0.5220 -2.0563
 5226SOL    HW227315   1.358   3.175   6.053  0.6556  0.2123 -0.6837
 5227SOL     OW27316   4.154   2.481   6.348  0.8742 -0.6202 -0.0925
 5227SOL    HW127317   4.094   2.450   6.280  0.6011  0.2039 -0.2265
 5227SOL    HW227318   4.166   2.397   6.392  1.1952 -0.0375  0.9569
 5228SOL     OW27319   3.117   4.195   8.099  0.0571  0.5057 -0.0946
 5228SOL    HW127320   3.176   4.122   8.115 -0.0925  0.5123  0.4725
 5228SOL    HW227321   3.062   4.139   8.044 -0.0128  2.7002 -2.2844
 5229SOL     OW27322   0.668   3.264  14.230  0.4091  0.3661 -0.0309
 5229SOL    HW127323   0.575   3.244  14.243  0.6692  0.1203  1.4466
 5229SOL    HW227324   0.655   3.346  14.276  1.5492  1.8790 -2.4059
 5230SOL     OW27325   3.890   0.567   2.522  0.4653 -0.1785 -0.7560
 5230SOL    HW127326   3.883   0.472   2.530 -3.5262  0.2289  0.4452
 5230SOL    HW227327   3.828   0.596   2.589  1.2899  1.9507 -0.8853
 5231SOL     OW27328   3.342   4.422   7.140  0.2028  0.6977  0.5348
 5231SOL    HW127329   3.375   4.341   7.179  0.8681  1.0753  0.7517
 5231SOL    HW227330   3.267   4.377   7.100  0.5869 -0.2334  0.8809
 5232SOL     OW27331   3.032   1.865   2.384 -0.2765  0.3359  0.3346
 5232SOL    HW127332   3.052   1.945   2.335  0.5901 -0.5565 -0.7588
 5232SOL    HW227333   3.062   1.885   2.473 -0.4943  0.4695  0.3773
 5233SOL     OW27334   0.742   1.514   9.420  0.5540 -0.2731  0.4254
 5233SOL    HW127335   0.685   1.437   9.423  0.9448 -0.5423  0.9164
 5233SOL    HW227336   0.814   1.480   9.367  3.9202 -0.5496  5.2707
 5234SOL     OW27337   3.575   2.936  12.222  0.1592 -0.0742 -0.4566
 5234SOL    HW127338   3.572   2.926  12.317 -2.2537 -1.4659 -0.6916
 5234SOL    HW227339   3.484   2.916  12.203 -0.1947  1.4699 -0.3331
 5235SOL     OW27340   3.867   1.616   7.673  0.1298  0.3323  0.1841
 5235SOL    HW127341   3.827   1.697   7.705  0.5266  0.3122  0.7114
 5235SOL    HW227342   3.896   1.642   7.585  2.6201 -3.4491 -0.1206
 5236SOL     OW27343   3.250   1.806  16.171  0.5813  0.1393 -0.1759
 5236SOL    HW127344   3.218   1.882  16.123  0.1761 -0.7289 -1.2771
 5236SOL    HW227345   3.166   1.761  16.175  0.9164 -0.2734  2.1981
 5237SOL     OW27346   3.051   3.059   4.464  0.1010  0.1101  0.3459
 5237SOL    HW127347   3.028   3.054   4.372 -0.4092  0.0053  0.4799
 5237SOL    HW227348   3.020   3.146   4.492  0.1371  0.5308 -0.9443
 5238SOL     OW27349   0.841   0.565   6.441 -0.7414 -0.1654 -0.2816
 5238SOL    HW127350   0.824   0.512   6.363 -0.8079 -0.1730 -0.2623
 5238SOL    HW227351   0.896   0.637   6.410 -0.1760 -0.1419  0.7646
 5239SOL     OW27352   4.002   3.958   4.245 -0.0146 -0.1807  0.2716
 5239SOL    HW127353   4.033   4.001   4.325  0.1650  1.3893 -0.6454
 5239SOL    HW227354   3.945   3.891   4.285 -1.0394  0.2413 -0.4975
 5240SOL     OW27355   3.601   1.849   6.637  0.0086  0.0108 -0.2047
 5240SOL    HW127356   3.545   1.778   6.605  0.8844 -0.9093  0.2787
 5240SOL    HW227357   3.660   1.847   6.562 -2.5059  0.7493 -2.1990
 5241SOL     OW27358   4.549   3.487  15.333 -0.2832 -0.0627 -0.1443
 5241SOL    HW127359   4.512   3.574  15.318  0.7563  0.4407  0.2214
 5241SOL    HW227360   4.590   3.462  15.251  1.1809  1.4941  0.1155
 5242SOL     OW27361   2.625   3.433  16.285 -0.3299 -0.0770 -0.0565
 5242SOL    HW127362   2.704   3.478  16.314 -0.4610  0.7018 -0.8909
 5242SOL    HW227363   2.567   3.447  16.359  1.3963  0.2791  1.2257
 5243SOL     OW27364   0.692   2.410   4.321  0.3524 -0.6439 -0.6520
 5243SOL    HW127365   0.752   2.396   4.395  0.5252  1.0057 -0.4762
 5243SOL    HW227366   0.608   2.376   4.350  1.0161 -0.4247  1.6006
 5244SOL     OW27367   3.919   3.928   9.239 -0.1964 -0.2177 -0.7327
 5244SOL    HW127368   3.846   3.985   9.262 -0.9596 -1.3956 -0.2261
 5244SOL    HW227369   3.892   3.850   9.288 -1.9047  1.5157  1.0765
 5245SOL     OW27370   1.991   3.529  11.172  0.8065  0.3502 -0.1014
 5245SOL    HW127371   1.973   3.446  11.217  0.3292 -0.6561 -2.1385
 5245SOL    HW227372   2.074   3.504  11.130  0.7660 -1.5909  0.9784
 5246SOL     OW27373   3.405   4.105   2.674 -0.0843 -0.1999  0.0916
 5246SOL    HW127374   3.498   4.108   2.693  0.1954  1.9073 -1.5622
 5246SOL    HW227375   3.371   4.106   2.764 -1.6544  0.4183 -0.4967
 5247SOL     OW27376   1.336   2.514   1.282  0.5266 -0.0256 -0.2441
 5247SOL    HW127377   1.414   2.568   1.289  1.0606 -0.5625 -2.0581
 5247SOL    HW227378   1.373   2.468   1.207 -1.6879 -0.7315 -0.8983
 5248SOL     OW27379   3.772   4.372   7.065  0.0212 -0.4815  0.2296
 5248SOL    HW127380   3.731   4.319   7.134 -0.1724 -0.1675  0.3582
 5248SOL    HW227381   3.823   4.304   7.021  0.7830  0.7159 -0.7231
 5249SOL     OW27382   4.336   1.273  16.973 -0.1292 -0.2323 -0.2467
 5249SOL    HW127383   4.323   1.220  17.052 -0.1672 -0.3772 -0.3492
 5249SOL    HW227384   4.335   1.209  16.901  1.9685 -0.8828  0.2986
 5250SOL     OW27385   2.229   4.197   5.762 -0.1546  0.7083  0.2453
 5250SOL    HW127386   2.275   4.279   5.742  1.6664 -0.3350  0.0783
 5250SOL    HW227387   2.303   4.149   5.799  1.5968  3.2657  0.0831
 5251SOL     OW27388   2.645   3.792   5.711  0.3830 -0.5113  0.3115
 5251SOL    HW127389   2.676   3.704   5.733 -2.5697 -0.9912  2.5176
 5251SOL    HW227390   2.710   3.838   5.764 -1.4344  1.3671  0.8946
 5252SOL     OW27391   4.601   3.880   7.415 -0.0904  0.2106  0.3040
 5252SOL    HW127392   4.509   3.858   7.399 -0.0226  0.8360 -0.9805
 5252SOL    HW227393   4.591   3.910   7.505 -0.5755 -0.5183  0.4933
 5253SOL     OW27394   4.172   2.174  15.121  0.3154  0.2995 -0.4397
 5253SOL    HW127395   4.242   2.115  15.093  0.2645 -0.5472  1.1674
 5253SOL    HW227396   4.156   2.221  15.039  0.5367  0.8029 -0.1927
 5254SOL     OW27397   2.046   3.619   9.104 -0.2448 -0.1241  0.1148
 5254SOL    HW127398   2.129   3.642   9.147  1.0616  0.2919 -2.6261
 5254SOL    HW227399   2.024   3.539   9.151 -0.6993 -0.1605 -0.1677
 5255SOL     OW27400   4.716   0.474  12.695  0.1916 -0.1164 -0.8566
 5255SOL    HW127401   0.005   0.475  12.602 -1.5566  1.2104 -1.3103
 5255SOL    HW227402   4.662   0.395  12.696 -0.1018  0.1084  1.1282
 5256SOL     OW27403   0.250   3.180   6.008  0.0672  0.0135  0.4297
 5256SOL    HW127404   0.327   3.195   6.061  0.9421  2.2881 -1.4746
 5256SOL    HW227405   0.269   3.241   5.936 -0.1971 -1.8314 -1.2088
 5257SOL     OW27406   4.028   0.753   5.420  0.0346 -0.1385  0.1238
 5257SOL    HW127407   4.061   0.756   5.330 -3.8070 -0.3158 -1.3076
 5257SOL    HW227408   3.961   0.822   5.414 -1.0440 -1.2393 -0.4455
 5258SOL     OW27409   4.584   0.207  16.268  0.7362 -0.2171  0.5446
 5258SOL    HW127410   4.492   0.212  16.245  0.8184  1.3966  0.5628
 5258SOL    HW227411   4.623   0.188  16.182  0.7844 -0.7170  0.6764
 5259SOL     OW27412   0.069   0.094   8.698 -0.6232  0.1542 -0.2287
 5259SOL    HW127413   0.029   0.010   8.675  2.0785 -1.2285  0.0449
 5259SOL    HW227414   0.143   0.104   8.638  1.1781  0.1907  1.9971
 5260SOL     OW27415   2.889   2.554   1.793 -0.4523  0.4958 -0.0631
 5260SOL    HW127416   2.932   2.478   1.754  1.8761  1.7746  0.0012
 5260SOL    HW227417   2.850   2.521   1.874 -0.6831 -4.5087 -2.1993
 5261SOL     OW27418   4.222   2.057  10.590 -0.0945  0.6478 -0.0410
 5261SOL    HW127419   4.232   2.043  10.684  2.7451  1.6645 -0.1875
 5261SOL    HW227420   4.167   2.134  10.580 -0.0868  0.8856  1.9054
 5262SOL     OW27421   1.816   2.726  15.905 -0.2590 -0.8339 -0.6531
 5262SOL    HW127422   1.724   2.749  15.917  0.4538  0.9953  1.2219
 5262SOL    HW227423   1.822   2.635  15.936  0.0471 -0.4664  0.3816
 5263SOL     OW27424   2.916   4.271   2.028 -0.6284 -0.0354  0.1009
 5263SOL    HW127425   2.850   4.338   2.009 -0.3209 -0.4959 -2.5613
 5263SOL    HW227426   2.897   4.235   2.115  1.1710  1.3558  1.0621
 5264SOL     OW27427   4.073   2.347   1.773  0.2370 -0.5821 -0.0328
 5264SOL    HW127428   4.155   2.368   1.818  0.2066 -0.1798 -0.1686
 5264SOL    HW227429   4.012   2.411   1.809  1.5405 -0.9370  2.8542
 5265SOL     OW27430   2.012   3.363   5.590  0.5271 -0.1183 -0.0303
 5265SOL    HW127431   1.960   3.339   5.667  1.9255  2.1630  1.6342
 5265SOL    HW227432   1.945   3.401   5.533 -0.5818 -0.2125  1.2091
 5266SOL     OW27433   3.209   3.728   6.173  0.4647  0.2420  0.3679
 5266SOL    HW127434   3.181   3.782   6.099  1.4941 -0.0130 -0.2041
 5266SOL    HW227435   3.178   3.778   6.249  0.9375  0.0196  0.7039
 5267SOL     OW27436   2.620   0.148   4.537  0.1991  0.2463  0.5048
 5267SOL    HW127437   2.575   0.109   4.462  0.9024  0.3845  0.0008
 5267SOL    HW227438   2.587   0.101   4.614  1.7437  0.6678  1.4354
 5268SOL     OW27439   0.429   3.601   3.721  0.0468 -0.3909  0.1772
 5268SOL    HW127440   0.368   3.656   3.670 -0.6295 -0.6598  0.6993
 5268SOL    HW227441   0.429   3.518   3.675 -1.9633 -0.1213 -0.3446
 5269SOL     OW27442   0.930   0.624  13.810  0.3627  0.5969  0.3048
 5269SOL    HW127443   1.023   0.648  13.812  0.8539 -1.1679 -1.8479
 5269SOL    HW227444   0.898   0.646  13.898 -1.7559 -1.9367  0.1477
 5270SOL     OW27445   1.484   3.820   1.275 -0.2321 -0.0246  0.0543
 5270SOL    HW127446   1.493   3.805   1.370  0.7603 -1.7804 -0.3213
 5270SOL    HW227447   1.575   3.832   1.249  1.1597 -0.8009  4.4778
 5271SOL     OW27448   3.025   0.055   6.112  0.1126 -0.1291 -0.4661
 5271SOL    HW127449   3.100   0.008   6.148 -1.8564 -2.3508  0.7295
 5271SOL    HW227450   3.046   0.146   6.128 -2.6407  0.3024  0.6854
 5272SOL     OW27451   2.177   1.953   5.792  0.4795  0.0010  0.2881
 5272SOL    HW127452   2.227   1.875   5.769  0.5806 -0.3878  1.8297
 5272SOL    HW227453   2.220   2.010   5.729  1.4575 -0.2475  0.7289
 5273SOL     OW27454   1.725   1.679   2.508  0.3057  0.1903 -0.1784
 5273SOL    HW127455   1.753   1.716   2.424 -1.6204 -2.1750 -1.8640
 5273SOL    HW227456   1.812   1.675   2.548 -0.2696 -1.7566  0.8673
 5274SOL     OW27457   3.236   1.430   4.330 -0.3318 -0.2152  0.3901
 5274SOL    HW127458   3.145   1.411   4.310  0.1296 -1.1756 -0.8026
 5274SOL    HW227459   3.265   1.353   4.281  0.7023  1.3826 -1.4960
 5275SOL     OW27460   0.781   3.295   6.184  0.2598 -0.0766  0.2646
 5275SOL    HW127461   0.771   3.287   6.279 -0.2195  0.1711  0.2378
 5275SOL    HW227462   0.750   3.208   6.162 -1.4186  0.3582  0.8474
 5276SOL     OW27463   2.350   4.725  11.889 -0.5879  0.7067 -0.1479
 5276SOL    HW127464   2.269   0.039  11.877 -0.4610  1.0869  0.6047
 5276SOL    HW227465   2.338   4.653  11.826  0.8059 -0.5005  0.9830
 5277SOL     OW27466   3.128   4.333   7.018 -0.1212 -0.1867  0.4572
 5277SOL    HW127467   3.104   4.250   6.977  1.2273 -0.5617  0.4251
 5277SOL    HW227468   3.061   4.394   6.986  0.8931 -0.3521 -1.9584
 5278SOL     OW27469   0.184   1.401   9.396 -0.3271 -0.2866  0.0685
 5278SOL    HW127470   0.129   1.480   9.402  0.2971  0.0118  1.6408
 5278SOL    HW227471   0.178   1.404   9.300 -1.0039  1.8872  0.1588
 5279SOL     OW27472   0.731   3.570   4.207  0.3240 -0.6732 -0.3287
 5279SOL    HW127473   0.688   3.541   4.126  1.2497 -4.3593  0.4765
 5279SOL    HW227474   0.822   3.543   4.197 -0.4270 -3.3981  0.1193
 5280SOL     OW27475   2.011   0.369  12.393 -0.2184  0.3078  0.0845
 5280SOL    HW127476   2.104   0.348  12.403 -0.1398  0.3668 -0.5255
 5280SOL    HW227477   1.988   0.362  12.300  0.0287  1.0010 -0.0326
 5281SOL     OW27478   2.844   4.661   7.215  0.1309 -0.2816  0.4405
 5281SOL    HW127479   2.850   4.709   7.298 -2.7794  1.8910 -0.5871
 5281SOL    HW227480   2.935   4.668   7.187  0.2293 -1.5462  0.4631
 5282SOL     OW27481   0.752   3.391  12.510 -0.2261 -0.3197 -0.4532
 5282SOL    HW127482   0.677   3.365  12.456 -0.3836  1.0332 -0.8918
 5282SOL    HW227483   0.820   3.330  12.481 -0.7044 -1.0870  0.0531
 5283SOL     OW27484   4.469   2.167  13.839 -0.0648  1.1214 -0.1982
 5283SOL    HW127485   4.520   2.093  13.806 -1.3688  1.3561 -2.7598
 5283SOL    HW227486   4.412   2.118  13.898  1.4911  0.4314  0.7125
 5284SOL     OW27487   3.557   2.690  10.428 -0.2023 -0.0197 -0.3825
 5284SOL    HW127488   3.635   2.706  10.480 -0.2434 -2.3328  0.4246
 5284SOL    HW227489   3.509   2.626  10.481  1.3008 -0.4539  0.4424
 5285SOL     OW27490   2.849   3.833   1.660 -0.1443 -0.2441 -0.0566
 5285SOL    HW127491   2.797   3.771   1.711  1.2472 -0.6951  0.8103
 5285SOL    HW227492   2.782   3.859   1.597  0.0514 -0.1927 -0.2434
 5286SOL     OW27493   4.369   3.892  12.286  0.5499 -0.1986  0.2535
 5286SOL    HW127494   4.439   3.828  12.275 -0.9640 -1.4741 -1.8136
 5286SOL    HW227495   4.354   3.877  12.380 -2.0728 -0.3751 -0.1850
 5287SOL     OW27496   0.101   3.195   3.393  0.3312  0.0450 -0.5203
 5287SOL    HW127497   0.145   3.116   3.423  0.1195  0.1103 -0.0436
 5287SOL    HW227498   0.085   3.233   3.480  0.3464  0.7819 -0.8380
 5288SOL     OW27499   4.261   2.137   4.748  0.6993  0.2293 -0.2015
 5288SOL    HW127500   4.318   2.157   4.822  0.0762  2.1000 -0.2402
 5288SOL    HW227501   4.304   2.183   4.676  0.4661  0.4232 -0.2185
 5289SOL     OW27502   1.157   2.666   3.057 -0.4938  0.2046  0.7145
 5289SOL    HW127503   1.149   2.571   3.059  2.1808 -0.0059  0.9953
 5289SOL    HW227504   1.100   2.687   3.131  1.5873 -1.4904  2.7870
 5290SOL     OW27505   1.625   0.097   4.044 -0.1359  0.0940 -0.4384
 5290SOL    HW127506   1.676   0.092   3.964  0.9647 -0.1278  0.2767
 5290SOL    HW227507   1.673   0.036   4.101 -0.0233 -0.6653 -1.3510
 5291SOL     OW27508   4.574   1.118  17.636 -0.2945 -0.0432  0.0782
 5291SOL    HW127509   4.563   1.144  17.727 -0.9958  2.8223 -0.8118
 5291SOL    HW227510   4.636   1.048  17.654  0.5685 -0.3102 -3.8339
 5292SOL     OW27511   2.719   3.328   2.179 -0.0172 -0.3010 -0.8386
 5292SOL    HW127512   2.698   3.242   2.141 -1.4080 -0.4206  0.1753
 5292SOL    HW227513   2.634   3.367   2.157  0.4448  1.7402  0.9946
 5293SOL     OW27514   4.456   3.091   6.501 -0.1181  0.4319  0.0437
 5293SOL    HW127515   4.546   3.124   6.495  0.1763  0.1940  3.0266
 5293SOL    HW227516   4.428   3.102   6.592 -1.2905 -0.1488 -0.2535
 5294SOL     OW27517   0.208   4.101  16.732  0.1008 -0.2135  0.2257
 5294SOL    HW127518   0.256   4.184  16.741  1.6355 -1.1014  0.3105
 5294SOL    HW227519   0.139   4.123  16.669  0.3237 -1.6572 -0.5189
 5295SOL     OW27520   0.682   3.941   7.794 -0.0817 -0.2012 -0.3142
 5295SOL    HW127521   0.596   3.967   7.829 -0.6922 -3.1857  0.3946
 5295SOL    HW227522   0.686   3.980   7.707 -1.3941 -0.5491 -0.5357
 5296SOL     OW27523   3.974   0.402   4.244 -0.1420 -0.9802  0.2533
 5296SOL    HW127524   3.944   0.372   4.330  2.5138 -2.1202  0.7888
 5296SOL    HW227525   3.890   0.404   4.198  0.2043  0.8154 -0.2960
 5297SOL     OW27526   1.386   3.073   7.551 -0.5779  0.0783  0.3297
 5297SOL    HW127527   1.337   2.995   7.576 -1.8361  1.5800  2.4397
 5297SOL    HW227528   1.325   3.136   7.588  1.5424  2.1425  0.3064
 5298SOL     OW27529   1.609   1.304   2.051 -0.4171 -0.2828 -0.0190
 5298SOL    HW127530   1.523   1.310   2.092 -0.3437  2.7213 -0.2508
 5298SOL    HW227531   1.587   1.245   1.979 -2.5163  1.0094 -0.4444
 5299SOL     OW27532   4.485   0.382   5.371  0.0074 -0.1367  0.2515
 5299SOL    HW127533   4.511   0.473   5.389 -0.6905  0.0035  0.5308
 5299SOL    HW227534   4.556   0.358   5.311  1.1464  0.3932  1.3661
 5300SOL     OW27535   1.322   2.804   1.562  0.4882 -0.3655 -0.1591
 5300SOL    HW127536   1.372   2.839   1.635  0.3334 -0.5624  0.0403
 5300SOL    HW227537   1.234   2.835   1.584  1.3863  0.2576  2.5126
 5301SOL     OW27538   1.343   2.034   4.137 -0.4795  0.0544 -0.0042
 5301SOL    HW127539   1.402   2.007   4.066  0.1679  0.3455  0.4233
 5301SOL    HW227540   1.403   2.015   4.209  0.3509  0.0443 -0.6945
 5302SOL     OW27541   3.813   4.437   8.142  0.0416  0.2734 -0.2599
 5302SOL    HW127542   3.771   4.401   8.064 -1.8092  0.1437  0.7870
 5302SOL    HW227543   3.901   4.399   8.140 -0.3437 -0.5111 -1.8491
 5303SOL     OW27544   3.650   0.283  12.362  0.5872 -0.2165 -0.3718
 5303SOL    HW127545   3.557   0.281  12.384  0.8417 -2.1807  0.5121
 5303SOL    HW227546   3.676   0.265  12.452 -3.4478 -1.3931  0.5651
 5304SOL     OW27547   3.309   4.063   2.136  0.4827  0.0036 -0.0521
 5304SOL    HW127548   3.282   4.152   2.160  0.5753 -0.3027  1.1963
 5304SOL    HW227549   3.232   4.014   2.167 -0.5067  1.4485 -0.2305
 5305SOL     OW27550   2.307   4.464   2.219  0.2791 -0.6074  0.0981
 5305SOL    HW127551   2.332   4.457   2.311  3.0454  0.8750 -0.5411
 5305SOL    HW227552   2.393   4.453   2.179  1.4102 -0.7070  2.5761
 5306SOL     OW27553   1.488   2.562   8.047  0.8455  0.0785  0.2227
 5306SOL    HW127554   1.478   2.555   8.142  2.1367  1.2170  0.4439
 5306SOL    HW227555   1.578   2.594   8.039  0.8914  0.3262  1.7398
 5307SOL     OW27556   1.405   0.722   2.805  0.2480 -0.3126 -0.1328
 5307SOL    HW127557   1.479   0.677   2.764  0.0978 -0.3355 -0.3767
 5307SOL    HW227558   1.391   0.794   2.743 -0.3960 -0.2333  0.1095
 5308SOL     OW27559   3.722   0.433  11.605  0.2220 -0.3851 -0.6176
 5308SOL    HW127560   3.746   0.434  11.698 -0.6111  0.2413 -0.4047
 5308SOL    HW227561   3.637   0.389  11.608  0.3524 -0.5689  0.2123
 5309SOL     OW27562   2.656   1.057   3.666  0.2950 -0.6897  0.5086
 5309SOL    HW127563   2.686   1.028   3.753  0.2326 -1.0987  0.3938
 5309SOL    HW227564   2.566   1.025   3.659  0.4824 -1.5108  1.8094
 5310SOL     OW27565   1.654   3.839   4.701 -0.1709  0.2553  0.4904
 5310SOL    HW127566   1.749   3.833   4.694 -0.0204  0.8081  2.1374
 5310SOL    HW227567   1.631   3.891   4.624  3.0103  1.9337  0.7042
 5311SOL     OW27568   0.452   1.956   6.850  0.1981  0.3383  0.3577
 5311SOL    HW127569   0.477   2.036   6.895 -0.9108  0.7752  0.2054
 5311SOL    HW227570   0.468   1.979   6.758  0.6668  1.3717  0.7041
 5312SOL     OW27571   0.228   3.919  13.898 -0.1395  0.5108 -0.1431
 5312SOL    HW127572   0.300   3.938  13.958 -0.2133  0.1427  0.0632
 5312SOL    HW227573   0.268   3.902  13.812 -1.6499 -1.6209 -0.4179
 5313SOL     OW27574   0.515   3.511   3.190  0.6660  0.0632  0.1644
 5313SOL    HW127575   0.485   3.452   3.121 -2.2769  0.9421  0.6567
 5313SOL    HW227576   0.584   3.562   3.147 -1.0240  1.4151 -0.9557
 5314SOL     OW27577   2.657   2.509   7.590 -0.2504  0.2615 -0.0207
 5314SOL    HW127578   2.743   2.506   7.550  0.3970 -2.4454  1.5704
 5314SOL    HW227579   2.609   2.543   7.515 -0.5987 -2.1414 -0.8764
 5315SOL     OW27580   4.701   3.940   6.890 -0.0253  0.8188 -0.3731
 5315SOL    HW127581   0.051   3.898   6.896  0.1066  0.9936 -1.1686
 5315SOL    HW227582   4.721   4.033   6.884 -0.6084  1.0218  0.7074
 5316SOL     OW27583   3.717   0.721   6.809  0.1922 -0.0108  0.2545
 5316SOL    HW127584   3.662   0.795   6.837  1.6826 -0.2839  3.8696
 5316SOL    HW227585   3.784   0.719   6.876 -0.7262  1.2884  1.2046
 5317SOL     OW27586   3.363   2.488   5.070  0.0122  0.5680 -0.5460
 5317SOL    HW127587   3.422   2.471   5.143  1.1506  0.3799 -1.5162
 5317SOL    HW227588   3.294   2.532   5.120 -1.3665  1.1456 -2.9430
 5318SOL     OW27589   3.749   1.213   3.010 -0.1098  0.3032 -0.4305
 5318SOL    HW127590   3.715   1.182   3.095 -0.2020  1.3317 -0.0927
 5318SOL    HW227591   3.670   1.218   2.956  0.6994  0.6367 -1.5629
 5319SOL     OW27592   1.528   2.589  12.403 -0.4928  0.0351 -0.1917
 5319SOL    HW127593   1.498   2.571  12.493  3.5474 -1.6948  0.7864
 5319SOL    HW227594   1.534   2.684  12.395  1.1657  0.0300  0.9519
 5320SOL     OW27595   2.783   3.234   7.590 -0.1286 -0.2094 -0.4376
 5320SOL    HW127596   2.855   3.297   7.584 -0.7487  0.3310 -2.1857
 5320SOL    HW227597   2.820   3.190   7.667 -2.6089  0.0059  0.8846
 5321SOL     OW27598   2.547   0.224   6.132  0.7723 -0.0010  0.2966
 5321SOL    HW127599   2.512   0.296   6.184  0.9589  1.8537 -2.1303
 5321SOL    HW227600   2.474   0.162   6.139 -0.0400  1.1826  2.3601
 5322SOL     OW27601   0.211   4.322   8.453 -0.0373 -0.8876 -0.3836
 5322SOL    HW127602   0.224   4.318   8.358  0.3822  1.3650 -0.4261
 5322SOL    HW227603   0.263   4.248   8.486  1.4926 -0.1925 -1.2321
 5323SOL     OW27604   2.312   4.227   8.681  0.4952 -0.2422  0.2091
 5323SOL    HW127605   2.235   4.241   8.625  1.3308 -0.1898 -0.9361
 5323SOL    HW227606   2.388   4.215   8.624  1.2434 -1.2506  1.4195
 5324SOL     OW27607   4.168   1.760   8.209 -0.1463 -0.7571 -0.3295
 5324SOL    HW127608   4.173   1.664   8.215 -1.9997 -0.8846 -0.7356
 5324SOL    HW227609   4.192   1.793   8.296 -0.1747  0.6639 -0.8584
 5325SOL     OW27610   3.330   3.744  16.468 -0.1194 -0.5412  0.4491
 5325SOL    HW127611   3.402   3.714  16.524 -1.7081 -1.2227  2.1203
 5325SOL    HW227612   3.354   3.832  16.438 -0.0870 -1.4606 -2.1872
 5326SOL     OW27613   1.533   0.665   2.037  0.1814 -0.5052  0.2796
 5326SOL    HW127614   1.459   0.700   2.086 -0.1152 -1.0709  0.2324
 5326SOL    HW227615   1.520   0.579   2.075  1.4349 -0.5761  0.5582
 5327SOL     OW27616   1.268   0.265   3.913 -0.5351  0.1543 -0.9383
 5327SOL    HW127617   1.342   0.322   3.894 -0.2410  0.5061  1.3544
 5327SOL    HW227618   1.201   0.326   3.945  0.5896  0.0213  1.6666
 5328SOL     OW27619   1.961   2.645   2.368  0.2968  0.1551  0.3267
 5328SOL    HW127620   1.898   2.572   2.372 -0.0990  0.4522 -0.4402
 5328SOL    HW227621   1.905   2.722   2.373  0.2134  0.0966  0.2986
 5329SOL     OW27622   3.373   1.462   6.373 -0.6145  0.2617  0.2854
 5329SOL    HW127623   3.302   1.415   6.328  0.8386 -2.2410  0.5916
 5329SOL    HW227624   3.446   1.421   6.326 -2.1783 -0.8327 -1.1918
 5330SOL     OW27625   2.223   4.226  15.318  0.3944 -0.7186 -0.0173
 5330SOL    HW127626   2.152   4.169  15.289  1.2411 -0.2081 -3.0254
 5330SOL    HW227627   2.298   4.168  15.311  0.7836 -0.1155 -0.7761
 5331SOL     OW27628   3.432   2.456  10.513 -0.0572  0.2732  0.0970
 5331SOL    HW127629   3.472   2.418  10.592 -3.2750 -2.3030  0.5066
 5331SOL    HW227630   3.426   2.383  10.451 -1.3534  2.6851 -2.6091
 5332SOL     OW27631   1.356   2.293   2.096 -0.1439 -0.0150 -0.4948
 5332SOL    HW127632   1.370   2.353   2.169 -3.6104  0.1987 -0.0093
 5332SOL    HW227633   1.395   2.346   2.026  1.7168 -0.3677  0.2750
 5333SOL     OW27634   4.351   2.568   2.083 -0.0851 -0.7388  0.0317
 5333SOL    HW127635   4.399   2.647   2.058 -0.6228 -1.0797 -2.0477
 5333SOL    HW227636   4.421   2.524   2.132  1.5458  1.2802 -0.5268
 5334SOL     OW27637   4.662   0.605   5.433  0.4718 -0.0118 -0.3915
 5334SOL    HW127638   0.009   0.562   5.414 -0.1147 -0.5490 -1.7456
 5334SOL    HW227639   4.684   0.681   5.379  1.3838  0.2679  0.3736
 5335SOL     OW27640   0.460   0.336   5.119 -0.6419 -0.3674 -0.3488
 5335SOL    HW127641   0.386   0.276   5.108 -0.0412 -0.3119 -4.4680
 5335SOL    HW227642   0.503   0.338   5.033 -0.5325  1.2139 -0.2564
 5336SOL     OW27643   3.855   1.786  11.752  0.1922  0.6222  0.1091
 5336SOL    HW127644   3.886   1.873  11.729  0.3785  0.9639  1.6727
 5336SOL    HW227645   3.885   1.733  11.679  2.4355  1.0042  0.7649
 5337SOL     OW27646   1.320   4.144  12.863  0.4304  0.3613  0.2671
 5337SOL    HW127647   1.388   4.209  12.879  0.9091 -0.2179  0.5758
 5337SOL    HW227648   1.253   4.169  12.926  0.6936  1.3933  0.1308
 5338SOL     OW27649   2.906   4.152  10.450  0.3247 -0.2314  0.2954
 5338SOL    HW127650   2.842   4.158  10.520  1.0893 -0.8059  1.0532
 5338SOL    HW227651   2.875   4.076  10.400 -0.0888  0.6838 -0.8492
 5339SOL     OW27652   4.665   0.339  10.242  0.1490  0.2981  0.5429
 5339SOL    HW127653   4.688   0.418  10.291  0.2447  0.2502  0.5753
 5339SOL    HW227654   4.607   0.303  10.308  0.0803 -0.4599  0.0676
 5340SOL     OW27655   1.345   1.297   5.638  0.4114 -0.2644  0.4808
 5340SOL    HW127656   1.315   1.206   5.638  1.8443 -0.7403 -1.3265
 5340SOL    HW227657   1.432   1.289   5.678  1.5637  0.7884 -1.8371
 5341SOL     OW27658   1.617   3.264   4.532  0.1663  0.6468 -0.3113
 5341SOL    HW127659   1.564   3.210   4.473 -1.3907 -0.2208  1.8660
 5341SOL    HW227660   1.585   3.349   4.502  0.9199  0.8118 -0.6529
 5342SOL     OW27661   4.191   3.183   1.564  0.6794  0.8383  0.5062
 5342SOL    HW127662   4.226   3.209   1.649  1.1338  2.0640 -0.0558
 5342SOL    HW227663   4.107   3.148   1.592  1.3846 -1.3142 -0.0396
 5343SOL     OW27664   2.946   4.715   0.172 -0.4282  0.3349  0.3008
 5343SOL    HW127665   2.962   4.664   0.252  1.6785  1.9519  0.8967
 5343SOL    HW227666   2.920   4.647   0.109  1.9601 -0.8449  0.5869
 5344SOL     OW27667   0.141   0.540   8.503  0.2700 -0.1175  0.5720
 5344SOL    HW127668   0.182   0.619   8.539  0.6936  0.1002 -0.3831
 5344SOL    HW227669   0.136   0.558   8.409  2.1818  0.0315  0.5002
 5345SOL     OW27670   0.639   0.399  15.197 -0.2831 -0.6294  0.1143
 5345SOL    HW127671   0.715   0.450  15.226 -0.1956  0.6340 -2.3922
 5345SOL    HW227672   0.635   0.421  15.104  0.1557  1.5031  0.5887
 5346SOL     OW27673   1.108   4.564   1.487  0.4625  0.1041 -0.4308
 5346SOL    HW127674   1.178   4.521   1.439  0.4852 -1.4430  0.9710
 5346SOL    HW227675   1.113   4.655   1.460  0.2607  0.5474  1.0094
 5347SOL     OW27676   1.612   1.751   7.902  0.2859  0.2374 -0.0830
 5347SOL    HW127677   1.598   1.672   7.954  0.3710 -0.0194 -0.4510
 5347SOL    HW227678   1.547   1.809   7.943 -0.1312  0.7283 -1.4237
 5348SOL     OW27679   3.930   0.264   4.863 -0.1552  0.6891  0.6952
 5348SOL    HW127680   3.860   0.233   4.806 -0.6389  0.1591  1.5746
 5348SOL    HW227681   3.940   0.181   4.910  1.4082 -0.9008 -2.4014
 5349SOL     OW27682   1.093   3.741  10.580 -0.7273  0.2839  0.6103
 5349SOL    HW127683   1.140   3.824  10.585 -0.2064 -0.0795  1.6898
 5349SOL    HW227684   1.075   3.714  10.670  1.4624 -1.5846  0.4966
 5350SOL     OW27685   4.022   1.038  12.686  0.3192  0.6144 -0.3230
 5350SOL    HW127686   4.010   0.944  12.671  0.5082  0.7555 -1.3348
 5350SOL    HW227687   4.117   1.049  12.697  0.3463  0.6173 -0.5489
 5351SOL     OW27688   3.531   2.382   2.558 -0.2854  0.0397  0.4248
 5351SOL    HW127689   3.490   2.457   2.601  1.6192  0.4991  1.4118
 5351SOL    HW227690   3.617   2.423   2.549 -0.5495  0.5982  0.4111
 5352SOL     OW27691   2.038   0.044   3.541  0.1405  0.1465 -0.1329
 5352SOL    HW127692   2.109   0.074   3.485 -0.9629 -1.8955 -2.6479
 5352SOL    HW227693   2.074   0.066   3.627 -0.4210 -0.7517  0.3295
 5353SOL     OW27694   2.609   2.858   3.410 -0.2346 -0.5762  0.1812
 5353SOL    HW127695   2.549   2.933   3.421 -0.4583 -0.4776 -1.7944
 5353SOL    HW227696   2.591   2.814   3.493 -2.0388 -0.1257  0.0431
 5354SOL     OW27697   3.421   1.460   9.085 -0.0841  0.4694 -0.2044
 5354SOL    HW127698   3.330   1.459   9.116 -0.7207  1.4928 -2.0262
 5354SOL    HW227699   3.430   1.554   9.066  0.1335  0.0711 -2.0386
 5355SOL     OW27700   0.230   1.547   9.166 -0.0734  0.0485 -0.8564
 5355SOL    HW127701   0.317   1.550   9.206 -0.7942  0.0432  0.6770
 5355SOL    HW227702   0.246   1.512   9.078  2.6643 -0.8852  0.0068
 5356SOL     OW27703   0.451   0.081   6.118 -0.0281  0.2911  0.3992
 5356SOL    HW127704   0.529   0.093   6.172  1.3407  0.4555 -1.5859
 5356SOL    HW227705   0.401   0.015   6.164  0.9639  0.2086  1.3562
 5357SOL     OW27706   4.526   3.232  10.348 -0.5532  0.0719  0.3292
 5357SOL    HW127707   4.591   3.301  10.361  2.2756 -2.7601  1.3636
 5357SOL    HW227708   4.580   3.161  10.312 -1.9087 -1.0866  0.6198
 5358SOL     OW27709   3.612   2.656   0.184  0.4649 -0.2259 -0.0708
 5358SOL    HW127710   3.638   2.722   0.120  0.3236  0.2446  0.3560
 5358SOL    HW227711   3.624   2.710   0.262  1.4315 -1.4219  0.5995
 5359SOL     OW27712   3.759   0.702   2.708  0.0898 -0.0288  0.0628
 5359SOL    HW127713   3.675   0.747   2.710  1.8109  3.2000  0.8329
 5359SOL    HW227714   3.763   0.685   2.802 -0.3900  3.6210  0.7657
 5360SOL     OW27715   4.212   3.437   8.801 -0.1853  0.3173  0.1131
 5360SOL    HW127716   4.299   3.474   8.813  0.4277 -1.5115  1.2091
 5360SOL    HW227717   4.231   3.345   8.818  0.8615  0.6163  0.5372
 5361SOL     OW27718   0.714   4.523   2.772 -0.5745  0.3580  0.0168
 5361SOL    HW127719   0.795   4.483   2.805 -1.0533 -1.4126 -0.9273
 5361SOL    HW227720   0.741   4.552   2.685 -0.1319 -0.5028 -0.1317
 5362SOL     OW27721   0.146   3.707   1.639  0.4843  0.0267 -0.0041
 5362SOL    HW127722   0.207   3.634   1.633 -0.0502 -0.4911  0.9692
 5362SOL    HW227723   0.174   3.750   1.558 -3.3608  0.4423 -1.0990
 5363SOL     OW27724   1.465   4.218  14.111  0.3323 -0.2751  0.5496
 5363SOL    HW127725   1.390   4.189  14.059  0.8487  2.1117 -1.5516
 5363SOL    HW227726   1.418   4.265  14.179  2.2450 -0.1778  1.7860
 5364SOL     OW27727   4.687   0.227  15.438 -0.0905 -0.8299  0.7440
 5364SOL    HW127728   4.595   0.207  15.449 -0.3182 -0.7620 -1.0640
 5364SOL    HW227729   4.684   0.226  15.342  2.4848 -0.0580  0.6388
 5365SOL     OW27730   3.942   4.512   2.458  0.1610 -0.1602  0.1805
 5365SOL    HW127731   3.895   4.572   2.400 -1.2067 -0.6573  0.7682
 5365SOL    HW227732   3.995   4.570   2.513 -1.1653  0.1891  1.0722
 5366SOL     OW27733   3.226   4.234   4.380 -0.0737  0.3877  0.2609
 5366SOL    HW127734   3.226   4.313   4.325 -0.9153 -0.3485 -0.8055
 5366SOL    HW227735   3.301   4.258   4.434 -0.4104 -0.5999  1.1619
 5367SOL     OW27736   0.073   0.884   3.132 -0.0594 -0.1804  0.1306
 5367SOL    HW127737   0.162   0.855   3.149  0.6497  1.3092 -1.1113
 5367SOL    HW227738   0.028   0.802   3.155 -2.5442  1.0762 -0.1925
 5368SOL     OW27739   0.082   2.413  14.894  0.1915  0.7373 -0.1641
 5368SOL    HW127740   0.057   2.426  14.803 -1.2847 -0.2542  0.1021
 5368SOL    HW227741   4.730   2.406  14.930  0.6068 -3.8963  0.0216
 5369SOL     OW27742   4.569   3.517   3.163 -0.2263  0.5128  0.0533
 5369SOL    HW127743   4.606   3.429   3.152  0.9794  0.7306  2.5027
 5369SOL    HW227744   4.506   3.516   3.091 -0.7880 -1.3699  0.5625
 5370SOL     OW27745   2.455   4.020   2.303  0.1552 -0.3550 -0.3156
 5370SOL    HW127746   2.459   4.037   2.397 -1.2010  1.0247 -0.4960
 5370SOL    HW227747   2.383   4.080   2.281  2.0965  1.7749 -0.8570
 5371SOL     OW27748   1.699   0.289  11.664  0.5888 -0.0991 -0.6174
 5371SOL    HW127749   1.688   0.340  11.744 -3.5113  0.8342 -1.8053
 5371SOL    HW227750   1.641   0.215  11.682 -0.6567  1.0506  0.0932
 5372SOL     OW27751   0.107   1.451   5.586  0.1430 -0.3341 -0.5914
 5372SOL    HW127752   0.160   1.489   5.656 -0.5963  1.2238 -0.8859
 5372SOL    HW227753   0.165   1.388   5.544  0.2467  0.8774 -2.2570
 5373SOL     OW27754   4.277   0.433   9.247  0.2014  0.1867 -0.0118
 5373SOL    HW127755   4.368   0.449   9.270  0.3088 -1.7013  0.8783
 5373SOL    HW227756   4.232   0.512   9.280  2.4821  1.7109 -0.5864
 5374SOL     OW27757   3.449   2.225  14.129 -0.3374  0.2457  0.1968
 5374SOL    HW127758   3.502   2.176  14.066  0.1526  0.9539  0.0537
 5374SOL    HW227759   3.526   2.237  14.185  0.2014  0.0940 -0.5110
 5375SOL     OW27760   3.885   1.144  16.960 -0.7791 -0.0341  0.3513
 5375SOL    HW127761   3.923   1.214  17.013 -1.6802  1.5085 -1.0264
 5375SOL    HW227762   3.959   1.084  16.950 -1.7420 -1.3031  0.8500
 5376SOL     OW27763   0.822   2.394   3.020 -0.1105  0.1258 -0.2261
 5376SOL    HW127764   0.917   2.393   3.033 -0.3943  0.5364  1.9483
 5376SOL    HW227765   0.812   2.301   3.042  1.6834 -0.3376 -1.3899
 5377SOL     OW27766   0.054   3.378   7.414  0.2243 -0.5144  0.1584
 5377SOL    HW127767   0.006   3.296   7.400 -1.4145  0.5992 -0.6597
 5377SOL    HW227768   0.120   3.371   7.345  1.1156  3.2392  0.6364
 5378SOL     OW27769   1.349   2.853  14.206  0.3165 -0.2925  0.7253
 5378SOL    HW127770   1.280   2.911  14.236  0.3237  1.1191 -1.9551
 5378SOL    HW227771   1.425   2.881  14.258  0.6285 -0.7138  0.5045
 5379SOL     OW27772   4.135   4.539   3.641 -0.4599  0.1431  0.3483
 5379SOL    HW127773   4.109   4.519   3.551  1.0733 -0.5456  0.0488
 5379SOL    HW227774   4.121   4.633   3.648  0.5695  0.2325  1.3053
 5380SOL     OW27775   2.490   0.420   2.693  0.4357 -0.8289 -0.2081
 5380SOL    HW127776   2.569   0.470   2.717  0.9835 -0.9912 -1.6611
 5380SOL    HW227777   2.476   0.438   2.600 -0.5538 -2.0012 -0.2858
 5381SOL     OW27778   3.135   1.652   1.306 -0.1219  0.4637 -0.7757
 5381SOL    HW127779   3.065   1.656   1.370 -0.8499  0.9684 -1.5883
 5381SOL    HW227780   3.159   1.560   1.312 -1.6460  0.1126 -0.2159
 5382SOL     OW27781   3.068   1.505   8.839 -0.2124 -0.1985  0.3422
 5382SOL    HW127782   3.085   1.499   8.744  0.9040  1.3159  0.4346
 5382SOL    HW227783   3.127   1.575   8.866  1.3612 -2.0243  1.6003
 5383SOL     OW27784   2.684   4.417   8.803 -0.4334 -0.4645  0.4124
 5383SOL    HW127785   2.761   4.362   8.789  0.9869  1.6681 -0.1580
 5383SOL    HW227786   2.683   4.416   8.898 -0.2308 -0.0995  0.4189
 5384SOL     OW27787   2.133   0.605   1.907  0.7191 -0.3642 -0.2079
 5384SOL    HW127788   2.213   0.560   1.879  0.6900 -0.0327 -0.8184
 5384SOL    HW227789   2.112   0.554   1.985  0.5884 -0.1834 -0.1232
 5385SOL     OW27790   3.886   4.280  10.893 -0.3143 -0.1900 -0.0074
 5385SOL    HW127791   3.936   4.291  10.812  0.7667 -0.5877  0.6097
 5385SOL    HW227792   3.926   4.200  10.926  0.8832  0.2499 -0.3930
 5386SOL     OW27793   2.689   2.474   4.057  0.4062  0.2821 -0.0395
 5386SOL    HW127794   2.613   2.502   4.108 -0.5807  0.3419 -1.5219
 5386SOL    HW227795   2.710   2.557   4.014 -3.9375  1.3118 -0.1914
 5387SOL     OW27796   2.356   2.756  14.629 -0.1394 -0.1896 -0.2874
 5387SOL    HW127797   2.292   2.735  14.561  0.2095 -2.3489  0.0429
 5387SOL    HW227798   2.431   2.708  14.593  0.1933  1.5882 -1.9198
 5388SOL     OW27799   1.261   1.940  11.189 -0.3972  0.4545  0.3575
 5388SOL    HW127800   1.288   1.908  11.103  0.1535  1.5330  0.1346
 5388SOL    HW227801   1.175   1.902  11.205 -0.0435 -0.4490  0.1166
 5389SOL     OW27802   3.131   3.716  15.060  0.3193 -0.4033 -0.0211
 5389SOL    HW127803   3.193   3.652  15.095  1.5886  1.7265  1.6545
 5389SOL    HW227804   3.191   3.768  15.007 -0.5813 -1.2436 -1.8801
 5390SOL     OW27805   2.694   4.594  16.921 -0.8264 -0.2174 -0.0156
 5390SOL    HW127806   2.696   4.500  16.904 -0.2637 -0.1620 -0.2704
 5390SOL    HW227807   2.600   4.611  16.927 -0.7847  0.1761 -0.4276
 5391SOL     OW27808   2.115   3.086  12.437 -0.0255 -0.6652  0.4154
 5391SOL    HW127809   2.153   3.090  12.350 -0.1818 -0.2809  0.3638
 5391SOL    HW227810   2.122   3.178  12.463 -1.5030 -1.0073  2.0617
 5392SOL     OW27811   3.913   3.240  11.327 -0.6301 -0.1487 -0.2610
 5392SOL    HW127812   3.990   3.296  11.320 -0.7054  0.1800  1.5070
 5392SOL    HW227813   3.859   3.268  11.253 -0.1454  0.0961 -0.5250
 5393SOL     OW27814   0.772   0.832   4.853  0.1778  0.1512 -1.1335
 5393SOL    HW127815   0.835   0.851   4.924  0.6304  0.3250 -1.5840
 5393SOL    HW227816   0.797   0.744   4.825  0.8716  0.5252 -1.6848
 5394SOL     OW27817   4.718   3.895   9.792 -0.5690  0.2279  0.0295
 5394SOL    HW127818   0.069   3.916   9.758  0.4944 -1.0800  1.9488
 5394SOL    HW227819   4.710   3.800   9.797  0.2756  0.2824  2.7056
 5395SOL     OW27820   1.193   0.864   8.876 -0.8459  0.6182 -0.2464
 5395SOL    HW127821   1.204   0.940   8.933  0.2924  0.5841 -0.4242
 5395SOL    HW227822   1.253   0.903   8.813  0.1345 -0.1352  0.2202
 5396SOL     OW27823   1.075   0.184   0.740 -0.0191  0.1105 -0.2205
 5396SOL    HW127824   1.075   0.173   0.835 -0.4719 -0.2341 -0.2589
 5396SOL    HW227825   1.123   0.264   0.718 -0.3338  0.8304  1.7574
 5397SOL     OW27826   0.364   2.118  17.071 -1.0793 -0.6803 -0.0834
 5397SOL    HW127827   0.380   2.071  16.990  0.6321 -1.2747  0.5894
 5397SOL    HW227828   0.450   2.149  17.100 -1.7536  1.3130 -0.2061
 5398SOL     OW27829   1.616   1.504   4.924 -0.9247  0.0617 -0.8074
 5398SOL    HW127830   1.641   1.507   4.831 -0.9895  1.9517 -0.7664
 5398SOL    HW227831   1.587   1.592   4.945  0.9695  0.3005  0.7974
 5399SOL     OW27832   1.328   0.584   2.376 -0.1849  0.3161  0.2419
 5399SOL    HW127833   1.402   0.531   2.406  0.8842  1.2763 -0.7025
 5399SOL    HW227834   1.254   0.524   2.365 -1.4049  1.1461  3.9562
 5400SOL     OW27835   0.052   2.045   2.904  0.0593  0.1493  0.0653
 5400SOL    HW127836   0.027   2.039   2.996  2.2914 -2.9161  0.4883
 5400SOL    HW227837   0.145   2.022   2.905 -0.1626 -0.5776  2.9163
 5401SOL     OW27838   1.281   4.380  15.132  0.2189  0.0651 -0.6434
 5401SOL    HW127839   1.300   4.311  15.069  0.8493  1.3001 -1.8323
 5401SOL    HW227840   1.363   4.431  15.130 -1.0227  1.8668 -4.7382
 5402SOL     OW27841   1.922   0.043   8.686  0.1930 -0.6157 -0.0378
 5402SOL    HW127842   1.950   0.129   8.718  0.1233 -0.9659  0.9589
 5402SOL    HW227843   1.904   4.735   8.769  0.6528  0.0335  0.4080
 5403SOL     OW27844   0.966   3.227   5.245 -0.1087 -0.9836  0.0623
 5403SOL    HW127845   1.042   3.268   5.285 -0.2651  0.2214 -0.8631
 5403SOL    HW227846   0.998   3.197   5.160 -1.6852 -0.9097 -0.5584
 5404SOL     OW27847   0.165   3.058   4.974 -0.6263  0.3994  1.0215
 5404SOL    HW127848   0.163   2.987   5.039 -2.0562 -0.8885 -0.4509
 5404SOL    HW227849   0.258   3.084   4.971 -0.8974  1.3091  0.5096
 5405SOL     OW27850   3.887   2.117  15.020  0.0064 -0.8407 -0.4232
 5405SOL    HW127851   3.835   2.040  15.042 -0.2769 -0.5807 -0.1822
 5405SOL    HW227852   3.817   2.177  14.994  1.4691  1.2191  0.2930
 5406SOL     OW27853   1.401   2.078   5.828 -0.3054 -0.5681  0.4473
 5406SOL    HW127854   1.436   2.066   5.740 -2.1859  1.3764 -0.5930
 5406SOL    HW227855   1.476   2.049   5.879  1.1136 -1.0772 -1.9111
 5407SOL     OW27856   2.646   0.021   2.270 -0.6055  0.1726 -0.1481
 5407SOL    HW127857   2.584   0.000   2.201  0.7198 -1.9196 -0.7121
 5407SOL    HW227858   2.630   4.681   2.326  2.1291 -0.0449  0.3499
 5408SOL     OW27859   3.031   2.424   5.529  0.4284 -0.3002 -0.4829
 5408SOL    HW127860   2.938   2.415   5.552  0.4576  2.7254  0.7782
 5408SOL    HW227861   3.035   2.515   5.498  0.6181 -0.1313  0.0447
 5409SOL     OW27862   0.173   1.678   6.443  0.2749  0.1209  0.4370
 5409SOL    HW127863   0.189   1.752   6.502 -0.3053  0.4045  0.2298
 5409SOL    HW227864   0.223   1.609   6.487  1.4819 -0.4840 -1.9046
 5410SOL     OW27865   2.817   3.302   9.039 -0.2528  0.3785 -0.1305
 5410SOL    HW127866   2.855   3.321   9.125 -2.7995 -1.5051  1.4190
 5410SOL    HW227867   2.755   3.231   9.059 -2.3920  2.4521  0.6025
 5411SOL     OW27868   1.584   2.822  12.797  0.2370  0.1821 -0.2159
 5411SOL    HW127869   1.666   2.832  12.846 -0.1211 -1.8694  0.8163
 5411SOL    HW227870   1.524   2.850  12.866 -1.5939 -0.8161 -1.4248
 5412SOL     OW27871   2.808   1.286   6.840  0.1838  0.0473 -0.1206
 5412SOL    HW127872   2.831   1.216   6.779  1.3923  0.9298 -0.6694
 5412SOL    HW227873   2.893   1.301   6.881 -0.7954 -1.3282  2.4424
 5413SOL     OW27874   1.056   2.707   3.293 -0.4009  0.7310 -0.5954
 5413SOL    HW127875   1.053   2.747   3.380  3.6861  0.2938 -0.2691
 5413SOL    HW227876   1.000   2.634   3.319  0.7189 -1.1897 -3.5595
 5414SOL     OW27877   0.812   4.437  17.272 -0.1474 -0.2315  0.1916
 5414SOL    HW127878   0.854   4.517  17.242  1.2008 -1.7219 -1.8577
 5414SOL    HW227879   0.741   4.480  17.321 -0.3764 -2.7395  2.0969
 5415SOL     OW27880   4.319   1.551   3.285  0.0301  0.2723  0.2804
 5415SOL    HW127881   4.408   1.571   3.256 -0.3523  2.6996  0.7847
 5415SOL    HW227882   4.341   1.469   3.330 -2.2555 -1.2725 -1.3939
 5416SOL     OW27883   2.470   3.459  16.516 -0.4418  0.1325  0.3023
 5416SOL    HW127884   2.451   3.553  16.508  0.1088  0.2006 -0.1773
 5416SOL    HW227885   2.418   3.431  16.591 -1.5904 -0.6073 -0.7445
 5417SOL     OW27886   3.626   3.809  10.330  0.4423  0.4222  0.0762
 5417SOL    HW127887   3.542   3.845  10.359  0.6686  3.5581 -3.1002
 5417SOL    HW227888   3.636   3.754  10.407 -4.4791 -0.5526  0.0500
 5418SOL     OW27889   2.320   3.760  13.818  0.3804 -0.3015  0.0158
 5418SOL    HW127890   2.391   3.737  13.758  0.4785  0.9262 -0.3519
 5418SOL    HW227891   2.350   3.850  13.837 -2.7417  0.4397  1.3695
 5419SOL     OW27892   0.219   3.958  10.789  0.4893 -0.1384  0.4819
 5419SOL    HW127893   0.314   3.951  10.797  0.3980 -1.5771  0.3421
 5419SOL    HW227894   0.205   4.000  10.874  2.1307  1.1773  0.1000
 5420SOL     OW27895   4.271   1.803   1.623  0.0863 -0.5586  0.4654
 5420SOL    HW127896   4.248   1.849   1.703  1.5162  1.7842 -0.4955
 5420SOL    HW227897   4.309   1.875   1.572  1.2281 -1.0106  0.6840
 5421SOL     OW27898   2.104   0.975   8.561  0.4420  0.4744  0.1586
 5421SOL    HW127899   2.075   0.886   8.543  1.1709  0.0753  0.9605
 5421SOL    HW227900   2.077   1.016   8.479  2.7410 -2.5585 -2.0916
 5422SOL     OW27901   4.229   2.216  16.477 -0.4929 -0.1934 -0.2806
 5422SOL    HW127902   4.251   2.309  16.475  0.5638 -0.4498 -0.2566
 5422SOL    HW227903   4.256   2.185  16.563 -0.3378  1.2339  0.1965
 5423SOL     OW27904   2.164   0.234   8.121  0.4695  0.5567 -0.0859
 5423SOL    HW127905   2.234   0.204   8.179 -0.3964 -1.0606  0.1011
 5423SOL    HW227906   2.149   0.320   8.159  1.1582  0.0345  1.3625
 5424SOL     OW27907   4.222   2.113  15.834 -0.9347  0.2530  0.0648
 5424SOL    HW127908   4.190   2.179  15.772  3.0655  1.8147 -0.2802
 5424SOL    HW227909   4.286   2.065  15.782  1.0790  4.5383 -1.3563
 5425SOL     OW27910   0.467   4.292   2.707 -0.0653  0.2230  0.2546
 5425SOL    HW127911   0.532   4.253   2.649 -1.1956 -0.7650 -0.3438
 5425SOL    HW227912   0.477   4.378   2.667  1.3111  1.2233  2.7164
 5426SOL     OW27913   1.889   0.897   4.283  0.5187  0.1664  0.2707
 5426SOL    HW127914   1.801   0.871   4.258  0.3460  1.1907 -0.2004
 5426SOL    HW227915   1.927   0.893   4.195  3.0763 -2.0553  1.4533
 5427SOL     OW27916   2.915   4.462   1.484 -0.3159  0.1801 -0.2625
 5427SOL    HW127917   2.937   4.415   1.404  1.2831 -0.1000  0.3395
 5427SOL    HW227918   2.996   4.503   1.515  0.3323 -1.2545 -0.0789
 5428SOL     OW27919   2.178   1.032   8.808 -0.3333 -0.0683 -0.0626
 5428SOL    HW127920   2.134   0.959   8.765 -0.0307 -0.3947  0.1775
 5428SOL    HW227921   2.153   1.091   8.737 -2.2940  1.1443  1.6548
 5429SOL     OW27922   2.885   3.388  14.215  0.2708  0.4785 -0.3487
 5429SOL    HW127923   2.839   3.459  14.261  1.0930  0.0170  1.2044
 5429SOL    HW227924   2.820   3.352  14.155 -1.0054 -0.2718  1.4610
 5430SOL     OW27925   3.204   0.149  13.180  0.1958 -0.3830  0.0931
 5430SOL    HW127926   3.126   0.203  13.192 -0.5074 -1.5235  0.6260
 5430SOL    HW227927   3.241   0.128  13.266  3.0139  1.3167 -0.7081
 5431SOL     OW27928   1.982   2.600   6.059  1.0015  0.2804  0.0769
 5431SOL    HW127929   1.970   2.587   5.965 -0.4089 -1.3826  0.4944
 5431SOL    HW227930   2.064   2.650   6.062  0.5317  0.9893  0.9242
 5432SOL     OW27931   1.619   4.637   5.303 -0.1421  0.0492  0.1107
 5432SOL    HW127932   1.601   4.583   5.380  1.6625  0.4906  0.8341
 5432SOL    HW227933   1.643   4.571   5.238 -2.2730  0.2642 -0.8921
 5433SOL     OW27934   2.164   4.601   7.840  0.0350 -0.3576  0.0928
 5433SOL    HW127935   2.138   4.693   7.844 -3.1600 -1.3192  2.0083
 5433SOL    HW227936   2.196   4.593   7.751  1.0602  0.1632  0.4192
 5434SOL     OW27937   2.398   1.531   8.543 -0.3192 -0.2281  0.2911
 5434SOL    HW127938   2.349   1.448   8.539 -0.9690  0.1525  0.4015
 5434SOL    HW227939   2.483   1.500   8.510 -0.7486 -2.3142  1.1078
 5435SOL     OW27940   1.031   4.395   3.831  0.2704 -0.0022  0.5041
 5435SOL    HW127941   1.086   4.432   3.761  0.5892  1.1119  1.3290
 5435SOL    HW227942   0.949   4.430   3.797  0.5386  2.4871  2.4369
 5436SOL     OW27943   4.718   3.169   2.164 -0.0526  0.1339  0.0365
 5436SOL    HW127944   4.673   3.182   2.247  0.5413 -1.8777  0.6619
 5436SOL    HW227945   4.735   3.252   2.118 -3.0557 -0.6553 -2.5305
 5437SOL     OW27946   3.082   3.482  10.476 -0.3606  0.0406 -0.0533
 5437SOL    HW127947   3.176   3.497  10.485 -0.5636  1.0050  0.4960
 5437SOL    HW227948   3.073   3.493  10.381  1.3975 -0.0152 -0.2220
 5438SOL     OW27949   2.993   4.420   2.323 -0.1024 -0.7123 -0.4765
 5438SOL    HW127950   2.961   4.330   2.314 -1.6114 -0.1652 -0.6316
 5438SOL    HW227951   3.087   4.406   2.332 -0.4826 -1.7644  1.7451
 5439SOL     OW27952   3.846   1.888   7.748  0.4978 -0.0625 -0.1415
 5439SOL    HW127953   3.857   1.971   7.700 -0.4259 -0.5151 -1.1188
 5439SOL    HW227954   3.757   1.866   7.724  0.2523 -0.0147  0.7290
 5440SOL     OW27955   3.100   3.577   1.927  0.5832  0.0602  0.4273
 5440SOL    HW127956   3.126   3.598   1.837  1.0905 -1.6990  0.1635
 5440SOL    HW227957   3.169   3.615   1.980 -0.0421  0.1648  1.1639
 5441SOL     OW27958   3.083   3.487  17.506  0.2590  0.1227 -0.3751
 5441SOL    HW127959   2.997   3.510  17.540  1.3934 -0.8265  3.0512
 5441SOL    HW227960   3.070   3.474  17.412 -0.9002 -2.9738  0.2218
 5442SOL     OW27961   3.712   3.201   6.598  0.0378  0.1411 -0.1626
 5442SOL    HW127962   3.745   3.117   6.631  0.7632  0.6430  0.3921
 5442SOL    HW227963   3.621   3.204   6.627  0.1211  1.3163 -0.0241
 5443SOL     OW27964   4.150   2.369  10.673 -0.4368  0.1890  0.5646
 5443SOL    HW127965   4.195   2.453  10.671 -1.4667  0.7731  2.0489
 5443SOL    HW227966   4.097   2.385  10.595 -1.3110  0.0161  1.1245
 5444SOL     OW27967   1.171   2.261   7.183  0.3867 -0.2296 -0.5856
 5444SOL    HW127968   1.229   2.286   7.255 -0.4227  1.2263 -0.4507
 5444SOL    HW227969   1.183   2.338   7.128 -1.5874  0.5220  0.0535
 5445SOL     OW27970   0.191   2.194   7.442  0.3413  0.8959  0.1271
 5445SOL    HW127971   0.127   2.252   7.403  0.0392  1.1380  0.9801
 5445SOL    HW227972   0.239   2.257   7.496  1.6592 -0.4831  0.5846
 5446SOL     OW27973   2.711   0.695   9.627  0.5075  0.7020 -0.2208
 5446SOL    HW127974   2.682   0.784   9.642 -2.4983 -0.2671 -0.3228
 5446SOL    HW227975   2.668   0.657   9.704 -0.6068  0.7337 -0.8339
 5447SOL     OW27976   0.709   4.517   7.881 -0.2379  0.2913  0.0011
 5447SOL    HW127977   0.755   4.512   7.797  0.2077  0.2864  0.2455
 5447SOL    HW227978   0.759   4.451   7.930  0.2839  0.6450 -0.0452
 5448SOL     OW27979   3.318   4.488   4.670 -0.0240  0.6024 -0.2050
 5448SOL    HW127980   3.230   4.526   4.672 -0.2675  0.0090  0.4488
 5448SOL    HW227981   3.314   4.430   4.745  2.3775  0.8116  0.0691
 5449SOL     OW27982   2.256   4.265   4.750 -0.2083  0.1488  0.2257
 5449SOL    HW127983   2.308   4.277   4.829 -0.7293 -2.7460  1.0299
 5449SOL    HW227984   2.268   4.347   4.703 -0.2533 -0.4224 -0.7899
 5450SOL     OW27985   2.241   3.151   8.530  0.3110  0.4668  0.0340
 5450SOL    HW127986   2.324   3.144   8.578  0.2754 -0.7143 -0.0834
 5450SOL    HW227987   2.269   3.231   8.486 -1.0742 -0.7158 -2.9993
 5451SOL     OW27988   2.679   0.980  14.560 -0.4026  0.1112 -0.0248
 5451SOL    HW127989   2.606   0.980  14.621  0.5054 -0.7089  1.0522
 5451SOL    HW227990   2.696   0.887  14.546  0.4412  0.0004  1.7761
 5452SOL     OW27991   1.370   3.751   4.140  0.2588  0.6334  0.1952
 5452SOL    HW127992   1.441   3.712   4.090 -0.1162 -0.1718  0.2822
 5452SOL    HW227993   1.340   3.813   4.073  2.9107  1.3149 -0.3526
 5453SOL     OW27994   0.753   2.067  13.160  0.3831  0.0343 -0.2889
 5453SOL    HW127995   0.849   2.067  13.157  0.3924 -0.3600  0.1424
 5453SOL    HW227996   0.739   2.160  13.179 -0.2678  0.3266 -2.1032
 5454SOL     OW27997   1.907   4.241   6.179  0.0745  0.0865  0.6910
 5454SOL    HW127998   1.972   4.219   6.112  0.3819 -2.6000  1.8284
 5454SOL    HW227999   1.823   4.224   6.138 -0.4025  0.8688  1.3593
 5455SOL     OW28000   2.161   0.399   6.086 -0.0189 -0.1573 -0.3183
 5455SOL    HW128001   2.190   0.410   5.996 -3.1052  1.4214 -1.1340
 5455SOL    HW228002   2.229   0.342   6.120 -1.0482 -1.0728  0.2117
 5456SOL     OW28003   4.171   3.571  15.353 -0.1156 -0.4634 -0.3882
 5456SOL    HW128004   4.229   3.533  15.420 -1.2660  1.5798  1.7849
 5456SOL    HW228005   4.230   3.626  15.303  2.2626 -0.5806  2.2725
 5457SOL     OW28006   2.345   3.771  15.795  0.6892  0.4011 -0.7678
 5457SOL    HW128007   2.296   3.689  15.799  1.2739  0.0671 -0.4924
 5457SOL    HW228008   2.429   3.748  15.754  0.5666 -3.0065  0.8865
 5458SOL     OW28009   2.612   4.057  16.974 -0.1818 -0.0640  0.2660
 5458SOL    HW128010   2.631   4.039  17.066 -2.5054 -0.7853  0.5978
 5458SOL    HW228011   2.617   4.153  16.975  3.7343 -0.2787  0.3373
 5459SOL     OW28012   1.356   2.193   3.531 -0.5113  0.8048  0.2673
 5459SOL    HW128013   1.359   2.111   3.482 -1.6292  0.2221  1.1876
 5459SOL    HW228014   1.448   2.195   3.558  0.0945  0.0387 -1.7437
 5460SOL     OW28015   4.165   0.028   1.473 -0.0736 -0.3883  0.3386
 5460SOL    HW128016   4.209   0.054   1.392  0.0161 -2.4712 -0.2911
 5460SOL    HW228017   4.176   4.669   1.469 -0.7665 -0.5168  1.4365
 5461SOL     OW28018   2.896   4.317   8.196  0.2324  0.0685 -0.3326
 5461SOL    HW128019   2.938   4.397   8.227 -0.2481  0.8473 -1.6789
 5461SOL    HW228020   2.977   4.269   8.177 -1.2531 -2.9914  1.0555
 5462SOL     OW28021   1.796   4.098   7.143  0.4885 -0.4782  0.1407
 5462SOL    HW128022   1.789   4.104   7.238 -0.8931 -0.8657  0.0593
 5462SOL    HW228023   1.705   4.086   7.117  0.8681  1.2025 -1.9297
 5463SOL     OW28024   1.091   3.065   2.367  0.2271 -0.7070  0.0325
 5463SOL    HW128025   1.091   3.045   2.460 -1.3000  1.3278  0.4565
 5463SOL    HW228026   1.000   3.094   2.362  0.2771 -0.0966  2.9859
 5464SOL     OW28027   2.322   0.677   9.593  0.7210 -0.2753 -0.0274
 5464SOL    HW128028   2.230   0.661   9.612  0.7209 -0.5317 -0.2438
 5464SOL    HW228029   2.353   0.731   9.666  1.4061  0.4587 -0.8613
 5465SOL     OW28030   1.116   3.207   4.396  0.0843  0.9851 -0.1224
 5465SOL    HW128031   1.119   3.134   4.458  1.4259  2.1424  1.1608
 5465SOL    HW228032   1.025   3.238   4.395  0.1430  1.1346 -1.4889
 5466SOL     OW28033   3.118   0.245   1.383 -0.1029 -0.0909 -0.6632
 5466SOL    HW128034   3.028   0.260   1.353 -0.4813 -2.1446 -0.5791
 5466SOL    HW228035   3.141   0.177   1.320 -0.0968 -2.2547  1.6537
 5467SOL     OW28036   2.606   0.191   9.202  0.2359  0.0380  0.0334
 5467SOL    HW128037   2.676   0.240   9.160 -0.3784 -0.2931 -1.3745
 5467SOL    HW228038   2.620   0.212   9.295  2.0584  0.4097 -0.3367
 5468SOL     OW28039   3.412   1.720   9.055 -0.3382 -0.1298  0.3254
 5468SOL    HW128040   3.320   1.740   9.037 -0.7345 -1.5053  0.7900
 5468SOL    HW228041   3.429   1.775   9.132  0.6452  0.6990 -0.4949
 5469SOL     OW28042   3.930   3.919   2.999  0.1024  0.3002 -0.1503
 5469SOL    HW128043   3.938   3.885   3.088 -0.4537  0.2375 -0.1236
 5469SOL    HW228044   3.839   3.946   3.009  0.0369 -0.1035  0.3438
 5470SOL     OW28045   2.882   4.161   2.328 -0.1417 -0.0923 -0.3416
 5470SOL    HW128046   2.847   4.083   2.285  0.6539  0.5977 -2.2754
 5470SOL    HW228047   2.894   4.140   2.421  2.4819 -2.8212 -1.2709
 5471SOL     OW28048   3.059   2.787   1.792 -0.0309 -0.5602 -0.3899
 5471SOL    HW128049   3.129   2.781   1.858  1.0730  1.7230 -1.3732
 5471SOL    HW228050   3.007   2.707   1.802 -1.0388  0.0986 -0.4233
 5472SOL     OW28051   4.468   2.826  17.544 -0.4497 -0.0866  0.0818
 5472SOL    HW128052   4.375   2.809  17.559 -0.5437  0.0161 -0.3965
 5472SOL    HW228053   4.501   2.750  17.593 -0.5694 -1.4469 -1.9297
 5473SOL     OW28054   3.364   2.169   2.523 -0.2708  0.3018  0.5035
 5473SOL    HW128055   3.441   2.154   2.577  0.3788  0.6324 -0.3405
 5473SOL    HW228056   3.364   2.264   2.510 -0.7395  0.0808 -1.0532
 5474SOL     OW28057   4.483   2.847  10.910 -0.0695  0.5023  0.0069
 5474SOL    HW128058   4.445   2.765  10.940 -1.1019  0.7796 -0.5483
 5474SOL    HW228059   4.411   2.909  10.927 -0.0488  0.7002 -0.6443
 5475SOL     OW28060   2.847   1.586   2.735 -0.3292  0.5174  0.3784
 5475SOL    HW128061   2.766   1.574   2.685 -1.0930  2.6228  1.1041
 5475SOL    HW228062   2.852   1.681   2.727  0.9933  0.0996 -3.7990
 5476SOL     OW28063   1.639   4.049   5.706 -0.2930  0.1319 -0.3058
 5476SOL    HW128064   1.678   4.082   5.624  0.2146  2.6772  0.9715
 5476SOL    HW228065   1.571   3.987   5.682 -0.7500  0.6142 -0.2478
 5477SOL     OW28066   0.129   3.586   6.970 -0.1586  0.6184 -0.1666
 5477SOL    HW128067   0.148   3.646   6.898 -0.7057 -0.2051 -0.9914
 5477SOL    HW228068   0.092   3.642   7.038  0.6494 -2.1096  2.5051
 5478SOL     OW28069   3.846   1.996  10.471 -0.6584  0.4117 -0.1046
 5478SOL    HW128070   3.791   1.976  10.395 -0.7759  1.4334 -0.2897
 5478SOL    HW228071   3.924   2.040  10.437  0.6977 -2.3938 -0.6012
 5479SOL     OW28072   4.608   2.247   5.453 -0.0902 -0.3161 -0.2397
 5479SOL    HW128073   4.633   2.329   5.410  0.5607  0.9964  2.5978
 5479SOL    HW228074   4.536   2.222   5.395  0.5183  0.1713 -1.2103
 5480SOL     OW28075   4.451   1.787   3.827  0.2834  0.2630  0.4097
 5480SOL    HW128076   4.433   1.873   3.865 -0.5322  0.5176 -0.5396
 5480SOL    HW228077   4.546   1.780   3.839  0.4666 -0.1717 -1.2081
 5481SOL     OW28078   0.783   0.378   4.488  0.1671  0.1310 -0.0056
 5481SOL    HW128079   0.701   0.330   4.476  0.4552  0.2376 -2.5187
 5481SOL    HW228080   0.744   0.460   4.520  0.4045 -0.5667  2.0454
 5482SOL     OW28081   2.022   3.698   3.517  0.7101 -0.1400  0.0111
 5482SOL    HW128082   1.955   3.758   3.483  0.3979 -0.2477  0.4275
 5482SOL    HW228083   2.070   3.677   3.437  0.7192  1.4412 -0.4040
 5483SOL     OW28084   2.975   3.060   6.444 -0.0395 -0.5427 -0.0841
 5483SOL    HW128085   2.880   3.049   6.439 -0.1250  0.8281 -1.3607
 5483SOL    HW228086   3.007   2.977   6.407  2.7215  1.3849 -1.9873
 5484SOL     OW28087   1.255   1.914   9.635  0.1783 -0.7900 -0.1924
 5484SOL    HW128088   1.278   1.978   9.567 -0.5301 -1.0885 -0.7178
 5484SOL    HW228089   1.252   1.968   9.714 -1.6625 -0.0933 -0.7350
 5485SOL     OW28090   2.524   1.795   2.523  0.1668 -0.7574  0.0482
 5485SOL    HW128091   2.470   1.735   2.472 -0.6352  1.1555 -1.3429
 5485SOL    HW228092   2.457   1.830   2.581  0.5613  1.9821 -1.1568
 5486SOL     OW28093   4.728   2.564  14.066  0.7559 -0.5143 -0.3712
 5486SOL    HW128094   4.640   2.584  14.036 -0.2068 -3.5228  0.3733
 5486SOL    HW228095   4.725   2.476  14.105 -0.7158  0.1367  0.9598
 5487SOL     OW28096   1.939   4.369   9.616 -0.5024  0.1861  0.4277
 5487SOL    HW128097   1.882   4.446   9.619 -0.1404  0.3623  2.9104
 5487SOL    HW228098   1.967   4.366   9.707 -1.8140 -0.0993  0.8205
 5488SOL     OW28099   1.352   3.336   8.077  0.3669  0.1608 -0.3005
 5488SOL    HW128100   1.411   3.325   8.151 -0.8351  0.5948  0.7181
 5488SOL    HW228101   1.270   3.373   8.110  0.1711 -0.9776  0.4768
 5489SOL     OW28102   3.471   0.985  10.876 -0.4795  0.0969  0.1170
 5489SOL    HW128103   3.561   0.967  10.904  0.4680 -0.9774 -3.7005
 5489SOL    HW228104   3.484   1.080  10.873  1.7678 -0.1637  1.6593
 5490SOL     OW28105   2.874   1.057   7.407  0.5582  0.4110 -0.2139
 5490SOL    HW128106   2.896   0.978   7.456  0.5592  1.2113  1.0689
 5490SOL    HW228107   2.954   1.085   7.363  1.8201 -1.3887  0.9326
 5491SOL     OW28108   3.131   0.589  15.932 -0.3906  0.0464  0.1048
 5491SOL    HW128109   3.061   0.637  15.975 -1.6116 -1.0486 -0.6228
 5491SOL    HW228110   3.080   0.541  15.866 -1.5609 -1.3784  2.0499
 5492SOL     OW28111   3.430   4.441   9.516  0.6420 -0.2231  0.0810
 5492SOL    HW128112   3.410   4.504   9.586  0.2303 -0.6923  0.3833
 5492SOL    HW228113   3.502   4.486   9.472 -0.6309  0.9247 -0.8207
 5493SOL     OW28114   3.642   0.423   1.028  0.1151 -0.2581 -0.1561
 5493SOL    HW128115   3.661   0.516   1.040  0.1289 -0.3494  0.5147
 5493SOL    HW228116   3.712   0.379   1.076 -0.4828 -0.7157  0.2962
 5494SOL     OW28117   2.002   0.611  10.046 -0.0316  0.0867  0.0670
 5494SOL    HW128118   2.057   0.627  10.123  2.4037 -1.0399 -1.4093
 5494SOL    HW228119   1.914   0.597  10.078  0.0043  0.8346  0.4782
 5495SOL     OW28120   1.382   3.749   8.082 -0.5895  0.4909 -0.5342
 5495SOL    HW128121   1.464   3.777   8.041 -0.9951  1.1884 -0.8888
 5495SOL    HW228122   1.407   3.701   8.160 -0.5186  0.3909 -0.6179
 5496SOL     OW28123   3.358   3.530  10.494 -0.0586 -0.0411 -0.0472
 5496SOL    HW128124   3.446   3.498  10.474  0.4647  1.2917  0.1529
 5496SOL    HW228125   3.379   3.602  10.554 -0.0359 -0.0479 -0.0470
 5497SOL     OW28126   3.822   3.560  12.089  0.3318 -0.8101 -0.1769
 5497SOL    HW128127   3.894   3.520  12.041  1.4416 -0.3825  1.1112
 5497SOL    HW228128   3.826   3.488  12.152  2.2715  0.9688  1.7637
 5498SOL     OW28129   2.399   4.401   3.108  0.3567 -0.3294  0.5119
 5498SOL    HW128130   2.427   4.464   3.042 -0.7666  0.9474  1.2392
 5498SOL    HW228131   2.327   4.354   3.067 -0.6627  1.5537  0.1425
 5499SOL     OW28132   2.986   0.248   0.121 -0.1455  0.4017 -0.7414
 5499SOL    HW128133   3.079   0.263   0.136  0.0287  3.1975 -4.5153
 5499SOL    HW228134   2.980   0.154   0.139  2.1745  0.7200  1.6402
 5500SOL     OW28135   2.242   0.650   1.010 -0.4283  0.0155 -0.0765
 5500SOL    HW128136   2.309   0.663   0.943 -1.6900  2.2317 -0.8995
 5500SOL    HW228137   2.256   0.558   1.033 -1.1317 -0.3387 -1.0633
 5501SOL     OW28138   4.151   2.707  14.473 -0.1114  0.1469 -0.6405
 5501SOL    HW128139   4.056   2.702  14.485 -0.1478 -1.2339 -1.4875
 5501SOL    HW228140   4.188   2.634  14.523  0.2341  1.5962  1.2075
 5502SOL     OW28141   3.429   0.268   0.689 -0.1463  0.4825 -0.2207
 5502SOL    HW128142   3.487   0.192   0.694 -1.1521 -0.4167 -1.8828
 5502SOL    HW228143   3.341   0.231   0.699  0.1688  0.5395  2.7322
 5503SOL     OW28144   0.166   2.798  15.365  0.5788 -0.3882  0.1876
 5503SOL    HW128145   0.118   2.770  15.443 -0.0552  3.8217  1.3247
 5503SOL    HW228146   0.214   2.872  15.404  4.0237 -2.1686 -0.7083
 5504SOL     OW28147   4.400   0.526  16.121  0.6301  0.6308 -0.0026
 5504SOL    HW128148   4.403   0.462  16.192 -2.0370 -0.7773 -1.1816
 5504SOL    HW228149   4.331   0.590  16.140  0.8539  1.6785 -2.7267
 5505SOL     OW28150   3.652   3.465   8.848 -0.6065  0.1089 -0.3653
 5505SOL    HW128151   3.717   3.444   8.782 -0.2573  2.2609 -0.7257
 5505SOL    HW228152   3.660   3.394   8.912  1.4034  1.3521  0.7803
 5506SOL     OW28153   1.474   2.551   8.360  0.1828  0.6581 -0.0328
 5506SOL    HW128154   1.550   2.608   8.350 -0.2138  1.2808  0.5306
 5506SOL    HW228155   1.464   2.553   8.455 -1.9586 -1.5057 -0.1988
 5507SOL     OW28156   0.589   0.170   7.169 -0.2239 -0.2283  0.5107
 5507SOL    HW128157   0.510   0.174   7.116 -1.3209 -0.5914  2.1426
 5507SOL    HW228158   0.641   0.239   7.127 -0.0805 -0.5537  0.1427
 5508SOL     OW28159   3.266   1.745   3.274 -0.4539 -0.3430  0.4057
 5508SOL    HW128160   3.280   1.700   3.191  0.1822 -1.0040  0.8706
 5508SOL    HW228161   3.272   1.836   3.244 -0.8312 -0.4737 -0.0632
 5509SOL     OW28162   1.437   1.878   0.302  0.0262 -0.2903 -0.1646
 5509SOL    HW128163   1.413   1.918   0.219  0.2155 -0.6779 -0.4032
 5509SOL    HW228164   1.533   1.886   0.301 -0.0954  1.0164 -0.6677
 5510SOL     OW28165   3.525   4.047   0.755 -0.7061  0.3073 -0.0830
 5510SOL    HW128166   3.540   4.122   0.812  2.3456  1.1707 -2.0326
 5510SOL    HW228167   3.520   3.972   0.815 -0.1553  0.6840  0.4402
 5511SOL     OW28168   1.547   1.136   5.398 -0.2347  0.3350  0.4810
 5511SOL    HW128169   1.464   1.140   5.350 -0.3910  3.3264  1.0012
 5511SOL    HW228170   1.518   1.183   5.477  2.2073  1.5039  0.6853
 5512SOL     OW28171   4.297   0.933  14.819  0.3629  0.0396  0.2285
 5512SOL    HW128172   4.333   0.860  14.770  0.2136 -0.9620  1.6250
 5512SOL    HW228173   4.256   0.992  14.756 -2.1418  0.0591  1.8532
 5513SOL     OW28174   1.476   3.820   5.671  0.1160 -0.6661  0.0075
 5513SOL    HW128175   1.448   3.791   5.758  0.1624  1.9586  0.9194
 5513SOL    HW228176   1.525   3.742   5.645  0.8695 -0.0938 -0.2850
 5514SOL     OW28177   0.460   2.497  11.595 -0.5482  0.0667 -0.3140
 5514SOL    HW128178   0.490   2.527  11.509  0.2526 -0.8256 -0.3453
 5514SOL    HW228179   0.375   2.455  11.582  0.8945 -2.4710 -1.5883
 5515SOL     OW28180   2.325   0.821   5.922 -0.4374  0.1723 -0.0242
 5515SOL    HW128181   2.367   0.902   5.952 -0.5526  0.3131 -0.2391
 5515SOL    HW228182   2.396   0.768   5.887  0.8560  1.5594  0.4767
 5516SOL     OW28183   3.395   2.061  11.681 -0.2318 -0.6302  0.0368
 5516SOL    HW128184   3.446   2.141  11.694 -0.1362 -0.5437 -0.8934
 5516SOL    HW228185   3.324   2.074  11.745  0.4606 -1.2190  0.9265
 5517SOL     OW28186   3.899   0.030  17.332  0.2935  0.4528 -0.0729
 5517SOL    HW128187   3.983   0.016  17.375 -0.6596  1.1671  2.0298
 5517SOL    HW228188   3.846   0.079  17.395 -0.1176  0.1452 -0.1815
 5518SOL     OW28189   4.263   1.617  16.639  0.2705 -0.3241 -0.2058
 5518SOL    HW128190   4.227   1.539  16.595 -2.2520  0.0095  1.2051
 5518SOL    HW228191   4.330   1.574  16.693 -0.1940 -0.6365  0.1284
 5519SOL     OW28192   2.674   4.359   0.449  0.2753  0.5759 -0.0922
 5519SOL    HW128193   2.634   4.373   0.535 -0.7565  3.4290 -1.0172
 5519SOL    HW228194   2.764   4.390   0.463  0.3658  1.3950 -2.5443
 5520SOL     OW28195   0.810   1.848   1.338  0.1883 -0.3421  0.3725
 5520SOL    HW128196   0.858   1.774   1.374  0.4088 -0.1471  0.4837
 5520SOL    HW228197   0.732   1.857   1.392 -0.2631  0.5409 -0.4366
 5521SOL     OW28198   1.187   2.090   8.534  0.6411 -0.0810 -0.3298
 5521SOL    HW128199   1.143   2.161   8.489 -0.4360 -0.7919 -0.4130
 5521SOL    HW228200   1.263   2.146   8.549  1.5584 -2.0165  2.3892
 5522SOL     OW28201   4.601   0.696   7.283 -0.0525  0.2521 -0.4294
 5522SOL    HW128202   4.542   0.702   7.207 -0.5342  2.0853  0.0983
 5522SOL    HW228203   4.653   0.776   7.278  0.7763 -0.2787 -0.2651
 5523SOL     OW28204   0.436   1.700   1.853 -0.4921  0.2019 -0.2846
 5523SOL    HW128205   0.460   1.649   1.931  0.7491  1.9445  0.4554
 5523SOL    HW228206   0.494   1.652   1.793  1.5697  1.0141  1.0466
 5524SOL     OW28207   3.102   0.009   3.790  0.6377 -0.3938 -0.3283
 5524SOL    HW128208   3.178   4.689   3.777  0.8264 -0.0308 -0.7997
 5524SOL    HW228209   3.031   4.686   3.813  0.6037  0.4291  1.6771
 5525SOL     OW28210   0.045   1.350   3.242  0.0909  0.3984 -0.2474
 5525SOL    HW128211   0.035   1.295   3.164 -0.5918  1.5920 -1.0145
 5525SOL    HW228212   4.730   1.303   3.307 -1.2641 -0.2322 -1.8040
 5526SOL     OW28213   0.035   3.405   0.377  0.2199  0.1154 -0.2360
 5526SOL    HW128214   4.729   3.485   0.407 -0.9655  0.5143 -2.9831
 5526SOL    HW228215   4.696   3.346   0.384 -2.4042  3.4675 -0.1770
 5527SOL     OW28216   2.971   2.917  17.619 -0.7087  0.3030 -0.1391
 5527SOL    HW128217   3.037   2.947  17.680 -0.1042 -0.9915 -0.1676
 5527SOL    HW228218   2.971   2.822  17.631 -2.0711  0.3441  0.2975
 5528SOL     OW28219   2.315   3.177   2.682 -0.0465  0.1696 -0.1476
 5528SOL    HW128220   2.314   3.210   2.592  2.0165  2.1276  0.5489
 5528SOL    HW228221   2.247   3.230   2.724 -0.6776  0.5242 -1.6023
 5529SOL     OW28222   3.433   3.501   4.972  0.5227  0.1562  0.5281
 5529SOL    HW128223   3.514   3.510   5.022  0.0931  0.7625  1.1158
 5529SOL    HW228224   3.414   3.592   4.950  0.8888 -0.3210 -1.7570
 5530SOL     OW28225   4.409   3.516   6.928 -0.0031 -0.0314  0.7679
 5530SOL    HW128226   4.496   3.549   6.905 -0.5737  0.1117 -1.1955
 5530SOL    HW228227   4.405   3.522   7.024  1.3114  0.0382  0.8201
 5531SOL     OW28228   1.170   4.559   3.689 -0.2366 -0.3992  0.0591
 5531SOL    HW128229   1.182   4.587   3.598  0.4079  0.8437  0.5217
 5531SOL    HW228230   1.212   4.627   3.742  2.4291 -1.9471 -0.0805
 5532SOL     OW28231   1.053   2.892   8.628  0.4763  0.4311  1.1579
 5532SOL    HW128232   0.964   2.912   8.600  1.2021  1.3467 -0.5122
 5532SOL    HW228233   1.040   2.797   8.618  2.0893  0.1537  1.6878
 5533SOL     OW28234   4.398   1.694   9.231  0.2271  0.0130 -0.1570
 5533SOL    HW128235   4.309   1.719   9.256  0.6750  0.2107  1.2284
 5533SOL    HW228236   4.395   1.600   9.247 -1.0302  0.2256  0.9175
 5534SOL     OW28237   3.683   0.080   7.024  0.2822 -0.4965 -0.0525
 5534SOL    HW128238   3.765   0.119   6.992 -1.1022  0.2523 -2.6676
 5534SOL    HW228239   3.709   0.031   7.102 -0.4106  1.8021  1.6195
 5535SOL     OW28240   3.984   1.485   6.883  0.1508 -0.6735  0.3377
 5535SOL    HW128241   3.894   1.466   6.908 -0.9683  0.4541 -2.7496
 5535SOL    HW228242   4.009   1.511   6.971 -0.9669 -0.3038  0.5492
 5536SOL     OW28243   0.024   0.304  16.468 -0.1272 -0.1150 -0.2869
 5536SOL    HW128244   0.068   0.219  16.472  0.8124  0.3927  0.4199
 5536SOL    HW228245   4.705   0.289  16.392 -0.3867  0.8838 -0.2965
 5537SOL     OW28246   4.077   1.942  17.067  0.3651 -0.2152 -0.2090
 5537SOL    HW128247   4.072   1.924  17.161 -4.2598  0.2674 -0.3812
 5537SOL    HW228248   4.057   2.034  17.084  0.9878 -0.4947  1.9938
 5538SOL     OW28249   1.521   3.555   5.553  0.1641  0.2055 -0.2267
 5538SOL    HW128250   1.486   3.547   5.641 -2.2426 -2.1090 -1.3782
 5538SOL    HW228251   1.445   3.588   5.505  0.0379  0.3035  0.0454
 5539SOL     OW28252   4.732   3.398   8.549 -0.1556  0.1145 -0.0870
 5539SOL    HW128253   4.687   3.447   8.481  3.0530 -0.3491 -2.5810
 5539SOL    HW228254   0.086   3.411   8.518 -0.4543  1.2180 -0.4619
 5540SOL     OW28255   3.470   1.164   5.442 -0.0460  0.4699 -0.3622
 5540SOL    HW128256   3.406   1.099   5.412  1.4097 -0.4146 -1.5528
 5540SOL    HW228257   3.418   1.243   5.449 -1.0033 -0.4182  2.5830
 5541SOL     OW28258   2.038   4.500   2.074  0.8300 -0.3093 -0.0640
 5541SOL    HW128259   2.125   4.462   2.088  0.2694 -0.6281  2.6044
 5541SOL    HW228260   2.011   4.533   2.160 -0.2924 -0.2607 -0.4377
 5542SOL     OW28261   3.050   0.091  15.224  0.3851  0.2661 -0.5070
 5542SOL    HW128262   3.121   0.036  15.191  1.6923  1.3457  0.5345
 5542SOL    HW228263   3.073   0.173  15.180  0.5164  0.2914 -0.3901
 5543SOL     OW28264   1.075   4.403   4.130  0.7226 -0.0571 -0.0176
 5543SOL    HW128265   0.996   4.417   4.184  2.1853  2.0415  1.5682
 5543SOL    HW228266   1.046   4.408   4.039 -0.8928 -1.3190  0.4279
 5544SOL     OW28267   4.584   2.607   8.620  0.1686 -0.5019  0.5675
 5544SOL    HW128268   4.610   2.648   8.703  1.9423  1.5826 -0.9999
 5544SOL    HW228269   4.571   2.516   8.647  0.6277 -0.4863  0.8439
 5545SOL     OW28270   4.169   4.486   1.473  1.1708 -0.5453  1.1592
 5545SOL    HW128271   4.100   4.433   1.431 -1.0263  0.8677  2.9579
 5545SOL    HW228272   4.142   4.485   1.565 -0.3750  0.6884  0.7272
 5546SOL     OW28273   4.371   4.328   9.416 -0.3147  0.2638 -0.4170
 5546SOL    HW128274   4.462   4.353   9.433  0.0066 -1.7907  0.9436
 5546SOL    HW228275   4.362   4.273   9.495 -1.9817  3.2867  1.4968
 5547SOL     OW28276   4.314   0.923  16.362 -0.2298  0.2580 -0.2787
 5547SOL    HW128277   4.332   0.830  16.378 -0.7960  0.2471  0.2820
 5547SOL    HW228278   4.279   0.906  16.274  1.3894 -2.2601 -0.4483
 5548SOL     OW28279   4.543   1.061  15.528 -0.3741  0.3626  0.5367
 5548SOL    HW128280   4.531   1.155  15.536  0.0936  0.6818 -2.4496
 5548SOL    HW228281   4.610   1.057  15.459 -0.6691  0.4678  0.2421
 5549SOL     OW28282   0.384   3.822   4.332 -0.0826 -0.3201 -0.5928
 5549SOL    HW128283   0.408   3.812   4.239  0.3160  0.4808 -0.5797
 5549SOL    HW228284   0.448   3.760   4.369 -0.3413  0.8840  1.8357
 5550SOL     OW28285   4.027   2.252   3.305 -0.6958 -0.0947 -0.4995
 5550SOL    HW128286   4.067   2.315   3.244 -0.4915 -0.8791 -1.1699
 5550SOL    HW228287   4.016   2.174   3.250 -0.8239  0.1560 -0.8299
 5551SOL     OW28288   3.524   1.386   8.794 -0.6370  0.4293 -0.4254
 5551SOL    HW128289   3.472   1.437   8.731 -0.5472  1.9749  0.7483
 5551SOL    HW228290   3.501   1.426   8.878 -0.9877 -1.6808  0.4808
 5552SOL     OW28291   0.131   4.153   9.183 -0.3234 -0.0873 -0.2818
 5552SOL    HW128292   0.201   4.089   9.170  0.4212  0.4088  1.2154
 5552SOL    HW228293   0.067   4.101   9.231  0.7380 -2.4849 -1.4648
 5553SOL     OW28294   0.801   3.804   9.322 -0.2412 -0.1268 -0.2327
 5553SOL    HW128295   0.867   3.852   9.373 -1.0258  1.2145 -0.4666
 5553SOL    HW228296   0.837   3.716   9.311 -3.3184 -1.1246 -2.2474
 5554SOL     OW28297   4.522   3.845   2.330 -0.1249  0.6376 -0.2986
 5554SOL    HW128298   4.594   3.907   2.322  0.5868 -0.2626 -0.9268
 5554SOL    HW228299   4.461   3.886   2.391 -0.4745 -0.3120 -0.0115
 5555SOL     OW28300   4.332   4.477  16.790 -0.0472  0.3315  0.4745
 5555SOL    HW128301   4.252   4.432  16.765 -0.2474 -0.2830  2.2349
 5555SOL    HW228302   4.351   4.417  16.862  0.1352  0.0673  0.2025
 5556SOL     OW28303   0.602   1.819  13.093 -0.3870  0.2622 -0.7707
 5556SOL    HW128304   0.580   1.791  13.004 -1.3091 -1.0256 -0.1452
 5556SOL    HW228305   0.676   1.875  13.068 -1.2564  2.0409  0.6437
 5557SOL     OW28306   4.352   1.827   6.085  0.2438 -0.2229  0.3176
 5557SOL    HW128307   4.275   1.781   6.119 -0.0416 -0.1391 -0.2084
 5557SOL    HW228308   4.315   1.880   6.014 -0.1162 -0.4890  0.3065
 5558SOL     OW28309   2.158   0.567  16.933  0.0480  0.1374 -0.1590
 5558SOL    HW128310   2.195   0.621  16.863  1.2058 -1.1726 -0.5485
 5558SOL    HW228311   2.226   0.501  16.943 -0.2344 -0.2702 -0.8823
 5559SOL     OW28312   4.686   1.917   5.776 -0.3843 -0.1821 -0.3340
 5559SOL    HW128313   4.614   1.973   5.805  1.5808  2.1239  0.1195
 5559SOL    HW228314   4.709   1.877   5.860  0.9699 -0.6627 -0.9281
 5560SOL     OW28315   2.204   2.804  12.745 -0.7607  0.0582 -0.1193
 5560SOL    HW128316   2.276   2.843  12.794 -1.2237  1.1622 -0.3171
 5560SOL    HW228317   2.137   2.797  12.813 -0.2709  0.1119  0.3678
 5561SOL     OW28318   4.280   2.212   1.389  0.2391  0.3088  0.3082
 5561SOL    HW128319   4.316   2.230   1.302 -0.7131 -0.9244 -0.3369
 5561SOL    HW228320   4.362   2.186   1.431  0.3860  1.9547  1.0628
 5562SOL     OW28321   0.611   4.620   8.538 -0.9378  0.9357  0.1389
 5562SOL    HW128322   0.518   4.619   8.562 -0.8563 -0.6904  0.3935
 5562SOL    HW228323   0.646   4.577   8.616 -0.6403 -0.6682 -0.8803
 5563SOL     OW28324   0.037   1.381   4.317 -0.6438 -1.1986 -0.2384
 5563SOL    HW128325   0.132   1.370   4.330 -0.2761  0.7486 -1.4208
 5563SOL    HW228326   4.733   1.314   4.373  2.5077 -2.1835  0.8625
 5564SOL     OW28327   2.982   3.328  12.271 -0.6066 -0.3127  0.4032
 5564SOL    HW128328   2.955   3.415  12.244  1.3718  0.5008  1.0430
 5564SOL    HW228329   2.928   3.271  12.216 -0.5370  0.3207 -0.3158
 5565SOL     OW28330   0.335   1.627   8.629  0.2835  0.0630  0.3207
 5565SOL    HW128331   0.293   1.697   8.580  1.2592 -0.1157 -0.7704
 5565SOL    HW228332   0.287   1.559   8.582  1.6334 -1.1739  0.7410
 5566SOL     OW28333   2.830   0.576  15.756 -0.0444  0.0896  0.2959
 5566SOL    HW128334   2.827   0.672  15.756 -0.0350  0.0948 -0.7173
 5566SOL    HW228335   2.776   0.565  15.677  3.0070 -2.4552 -1.4257
 5567SOL     OW28336   1.968   0.755   1.357  0.2445  0.1636  0.1745
 5567SOL    HW128337   1.971   0.769   1.262 -0.4135  2.0588  0.4220
 5567SOL    HW228338   2.058   0.737   1.382  0.0112 -0.5971  0.4829
 5568SOL     OW28339   3.618   4.416   4.905 -0.4586  0.1744  0.8883
 5568SOL    HW128340   3.670   4.483   4.950 -0.9671  0.6929  0.7148
 5568SOL    HW228341   3.683   4.347   4.897  1.0246  1.9777 -2.8673
 5569SOL     OW28342   4.294   1.924  12.878 -0.6198 -0.1273 -0.8172
 5569SOL    HW128343   4.351   1.992  12.915 -0.9792  1.0537 -2.4367
 5569SOL    HW228344   4.303   1.855  12.943  2.1671 -0.0207 -1.0842
 5570SOL     OW28345   4.077   4.117   6.028  0.0076  0.4089 -0.7718
 5570SOL    HW128346   4.144   4.073   5.975 -0.4814  0.1777 -1.1984
 5570SOL    HW228347   4.001   4.089   5.978 -0.7371  0.1151  0.5302
 5571SOL     OW28348   3.620   3.513   3.956 -0.2628  0.2213 -0.0616
 5571SOL    HW128349   3.524   3.515   3.962 -0.3168  0.2696 -0.9558
 5571SOL    HW228350   3.642   3.488   4.045  0.3506  2.2363  0.3677
 5572SOL     OW28351   2.785   1.566  10.059  0.3599 -0.0331 -0.0321
 5572SOL    HW128352   2.713   1.622  10.090  0.4229  0.1939 -0.2967
 5572SOL    HW228353   2.859   1.579  10.119  0.9909  1.8538 -1.2224
 5573SOL     OW28354   1.317   3.045   7.998  0.0050 -0.2324 -0.7273
 5573SOL    HW128355   1.269   3.082   7.924 -1.6704  0.6043  0.7678
 5573SOL    HW228356   1.355   3.125   8.035 -2.0277 -0.1332  1.2052
 5574SOL     OW28357   2.851   4.399   5.614  0.5165  0.4588 -0.9198
 5574SOL    HW128358   2.802   4.481   5.606  0.5301  0.7129  1.4592
 5574SOL    HW228359   2.815   4.345   5.544  1.2845  2.6861 -3.0462
 5575SOL     OW28360   4.400   3.712  17.600 -0.6665  0.8650  0.0665
 5575SOL    HW128361   4.391   3.801  17.565 -1.2613 -0.8140 -3.9642
 5575SOL    HW228362   4.495   3.697  17.604 -0.9597 -0.1339  3.4884
 5576SOL     OW28363   3.000   2.175   7.840  0.2730  0.2904  0.9539
 5576SOL    HW128364   2.966   2.113   7.905 -0.7266  0.9650  1.0780
 5576SOL    HW228365   3.007   2.255   7.891  0.8407  0.8511 -0.0037
 5577SOL     OW28366   3.627   1.063  13.362  0.3492  0.4017 -0.1293
 5577SOL    HW128367   3.608   1.047  13.269 -3.0722  2.9952  0.1458
 5577SOL    HW228368   3.682   1.141  13.351  0.4511  0.3750  0.1830
 5578SOL     OW28369   3.087   0.425   6.604 -0.5231  0.2164 -0.0970
 5578SOL    HW128370   3.149   0.389   6.540  0.1676 -3.2559  2.5912
 5578SOL    HW228371   3.066   0.502   6.550 -0.1522  0.4213  0.0462
 5579SOL     OW28372   2.538   4.193   3.215  0.1650  0.1237  0.2498
 5579SOL    HW128373   2.572   4.247   3.286  0.5031  0.2284  0.0090
 5579SOL    HW228374   2.481   4.256   3.169 -1.1359 -0.1408  1.4987
 5580SOL     OW28375   2.062   4.144   3.421 -0.0256  0.3574  0.0575
 5580SOL    HW128376   2.051   4.239   3.424  1.9131  0.5669  0.5185
 5580SOL    HW228377   2.016   4.111   3.499 -1.1760  1.1264 -0.2940
 5581SOL     OW28378   2.261   0.979   3.160 -0.2514 -0.1601 -1.0868
 5581SOL    HW128379   2.219   0.968   3.246 -0.3242  0.9910 -0.9808
 5581SOL    HW228380   2.333   1.035   3.189 -0.6486 -0.2740  0.1384
 5582SOL     OW28381   0.798   4.091   2.406 -0.5695  0.2780  0.5752
 5582SOL    HW128382   0.709   4.063   2.428 -0.2903 -3.0510 -2.5397
 5582SOL    HW228383   0.805   4.182   2.435 -1.3030  0.7082 -0.6081
 5583SOL     OW28384   4.453   0.696  16.414 -0.2464  0.1150  0.1482
 5583SOL    HW128385   4.444   0.702  16.509  2.5677  0.3527  0.4142
 5583SOL    HW228386   4.506   0.616  16.413  0.5895  0.6771 -0.3167
 5584SOL     OW28387   1.516   0.004   1.027 -0.1014 -0.1241  0.1103
 5584SOL    HW128388   1.496   4.713   0.937 -0.4463  0.9906 -0.1552
 5584SOL    HW228389   1.497   0.097   1.015 -0.2521 -0.1258  0.3381
 5585SOL     OW28390   0.603   2.558   9.219 -0.4214 -0.0605 -0.0673
 5585SOL    HW128391   0.641   2.646   9.219 -0.5334 -0.0234 -2.9880
 5585SOL    HW228392   0.629   2.519   9.303  0.6807 -0.1358 -0.4484
 5586SOL     OW28393   0.426   4.125  13.006 -0.9687  0.1542  0.9454
 5586SOL    HW128394   0.444   4.071  13.083 -1.3091 -0.8348  0.3351
 5586SOL    HW228395   0.410   4.056  12.942  1.1511  0.5842 -0.0140
 5587SOL     OW28396   4.355   2.257   4.154  0.0870 -0.4719  0.4052
 5587SOL    HW128397   4.340   2.307   4.235 -1.3314 -2.2979  1.2632
 5587SOL    HW228398   4.404   2.185   4.194 -0.7003 -0.8245  0.7463
 5588SOL     OW28399   3.907   0.457   2.923  0.0630  0.2363 -0.0669
 5588SOL    HW128400   3.894   0.549   2.944  1.0355  0.3290  0.1291
 5588SOL    HW228401   3.832   0.427   2.974 -0.1161  1.1168  0.1876
 5589SOL     OW28402   4.265   0.190  10.270  0.4751  0.1789  0.1708
 5589SOL    HW128403   4.339   0.131  10.259  1.2332  1.0590  0.5299
 5589SOL    HW228404   4.256   0.203  10.364 -0.5401  2.6112 -0.2461
 5590SOL     OW28405   1.647   1.411   1.428  0.1941 -0.0421  0.4101
 5590SOL    HW128406   1.728   1.415   1.479  0.4125  0.9257  0.0008
 5590SOL    HW228407   1.607   1.467   1.496 -1.1105  0.3016 -0.6358
 5591SOL     OW28408   1.051   4.074   2.554 -0.0051  0.2121  0.1711
 5591SOL    HW128409   1.085   4.144   2.609  0.4386  0.9484 -1.0457
 5591SOL    HW228410   0.959   4.102   2.561 -0.6881 -1.7670 -0.8411
 5592SOL     OW28411   4.553   4.500  11.029  0.0608 -0.3377  0.2448
 5592SOL    HW128412   4.610   4.516  10.954  0.0534  0.0702  0.3293
 5592SOL    HW228413   4.469   4.490  10.983 -0.6759  0.9410  1.3463
 5593SOL     OW28414   1.261   3.187  14.724 -0.2469 -0.3122 -0.0073
 5593SOL    HW128415   1.238   3.094  14.722  0.6911 -0.5040 -2.0720
 5593SOL    HW228416   1.249   3.212  14.632 -1.0612 -1.6558 -0.2754
 5594SOL     OW28417   1.459   2.681   4.478  0.0732  0.1172 -0.1616
 5594SOL    HW128418   1.525   2.626   4.519  0.6655 -0.0643 -1.3505
 5594SOL    HW228419   1.445   2.758   4.533  0.0087  0.7103 -1.0106
 5595SOL     OW28420   1.569   3.738  13.732 -0.5083  0.5018  0.3694
 5595SOL    HW128421   1.502   3.790  13.777 -0.7686  0.6140 -0.1488
 5595SOL    HW228422   1.633   3.715  13.800  0.6275  0.5086 -0.6907
 5596SOL     OW28423   3.015   0.335   7.492  0.4583 -0.5187  0.0585
 5596SOL    HW128424   3.070   0.411   7.472  1.5751 -1.4828 -0.6076
 5596SOL    HW228425   3.073   0.269   7.453 -1.1963 -0.6083 -2.2500
 5597SOL     OW28426   2.849   0.773   5.484 -0.0271  0.3982  0.1122
 5597SOL    HW128427   2.805   0.718   5.419  2.0545  0.6024 -1.4526
 5597SOL    HW228428   2.882   0.703   5.541 -3.5027 -1.5445 -0.1966
 5598SOL     OW28429   3.092   4.395   9.713  0.1987  0.9865  0.8455
 5598SOL    HW128430   3.022   4.431   9.768  1.6949  2.5096  1.7602
 5598SOL    HW228431   3.093   4.468   9.650  2.1137  0.0068 -0.2748
 5599SOL     OW28432   2.143   0.620  17.218  0.5360  0.5346 -0.3560
 5599SOL    HW128433   2.216   0.679  17.237  0.7719 -0.2227  1.0381
 5599SOL    HW228434   2.150   0.606  17.123  0.1720 -0.1954 -0.2755
 5600SOL     OW28435   4.701   0.607   4.537  0.0587 -0.0421  0.6267
 5600SOL    HW128436   4.675   0.526   4.581 -0.1160 -0.5440 -0.4058
 5600SOL    HW228437   4.649   0.673   4.584 -0.7779  0.1009 -0.4791
 5601SOL     OW28438   1.574   1.754   4.966  0.0393  0.4850  0.1511
 5601SOL    HW128439   1.592   1.772   4.874  1.2619  0.2613  0.3523
 5601SOL    HW228440   1.519   1.828   4.988  0.3610  0.3525  1.3903
 5602SOL     OW28441   1.954   2.741  16.550  0.0214 -0.3448  0.6214
 5602SOL    HW128442   1.972   2.835  16.557 -1.2592 -0.1191  0.9597
 5602SOL    HW228443   1.858   2.741  16.550  0.0202  2.7468  1.7131
 5603SOL     OW28444   1.075   0.623   0.505  0.1995 -0.7035 -0.0480
 5603SOL    HW128445   1.004   0.669   0.549 -0.5513 -1.0642 -0.8841
 5603SOL    HW228446   1.155   0.673   0.521  0.6357 -1.3612 -0.1945
 5604SOL     OW28447   4.138   1.072   1.473 -0.4460  0.1494  0.1366
 5604SOL    HW128448   4.229   1.069   1.503  0.4758  1.5634 -2.5207
 5604SOL    HW228449   4.139   1.121   1.391 -0.0352 -1.5012 -0.8554
 5605SOL     OW28450   1.938   2.884   0.383  0.1669  0.3648 -0.0428
 5605SOL    HW128451   1.984   2.804   0.359  2.6699  2.4589 -2.2589
 5605SOL    HW228452   1.970   2.950   0.322  0.3885  0.4695  0.1870
 5606SOL     OW28453   3.792   2.921   4.808 -0.1520  0.0742 -0.7756
 5606SOL    HW128454   3.734   2.996   4.816 -0.5658 -0.5740  2.2422
 5606SOL    HW228455   3.775   2.909   4.714 -0.9541  0.5473 -0.6872
 5607SOL     OW28456   1.055   1.621   9.012  0.4315 -0.2573  0.3467
 5607SOL    HW128457   1.074   1.600   9.103 -0.3817 -1.0866  0.3215
 5607SOL    HW228458   1.001   1.546   8.986  0.1530 -0.0541  0.3490
 5608SOL     OW28459   2.154   1.780   5.449  0.3651  0.2122 -0.4057
 5608SOL    HW128460   2.070   1.756   5.488  2.1801 -1.7071  2.3051
 5608SOL    HW228461   2.200   1.779   5.534 -1.5007 -2.0118  0.5573
 5609SOL     OW28462   3.980   2.396   6.999 -0.1494 -0.2804 -0.1067
 5609SOL    HW128463   3.991   2.478   6.951  1.2300 -0.5536 -0.2859
 5609SOL    HW228464   4.015   2.424   7.084 -1.6911 -0.3994  0.5556
 5610SOL     OW28465   4.532   0.266  10.481 -0.0343 -0.1584 -0.0621
 5610SOL    HW128466   4.565   0.305  10.562 -1.1857  1.7040 -0.4885
 5610SOL    HW228467   4.449   0.226  10.508  0.6759 -1.6466 -0.0826
 5611SOL     OW28468   3.760   1.082   1.805  0.8486  0.3216  0.1420
 5611SOL    HW128469   3.831   1.089   1.742  0.3515 -0.3127 -0.4899
 5611SOL    HW228470   3.781   0.994   1.836  2.3969  1.3853  2.0888
 5612SOL     OW28471   0.733   1.153   8.142  0.0823 -0.2958  0.2036
 5612SOL    HW128472   0.801   1.196   8.091  1.3053  0.9872  2.9045
 5612SOL    HW228473   0.677   1.229   8.160 -0.3136 -0.1939 -1.4034
 5613SOL     OW28474   2.031   2.908   7.877  0.4766 -0.0369  0.4143
 5613SOL    HW128475   1.968   2.867   7.817  1.0656  0.1187 -0.3070
 5613SOL    HW228476   1.981   2.973   7.927  1.3260 -0.6971  2.1470
 5614SOL     OW28477   4.674   2.272   2.737  0.2988 -0.1080 -0.1686
 5614SOL    HW128478   4.713   2.204   2.792 -1.2813 -0.8496  0.0632
 5614SOL    HW228479   4.594   2.227   2.710  1.2483 -2.4064  0.8058
 5615SOL     OW28480   1.756   3.346   7.012  0.2398  1.0507 -0.1387
 5615SOL    HW128481   1.774   3.342   7.106 -1.4414 -0.8126  0.1002
 5615SOL    HW228482   1.843   3.330   6.975 -0.1718  3.1202 -1.9704
 5616SOL     OW28483   3.027   4.335   1.792 -0.0580 -0.4011  0.4844
 5616SOL    HW128484   2.948   4.295   1.754  0.7996 -0.6513 -1.0587
 5616SOL    HW228485   3.006   4.333   1.885 -0.6206  2.6058  0.4408
 5617SOL     OW28486   3.583   3.439   7.524 -0.1311 -0.6002 -0.3848
 5617SOL    HW128487   3.595   3.509   7.460 -0.3477  1.2551  1.6242
 5617SOL    HW228488   3.676   3.421   7.534  0.2514  1.7412  0.1370
 5618SOL     OW28489   0.885   2.786   2.808 -0.1469  0.0169  0.7033
 5618SOL    HW128490   0.831   2.706   2.801  0.0598 -0.2127  1.7602
 5618SOL    HW228491   0.870   2.817   2.897 -2.0169  0.4396  0.2376
 5619SOL     OW28492   2.376   4.464   3.880 -0.1465  0.1318 -0.1755
 5619SOL    HW128493   2.324   4.399   3.832 -2.6153  0.7439  1.6654
 5619SOL    HW228494   2.459   4.418   3.865 -0.9821 -2.0821  2.0167
 5620SOL     OW28495   3.744   3.382   9.803  0.3504  0.5187 -0.1061
 5620SOL    HW128496   3.785   3.408   9.885  1.2863  1.7818 -0.9987
 5620SOL    HW228497   3.746   3.286   9.794 -1.1864  0.5605 -0.8915
 5621SOL     OW28498   3.127   0.427   3.922  0.2456 -0.3426 -0.0383
 5621SOL    HW128499   3.221   0.422   3.903  0.8643  0.6499  2.8228
 5621SOL    HW228500   3.116   0.503   3.865  1.7414 -2.1690 -2.8012
 5622SOL     OW28501   3.480   2.362   1.456 -0.0912  0.5866 -0.1125
 5622SOL    HW128502   3.489   2.444   1.407  0.7080  1.0557  0.8093
 5622SOL    HW228503   3.525   2.302   1.397 -1.4658  1.4552 -2.0676
 5623SOL     OW28504   4.575   4.049   4.304 -0.3664  0.0537 -0.2289
 5623SOL    HW128505   4.671   4.046   4.303 -0.3693  1.1266 -2.7914
 5623SOL    HW228506   4.563   4.098   4.223  1.4412  3.1907  1.3786
 5624SOL     OW28507   2.832   1.686   1.995 -0.5443 -0.0191  0.2018
 5624SOL    HW128508   2.812   1.780   1.995 -1.2948 -0.1799  2.0808
 5624SOL    HW228509   2.855   1.678   2.087  0.9947 -1.2185 -0.2815
 5625SOL     OW28510   2.916   2.554  10.705 -0.2186 -1.2387 -0.2634
 5625SOL    HW128511   2.904   2.552  10.610  1.3907 -0.4850 -0.4693
 5625SOL    HW228512   3.011   2.560  10.702 -0.3114  0.1556 -0.2005
 5626SOL     OW28513   0.949   0.255   5.186 -0.3066  0.0003 -0.7040
 5626SOL    HW128514   0.904   0.171   5.194  1.3410 -0.7959  0.2293
 5626SOL    HW228515   0.958   0.266   5.281 -2.1635  1.7549 -0.7334
 5627SOL     OW28516   2.743   1.618   2.358 -0.4038  0.2124 -0.0000
 5627SOL    HW128517   2.693   1.699   2.348  2.7453  2.1638  0.0099
 5627SOL    HW228518   2.706   1.581   2.438  1.5676 -1.7544  0.0089
 5628SOL     OW28519   1.197   4.235   3.060  0.1871 -0.9709 -0.1694
 5628SOL    HW128520   1.197   4.187   3.143 -3.2818  0.6057  0.7111
 5628SOL    HW228521   1.134   4.181   3.014 -0.7706 -0.0499  0.0732
 5629SOL     OW28522   1.631   0.796  12.092  0.3941  0.5137  0.2288
 5629SOL    HW128523   1.551   0.766  12.048  0.1613 -1.3282  1.9045
 5629SOL    HW228524   1.670   0.865  12.038 -2.2696  1.3493 -0.6140
 5630SOL     OW28525   2.875   4.456  17.115 -0.2715  0.0441  1.0896
 5630SOL    HW128526   2.829   4.513  17.054 -1.7743 -0.0221  2.1632
 5630SOL    HW228527   2.923   4.388  17.066  0.0537  0.3435  0.9927
 5631SOL     OW28528   4.087   1.446   1.356 -0.2540 -0.5561 -0.4607
 5631SOL    HW128529   4.129   1.499   1.423 -1.8390 -0.0256  0.1235
 5631SOL    HW228530   4.164   1.392   1.341  2.3781  2.6039  1.6319
 5632SOL     OW28531   0.097   0.650   7.457  0.1774 -0.1915  0.4419
 5632SOL    HW128532   0.024   0.682   7.405  0.9347 -1.1809 -1.2327
 5632SOL    HW228533   0.132   0.575   7.409 -2.5113 -0.9446 -0.3769
 5633SOL     OW28534   3.001   0.285  12.483  0.2638 -0.6058  0.0654
 5633SOL    HW128535   3.038   0.366  12.518 -0.8918  0.9292 -2.2343
 5633SOL    HW228536   3.040   0.214  12.534 -3.6719 -2.4931  0.4241
 5634SOL     OW28537   4.192   3.391   0.426  0.1392  0.4236 -0.7396
 5634SOL    HW128538   4.135   3.467   0.435 -0.1069  0.2219 -0.5763
 5634SOL    HW228539   4.151   3.330   0.487 -0.1553  1.4676  0.1014
 5635SOL     OW28540   0.967   0.201   6.784 -0.3119  0.0825  0.0487
 5635SOL    HW128541   0.960   0.260   6.859 -0.4053  0.7621 -0.5005
 5635SOL    HW228542   0.940   0.249   6.706  0.6563 -1.4891 -1.2552
 5636SOL     OW28543   4.374   3.741  16.825 -0.4116  0.0624  0.3151
 5636SOL    HW128544   4.408   3.830  16.817 -1.9073  0.8755  2.8986
 5636SOL    HW228545   4.446   3.687  16.793 -1.2084 -1.1787  0.5859
 5637SOL     OW28546   3.406   4.553   8.008  0.1921  0.0935 -0.0440
 5637SOL    HW128547   3.313   4.574   8.015 -0.2818 -1.8900 -0.4806
 5637SOL    HW228548   3.408   4.469   7.964 -3.7911  0.4118 -0.8665
 5638SOL     OW28549   0.042   0.572   0.506  0.2970  0.1982 -0.0529
 5638SOL    HW128550   4.723   0.494   0.509  1.4432 -0.6266  0.0579
 5638SOL    HW228551   0.127   0.529   0.518 -0.0423 -0.5233 -0.1815
 5639SOL     OW28552   2.548   0.885   6.860 -0.3820  0.0970 -0.3464
 5639SOL    HW128553   2.461   0.882   6.898  0.0205  1.0756  0.6674
 5639SOL    HW228554   2.518   0.929   6.780 -2.6271 -0.9668 -0.0705
 5640SOL     OW28555   3.742   1.367   7.810 -0.2323 -0.3692 -0.1392
 5640SOL    HW128556   3.730   1.323   7.894  1.5479  1.3049  1.0127
 5640SOL    HW228557   3.782   1.451   7.835  0.4136 -1.3156  2.0085
 5641SOL     OW28558   3.972   2.217   5.186 -0.1098 -0.2225  0.2094
 5641SOL    HW128559   3.963   2.126   5.161 -0.5170 -0.1405  0.0675
 5641SOL    HW228560   3.915   2.256   5.120 -0.0538 -1.2810 -0.4585
 5642SOL     OW28561   2.798   4.226   6.908  0.5445  0.1614  0.0441
 5642SOL    HW128562   2.870   4.211   6.847  0.3052  0.8627 -0.4108
 5642SOL    HW228563   2.817   4.313   6.944  1.1920 -0.4219  1.1160
 5643SOL     OW28564   2.459   2.699   6.901  0.3042  0.1436  0.1920
 5643SOL    HW128565   2.533   2.685   6.842  0.0629 -0.5789  0.0584
 5643SOL    HW228566   2.454   2.614   6.944 -0.4791 -0.1524 -0.4949
 5644SOL     OW28567   3.817   2.907   3.021 -0.0157  0.0526 -0.0844
 5644SOL    HW128568   3.730   2.899   3.060 -0.0028  0.8036  0.0841
 5644SOL    HW228569   3.792   2.973   2.957  1.7279  0.8293  0.0454
 5645SOL     OW28570   2.777   1.887   1.307 -0.6612  0.2513  0.0595
 5645SOL    HW128571   2.738   1.802   1.329 -0.2118 -0.0296 -0.2277
 5645SOL    HW228572   2.868   1.875   1.335 -0.8884 -1.7870 -0.0689
 5646SOL     OW28573   3.175   3.093   2.020  0.1543  0.1445 -0.6088
 5646SOL    HW128574   3.105   3.068   1.960  0.5715  0.4275 -1.2238
 5646SOL    HW228575   3.138   3.061   2.102  1.6824  1.8099  0.7023
 5647SOL     OW28576   2.798   3.022   6.763  0.0393  0.1796 -0.3085
 5647SOL    HW128577   2.712   3.065   6.768 -0.2729 -0.6335  1.2663
 5647SOL    HW228578   2.839   3.095   6.717 -0.4722  1.4357  1.2373
 5648SOL     OW28579   2.994   0.184   2.532  0.1984 -0.1001  0.1500
 5648SOL    HW128580   2.901   0.180   2.514  0.0661 -1.9252  1.3078
 5648SOL    HW228581   2.996   0.261   2.589 -0.0932 -0.7521  1.0223
 5649SOL     OW28582   3.993   3.071   1.756 -0.2310  0.7125 -0.4303
 5649SOL    HW128583   4.054   3.128   1.803  0.9666 -2.0789  1.3997
 5649SOL    HW228584   3.929   3.043   1.821  1.3707  0.4147  1.0033
 5650SOL     OW28585   1.145   0.877  12.936 -0.0452  0.4138 -0.5236
 5650SOL    HW128586   1.074   0.939  12.953 -0.4862 -0.4102  0.6009
 5650SOL    HW228587   1.208   0.944  12.964  0.0680 -0.8387  2.2066
 5651SOL     OW28588   2.374   4.417  10.531 -0.1158 -0.0636 -0.2250
 5651SOL    HW128589   2.386   4.333  10.574 -2.2077  0.1577  0.7879
 5651SOL    HW228590   2.301   4.383  10.479  1.4348 -1.9415 -1.1622
 5652SOL     OW28591   0.057   3.427  15.717  0.2758 -0.0151  0.3237
 5652SOL    HW128592   0.089   3.509  15.678 -2.3108  1.1746  0.7515
 5652SOL    HW228593   0.082   3.359  15.654 -0.1966 -0.8751  1.0864
 5653SOL     OW28594   3.398   0.620   7.891  0.2163  0.4825  0.0678
 5653SOL    HW128595   3.483   0.587   7.922 -0.8637 -1.6390  0.7357
 5653SOL    HW228596   3.399   0.711   7.919 -0.9944  0.9956 -1.5220
 5654SOL     OW28597   3.383   4.024  16.403 -0.3331 -0.3838  0.0723
 5654SOL    HW128598   3.411   4.114  16.418  0.5866 -1.1749  3.0938
 5654SOL    HW228599   3.339   3.997  16.483 -1.3886  0.3277 -0.2540
 5655SOL     OW28600   2.195   2.925   2.769  0.1912 -0.6230 -0.1964
 5655SOL    HW128601   2.209   2.960   2.858  1.6684 -1.4482 -0.0958
 5655SOL    HW228602   2.206   3.010   2.726 -1.6091  0.1890  0.9856
 5656SOL     OW28603   2.585   1.211   9.960 -0.3658 -0.3251 -0.0635
 5656SOL    HW128604   2.662   1.201   9.903  0.3105 -0.8278  0.9476
 5656SOL    HW228605   2.634   1.255  10.029 -0.5393  1.0706 -0.8266
 5657SOL     OW28606   2.781   1.703   3.554  0.0494 -0.1751  0.1719
 5657SOL    HW128607   2.702   1.745   3.588 -1.6694 -2.9013 -0.4812
 5657SOL    HW228608   2.770   1.676   3.463  1.1566 -1.0292  0.2955
 5658SOL     OW28609   1.004   4.043   7.221 -0.4312  0.1941  0.1280
 5658SOL    HW128610   1.051   4.071   7.143 -1.6625 -0.4955 -0.8515
 5658SOL    HW228611   1.023   3.949   7.223 -1.5116 -0.0270  0.2593
 5659SOL     OW28612   1.620   1.934   2.704  0.2579 -0.1446  0.6370
 5659SOL    HW128613   1.541   1.885   2.730  0.5980 -0.5550  0.8940
 5659SOL    HW228614   1.692   1.886   2.744 -0.3733 -1.7813 -0.1385
 5660SOL     OW28615   0.991   0.185   3.264 -0.6042  0.0193 -1.1938
 5660SOL    HW128616   1.006   0.206   3.171  0.8713  2.4927 -0.4080
 5660SOL    HW228617   1.024   0.266   3.303  0.8585 -2.4273  2.6059
 5661SOL     OW28618   2.472   3.385   7.546  0.4555 -0.3747 -0.4785
 5661SOL    HW128619   2.465   3.452   7.478  0.2083 -1.1236 -1.1894
 5661SOL    HW228620   2.545   3.326   7.529  0.0873 -0.3470 -2.1247
 5662SOL     OW28621   4.137   1.688   9.302  0.4037 -0.2153  0.2406
 5662SOL    HW128622   4.094   1.681   9.388 -0.6352 -0.0625 -0.2659
 5662SOL    HW228623   4.067   1.728   9.250  0.6415  0.9128  0.7738
 5663SOL     OW28624   1.721   3.830  12.453 -0.6129 -0.8623  0.3300
 5663SOL    HW128625   1.690   3.739  12.455  0.1655 -1.1312  0.3569
 5663SOL    HW228626   1.713   3.852  12.545  0.7353 -0.5949  0.3865
 5664SOL     OW28627   2.626   0.480   7.330 -0.9850 -0.1089 -0.5570
 5664SOL    HW128628   2.621   0.541   7.256 -1.7226 -0.0625 -0.4738
 5664SOL    HW228629   2.628   0.548   7.397  0.3700 -0.4043 -0.2989
 5665SOL     OW28630   3.878   2.674   0.949  0.4858 -0.0562 -0.6769
 5665SOL    HW128631   3.790   2.691   0.980  0.5969  0.3841 -0.6022
 5665SOL    HW228632   3.885   2.579   0.960  0.8712  0.0767  0.2310
 5666SOL     OW28633   1.306   3.999   6.547  0.2526  0.2275  0.5501
 5666SOL    HW128634   1.301   4.025   6.455  4.4606  1.2021  0.5967
 5666SOL    HW228635   1.401   3.986   6.555  0.0681 -0.9884  0.6273
 5667SOL     OW28636   3.606   3.902   3.367 -0.1133 -0.1900 -0.2889
 5667SOL    HW128637   3.678   3.846   3.336 -1.0749 -1.9688  0.7039
 5667SOL    HW228638   3.640   3.960   3.435  0.4614 -1.1675  0.2659
 5668SOL     OW28639   3.328   1.197   7.016 -0.1157 -0.5457 -0.2484
 5668SOL    HW128640   3.412   1.186   6.972  0.8372  0.6944  1.2675
 5668SOL    HW228641   3.346   1.239   7.100  0.6953 -0.7985 -0.2904
 5669SOL     OW28642   2.145   2.970  10.242  0.0847 -0.0927 -0.2119
 5669SOL    HW128643   2.126   2.880  10.216 -1.4105  0.3773 -0.7294
 5669SOL    HW228644   2.068   3.021  10.216  0.6407  0.9604  0.1800
 5670SOL     OW28645   4.550   2.439  15.837 -0.4816  0.3127 -0.9197
 5670SOL    HW128646   4.529   2.379  15.908  2.2774 -1.0011 -1.2204
 5670SOL    HW228647   4.632   2.406  15.801 -0.1513 -0.4493  0.5561
 5671SOL     OW28648   0.658   2.915  15.855 -0.3487  0.5656 -0.0922
 5671SOL    HW128649   0.587   2.939  15.914  0.9383  3.8223  0.1345
 5671SOL    HW228650   0.728   2.945  15.913 -0.5636 -1.4163  1.1835
 5672SOL     OW28651   3.544   4.720  13.565  0.0795  0.1842  0.2674
 5672SOL    HW128652   3.557   0.079  13.568 -0.0589  0.2250 -0.5120
 5672SOL    HW228653   3.607   4.693  13.499 -1.7594 -0.2303 -1.2919
 5673SOL     OW28654   4.191   3.277   3.670 -0.4235  0.6100 -0.4274
 5673SOL    HW128655   4.244   3.263   3.591 -0.4590 -0.7797 -0.2183
 5673SOL    HW228656   4.242   3.342   3.718 -2.0950  2.4170 -1.1214
 5674SOL     OW28657   1.515   3.712  10.387 -0.1302  0.4926  0.0297
 5674SOL    HW128658   1.473   3.796  10.369 -0.5315  0.3684  0.3891
 5674SOL    HW228659   1.516   3.721  10.482  0.0782  0.7593  0.0018
 5675SOL     OW28660   3.776   3.022   1.907  0.0494 -0.4684 -0.2506
 5675SOL    HW128661   3.687   3.039   1.875 -0.3895  0.2595  1.3057
 5675SOL    HW228662   3.765   2.957   1.977 -0.4996 -0.1448 -0.0318
 5676SOL     OW28663   0.279   4.576   8.555 -0.2263 -0.1211 -0.3904
 5676SOL    HW128664   0.287   4.566   8.650  0.6237 -0.9808 -0.5552
 5676SOL    HW228665   0.245   4.490   8.530 -1.6481  0.6160 -0.9799
 5677SOL     OW28666   0.967   0.484   3.331  0.0006 -0.5407 -0.2896
 5677SOL    HW128667   0.986   0.575   3.354 -2.5905 -0.3520  1.0713
 5677SOL    HW228668   0.898   0.494   3.266  0.9148 -0.8793 -1.3222
 5678SOL     OW28669   1.267   0.433   3.134  0.3774  0.3602 -0.2874
 5678SOL    HW128670   1.278   0.424   3.228 -1.2157 -2.3255 -0.3738
 5678SOL    HW228671   1.298   0.521   3.112 -0.3360  0.4675 -0.8765
 5679SOL     OW28672   0.766   2.737  15.199 -0.4757  0.0820 -0.2466
 5679SOL    HW128673   0.674   2.730  15.224 -0.0782 -4.1975  0.1586
 5679SOL    HW228674   0.805   2.757  15.284 -1.3569  0.0962  0.1583
 5680SOL     OW28675   2.537   4.720   8.295  0.2133 -0.5813 -0.1782
 5680SOL    HW128676   2.515   0.072   8.267  2.1731  0.6362  2.0786
 5680SOL    HW228677   2.528   4.725   8.390 -0.1652  2.3731 -0.3692
 5681SOL     OW28678   2.437   1.996   7.271 -0.1287  0.2461  0.0963
 5681SOL    HW128679   2.382   1.919   7.265  2.9693 -1.9440 -0.3919
 5681SOL    HW228680   2.389   2.051   7.209  0.4254  0.5234 -0.0869
 5682SOL     OW28681   4.480   1.109   5.296  0.3201  0.2064 -0.2277
 5682SOL    HW128682   4.483   1.205   5.290 -1.0943  0.2765  0.2480
 5682SOL    HW228683   4.422   1.099   5.371  0.6233 -0.1032 -0.0352
 5683SOL     OW28684   1.189   3.919   4.287  0.0683  0.4193 -0.0016
 5683SOL    HW128685   1.146   3.857   4.228  0.7478 -0.6320  0.6047
 5683SOL    HW228686   1.279   3.889   4.301  0.9289  2.5481 -1.0529
 5684SOL     OW28687   0.061   3.475   6.014 -0.4213  0.1137 -0.3957
 5684SOL    HW128688   4.721   3.505   6.064 -0.5525 -0.0663 -0.4921
 5684SOL    HW228689   0.103   3.407   6.067 -1.5857 -0.5362 -0.3008
 5685SOL     OW28690   2.076   1.706   7.998  0.3918 -0.1022  0.0478
 5685SOL    HW128691   2.137   1.777   8.015  0.6759 -0.1313 -0.8822
 5685SOL    HW228692   2.043   1.698   8.088  0.0834  0.1227 -0.0456
 5686SOL     OW28693   0.833   4.190  13.271  0.0691 -0.2312  0.4012
 5686SOL    HW128694   0.928   4.180  13.264  0.1918  0.7308  0.6718
 5686SOL    HW228695   0.810   4.226  13.185 -2.4271 -2.0690  0.2989
 5687SOL     OW28696   0.905   3.825  16.884 -0.2413  0.2480  0.1640
 5687SOL    HW128697   0.924   3.731  16.885  0.3223  0.3677  0.7266
 5687SOL    HW228698   0.826   3.828  16.938 -0.1795  2.1336  0.1693
 5688SOL     OW28699   4.239   2.430   1.101 -0.0338 -0.5908  0.1577
 5688SOL    HW128700   4.231   2.518   1.138  1.6863 -0.3355 -0.1040
 5688SOL    HW228701   4.296   2.447   1.026  1.1090 -0.4337  1.0691
 5689SOL     OW28702   4.050   1.917   9.091 -0.3053  0.0965 -0.0825
 5689SOL    HW128703   4.136   1.931   9.131 -0.2827 -0.6338  0.1270
 5689SOL    HW228704   3.993   1.956   9.157 -0.0025  0.7077 -0.1795
 5690SOL     OW28705   2.899   2.735  16.535  0.4648  0.1452 -0.1113
 5690SOL    HW128706   2.864   2.750  16.447  0.3235  0.6566  0.0299
 5690SOL    HW228707   2.977   2.684  16.514 -0.7114 -1.3856 -0.7153
 5691SOL     OW28708   0.969   1.812   2.755 -0.1417  0.5925 -0.3056
 5691SOL    HW128709   0.900   1.796   2.820  1.4388  1.4765  1.6220
 5691SOL    HW228710   0.940   1.773   2.673 -0.6873 -0.2307  0.2787
 5692SOL     OW28711   1.816   2.507   9.253  0.3017 -0.2753  0.2968
 5692SOL    HW128712   1.855   2.532   9.170  1.7986  0.2032  1.1336
 5692SOL    HW228713   1.739   2.564   9.258 -0.4482 -1.4511  2.1768
 5693SOL     OW28714   2.453   2.123   1.515  0.1806  0.5313  0.9032
 5693SOL    HW128715   2.366   2.156   1.535  0.4833  0.2134  2.7435
 5693SOL    HW228716   2.435   2.034   1.484 -2.2878  0.5624  2.2579
 5694SOL     OW28717   0.023   2.794   5.380 -0.4704  0.4550  0.0126
 5694SOL    HW128718   0.048   2.851   5.307  3.0160  0.6092  1.3328
 5694SOL    HW228719   4.664   2.806   5.379 -0.4521  0.6416  0.2764
 5695SOL     OW28720   3.413   3.974   8.925 -0.4023  0.2328 -0.1533
 5695SOL    HW128721   3.434   3.940   8.838 -0.6174 -0.7864  0.1968
 5695SOL    HW228722   3.502   3.974   8.961 -2.0735  2.4597  3.9690
 5696SOL     OW28723   4.211   1.399   2.894  0.2599  0.3427  0.1753
 5696SOL    HW128724   4.210   1.419   2.800  1.3499  0.1701  0.1360
 5696SOL    HW228725   4.217   1.304   2.895  1.0019  0.4028  2.0868
 5697SOL     OW28726   0.678   0.046  13.131 -0.1813 -0.0976  0.6059
 5697SOL    HW128727   0.745   0.113  13.148 -0.2054  0.5812 -1.9760
 5697SOL    HW228728   0.727   4.701  13.117 -0.5103 -0.1339 -0.2769
 5698SOL     OW28729   3.065   3.211   6.935  0.0267  0.4502 -0.1753
 5698SOL    HW128730   3.080   3.135   6.991 -0.4351  0.1818 -0.4153
 5698SOL    HW228731   3.056   3.179   6.845  2.4510 -1.2859  0.1870
 5699SOL     OW28732   0.873   1.443   8.317  0.4962  0.0953 -0.2047
 5699SOL    HW128733   0.907   1.477   8.234  1.5256  0.5131  0.3821
 5699SOL    HW228734   0.934   1.370   8.327 -0.8725 -0.8617  0.9032
 5700SOL     OW28735   3.323   0.050   3.059  0.1548  0.0314 -0.1425
 5700SOL    HW128736   3.306   0.133   3.014  0.0926 -0.1734 -0.4893
 5700SOL    HW228737   3.253   0.002   3.017  0.4154  0.8853 -1.5463
 5701SOL     OW28738   4.665   2.783   1.842 -0.0454  0.3359  0.1925
 5701SOL    HW128739   4.709   2.707   1.804  1.6157  1.7585 -0.7363
 5701SOL    HW228740   4.640   2.834   1.765  1.6304  2.6675  1.1963
 5702SOL     OW28741   1.522   2.944   5.429 -0.3341 -0.3568 -0.2416
 5702SOL    HW128742   1.511   2.914   5.339 -1.0591 -0.5937 -0.0720
 5702SOL    HW228743   1.429   2.960   5.445 -0.0934  0.4316  0.4146
 5703SOL     OW28744   1.005   3.537   4.371 -0.2710 -0.4759  0.5184
 5703SOL    HW128745   1.083   3.575   4.412 -2.1400  3.3188  0.4964
 5703SOL    HW228746   0.943   3.522   4.442  0.4127 -0.7396  1.0680
 5704SOL     OW28747   4.213   1.102  15.733  0.9959  0.1180 -0.0148
 5704SOL    HW128748   4.241   1.186  15.770 -1.7550  0.4856  1.1727
 5704SOL    HW228749   4.262   1.041  15.788  1.0891 -0.5947 -0.8814
 5705SOL     OW28750   2.630   0.723   4.191 -0.2571  0.4335  0.3657
 5705SOL    HW128751   2.702   0.688   4.243 -0.2112  1.8182  1.2243
 5705SOL    HW228752   2.563   0.750   4.253 -1.0185  0.8338 -0.6382
 5706SOL     OW28753   4.499   1.483  17.041 -0.2368  0.3946 -0.1345
 5706SOL    HW128754   4.581   1.434  17.042 -0.2290  0.4108  0.0019
 5706SOL    HW228755   4.440   1.410  17.023  1.6886 -0.9245 -1.0995
 5707SOL     OW28756   3.851   3.069  15.287 -0.3974 -0.5877 -1.0228
 5707SOL    HW128757   3.813   3.153  15.315 -2.6206 -1.5835 -1.0463
 5707SOL    HW228758   3.922   3.096  15.229  0.2524 -0.9414 -0.4053
 5708SOL     OW28759   3.768   3.201   1.655 -1.1622 -0.7040  0.3479
 5708SOL    HW128760   3.835   3.140   1.686  1.5080  1.6188 -0.8965
 5708SOL    HW228761   3.803   3.286   1.680  0.9307 -1.5891  0.3993
 5709SOL     OW28762   1.846   1.188   7.289  0.1709  0.0772 -0.1270
 5709SOL    HW128763   1.838   1.093   7.291 -1.1457  0.2486  2.8932
 5709SOL    HW228764   1.930   1.203   7.246  0.5080 -1.7665 -0.1110
 5710SOL     OW28765   4.232   1.040  12.327 -0.1417 -0.6478 -0.2502
 5710SOL    HW128766   4.186   1.122  12.346 -2.0952 -2.1411  1.4485
 5710SOL    HW228767   4.320   1.060  12.293 -0.0982 -0.0941  0.1822
 5711SOL     OW28768   0.551   2.206   2.819 -0.8217 -0.0722  0.2718
 5711SOL    HW128769   0.520   2.285   2.775 -0.8941  0.4967  1.3535
 5711SOL    HW228770   0.500   2.153   2.758 -0.6377 -0.7373  0.6961
 5712SOL     OW28771   2.523   2.364   4.791 -0.2103  0.2681 -0.2092
 5712SOL    HW128772   2.454   2.417   4.830 -0.2989 -2.1007  2.8029
 5712SOL    HW228773   2.594   2.422   4.818  1.2250 -0.5048 -2.3253
 5713SOL     OW28774   3.013   1.779   5.947 -0.0919  0.1791 -0.0863
 5713SOL    HW128775   2.977   1.703   5.902 -0.2328  1.6080 -2.4223
 5713SOL    HW228776   2.942   1.843   5.938 -0.5858 -0.3977 -0.2651
 5714SOL     OW28777   2.174   3.239   7.766  0.6189 -0.1079 -0.2273
 5714SOL    HW128778   2.193   3.319   7.816  0.1567  0.4553 -0.9560
 5714SOL    HW228779   2.129   3.193   7.836 -0.3739  0.4207 -0.5203
 5715SOL     OW28780   1.365   1.240   6.412 -0.1534 -0.2357  0.8337
 5715SOL    HW128781   1.400   1.217   6.326 -0.2720 -2.1140  1.2688
 5715SOL    HW228782   1.331   1.156   6.445  1.5972 -1.2747 -0.0424
 5716SOL     OW28783   0.755   3.054   1.815  0.1959 -0.7193 -0.1488
 5716SOL    HW128784   0.807   2.977   1.789  0.9769  0.2373 -1.4034
 5716SOL    HW228785   0.810   3.132   1.822 -0.2679 -0.1848 -2.5297
 5717SOL     OW28786   1.775   3.448   5.455 -0.7391  0.3402 -0.2572
 5717SOL    HW128787   1.727   3.368   5.433 -0.6698 -0.0046  0.8607
 5717SOL    HW228788   1.706   3.509   5.483 -0.8072  0.6015 -1.0065
 5718SOL     OW28789   1.796   2.071   9.375  0.2574  0.2221  0.0580
 5718SOL    HW128790   1.865   2.130   9.344  1.1039 -0.3889  0.8009
 5718SOL    HW228791   1.757   2.121   9.447 -1.0663 -0.6966 -0.0211
 5719SOL     OW28792   1.147   3.012  17.735 -0.3806 -0.4317 -0.1936
 5719SOL    HW128793   1.112   3.097   0.020 -0.9461 -0.0093 -2.1212
 5719SOL    HW228794   1.206   2.991   0.063 -0.3717  1.5817  0.3917
 5720SOL     OW28795   1.780   3.627  16.608  0.5228 -0.1932  0.6809
 5720SOL    HW128796   1.767   3.533  16.597  0.5597 -0.1776  0.5140
 5720SOL    HW228797   1.687   3.644  16.624  0.2404 -0.8349 -0.3053
 5721SOL     OW28798   1.476   0.980  10.729  0.3952 -0.0308  0.0146
 5721SOL    HW128799   1.504   0.914  10.793  2.2061  0.6770 -0.0334
 5721SOL    HW228800   1.516   0.937  10.653 -0.3619 -1.1530  0.2511
 5722SOL     OW28801   2.517   2.869   2.742  0.3810 -0.5471  0.2802
 5722SOL    HW128802   2.448   2.930   2.716  0.5233 -0.7367 -0.5415
 5722SOL    HW228803   2.522   2.807   2.670  2.1150 -0.8341  0.6525
 5723SOL     OW28804   4.412   4.081   9.826 -0.3559  0.0355  0.1614
 5723SOL    HW128805   4.383   3.994   9.853  0.0384 -0.3824 -0.7792
 5723SOL    HW228806   4.337   4.135   9.851 -1.1242 -1.5878  1.3268
 5724SOL     OW28807   4.629   3.081   5.357  0.1697 -0.1743  0.3356
 5724SOL    HW128808   4.578   3.092   5.276  1.8545  1.0261 -0.5786
 5724SOL    HW228809   4.559   3.035   5.403  1.1166 -2.2616 -0.3128
 5725SOL     OW28810   2.495   4.292   1.216  0.6062 -0.3511 -0.1515
 5725SOL    HW128811   2.437   4.271   1.289  0.7337  0.8485  0.3030
 5725SOL    HW228812   2.575   4.315   1.265 -0.4574  1.2996  0.8226
 5726SOL     OW28813   2.978   1.387   4.253 -0.2385 -0.1800 -0.1729
 5726SOL    HW128814   2.930   1.449   4.308  1.0596 -1.2250  2.1086
 5726SOL    HW228815   2.956   1.430   4.170  0.7400  0.1538 -0.2633
 5727SOL     OW28816   2.606   0.740  16.233  0.4114  0.1663 -0.2670
 5727SOL    HW128817   2.669   0.788  16.179  1.3325 -0.9834 -0.2219
 5727SOL    HW228818   2.530   0.734  16.175  2.3152 -0.2359 -2.7332
 5728SOL     OW28819   1.988   0.395   1.024 -0.0616  0.0862  0.1581
 5728SOL    HW128820   2.082   0.399   1.008 -0.0029  0.6914  0.6570
 5728SOL    HW228821   1.954   0.447   0.950 -1.2939 -0.1705  0.5354
 5729SOL     OW28822   3.438   1.547  17.376  0.0344  0.6770 -0.1019
 5729SOL    HW128823   3.529   1.544  17.348 -0.0157 -0.9890 -0.0747
 5729SOL    HW228824   3.432   1.643  17.374  3.9185  0.8863 -1.1644
 5730SOL     OW28825   1.820   4.421  16.986 -0.0687 -0.3282  0.2297
 5730SOL    HW128826   1.901   4.447  17.029 -0.3113  0.4802  0.1989
 5730SOL    HW228827   1.845   4.419  16.894  1.0300  0.0968  0.5248
 5731SOL     OW28828   2.235   3.499   5.386  0.1936 -0.7711  0.1919
 5731SOL    HW128829   2.155   3.512   5.335  0.3515 -1.1475 -0.1486
 5731SOL    HW228830   2.295   3.540   5.324 -0.7935 -1.0926 -0.9759
 5732SOL     OW28831   4.562   1.840   9.393 -0.0604 -0.3844 -0.1560
 5732SOL    HW128832   4.637   1.810   9.342 -0.0611  0.6552 -0.7541
 5732SOL    HW228833   4.496   1.789   9.346 -1.8744  3.1113 -1.3751
 5733SOL     OW28834   2.834   2.697  14.543 -0.3773  0.1759  0.2695
 5733SOL    HW128835   2.924   2.701  14.510 -0.3769  0.9715  0.3729
 5733SOL    HW228836   2.844   2.618  14.596  2.8465 -1.1289 -2.3108
 5734SOL     OW28837   1.235   2.490  15.777  0.1145  0.4711 -0.2396
 5734SOL    HW128838   1.144   2.468  15.798 -0.0333  1.2574 -0.0530
 5734SOL    HW228839   1.230   2.506  15.682  0.5143 -0.1510 -0.3642
 5735SOL     OW28840   4.424   2.479   6.000 -0.4035 -0.1176 -0.2664
 5735SOL    HW128841   4.504   2.482   6.052 -0.3706 -0.1656 -0.3143
 5735SOL    HW228842   4.454   2.490   5.910  3.2626 -1.0246  0.8436
 5736SOL     OW28843   1.033   2.839   3.532 -0.5951  0.6211 -0.0316
 5736SOL    HW128844   0.977   2.894   3.477 -0.3514 -0.5321 -1.4621
 5736SOL    HW228845   0.987   2.854   3.614  0.2102  1.2266  0.3136
 5737SOL     OW28846   4.716   2.169  10.490  0.3358 -0.3403  0.3055
 5737SOL    HW128847   0.043   2.156  10.419  1.3221  1.1091  0.9210
 5737SOL    HW228848   4.632   2.159  10.446  0.4485 -0.3734  0.0964
 5738SOL     OW28849   0.311   1.213   6.502  0.0456  0.1181 -0.1780
 5738SOL    HW128850   0.216   1.211   6.504  0.1113 -1.6412  1.1546
 5738SOL    HW228851   0.324   1.166   6.419  1.7929 -0.9603  0.7046
 5739SOL     OW28852   3.077   3.226   8.461 -0.4396  0.5370 -0.0136
 5739SOL    HW128853   3.121   3.170   8.525  2.4962  0.6832 -1.9189
 5739SOL    HW228854   3.084   3.314   8.500 -2.3295  0.6712  0.0473
 5740SOL     OW28855   0.752   1.381   5.052  0.1748 -0.7918  0.1794
 5740SOL    HW128856   0.677   1.323   5.061 -1.4528  1.3571  0.6856
 5740SOL    HW228857   0.752   1.424   5.138 -0.7252  0.1346 -0.2718
 5741SOL     OW28858   2.326   1.900   4.688  0.2483 -0.4919 -0.6348
 5741SOL    HW128859   2.370   1.984   4.702  1.0353 -0.8454 -0.9921
 5741SOL    HW228860   2.350   1.878   4.598 -1.4814  0.5917 -1.3570
 5742SOL     OW28861   2.109   2.955  14.517 -0.0473  0.1319  0.3579
 5742SOL    HW128862   2.091   2.997  14.433 -1.5754 -2.8369 -0.8160
 5742SOL    HW228863   2.111   2.862  14.494  0.7296 -0.9134  4.5527
 5743SOL     OW28864   0.574   3.420   5.399  0.3707 -0.0477 -0.0400
 5743SOL    HW128865   0.545   3.483   5.466 -1.1265  0.6356 -1.3453
 5743SOL    HW228866   0.573   3.339   5.450  1.5073  2.0228  3.3187
 5744SOL     OW28867   0.147   0.803   8.091 -0.2846  0.3268  0.4530
 5744SOL    HW128868   0.113   0.837   8.009 -1.2575  0.2335  0.8170
 5744SOL    HW228869   0.078   0.827   8.153 -0.3582  0.1559  0.4365
 5745SOL     OW28870   3.989   2.792  13.110  0.3082 -0.1097  0.1540
 5745SOL    HW128871   3.981   2.711  13.059 -0.3723  0.3837 -0.5165
 5745SOL    HW228872   3.948   2.849  13.045 -0.4037  2.6269  3.0459
 5746SOL     OW28873   2.784   4.051   1.252 -0.2528  0.2508 -0.0546
 5746SOL    HW128874   2.875   4.025   1.267 -0.2905 -0.1335 -0.4993
 5746SOL    HW228875   2.807   4.133   1.209  0.7057 -0.7050 -1.3706
 5747SOL     OW28876   3.772   2.836   8.404 -0.1716  0.1138 -0.1761
 5747SOL    HW128877   3.727   2.827   8.319  0.3472 -0.9288 -0.3400
 5747SOL    HW228878   3.715   2.894   8.455 -0.8731  0.6619 -1.5855
 5748SOL     OW28879   2.965   3.252   0.100 -0.3498 -0.3582  0.1779
 5748SOL    HW128880   3.040   3.193   0.105  2.9290  3.7851 -0.1623
 5748SOL    HW228881   3.005   3.333   0.132 -3.4546  1.7878 -1.4573
 5749SOL     OW28882   3.614   1.721   3.435 -0.4956 -0.3346  0.2342
 5749SOL    HW128883   3.707   1.744   3.426 -0.0659 -3.7178 -3.9736
 5749SOL    HW228884   3.578   1.779   3.368 -1.6183  1.0687  2.0682
 5750SOL     OW28885   4.519   1.396   7.689  0.3267  0.1422 -0.1235
 5750SOL    HW128886   4.433   1.356   7.676  0.7009 -0.1573 -1.6953
 5750SOL    HW228887   4.493   1.488   7.693 -0.1529 -0.0808  1.6470
 5751SOL     OW28888   0.189   0.649  16.293  0.1494 -0.1792  0.3719
 5751SOL    HW128889   0.107   0.601  16.278  2.7349 -4.2552 -0.7369
 5751SOL    HW228890   0.246   0.574  16.312  0.6599  0.0912 -0.1117
 5752SOL     OW28891   2.215   4.599  14.244  0.0220  0.6156 -0.0283
 5752SOL    HW128892   2.146   4.641  14.297  1.1055  2.2876  0.0532
 5752SOL    HW228893   2.289   4.603  14.303 -0.4686  1.5603  0.5320
 5753SOL     OW28894   1.227   2.255   6.720  0.0462 -0.1626 -0.0698
 5753SOL    HW128895   1.299   2.205   6.683  0.8992 -0.9649  2.6300
 5753SOL    HW228896   1.163   2.186   6.738  1.0062 -1.6760 -2.5450
 5754SOL     OW28897   1.401   2.465   9.076 -0.2870 -0.1340 -0.1294
 5754SOL    HW128898   1.305   2.473   9.068 -0.1297  0.3360 -1.5687
 5754SOL    HW228899   1.407   2.523   9.151  3.8551 -2.7773  1.5631
 5755SOL     OW28900   3.056   4.009   1.309 -0.1279 -0.4112  0.4873
 5755SOL    HW128901   3.140   4.052   1.299  0.0748 -1.1983 -1.1143
 5755SOL    HW228902   3.059   3.982   1.218  0.2266 -1.0460  0.6927
 5756SOL     OW28903   1.237   3.846   2.629 -0.0209 -0.1103 -0.1872
 5756SOL    HW128904   1.197   3.923   2.588  0.1941  1.5487  2.6909
 5756SOL    HW228905   1.216   3.845   2.722 -0.1210  3.9239 -0.1509
 5757SOL     OW28906   0.195   1.867   7.697  0.2098 -0.0643  0.3678
 5757SOL    HW128907   0.173   1.782   7.733 -0.2263 -0.3840 -0.6534
 5757SOL    HW228908   0.271   1.888   7.752  0.9428 -2.1003  0.0970
 5758SOL     OW28909   3.590   0.706   6.095 -0.3703 -0.4967 -0.7958
 5758SOL    HW128910   3.653   0.722   6.165 -1.0598  2.5680 -0.8576
 5758SOL    HW228911   3.643   0.722   6.017 -1.1123  0.1647 -1.1678
 5759SOL     OW28912   3.163   1.737   1.652 -0.0090 -0.3767  0.5530
 5759SOL    HW128913   3.088   1.739   1.593  1.0626 -0.1296 -0.8002
 5759SOL    HW228914   3.116   1.702   1.728 -1.3333  1.1972  0.4591
 5760SOL     OW28915   1.022   4.289   7.383 -0.0741  0.4900 -0.2891
 5760SOL    HW128916   0.987   4.281   7.295 -0.6673 -1.6887  0.1504
 5760SOL    HW228917   1.019   4.384   7.399 -1.1000  0.2890  0.6447
 5761SOL     OW28918   2.159   1.656  15.085  0.5005 -0.2316  0.2007
 5761SOL    HW128919   2.128   1.575  15.126  0.8145  0.0285  0.9482
 5761SOL    HW228920   2.088   1.666  15.021  0.8231 -2.2581 -0.4611
 5762SOL     OW28921   0.376   2.947   7.745 -0.4031  0.0878  0.0035
 5762SOL    HW128922   0.291   2.922   7.708 -1.0967  2.7747 -0.2503
 5762SOL    HW228923   0.402   2.857   7.764  1.0794  0.5024 -0.0333
 5763SOL     OW28924   0.840   1.479  12.570  0.0701 -0.0809  0.2940
 5763SOL    HW128925   0.874   1.563  12.602 -0.3123 -0.0543  0.6300
 5763SOL    HW228926   0.763   1.479  12.627  0.1408 -0.4135  0.3887
 5764SOL     OW28927   2.214   1.808  10.409 -0.1800 -0.1683  0.1047
 5764SOL    HW128928   2.302   1.845  10.400 -1.4836  3.0037  0.1314
 5764SOL    HW228929   2.231   1.719  10.439  1.5981  1.0415  2.6753
 5765SOL     OW28930   4.401   2.122   1.803  0.2453  0.0710  0.0997
 5765SOL    HW128931   4.440   2.077   1.877 -0.2131 -3.2082 -1.6305
 5765SOL    HW228932   4.364   2.195   1.854 -0.7913  0.2439 -0.8805
 5766SOL     OW28933   2.149   0.119   3.780  0.4166  0.7022  0.2863
 5766SOL    HW128934   2.156   0.202   3.827 -2.5381 -0.6786  3.1553
 5766SOL    HW228935   2.236   0.080   3.796 -0.5684 -2.0510 -1.0568
 5767SOL     OW28936   3.997   4.232   6.700  0.0270 -0.6243 -0.3583
 5767SOL    HW128937   4.030   4.319   6.679 -0.1569 -0.2240  1.0112
 5767SOL    HW228938   4.009   4.196   6.612 -3.3468  1.5408 -1.6973
 5768SOL     OW28939   0.773   1.084   7.201  0.3897 -0.0391  0.1306
 5768SOL    HW128940   0.798   1.170   7.236  2.6844 -0.6098 -0.1079
 5768SOL    HW228941   0.751   1.034   7.279  2.0505 -0.3764  0.3712
 5769SOL     OW28942   0.252   3.333   3.812 -0.3872 -0.3443 -0.3390
 5769SOL    HW128943   0.340   3.323   3.849 -0.7177 -0.4139  0.4451
 5769SOL    HW228944   0.204   3.286   3.880  0.8512  1.1737  1.5838
 5770SOL     OW28945   2.490   3.572   0.779 -0.0230 -0.0865  0.6541
 5770SOL    HW128946   2.537   3.650   0.808  0.5137  0.0820 -0.6590
 5770SOL    HW228947   2.562   3.525   0.737  0.3113  0.0414  1.0879
 5771SOL     OW28948   1.436   1.831  10.217 -0.4365 -0.2211  0.5858
 5771SOL    HW128949   1.522   1.792  10.208 -0.7160 -1.0030  1.3392
 5771SOL    HW228950   1.469   1.921  10.215  0.6244 -0.6231  0.2181
 5772SOL     OW28951   3.653   0.178   3.030  0.0064 -0.4789  0.1312
 5772SOL    HW128952   3.609   0.169   2.945  1.7055 -1.0867 -0.6866
 5772SOL    HW228953   3.721   0.112   3.019 -0.6881 -0.8608 -1.9517
 5773SOL     OW28954   3.793   4.216   4.138  0.4031 -0.0641 -0.3581
 5773SOL    HW128955   3.815   4.137   4.088 -0.2737 -0.2551 -0.3487
 5773SOL    HW228956   3.720   4.193   4.195 -0.1851  1.4839 -0.4796
 5774SOL     OW28957   3.653   1.839   3.160  0.4447  0.2606 -0.0787
 5774SOL    HW128958   3.709   1.762   3.152 -1.8310 -1.2229 -1.7183
 5774SOL    HW228959   3.583   1.809   3.103 -1.3603  1.1095  1.7054
 5775SOL     OW28960   3.017   2.386   8.915 -0.3170  0.1043  0.0317
 5775SOL    HW128961   2.997   2.318   8.851 -0.5007 -0.8063  1.0577
 5775SOL    HW228962   2.948   2.381   8.981 -0.6940  0.2447 -0.3534
 5776SOL     OW28963   2.598   3.639   5.302 -0.6009 -0.1282 -0.5072
 5776SOL    HW128964   2.572   3.706   5.366 -0.7875  0.3113 -1.0482
 5776SOL    HW228965   2.517   3.610   5.261 -0.4708  1.7149 -2.0467
 5777SOL     OW28966   1.031   4.649  15.317 -0.2697 -0.2785 -0.1359
 5777SOL    HW128967   0.951   4.602  15.293 -1.0120  1.2014 -0.5479
 5777SOL    HW228968   1.089   4.572  15.316 -0.4834 -0.4277 -0.8164
 5778SOL     OW28969   0.295   1.021   4.009 -0.1008  0.2439 -0.3423
 5778SOL    HW128970   0.315   1.112   4.027 -1.9115  0.4397  0.6653
 5778SOL    HW228971   0.245   0.989   4.084  0.9400  0.2407  0.3437
 5779SOL     OW28972   1.260   2.115   6.156  0.6101  0.3472  0.0229
 5779SOL    HW128973   1.246   2.088   6.247  3.0211  2.8635  1.1502
 5779SOL    HW228974   1.177   2.157   6.134 -0.5146 -0.9685  1.7279
 5780SOL     OW28975   2.479   1.044   5.979 -0.0768  0.1098  0.3108
 5780SOL    HW128976   2.537   1.020   6.051 -0.9644  1.1465  1.3749
 5780SOL    HW228977   2.539   1.094   5.924  1.1074 -1.0245  0.5762
 5781SOL     OW28978   1.479   1.680  11.081  0.4787  0.8832 -0.0897
 5781SOL    HW128979   1.492   1.591  11.048  0.8599 -0.0567  2.6408
 5781SOL    HW228980   1.563   1.721  11.061  1.0117 -0.1898 -0.0507
 5782SOL     OW28981   1.910   1.944   1.734  0.4565 -0.1651  0.0457
 5782SOL    HW128982   1.874   1.908   1.815 -0.5283 -0.0730 -0.3478
 5782SOL    HW228983   2.002   1.923   1.751  0.9730  0.8737 -1.5080
 5783SOL     OW28984   2.917   4.482   7.683  0.0454  0.5822  0.1719
 5783SOL    HW128985   2.988   4.447   7.737 -0.4384  0.9995  1.0715
 5783SOL    HW228986   2.861   4.407   7.661  0.4324  0.7184 -1.2912
 5784SOL     OW28987   0.007   1.578   4.141 -0.1776 -0.3090 -0.1790
 5784SOL    HW128988   0.022   1.505   4.201  0.2007  0.0670  0.1813
 5784SOL    HW228989   4.695   1.638   4.198 -0.3477  2.8243 -3.5965
 5785SOL     OW28990   2.674   0.467  14.336 -0.3863  0.3719  0.4081
 5785SOL    HW128991   2.694   0.482  14.243 -1.0697 -1.3619 -0.0139
 5785SOL    HW228992   2.591   0.421  14.342 -0.3997  0.2955 -0.4089
 5786SOL     OW28993   2.902   4.080  16.984 -0.1167  0.2265 -0.0219
 5786SOL    HW128994   2.807   4.071  16.984 -0.2180  1.3127 -0.3915
 5786SOL    HW228995   2.939   4.002  16.943 -0.8014  0.2731 -0.7373
 5787SOL     OW28996   0.825   2.975   3.932  0.6372  0.0614  0.0038
 5787SOL    HW128997   0.822   2.950   3.840  2.3628  1.5053 -0.4437
 5787SOL    HW228998   0.787   2.896   3.970  0.0143 -0.1285 -0.9902
 5788SOL     OW28999   2.870   2.347   3.719  0.2036  0.0260 -0.2464
 5788SOL    HW129000   2.882   2.424   3.663  1.6331  0.0436  0.0903
 5788SOL    HW229001   2.919   2.274   3.680  1.1085 -1.0442  2.9478
 5789SOL     OW29002   2.103   0.500   4.577 -0.1819 -0.1987 -0.6654
 5789SOL    HW129003   2.054   0.438   4.631 -2.1274  1.1437 -0.8866
 5789SOL    HW229004   2.114   0.582   4.626  0.1646  0.1398 -1.2999
 5790SOL     OW29005   3.614   0.140  15.178 -0.2322 -0.0399  0.5910
 5790SOL    HW129006   3.632   0.060  15.228 -0.9335 -0.2835  0.4463
 5790SOL    HW229007   3.657   0.121  15.095  0.7570 -1.2176  1.3796
 5791SOL     OW29008   3.827   2.422   7.876 -0.3290 -0.7350 -0.2763
 5791SOL    HW129009   3.768   2.433   7.950 -1.0177 -0.0463 -0.9308
 5791SOL    HW229010   3.910   2.414   7.924  0.2517 -1.6398 -1.4232
 5792SOL     OW29011   2.706   2.293   4.247  0.1315 -0.2810 -0.0357
 5792SOL    HW129012   2.774   2.285   4.314  0.5618  2.2923 -0.1841
 5792SOL    HW229013   2.725   2.371   4.195  2.3023 -0.9617 -0.2643
 5793SOL     OW29014   2.528   3.247  14.276  0.6418  0.1447 -0.1431
 5793SOL    HW129015   2.607   3.301  14.265 -0.0427  1.1246 -0.2277
 5793SOL    HW229016   2.535   3.237  14.371 -1.1852 -2.8055 -0.3098
 5794SOL     OW29017   1.385   2.191   9.990  0.9710  0.7186 -0.1369
 5794SOL    HW129018   1.372   2.277  10.030  2.2892  1.1764 -0.6660
 5794SOL    HW229019   1.299   2.177   9.951  1.4490 -4.8010  0.8797
 5795SOL     OW29020   0.920   4.459   1.865 -0.3506 -0.9665 -0.0362
 5795SOL    HW129021   0.991   4.478   1.927  1.2320 -3.1698 -1.1873
 5795SOL    HW229022   0.843   4.474   1.919 -2.4072  0.6425 -3.4230
 5796SOL     OW29023   1.987   1.163   6.063 -0.1390  0.0765  0.5529
 5796SOL    HW129024   1.906   1.118   6.087 -0.9744  0.0162 -2.4749
 5796SOL    HW229025   2.021   1.084   6.022  1.3781  1.5638 -1.0303
 5797SOL     OW29026   4.200   2.794   2.875  0.4783 -0.8131  0.3384
 5797SOL    HW129027   4.271   2.730   2.883  1.4922  0.1365 -1.2361
 5797SOL    HW229028   4.195   2.795   2.780 -2.7165 -0.5376  0.5112
 5798SOL     OW29029   0.326   3.980   9.168 -0.0385  0.2676 -0.0429
 5798SOL    HW129030   0.343   3.886   9.179  1.4266  0.7083  1.5327
 5798SOL    HW229031   0.391   3.992   9.099  0.7464  0.7057  0.7675
 5799SOL     OW29032   4.162   3.548   3.569 -0.4940  0.4094  0.1821
 5799SOL    HW129033   4.198   3.538   3.658 -1.0936 -1.2611  0.2347
 5799SOL    HW229034   4.145   3.460   3.537  0.5646  0.6925 -1.1121
 5800SOL     OW29035   3.571   3.209   3.380  0.7732  0.1503 -0.5019
 5800SOL    HW129036   3.606   3.298   3.377  0.6537  0.2947  2.0315
 5800SOL    HW229037   3.596   3.190   3.471  0.9420  0.2496 -0.5276
 5801SOL     OW29038   4.288   0.820  12.578  0.3156  0.3103 -0.4042
 5801SOL    HW129039   4.213   0.865  12.539 -0.2125 -0.5625 -0.4049
 5801SOL    HW229040   4.270   0.727  12.562 -0.4151  0.4759 -0.5501
 5802SOL     OW29041   0.248   0.776   6.203 -0.4555  0.2575  0.1107
 5802SOL    HW129042   0.317   0.758   6.140  0.6439  3.3328  0.4569
 5802SOL    HW229043   0.256   0.695   6.253  1.0855  1.1766  1.3329
 5803SOL     OW29044   0.912   2.873   4.251  0.9604 -0.4925  0.1573
 5803SOL    HW129045   0.993   2.821   4.250  2.1185  1.2961  0.4405
 5803SOL    HW229046   0.928   2.950   4.196 -2.3533  0.1197  0.0567
 5804SOL     OW29047   2.401   1.269  15.412 -0.0435  0.1019  0.3591
 5804SOL    HW129048   2.459   1.237  15.481  0.3529 -1.1551 -0.5564
 5804SOL    HW229049   2.317   1.231  15.438  0.0679  0.9621  1.9831
 5805SOL     OW29050   2.653   0.487  11.521  0.3637  0.1305  0.2101
 5805SOL    HW129051   2.655   0.563  11.462 -2.6881 -1.1652 -1.6183
 5805SOL    HW229052   2.634   0.528  11.605 -2.1012  1.3265 -0.9050
 5806SOL     OW29053   1.108   2.793  13.314  0.1362  0.1706 -0.3732
 5806SOL    HW129054   1.088   2.834  13.398  1.1153  0.8474 -0.4715
 5806SOL    HW229055   1.152   2.868  13.274 -0.9781  0.6308 -0.7229
 5807SOL     OW29056   4.519   0.080   2.875 -0.4725  0.2316 -0.3853
 5807SOL    HW129057   4.450   0.092   2.940  0.8144  0.6942  0.8969
 5807SOL    HW229058   4.596   0.128   2.903  0.0231 -0.9095  0.2066
 5808SOL     OW29059   4.606   0.215  12.705  0.6599 -0.5417 -0.3191
 5808SOL    HW129060   4.542   0.148  12.682 -2.1862  2.0245  0.0743
 5808SOL    HW229061   4.609   0.205  12.800 -0.2096  1.2566 -0.1031
 5809SOL     OW29062   3.018   1.053   3.771  0.1481  0.1998 -0.0809
 5809SOL    HW129063   3.112   1.055   3.783  0.4351 -1.2233 -2.0186
 5809SOL    HW229064   2.995   1.034   3.862 -0.0775  0.2247 -0.1320
 5810SOL     OW29065   1.878   3.746  17.589 -0.2775  0.2162 -0.5154
 5810SOL    HW129066   1.825   3.706  17.658  1.3464 -0.8125  0.1266
 5810SOL    HW229067   1.933   3.803  17.642 -1.1152 -0.5027  1.1225
 5811SOL     OW29068   2.426   0.971   1.452 -0.3712  0.0251  0.8303
 5811SOL    HW129069   2.397   0.881   1.437  1.6504 -0.2847 -1.2227
 5811SOL    HW229070   2.374   1.000   1.527 -1.1099  2.2420 -0.5233
 5812SOL     OW29071   3.418   0.951   9.473  0.1079  0.2539  0.6624
 5812SOL    HW129072   3.383   0.888   9.410  0.8265  2.6940 -2.1647
 5812SOL    HW229073   3.338   0.984   9.514  0.7219  2.9791 -0.3972
 5813SOL     OW29074   4.686   3.949   3.371 -0.4593  0.1803  0.2595
 5813SOL    HW129075   4.652   3.976   3.286  2.7589  2.1699 -0.3644
 5813SOL    HW229076   4.627   3.991   3.434 -1.0893 -0.2543 -0.0373
 5814SOL     OW29077   4.658   0.663   3.144 -0.0537  0.3165  0.0397
 5814SOL    HW129078   4.571   0.698   3.162 -0.8797 -0.9684 -1.4847
 5814SOL    HW229079   4.659   0.590   3.205 -2.2953  1.7664  1.8016
 5815SOL     OW29080   2.054   4.200  11.532 -0.4839 -0.1029 -0.2189
 5815SOL    HW129081   1.977   4.235  11.488 -0.0817  1.4186  0.3111
 5815SOL    HW229082   2.023   4.174  11.619  1.7266 -4.2847 -0.6423
 5816SOL     OW29083   3.092   2.894   8.532  0.1601 -0.0400  0.2274
 5816SOL    HW129084   3.129   2.806   8.544  1.4386  0.3207 -1.1266
 5816SOL    HW229085   3.165   2.947   8.564 -0.3925  0.3391  0.8619
 5817SOL     OW29086   3.730   0.745   7.809 -0.0199 -0.3749 -0.0881
 5817SOL    HW129087   3.803   0.789   7.854  0.3118 -1.5048  0.4744
 5817SOL    HW229088   3.727   0.660   7.852  1.2698 -0.1706  0.4036
 5818SOL     OW29089   1.906   3.486   6.600  0.1128 -0.0580  0.3066
 5818SOL    HW129090   1.891   3.392   6.595  0.9727 -0.0369 -2.5479
 5818SOL    HW229091   1.828   3.517   6.646 -0.1272  0.0417 -0.1669
 5819SOL     OW29092   2.925   4.491   0.614  0.2797 -0.4635 -0.4179
 5819SOL    HW129093   2.941   4.430   0.542 -0.3688 -1.3872  0.2144
 5819SOL    HW229094   2.989   4.561   0.607 -0.3148  0.2154  0.8868
 5820SOL     OW29095   1.656   4.051   2.472 -0.4703  0.3840 -0.1347
 5820SOL    HW129096   1.743   4.074   2.440  0.1502 -1.7237  0.0570
 5820SOL    HW229097   1.599   4.088   2.404  3.0435  0.2011 -3.1421
 5821SOL     OW29098   0.761   3.305   7.783 -0.5235 -0.2862  0.1372
 5821SOL    HW129099   0.774   3.223   7.831 -1.0476 -1.2732 -1.4089
 5821SOL    HW229100   0.677   3.290   7.739 -0.1858 -0.0509 -0.5819
 5822SOL     OW29101   1.820   0.534   5.892 -0.1890  0.0703  0.2771
 5822SOL    HW129102   1.839   0.625   5.871 -2.3721  0.3636 -0.4384
 5822SOL    HW229103   1.879   0.498   5.826 -0.3420  2.1720 -1.0193
 5823SOL     OW29104   0.765   0.882   1.577 -0.4208 -0.1529 -0.1358
 5823SOL    HW129105   0.713   0.937   1.519  1.4276  1.2086 -0.4948
 5823SOL    HW229106   0.731   0.908   1.662 -0.6350  0.7228 -0.4994
 5824SOL     OW29107   4.024   2.324   9.926  0.0613  0.5309 -0.2942
 5824SOL    HW129108   4.102   2.376   9.906  1.0707 -0.4244  1.1321
 5824SOL    HW229109   3.956   2.388   9.949 -1.3297 -0.6298 -1.1412
 5825SOL     OW29110   4.251   4.211   8.784  0.2688 -0.0582  0.2117
 5825SOL    HW129111   4.297   4.204   8.700 -1.9733 -0.5654 -0.9864
 5825SOL    HW229112   4.314   4.192   8.852 -0.8996 -0.7407  1.0996
 5826SOL     OW29113   1.781   1.662   4.657 -0.2127  0.1233  0.3698
 5826SOL    HW129114   1.857   1.719   4.660 -0.1577  0.0258  0.8980
 5826SOL    HW229115   1.730   1.705   4.588  3.2622  0.7915 -1.7786
 5827SOL     OW29116   4.253   0.109   5.021 -0.0260  0.1662  0.2015
 5827SOL    HW129117   4.269   0.030   4.969 -1.2968  2.9897 -4.5303
 5827SOL    HW229118   4.196   0.073   5.089 -0.0540  0.7199  0.4717
 5828SOL     OW29119   2.897   0.422   6.784 -0.0284 -0.1293  0.1579
 5828SOL    HW129120   2.919   0.482   6.855  1.7475 -1.6023  0.8644
 5828SOL    HW229121   2.967   0.446   6.723 -0.3296  0.0744 -0.1090
 5829SOL     OW29122   2.671   2.579  17.308  0.2532  0.4524  0.3219
 5829SOL    HW129123   2.759   2.610  17.327  0.1617  1.4413 -0.8802
 5829SOL    HW229124   2.616   2.650  17.341  1.9442  2.0505 -0.2865
 5830SOL     OW29125   0.955   3.317   6.679 -0.7091  0.4875 -0.6646
 5830SOL    HW129126   0.949   3.245   6.742 -1.3384  1.8014  0.7642
 5830SOL    HW229127   1.045   3.302   6.648 -0.8448 -2.1586  0.2087
 5831SOL     OW29128   3.648   0.725   9.103 -0.1801 -0.3553 -0.4318
 5831SOL    HW129129   3.628   0.798   9.044  0.2313 -0.5661 -0.8328
 5831SOL    HW229130   3.721   0.761   9.153  2.8973 -3.6442 -2.5389
 5832SOL     OW29131   4.149   1.662   8.971 -0.0207 -0.2077 -0.1207
 5832SOL    HW129132   4.093   1.729   9.010  0.3661  0.6718 -1.0914
 5832SOL    HW229133   4.201   1.622   9.041 -1.3472  1.5255  1.8580
 5833SOL     OW29134   3.517   0.329   8.646  0.1863 -0.1957  0.2540
 5833SOL    HW129135   3.513   0.249   8.699  0.0820  0.7546  1.6898
 5833SOL    HW229136   3.432   0.371   8.657  0.5701  0.6182  0.0667
 5834SOL     OW29137   1.665   2.508   7.628  0.2717  0.1287 -0.3846
 5834SOL    HW129138   1.631   2.430   7.584 -0.1823  0.8599 -1.3417
 5834SOL    HW229139   1.688   2.561   7.551  1.9635  0.9394  0.6796
 5835SOL     OW29140   2.804   3.045  10.855 -0.9463 -0.1401  0.3188
 5835SOL    HW129141   2.711   3.049  10.879 -0.7298  0.5346  1.0470
 5835SOL    HW229142   2.825   2.952  10.849  0.6796  0.2299  0.4453
 5836SOL     OW29143   2.058   0.982  11.120  0.2331 -0.1956  0.1660
 5836SOL    HW129144   1.966   0.956  11.120 -0.1464  1.1615 -2.8964
 5836SOL    HW229145   2.056   1.037  11.199  2.3224 -1.0999  0.8366
 5837SOL     OW29146   1.334   0.199   2.396 -0.4290  0.3805  0.0273
 5837SOL    HW129147   1.386   0.190   2.316 -1.2155 -1.7655 -0.2453
 5837SOL    HW229148   1.380   0.141   2.458  0.2264  0.4749 -0.3717
 5838SOL     OW29149   3.868   3.539   8.303  0.2559 -0.5380  0.3934
 5838SOL    HW129150   3.815   3.573   8.231 -1.4202 -2.9288  0.4941
 5838SOL    HW229151   3.908   3.620   8.337  0.3674 -0.8143  0.9278
 5839SOL     OW29152   3.475   2.125   8.467  0.2859  0.2934 -0.0285
 5839SOL    HW129153   3.460   2.033   8.445  0.0573  0.0291  1.2547
 5839SOL    HW229154   3.388   2.165   8.462 -0.2498 -0.5286  2.5750
 5840SOL     OW29155   0.450   0.748   3.354 -0.5015 -0.0225 -0.3703
 5840SOL    HW129156   0.365   0.765   3.396 -2.1414 -0.1859 -3.6174
 5840SOL    HW229157   0.428   0.762   3.262  1.2003  0.6817 -0.6577
 5841SOL     OW29158   0.854   0.759   9.173  0.2456 -0.1318 -0.0218
 5841SOL    HW129159   0.845   0.841   9.220 -1.3504 -0.7524  0.7605
 5841SOL    HW229160   0.845   0.786   9.082 -1.2503 -1.4998 -0.2998
 5842SOL     OW29161   4.477   0.033   7.425  0.0304 -0.0946 -0.3233
 5842SOL    HW129162   4.507   0.112   7.471 -0.8882  0.6897 -1.0542
 5842SOL    HW229163   4.400   0.010   7.477  1.0021 -0.0792  1.1242
 5843SOL     OW29164   2.134   3.787  11.363 -0.2912  0.0976  0.5525
 5843SOL    HW129165   2.049   3.759  11.396 -1.4323  2.0483 -0.6862
 5843SOL    HW229166   2.196   3.715  11.375  0.4820  0.8219  0.9223
 5844SOL     OW29167   3.401   0.280   1.095 -0.5754 -0.4437 -0.6280
 5844SOL    HW129168   3.402   0.255   1.187  0.8368  3.1062  0.3209
 5844SOL    HW229169   3.479   0.335   1.089  0.2104 -1.4010  0.8633
 5845SOL     OW29170   3.921   2.525  12.971  0.0519  0.3420 -0.2795
 5845SOL    HW129171   3.827   2.511  12.961  0.3797 -3.4912  1.9162
 5845SOL    HW229172   3.953   2.436  12.957 -0.7149 -0.0411  0.4157
 5846SOL     OW29173   3.863   2.668   3.283 -0.3394  0.3758 -0.1079
 5846SOL    HW129174   3.783   2.618   3.268 -1.0141  1.8603 -1.5322
 5846SOL    HW229175   3.895   2.679   3.193  0.6294 -0.1054  0.1720
 5847SOL     OW29176   2.586   3.297   9.280  0.3940  0.2641 -0.1064
 5847SOL    HW129177   2.654   3.365   9.281 -0.2626  0.9714 -2.0322
 5847SOL    HW229178   2.634   3.236   9.224  0.7019  0.6884 -0.3072
 5848SOL     OW29179   2.641   2.596  11.640 -0.4747 -0.1237 -0.5448
 5848SOL    HW129180   2.601   2.568  11.723  0.2815 -1.3288 -0.5884
 5848SOL    HW229181   2.729   2.612  11.674 -1.0332 -0.4556  1.0623
 5849SOL     OW29182   3.640   0.071   9.244  0.1776 -0.1756 -0.1088
 5849SOL    HW129183   3.636   0.090   9.150  3.1780  2.9445  0.4032
 5849SOL    HW229184   3.725   0.113   9.253  1.2886 -1.8466 -3.0040
 5850SOL     OW29185   2.403   0.831   8.843  0.1220 -0.3465 -0.5257
 5850SOL    HW129186   2.390   0.926   8.851  0.2419 -0.2327 -1.6967
 5850SOL    HW229187   2.478   0.819   8.902 -0.6716 -2.4462  0.0335
 5851SOL     OW29188   1.084   4.156   6.033 -0.1091 -0.1434  0.2575
 5851SOL    HW129189   1.079   4.062   6.016  1.0708 -0.4882  1.8262
 5851SOL    HW229190   1.020   4.182   6.100 -2.2682 -0.6958 -1.5913
 5852SOL     OW29191   1.591   4.457   2.335  0.0849 -0.5606  0.2582
 5852SOL    HW129192   1.575   4.367   2.306 -3.9867 -0.1027  1.0341
 5852SOL    HW229193   1.507   4.463   2.381  0.4231  0.4002  0.7401
 5853SOL     OW29194   3.712   4.457   5.644  0.1209 -0.2146 -0.0645
 5853SOL    HW129195   3.764   4.404   5.583 -0.1666 -2.7121  1.8661
 5853SOL    HW229196   3.694   4.530   5.585  0.9472  1.3702  1.6597
 5854SOL     OW29197   0.247   4.632   3.412 -0.6290  0.0324 -0.4952
 5854SOL    HW129198   0.165   4.616   3.365 -0.2579  0.8606 -1.4078
 5854SOL    HW229199   0.247   4.549   3.460 -2.2872 -0.2116 -0.9156
 5855SOL     OW29200   4.663   4.232   3.082 -0.1075 -0.0036 -0.1338
 5855SOL    HW129201   4.642   4.249   3.173 -1.4023 -0.4003 -0.3559
 5855SOL    HW229202   0.022   4.222   3.086  0.2072  3.3466  0.3405
 5856SOL     OW29203   0.673   1.346  17.269  0.2983 -0.2247  0.3755
 5856SOL    HW129204   0.646   1.389  17.350  0.5400  0.0326  0.3209
 5856SOL    HW229205   0.769   1.353  17.267  0.2811 -0.0766  0.0222
 5857SOL     OW29206   3.748   1.056   3.464  0.2243  0.9521  0.2510
 5857SOL    HW129207   3.813   1.067   3.534  0.1904  1.5048  0.1968
 5857SOL    HW229208   3.768   0.967   3.434  0.7418  0.9376  0.6390
 5858SOL     OW29209   2.520   3.840   5.465  0.0994 -0.3141 -0.1064
 5858SOL    HW129210   2.557   3.856   5.552  2.5240  0.2028 -1.2160
 5858SOL    HW229211   2.430   3.855   5.492  0.4531  0.7279  0.4935
 5859SOL     OW29212   1.573   2.107   2.199  0.2782  0.6163  0.3860
 5859SOL    HW129213   1.508   2.176   2.192 -0.3623  0.1181  1.4197
 5859SOL    HW229214   1.642   2.143   2.144 -0.2574 -0.5731 -1.0727
 5860SOL     OW29215   1.029   0.929  14.876  0.7973  0.3582 -0.1917
 5860SOL    HW129216   0.980   1.000  14.835 -2.0278 -2.0616 -1.0482
 5860SOL    HW229217   0.966   0.857  14.868  2.1258 -0.7732 -0.4391
 5861SOL     OW29218   1.895   2.364   8.050 -0.0835 -0.1434 -0.3616
 5861SOL    HW129219   1.837   2.290   8.030  3.2038 -2.6296 -0.6119
 5861SOL    HW229220   1.974   2.356   7.997 -0.9767  0.6277 -1.7900
 5862SOL     OW29221   3.067   3.320   2.400  0.5419  0.2258  0.3925
 5862SOL    HW129222   3.001   3.373   2.445  0.6139  0.6246  0.0268
 5862SOL    HW229223   3.048   3.346   2.310 -1.2968  2.5276  1.4164
 5863SOL     OW29224   3.934   1.742   2.869  0.1238 -0.2500  0.0858
 5863SOL    HW129225   3.946   1.667   2.809 -2.6472 -0.2941 -0.3914
 5863SOL    HW229226   3.903   1.693   2.945 -0.1122 -1.9752 -1.1033
 5864SOL     OW29227   1.691   3.888   1.697  0.7280  0.2289  0.6751
 5864SOL    HW129228   1.610   3.845   1.669  2.7690 -2.5519 -0.9320
 5864SOL    HW229229   1.657   3.966   1.741 -2.9794 -1.0218  0.0175
 5865SOL     OW29230   4.652   0.119   3.923  0.3181  0.2432 -0.3747
 5865SOL    HW129231   4.677   0.038   3.967  1.7391  0.6440 -0.4217
 5865SOL    HW229232   0.003   0.159   3.924  1.2610 -1.7574 -2.6941
 5866SOL     OW29233   3.967   4.245  16.315 -0.3008  0.4875  0.2687
 5866SOL    HW129234   3.936   4.272  16.402 -0.3393  1.9394 -0.1993
 5866SOL    HW229235   4.030   4.315  16.299  1.9275 -1.3727  0.8595
 5867SOL     OW29236   4.076   2.045   8.196  0.1545 -0.1847  0.1110
 5867SOL    HW129237   4.111   1.959   8.170  0.0241  0.0184 -0.7451
 5867SOL    HW229238   4.018   2.060   8.121  0.3632  1.9484  0.3746
 5868SOL     OW29239   0.377   2.015   8.626 -0.4576 -0.1190 -0.6972
 5868SOL    HW129240   0.349   2.106   8.616  1.4791  0.3694 -1.6445
 5868SOL    HW229241   0.470   2.026   8.648 -1.2600  3.0095  1.1155
 5869SOL     OW29242   1.705   0.516  13.768 -0.4329  0.4996 -0.0345
 5869SOL    HW129243   1.640   0.585  13.781  0.5561  1.6283 -1.2020
 5869SOL    HW229244   1.660   0.453  13.711 -2.2965  1.5023  0.3238
 5870SOL     OW29245   2.765   2.999   1.609  0.0324  0.3228 -0.1586
 5870SOL    HW129246   2.760   2.938   1.683 -2.0361 -0.3874 -0.8884
 5870SOL    HW229247   2.762   3.086   1.648 -0.6649  0.0245  0.4555
 5871SOL     OW29248   2.076   3.803   3.030  0.2576 -0.0538  0.5664
 5871SOL    HW129249   2.166   3.814   3.000 -0.0577 -0.4249 -0.5063
 5871SOL    HW229250   2.105   3.781   3.119  0.6828  0.6848  0.6186
 5872SOL     OW29251   4.429   4.562   3.561  0.1021  0.3572 -0.0731
 5872SOL    HW129252   4.437   4.629   3.630  0.3082 -0.3640  0.6013
 5872SOL    HW229253   4.466   4.610   3.487 -1.3581  1.1569 -0.2978
 5873SOL     OW29254   0.946   4.438  12.327  0.0240  0.0387 -0.4679
 5873SOL    HW129255   0.997   4.366  12.364 -2.4541 -0.7530  1.4206
 5873SOL    HW229256   1.008   4.511  12.333  0.8688 -0.5339 -2.3860
 5874SOL     OW29257   4.544   2.158  14.671  0.0898 -0.6856 -0.3616
 5874SOL    HW129258   4.556   2.130  14.580 -0.2038  2.9789 -1.5242
 5874SOL    HW229259   4.540   2.076  14.720  1.7830 -0.2881  0.4226
 5875SOL     OW29260   2.879   0.915   9.362  0.1000 -0.2742  0.1799
 5875SOL    HW129261   2.860   0.845   9.299  1.3587  1.0026 -1.6032
 5875SOL    HW229262   2.843   0.987   9.310  1.1912 -0.5098 -0.9123
 5876SOL     OW29263   2.779   0.013  12.327 -0.0846 -0.0740 -0.6407
 5876SOL    HW129264   2.703   0.027  12.383  1.9816  0.4731  2.0508
 5876SOL    HW229265   2.816   4.675  12.375  0.6553 -0.5264 -1.9204
 5877SOL     OW29266   2.437   2.123   0.873  0.3124  0.0024 -0.2178
 5877SOL    HW129267   2.456   2.214   0.850  0.4527  0.0416  0.0530
 5877SOL    HW229268   2.403   2.139   0.961 -0.7800 -0.6351 -0.5328
 5878SOL     OW29269   3.298   4.182   1.275  0.1695  0.5757 -0.1585
 5878SOL    HW129270   3.271   4.236   1.201 -2.3031 -0.6080 -0.0938
 5878SOL    HW229271   3.369   4.238   1.308  0.8253 -1.0753  1.2755
 5879SOL     OW29272   4.527   0.379   7.036  0.3716 -0.5849 -0.2336
 5879SOL    HW129273   4.460   0.386   6.968  1.7353 -1.6415 -1.7142
 5879SOL    HW229274   4.500   0.301   7.084 -0.7242  0.6115  1.0858
 5880SOL     OW29275   3.597   3.641   6.047 -0.6990  0.1723  0.3243
 5880SOL    HW129276   3.573   3.668   5.958  1.3994  0.5098 -0.1443
 5880SOL    HW229277   3.627   3.550   6.041 -0.4610  0.2970 -0.3985
 5881SOL     OW29278   1.451   0.004   2.542  0.1241  0.3780  0.2502
 5881SOL    HW129279   1.529   4.685   2.541 -0.3357 -0.2418 -0.8626
 5881SOL    HW229280   1.469   0.073   2.606  0.8847 -0.0004  0.4422
 5882SOL     OW29281   2.872   3.250   6.622 -0.0915  0.0215  0.1309
 5882SOL    HW129282   2.865   3.336   6.580  1.9598  0.7520  1.2770
 5882SOL    HW229283   2.943   3.207   6.574 -1.1544 -2.7974  1.1098
 5883SOL     OW29284   2.489   2.838   4.006 -0.4106 -0.0836 -0.3215
 5883SOL    HW129285   2.450   2.836   4.093  0.2638 -1.2653 -0.0500
 5883SOL    HW229286   2.419   2.878   3.954 -0.2673  0.5154 -0.0610
 5884SOL     OW29287   2.267   1.193   9.013  0.1124  0.1676 -0.5294
 5884SOL    HW129288   2.202   1.263   9.000 -1.6871 -1.4060 -0.0623
 5884SOL    HW229289   2.225   1.132   8.953 -0.3502  2.1119 -2.1884
 5885SOL     OW29290   1.741   1.586   7.710 -0.1342  0.1637 -0.0895
 5885SOL    HW129291   1.832   1.590   7.682 -0.2163 -2.4678 -0.7679
 5885SOL    HW229292   1.730   1.650   7.779  0.6394  0.1122  0.0810
 5886SOL     OW29293   1.969   3.347   9.112 -0.2549  0.5608 -0.4295
 5886SOL    HW129294   2.046   3.332   9.058 -0.8664 -0.6319 -0.9640
 5886SOL    HW229295   1.898   3.305   9.063 -0.4795 -1.0033  1.2228
 5887SOL     OW29296   1.545   3.925  15.345 -0.1113  0.2491 -0.2362
 5887SOL    HW129297   1.508   3.842  15.377 -0.2880  0.8589  1.1773
 5887SOL    HW229298   1.483   3.997  15.360  0.3297  0.4940  0.4294
 5888SOL     OW29299   1.192   0.984   9.228 -0.2516 -0.2399  0.3654
 5888SOL    HW129300   1.190   1.078   9.245  0.3434 -0.2359  0.4158
 5888SOL    HW229301   1.263   0.989   9.163  1.7231 -1.8207  2.3898
 5889SOL     OW29302   4.232   0.837   9.140  0.6494  0.0657 -0.1359
 5889SOL    HW129303   4.323   0.828   9.111 -0.2707  2.3174 -3.7244
 5889SOL    HW229304   4.242   0.818   9.233  0.2498  0.3080 -0.0463
 5890SOL     OW29305   4.599   0.151   7.720 -0.1446 -0.1718  0.0198
 5890SOL    HW129306   4.603   0.210   7.795 -0.4246 -1.7928  1.3075
 5890SOL    HW229307   4.689   0.120   7.708  0.7006  1.9528  0.9321
 5891SOL     OW29308   1.983   3.604   4.870 -0.1238 -0.4253 -0.6844
 5891SOL    HW129309   2.045   3.539   4.903 -0.4731 -0.2940  0.2325
 5891SOL    HW229310   2.034   3.684   4.860  0.9417 -1.1871 -1.3987
 5892SOL     OW29311   0.228   3.317  10.439 -0.1948 -0.6557  0.1852
 5892SOL    HW129312   0.155   3.378  10.430 -0.4993 -1.4447 -2.7451
 5892SOL    HW229313   0.304   3.372  10.422 -0.3569  0.4443  3.1293
 5893SOL     OW29314   1.040   0.428   6.953  0.2207  0.6109  0.3121
 5893SOL    HW129315   1.021   0.516   6.985 -0.2524  0.0141  1.7042
 5893SOL    HW229316   1.075   0.437   6.865  0.1018 -1.6954  0.0258
 5894SOL     OW29317   2.747   3.649   3.818  0.3858  0.2330 -0.9227
 5894SOL    HW129318   2.780   3.560   3.803 -0.3258  0.1349 -1.9440
 5894SOL    HW229319   2.673   3.642   3.757  0.4687 -1.2757 -0.8440
 5895SOL     OW29320   4.565   2.642   0.006  0.1754 -0.2773 -0.0868
 5895SOL    HW129321   4.645   2.647  17.697  0.0411 -1.5178 -0.4032
 5895SOL    HW229322   4.596   2.683   0.087  1.0130 -0.4405 -0.3279
 5896SOL     OW29323   4.204   3.595   6.566 -0.1259  0.2323  0.6730
 5896SOL    HW129324   4.113   3.572   6.546 -0.0439  0.5010 -0.0041
 5896SOL    HW229325   4.196   3.630   6.655 -0.4826 -2.4247  1.6694
 5897SOL     OW29326   3.916   2.171   6.098 -0.4536  0.6970 -0.1319
 5897SOL    HW129327   3.882   2.102   6.041 -1.4353 -2.6698  4.5065
 5897SOL    HW229328   4.001   2.135   6.126  0.4908  1.1847 -2.3611
 5898SOL     OW29329   2.861   1.360  10.741  0.2149 -0.1231 -0.3890
 5898SOL    HW129330   2.771   1.329  10.737  0.2785 -0.2385 -0.9340
 5898SOL    HW229331   2.861   1.432  10.804  0.9690 -0.3874 -0.0788
 5899SOL     OW29332   4.502   1.061  14.960 -0.3707  0.1319 -0.2859
 5899SOL    HW129333   4.499   1.029  15.050  0.9780  0.4251 -0.1347
 5899SOL    HW229334   4.423   1.019  14.927  1.1811 -3.3316  0.4010
 5900SOL     OW29335   1.702   0.220  10.210  0.1148 -0.0581  0.2107
 5900SOL    HW129336   1.776   0.251  10.158 -2.4254  1.2619 -2.6210
 5900SOL    HW229337   1.638   0.290  10.218 -0.9180 -0.9817 -0.0381
 5901SOL     OW29338   0.807   1.330   4.292 -0.2025 -0.4082 -0.6116
 5901SOL    HW129339   0.839   1.241   4.306 -2.5139 -1.1977 -0.2540
 5901SOL    HW229340   0.883   1.384   4.272 -0.7168  0.6064  0.1507
 5902SOL     OW29341   2.117   1.345   3.866  0.3420  0.2324  0.0809
 5902SOL    HW129342   2.087   1.267   3.819  0.2199  0.5672 -0.3926
 5902SOL    HW229343   2.131   1.407   3.794  0.9724  0.5113  0.4397
 5903SOL     OW29344   2.618   4.022   5.258  0.1445  0.0540  0.0702
 5903SOL    HW129345   2.561   3.948   5.283 -1.2782  1.6582  1.5712
 5903SOL    HW229346   2.680   3.952   5.237  1.7293  2.5429 -3.4052
 5904SOL     OW29347   2.165   3.243   3.820  0.2766  0.1259 -0.1382
 5904SOL    HW129348   2.212   3.320   3.788  1.9777 -0.4604  0.9633
 5904SOL    HW229349   2.088   3.247   3.764  0.5964  0.7626 -0.5315
 5905SOL     OW29350   3.957   2.282  15.718  0.4403  0.5310  0.0196
 5905SOL    HW129351   3.926   2.201  15.758 -0.4695  0.8721 -0.0060
 5905SOL    HW229352   3.881   2.324  15.677  0.5611  0.2979 -0.4471
 5906SOL     OW29353   3.712   1.413   4.662 -0.8914 -0.3962 -0.2076
 5906SOL    HW129354   3.776   1.348   4.632  2.9398  2.0637  2.7226
 5906SOL    HW229355   3.636   1.413   4.603 -0.2926 -1.7634 -0.9811
 5907SOL     OW29356   3.975   1.309  12.727  0.0103 -0.0663  0.3563
 5907SOL    HW129357   3.995   1.221  12.756 -1.0649 -0.1052  0.9845
 5907SOL    HW229358   4.024   1.301  12.645 -0.2024  0.6527  0.1577
 5908SOL     OW29359   2.647   2.305   3.243 -0.4587 -0.0969  0.1566
 5908SOL    HW129360   2.604   2.389   3.259 -3.3517 -1.5662  0.0585
 5908SOL    HW229361   2.591   2.244   3.195 -0.3784 -0.3051  0.3285
 5909SOL     OW29362   3.167   3.785   3.966 -0.6811  0.4525  0.0206
 5909SOL    HW129363   3.181   3.879   3.952  0.7625  0.0284 -1.3088
 5909SOL    HW229364   3.088   3.766   3.915  0.0402  0.2055 -1.0011
 5910SOL     OW29365   2.189   1.466   3.431  0.2895  0.1543  0.0623
 5910SOL    HW129366   2.218   1.503   3.515 -0.3658  1.2505 -0.1984
 5910SOL    HW229367   2.268   1.426   3.395 -0.1561 -0.5744 -0.0983
 5911SOL     OW29368   3.975   3.831   5.647 -0.4852  0.3729 -0.0014
 5911SOL    HW129369   4.021   3.834   5.730  0.0113  0.4071 -0.2757
 5911SOL    HW229370   3.901   3.774   5.666 -0.8182  0.0522 -2.2256
 5912SOL     OW29371   2.444   1.933  16.881  0.8365 -0.3447 -0.1693
 5912SOL    HW129372   2.356   1.961  16.853  2.1345  2.8925 -0.9879
 5912SOL    HW229373   2.449   1.846  16.841 -3.0361 -2.0287  2.9742
 5913SOL     OW29374   4.334   1.373   3.509 -0.0678 -0.0377  0.0948
 5913SOL    HW129375   4.295   1.286   3.502 -1.3246  0.5941 -0.7419
 5913SOL    HW229376   4.285   1.406   3.584  0.8278 -0.4536  0.8594
 5914SOL     OW29377   1.789   2.427   6.786 -0.1987  0.6167  0.5242
 5914SOL    HW129378   1.850   2.485   6.741  1.0877  1.2704  3.1077
 5914SOL    HW229379   1.759   2.370   6.715 -2.6134 -0.1796  2.1875
 5915SOL     OW29380   4.326   0.846   9.456 -0.5029  0.9231 -0.2867
 5915SOL    HW129381   4.264   0.870   9.525  1.7876  1.5493  1.5622
 5915SOL    HW229382   4.409   0.876   9.493 -0.4231  0.2533  0.0693
 5916SOL     OW29383   2.198   1.018   3.481 -0.0518  0.4522 -0.4991
 5916SOL    HW129384   2.191   0.925   3.504  2.8086  0.6028  0.8400
 5916SOL    HW229385   2.248   1.042   3.558 -1.0779 -1.0212  0.6219
 5917SOL     OW29386   1.886   2.880   2.631  0.2559  0.0260 -0.4889
 5917SOL    HW129387   1.976   2.895   2.602  0.4578  1.7073  0.9618
 5917SOL    HW229388   1.854   2.832   2.555  0.7978 -1.4230  0.1960
 5918SOL     OW29389   3.941   2.268  16.423 -0.0745 -0.3018  0.3084
 5918SOL    HW129390   4.032   2.281  16.449  0.2253 -0.4164 -0.6819
 5918SOL    HW229391   3.930   2.182  16.464  0.0272 -0.0697  0.8253
 5919SOL     OW29392   3.986   0.165   7.756  0.3631 -0.2873 -0.2724
 5919SOL    HW129393   4.006   0.190   7.666 -2.4810 -2.1150 -1.3871
 5919SOL    HW229394   4.077   0.166   7.787 -0.2349  0.3857  1.5115
 5920SOL     OW29395   0.047   4.207   7.789 -0.1388 -0.0417 -0.5621
 5920SOL    HW129396   0.007   4.284   7.829 -0.1762  1.0401 -2.7352
 5920SOL    HW229397   0.086   4.177   7.871  2.1119  3.1409 -0.4389
 5921SOL     OW29398   1.196   0.091   4.391 -0.3361 -0.6224 -0.7780
 5921SOL    HW129399   1.156   0.078   4.305  1.0020 -0.3361 -1.4472
 5921SOL    HW229400   1.131   0.152   4.427 -0.6634 -0.6887 -1.2622
 5922SOL     OW29401   0.446   2.674  15.575  0.3094 -0.3529 -0.0492
 5922SOL    HW129402   0.384   2.747  15.586  0.0392 -0.8451  1.6831
 5922SOL    HW229403   0.383   2.603  15.588 -0.5164  0.2998 -0.4943
 5923SOL     OW29404   4.115   1.749   6.296 -0.3750 -0.0169 -0.0993
 5923SOL    HW129405   4.057   1.737   6.371  0.5144 -1.5882  0.3340
 5923SOL    HW229406   4.197   1.747   6.346 -0.4851  1.5123  0.1263
 5924SOL     OW29407   4.522   1.205   9.972 -0.4225 -0.0049  0.2765
 5924SOL    HW129408   4.466   1.202   9.895 -0.4679 -0.6908  0.3391
 5924SOL    HW229409   4.550   1.114   9.974 -1.4461 -0.3219  0.0920
 5925SOL     OW29410   1.182   1.754   6.703  0.0821 -0.1958 -0.4961
 5925SOL    HW129411   1.248   1.813   6.741  0.2823  0.1447 -1.3757
 5925SOL    HW229412   1.124   1.746   6.779  2.6598 -0.8650  1.3978
 5926SOL     OW29413   4.123   4.436   5.221  0.4670 -0.0695  0.0793
 5926SOL    HW129414   4.086   4.350   5.202 -2.1630  0.8734  0.8688
 5926SOL    HW229415   4.215   4.411   5.230  0.1045 -1.8755 -1.1009
 5927SOL     OW29416   2.950   1.632   4.904  0.3148 -0.6459  0.0751
 5927SOL    HW129417   3.017   1.656   4.969  2.8696  0.0879 -2.8006
 5927SOL    HW229418   2.958   1.538   4.888  2.9002 -0.1829 -1.3555
 5928SOL     OW29419   2.483   0.307   2.198  0.2957  0.4010  0.0319
 5928SOL    HW129420   2.412   0.273   2.143  1.1114 -1.7225  0.2944
 5928SOL    HW229421   2.500   0.227   2.249  0.8723  0.9375  0.6805
 5929SOL     OW29422   0.532   3.225   7.237 -0.8234  0.7857  0.2563
 5929SOL    HW129423   0.480   3.145   7.239 -0.2321  0.3996  0.2454
 5929SOL    HW229424   0.610   3.202   7.288  0.5619  0.9036 -1.8021
 5930SOL     OW29425   1.614   1.745  15.035  0.0819 -0.2569 -0.8034
 5930SOL    HW129426   1.570   1.680  15.090 -1.1016 -2.1712 -3.9858
 5930SOL    HW229427   1.547   1.765  14.969  0.4178  1.8440 -0.5155
 5931SOL     OW29428   1.406   1.529   8.258 -0.0994  0.0664 -0.0297
 5931SOL    HW129429   1.401   1.623   8.239 -1.7345  0.3382  1.7758
 5931SOL    HW229430   1.376   1.493   8.175 -0.2826 -1.0650  0.5222
 5932SOL     OW29431   0.657   4.589  10.875 -0.1226 -0.5120  0.1314
 5932SOL    HW129432   0.752   4.591  10.860 -0.1468 -0.2104  0.0135
 5932SOL    HW229433   0.636   4.630  10.791 -0.5874  0.1278  0.5549
 5933SOL     OW29434   1.578   2.976  15.420  0.7231 -0.3591 -0.4710
 5933SOL    HW129435   1.560   3.000  15.511  1.0961  0.0631 -0.5103
 5933SOL    HW229436   1.665   3.015  15.413  0.6641  0.1092  1.4668
 5934SOL     OW29437   0.855   4.489  16.520  0.2388  0.4599 -0.3673
 5934SOL    HW129438   0.902   4.408  16.537 -0.3217  0.1474 -0.2916
 5934SOL    HW229439   0.920   4.541  16.472  2.0130 -1.3984  0.0602
 5935SOL     OW29440   2.051   1.861  10.128 -0.0378  0.6568 -0.0262
 5935SOL    HW129441   1.998   1.782  10.141  3.1244 -1.2683  1.1681
 5935SOL    HW229442   2.123   1.823  10.078 -0.7271  2.1478 -2.1526
 5936SOL     OW29443   1.535   3.838  17.515  0.4737  0.1866  0.6143
 5936SOL    HW129444   1.452   3.838  17.563 -2.0517  1.1952 -3.7417
 5936SOL    HW229445   1.546   3.743  17.508 -1.1228  0.1916 -2.1125
 5937SOL     OW29446   0.627   2.852   8.020  0.1542  0.1062  0.7588
 5937SOL    HW129447   0.578   2.798   8.082 -0.8690 -0.1574 -0.2743
 5937SOL    HW229448   0.627   2.792   7.946  0.0581  3.1690 -1.7479
 5938SOL     OW29449   0.424   0.122   2.538  0.1295  0.2195  0.2583
 5938SOL    HW129450   0.339   0.150   2.572 -1.1263 -0.8043 -2.0780
 5938SOL    HW229451   0.482   0.172   2.595  0.1035  2.1841 -1.4498
 5939SOL     OW29452   1.312   2.235   2.679 -0.0651 -0.1777 -0.2900
 5939SOL    HW129453   1.237   2.230   2.738 -0.8081 -0.0069 -1.2329
 5939SOL    HW229454   1.285   2.169   2.615  0.7834 -1.1155  0.3083
 5940SOL     OW29455   2.152   2.954   0.998  0.1674 -0.3360 -0.6608
 5940SOL    HW129456   2.089   3.017   0.961  2.3130  2.2098  0.0623
 5940SOL    HW229457   2.097   2.935   1.074  0.8404 -0.7396 -0.2871
 5941SOL     OW29458   4.160   1.052  15.498  0.2376  0.7592  0.3063
 5941SOL    HW129459   4.094   1.116  15.520 -1.2591 -1.6746  2.8636
 5941SOL    HW229460   4.197   1.061  15.586  0.2894  2.1729  0.1317
 5942SOL     OW29461   1.177   3.175  12.543 -0.1692  0.1714 -0.4518
 5942SOL    HW129462   1.216   3.097  12.582  0.4249 -0.3186 -2.0249
 5942SOL    HW229463   1.089   3.150  12.516 -0.0418  0.9420 -1.5771
 5943SOL     OW29464   2.770   0.982   4.391 -0.2583 -0.2378  0.1053
 5943SOL    HW129465   2.714   1.034   4.448  1.9779  0.9558  1.2292
 5943SOL    HW229466   2.709   0.937   4.333 -0.5046 -0.0845  0.2455
 5944SOL     OW29467   1.374   0.582   4.076  0.4069 -0.0433 -0.6738
 5944SOL    HW129468   1.367   0.677   4.063 -1.8476  0.0081  1.0019
 5944SOL    HW229469   1.397   0.562   4.167  0.7620  2.4488 -0.2173
 5945SOL     OW29470   2.844   4.202  11.514  0.3154 -0.1387  0.6675
 5945SOL    HW129471   2.753   4.198  11.544 -0.8206  3.7493 -2.2214
 5945SOL    HW229472   2.867   4.110  11.524  1.6923  0.0505 -0.8083
 5946SOL     OW29473   2.779   1.090   0.764  0.6924  0.0632 -0.6727
 5946SOL    HW129474   2.725   1.164   0.794 -1.8610 -2.3329  0.5868
 5946SOL    HW229475   2.771   1.095   0.669 -0.5032 -0.2200 -0.5791
 5947SOL     OW29476   1.383   1.213   1.453  0.4214 -0.2303  0.4237
 5947SOL    HW129477   1.362   1.298   1.492  1.1383  1.0076 -1.9075
 5947SOL    HW229478   1.462   1.186   1.501  1.1499  1.0074 -0.0593
 5948SOL     OW29479   4.136   2.183   6.742  0.3258  0.0213  0.4241
 5948SOL    HW129480   4.058   2.228   6.773 -0.2136  0.0793 -1.0279
 5948SOL    HW229481   4.123   2.106   6.798  1.4256 -0.4738  0.0026
 5949SOL     OW29482   1.659   2.625   5.765  0.2811  0.5505 -0.0828
 5949SOL    HW129483   1.601   2.675   5.823  2.5005  2.0878  0.8386
 5949SOL    HW229484   1.670   2.695   5.701  1.0915 -0.8978 -1.5062
 5950SOL     OW29485   3.565   1.129   2.816 -0.6213  0.1575 -0.1590
 5950SOL    HW129486   3.488   1.182   2.835 -1.7948 -1.3409 -0.7430
 5950SOL    HW229487   3.524   1.043   2.801  1.6877 -1.0599  0.4928
 5951SOL     OW29488   4.075   3.165  15.131  0.3462  0.2008  0.5974
 5951SOL    HW129489   4.165   3.148  15.158  0.7882  1.6161  0.0154
 5951SOL    HW229490   4.093   3.257  15.111 -0.6121  0.4442  0.8375
 5952SOL     OW29491   1.822   2.374   8.290  0.8022 -0.1440  0.4631
 5952SOL    HW129492   1.891   2.429   8.328  1.2805 -0.7723  0.4904
 5952SOL    HW229493   1.860   2.365   8.203 -0.9288 -0.6066 -0.2501
 5953SOL     OW29494   1.819   0.485   8.085  0.1278  0.2946  0.0672
 5953SOL    HW129495   1.804   0.477   7.990 -1.5975  1.7519  0.2038
 5953SOL    HW229496   1.909   0.456   8.096  0.5650  0.6539 -2.5303
 5954SOL     OW29497   1.683   2.749   8.733 -0.1990  0.1214  0.1645
 5954SOL    HW129498   1.719   2.660   8.733 -0.1787  0.1347 -0.9463
 5954SOL    HW229499   1.595   2.735   8.769 -1.1902 -0.6601 -2.6115
 5955SOL     OW29500   0.772   3.927   1.138  0.5737  0.3580 -0.1341
 5955SOL    HW129501   0.806   3.994   1.078  2.9166  0.4954  1.3450
 5955SOL    HW229502   0.851   3.888   1.173  0.4256  0.9282  0.8276
 5956SOL     OW29503   2.869   3.597  10.779  0.0462  0.1035 -0.3011
 5956SOL    HW129504   2.851   3.658  10.707 -0.5338 -1.9197 -1.8530
 5956SOL    HW229505   2.854   3.506  10.755  0.1802 -0.0853  0.3355
 5957SOL     OW29506   3.275   2.877   6.407  0.4448  0.2217  0.1967
 5957SOL    HW129507   3.332   2.879   6.330  1.9069 -1.6378  1.2152
 5957SOL    HW229508   3.201   2.819   6.388 -0.2595  0.7308  1.3754
 5958SOL     OW29509   2.838   2.597   2.462 -0.1170 -0.0393 -0.4938
 5958SOL    HW129510   2.865   2.589   2.370 -2.5104 -1.3059 -1.0788
 5958SOL    HW229511   2.895   2.668   2.492 -0.1198  0.0563 -0.7155
 5959SOL     OW29512   1.152   3.294   7.402  0.3330  0.1413  0.2012
 5959SOL    HW129513   1.148   3.326   7.312 -0.9647  0.1863  0.2791
 5959SOL    HW229514   1.101   3.214   7.392 -0.3859  0.1903  3.3367
 5960SOL     OW29515   3.408   1.655  15.402  0.0855  0.2068 -0.3640
 5960SOL    HW129516   3.316   1.631  15.410 -0.3406  1.2538 -2.1533
 5960SOL    HW229517   3.417   1.717  15.330 -1.0480  0.3559 -0.3771
 5961SOL     OW29518   4.054   4.139   5.634 -0.3314  0.3677 -0.3939
 5961SOL    HW129519   3.983   4.086   5.671 -0.4039  2.2992  2.2907
 5961SOL    HW229520   4.043   4.216   5.690 -0.7238  2.4322 -3.2915
 5962SOL     OW29521   3.337   2.868  12.115  0.8915 -0.0631  0.0824
 5962SOL    HW129522   3.267   2.865  12.181  1.1950 -0.2009  0.4016
 5962SOL    HW229523   3.273   2.875  12.045 -0.2711  0.4566  1.1998
 5963SOL     OW29524   2.929   0.275   0.981  0.2523 -0.1677  0.2908
 5963SOL    HW129525   3.000   0.336   0.959 -1.0041  1.2595  0.1973
 5963SOL    HW229526   2.865   0.303   0.917  1.3345  0.8043 -0.3672
 5964SOL     OW29527   3.653   0.375   7.188 -0.0732  0.0758  0.2747
 5964SOL    HW129528   3.625   0.283   7.194  3.9023 -1.1059  0.3988
 5964SOL    HW229529   3.590   0.408   7.252 -2.2319  0.0334 -1.8080
 5965SOL     OW29530   3.174   0.730   6.917 -0.2658 -0.8946  0.3787
 5965SOL    HW129531   3.091   0.709   6.961 -1.3693 -2.0906 -2.2517
 5965SOL    HW229532   3.207   0.642   6.897  0.2560 -0.8291  0.9602
 5966SOL     OW29533   1.667   2.960   0.356  0.0722  0.0373 -0.1822
 5966SOL    HW129534   1.607   2.963   0.282  1.8270 -0.0907 -1.5985
 5966SOL    HW229535   1.740   2.910   0.319  1.0855  0.7628  0.8326
 5967SOL     OW29536   4.264   1.971   3.740  0.0048  0.1560 -0.3246
 5967SOL    HW129537   4.278   2.040   3.804  0.4670 -0.3663  0.1373
 5967SOL    HW229538   4.224   2.025   3.672  1.4977  1.1076 -0.4304
 5968SOL     OW29539   3.828   0.686   2.299 -0.3026 -0.1259  0.0831
 5968SOL    HW129540   3.868   0.646   2.376  1.9317 -3.1240 -2.6544
 5968SOL    HW229541   3.755   0.735   2.338 -0.8341 -1.5045  0.8221
 5969SOL     OW29542   0.329   3.359   4.272 -0.4988  0.7642 -0.5031
 5969SOL    HW129543   0.396   3.369   4.340  0.2866  2.0196 -1.4699
 5969SOL    HW229544   0.282   3.278   4.292  0.1956  0.5883  0.4577
 5970SOL     OW29545   4.310   3.021  11.030 -0.0249  0.0872  0.3791
 5970SOL    HW129546   4.369   3.079  11.078  1.0351 -0.9387  0.2933
 5970SOL    HW229547   4.288   2.954  11.095  0.1153  1.3760  1.7535
 5971SOL     OW29548   1.507   4.407   4.582  0.0869  0.4612 -0.7067
 5971SOL    HW129549   1.465   4.334   4.536 -0.0714 -0.7065  1.2909
 5971SOL    HW229550   1.519   4.374   4.671 -0.2800 -1.1970 -1.2728
 5972SOL     OW29551   1.823   3.924   3.113  0.6207 -0.7892  0.3442
 5972SOL    HW129552   1.768   3.948   3.039  0.5250 -2.6401 -0.1837
 5972SOL    HW229553   1.898   3.878   3.075  0.4466  0.2669 -1.2504
 5973SOL     OW29554   3.281   3.666   7.784  0.2971 -0.2698  0.2745
 5973SOL    HW129555   3.188   3.654   7.803  0.0455 -0.9252 -1.3870
 5973SOL    HW229556   3.307   3.593   7.727  2.2063  1.0411 -0.5335
 5974SOL     OW29557   3.405   3.709   9.613 -0.0326  0.4722 -0.2184
 5974SOL    HW129558   3.413   3.725   9.706  0.7233  1.6639 -0.5003
 5974SOL    HW229559   3.445   3.788   9.578  2.1202 -0.4657  0.1703
 5975SOL     OW29560   4.240   2.614  10.708 -0.8329  0.5992 -0.1159
 5975SOL    HW129561   4.197   2.681  10.656  1.0387  1.5563 -0.4178
 5975SOL    HW229562   4.224   2.651  10.795  1.5943  0.1625  0.5226
 5976SOL     OW29563   3.192   2.773   0.466 -0.1750 -0.3759  0.0871
 5976SOL    HW129564   3.222   2.683   0.454 -0.3898 -0.6627  1.7176
 5976SOL    HW229565   3.268   2.831   0.467  0.3414 -1.0190 -2.6577
 5977SOL     OW29566   1.133   0.742   3.450 -0.0528  0.2605  0.5118
 5977SOL    HW129567   1.131   0.836   3.431  0.0593 -0.0058 -0.8644
 5977SOL    HW229568   1.046   0.734   3.488 -0.8298 -1.4266 -1.6125
 5978SOL     OW29569   2.806   3.564  11.603 -0.1937 -0.1102  0.0205
 5978SOL    HW129570   2.887   3.580  11.555 -0.0907 -0.1507  0.1832
 5978SOL    HW229571   2.755   3.527  11.531 -0.7677  2.7808 -1.0797
 5979SOL     OW29572   1.689   0.728   1.795  0.0780 -0.1614  0.1183
 5979SOL    HW129573   1.623   0.758   1.733 -1.9088  0.7433  2.6808
 5979SOL    HW229574   1.643   0.709   1.876 -1.5543 -1.8429 -1.2237
 5980SOL     OW29575   0.512   2.356   9.065  0.0457  0.2467 -0.2393
 5980SOL    HW129576   0.568   2.398   9.131 -1.0644 -0.7699  1.3477
 5980SOL    HW229577   0.577   2.289   9.042  0.4480  1.2501 -2.0163
 5981SOL     OW29578   0.175   0.300   6.032  0.6876 -0.0697 -0.5970
 5981SOL    HW129579   0.210   0.292   6.121 -1.1040 -2.4996 -0.1024
 5981SOL    HW229580   0.211   0.220   5.995 -1.0622 -0.7056 -0.9050
 5982SOL     OW29581   3.225   2.508   1.529 -0.6922 -0.0039 -0.5956
 5982SOL    HW129582   3.278   2.519   1.450 -1.3380 -0.3506 -1.0751
 5982SOL    HW229583   3.286   2.461   1.585  0.1107  3.0630  1.0994
 5983SOL     OW29584   2.358   2.615   9.237  0.1460  0.0357  0.2974
 5983SOL    HW129585   2.345   2.603   9.331  2.3973  2.1524  0.9030
 5983SOL    HW229586   2.307   2.697   9.236 -0.0373 -0.0809  0.0430
 5984SOL     OW29587   3.702   0.112   1.970 -0.3320 -0.0280 -0.4761
 5984SOL    HW129588   3.740   0.189   2.012 -0.5195  0.3419 -0.9783
 5984SOL    HW229589   3.611   0.115   2.001 -0.4524  0.2142 -0.8450
 5985SOL     OW29590   0.172   1.757  14.027  0.2350 -0.0247  0.6124
 5985SOL    HW129591   0.182   1.662  14.025  0.6819  0.0820 -3.1161
 5985SOL    HW229592   0.105   1.776  13.962  1.3710  0.3389 -0.4660
 5986SOL     OW29593   0.694   4.274   8.521  0.0449  0.1113 -0.3080
 5986SOL    HW129594   0.614   4.274   8.468  0.3436  1.9878 -0.7617
 5986SOL    HW229595   0.758   4.308   8.458  1.2762  0.0661  0.9380
 5987SOL     OW29596   0.333   0.445  12.662  0.2345  0.2039 -0.1357
 5987SOL    HW129597   0.357   0.355  12.686  3.3476  1.0660  0.0608
 5987SOL    HW229598   0.265   0.420  12.599  0.4499 -1.0574  0.1180
 5988SOL     OW29599   1.274   1.901   0.521 -0.2508 -0.0028  0.0777
 5988SOL    HW129600   1.339   1.905   0.451 -1.5351  0.8118 -1.0759
 5988SOL    HW229601   1.238   1.989   0.509 -0.2561  0.1174  0.9420
 5989SOL     OW29602   2.807   0.768   7.474  1.2189  0.0020 -1.3338
 5989SOL    HW129603   2.863   0.734   7.544  0.1841  0.5993 -0.1996
 5989SOL    HW229604   2.728   0.793   7.523  1.2129 -2.4799 -0.0793
 5990SOL     OW29605   1.228   1.186   8.936 -0.1205  0.5381  0.4804
 5990SOL    HW129606   1.309   1.145   8.966  0.5185  1.8923  0.6038
 5990SOL    HW229607   1.238   1.178   8.841 -0.1164  1.2369  0.4238
 5991SOL     OW29608   1.735   3.578   4.275 -0.5660  0.1396  0.1216
 5991SOL    HW129609   1.678   3.555   4.348  0.5263 -0.4810  0.7860
 5991SOL    HW229610   1.745   3.492   4.233 -0.9467 -1.7823  3.9919
 5992SOL     OW29611   2.280   3.321  16.738  0.5120  0.1852 -0.4686
 5992SOL    HW129612   2.215   3.360  16.680  1.5033  0.8100 -1.1536
 5992SOL    HW229613   2.238   3.240  16.767  2.2826  0.2595  2.2373
 5993SOL     OW29614   4.522   2.582   3.447  0.3117  0.2839 -0.1508
 5993SOL    HW129615   4.447   2.523   3.442  0.9702 -0.6776  1.3740
 5993SOL    HW229616   4.582   2.537   3.388 -0.4558 -1.9727  0.8061
 5994SOL     OW29617   3.965   1.979  16.780  0.1031  0.0388 -0.6530
 5994SOL    HW129618   4.049   1.934  16.790 -0.7565 -1.5369 -0.6210
 5994SOL    HW229619   3.926   1.961  16.865  3.1710  1.2681  1.0342
 5995SOL     OW29620   0.904   2.590   9.222  0.4564  0.2342  0.5407
 5995SOL    HW129621   0.990   2.578   9.261 -0.0647 -0.5946  1.4002
 5995SOL    HW229622   0.887   2.683   9.236  1.0846  0.2448  1.2008
 5996SOL     OW29623   1.207   2.482   5.712  0.1629 -0.2262 -0.0065
 5996SOL    HW129624   1.259   2.448   5.784  1.4503 -1.3216 -1.4794
 5996SOL    HW229625   1.151   2.543   5.760 -1.4148 -1.9853  0.4155
 5997SOL     OW29626   0.805   0.013   7.703 -0.1453  0.4774 -0.4450
 5997SOL    HW129627   0.777   0.037   7.791 -0.7200  0.5030 -0.6386
 5997SOL    HW229628   0.720   4.733   7.662  0.3701  0.9635 -1.7275
 5998SOL     OW29629   0.905   2.637   5.552 -0.0312  0.2071 -0.1085
 5998SOL    HW129630   0.993   2.673   5.563  0.5285 -1.1992  0.0702
 5998SOL    HW229631   0.860   2.670   5.630  0.0335 -0.1316  0.0770
 5999SOL     OW29632   2.518   2.064   3.686  1.0120 -0.0177 -0.0829
 5999SOL    HW129633   2.591   2.087   3.629  2.6041  0.7465  2.2426
 5999SOL    HW229634   2.553   2.077   3.774 -0.2105 -2.6551  0.7800
 6000SOL     OW29635   2.370   2.257   8.895 -0.4914  0.1366 -0.0130
 6000SOL    HW129636   2.397   2.338   8.938 -0.6632 -0.8963  2.0361
 6000SOL    HW229637   2.378   2.285   8.804 -0.2229 -0.2120 -0.0953
 6001SOL     OW29638   3.799   1.770   5.952 -0.1964 -0.5837 -0.1659
 6001SOL    HW129639   3.851   1.720   6.013 -0.5910  1.2053  1.6482
 6001SOL    HW229640   3.711   1.742   5.979  0.0747 -1.2658 -0.0149
 6002SOL     OW29641   2.323   2.039   5.165 -0.2970 -0.1352  0.5749
 6002SOL    HW129642   2.405   1.992   5.181  0.4484  1.0405  0.2373
 6002SOL    HW229643   2.361   2.121   5.133  0.6435 -1.4143 -1.5614
 6003SOL     OW29644   0.194   2.958  16.288 -0.1715 -0.3184  0.7370
 6003SOL    HW129645   0.224   3.030  16.343 -1.2103  0.7769 -0.1327
 6003SOL    HW229646   0.149   3.002  16.216 -0.2032 -4.2943 -1.6583
 6004SOL     OW29647   3.354   1.377   5.514  0.6376 -0.1864  0.2731
 6004SOL    HW129648   3.275   1.418   5.480  1.1476  0.0442 -0.6529
 6004SOL    HW229649   3.322   1.342   5.597 -0.8878 -0.7081 -0.5371
 6005SOL     OW29650   0.654   4.133   3.471  0.0464 -0.1480  0.1660
 6005SOL    HW129651   0.734   4.145   3.419  0.6191 -3.4448  0.2559
 6005SOL    HW229652   0.598   4.096   3.403 -0.1896 -0.1252  0.3475
 6006SOL     OW29653   0.339   1.152   6.794  0.3271 -0.6405  0.3356
 6006SOL    HW129654   0.372   1.225   6.845 -0.7885 -1.4196  2.1528
 6006SOL    HW229655   0.353   1.185   6.705 -0.1005 -1.0236  0.1272
 6007SOL     OW29656   3.084   0.876  15.932 -0.7034  0.0641  0.0838
 6007SOL    HW129657   3.145   0.864  15.859 -0.2628  0.7718  0.3312
 6007SOL    HW229658   3.024   0.946  15.906  1.9000  2.3859  0.3296
 6008SOL     OW29659   4.118   4.652   2.926  0.0442  0.0067 -0.2720
 6008SOL    HW129660   4.098   4.559   2.932 -0.5303  0.3362  3.1427
 6008SOL    HW229661   4.176   4.650   3.002 -2.6015 -0.1861  1.7358
 6009SOL     OW29662   0.072   3.267   9.986 -0.6049 -0.2683 -0.0941
 6009SOL    HW129663   0.000   3.289   9.926  1.3830 -0.7569 -2.6677
 6009SOL    HW229664   0.089   3.181   9.948  0.3101  0.4032 -1.2196
 6010SOL     OW29665   2.743   0.310   8.712  0.1326 -0.2360 -0.0418
 6010SOL    HW129666   2.714   0.221   8.732 -1.7220  0.1002 -1.2118
 6010SOL    HW229667   2.835   0.304   8.738  0.2809  0.7533 -0.3219
 6011SOL     OW29668   3.165   1.441  12.978  0.2006 -0.2967 -0.1166
 6011SOL    HW129669   3.147   1.347  12.983 -0.1054 -0.1311  1.8023
 6011SOL    HW229670   3.248   1.448  13.025 -0.9845  2.7350  1.5643
 6012SOL     OW29671   0.874   3.844   5.412 -0.6723  0.4580 -0.3124
 6012SOL    HW129672   0.782   3.838   5.388 -0.8294  1.3948  0.0443
 6012SOL    HW229673   0.914   3.893   5.340 -0.5059  0.5671 -0.1475
 6013SOL     OW29674   3.194   1.839   5.384  0.3589  0.1598 -0.1374
 6013SOL    HW129675   3.275   1.805   5.421  1.7849  0.7968 -2.6855
 6013SOL    HW229676   3.226   1.926   5.357  2.6894 -0.8631 -0.6837
 6014SOL     OW29677   1.288   1.663   4.355 -0.0727 -1.0143  0.9399
 6014SOL    HW129678   1.285   1.571   4.380 -1.8855 -1.0566  0.5509
 6014SOL    HW229679   1.197   1.693   4.354 -0.5920 -2.7375 -2.6664
 6015SOL     OW29680   3.407   1.468   7.714 -0.8485 -0.0887 -0.0440
 6015SOL    HW129681   3.410   1.562   7.693  0.7497  0.1332  1.1473
 6015SOL    HW229682   3.396   1.469   7.809 -0.4790  0.8666 -0.0124
 6016SOL     OW29683   2.426   4.315   5.602 -0.3582  0.0711 -0.3304
 6016SOL    HW129684   2.456   4.294   5.513  2.1367 -0.2819  0.6014
 6016SOL    HW229685   2.401   4.406   5.589 -1.1468  0.2918  2.7793
 6017SOL     OW29686   1.594   1.436   2.516 -0.1128  0.1448  0.4455
 6017SOL    HW129687   1.654   1.510   2.529  0.0454  0.1509 -0.3010
 6017SOL    HW229688   1.648   1.372   2.468  0.8786 -0.1825  2.0027
 6018SOL     OW29689   2.019   3.318   8.600  0.2025  0.0116  0.2153
 6018SOL    HW129690   1.928   3.287   8.603  0.5147 -0.6625  2.9081
 6018SOL    HW229691   2.069   3.236   8.597 -0.2922 -0.2975  0.3437
 6019SOL     OW29692   1.694   2.786  14.248 -0.7950 -0.4787 -0.0967
 6019SOL    HW129693   1.645   2.802  14.167 -0.9536  0.3454  0.1582
 6019SOL    HW229694   1.657   2.862  14.293 -1.5738  0.7730 -2.8580
 6020SOL     OW29695   3.240   1.398   1.380 -0.0105  0.0016 -0.7758
 6020SOL    HW129696   3.277   1.399   1.469 -0.2703 -1.8803 -0.6345
 6020SOL    HW229697   3.213   1.306   1.373 -0.6591  0.0914  0.4057
 6021SOL     OW29698   0.766   1.228   2.009  0.0297  0.8136  0.1675
 6021SOL    HW129699   0.822   1.288   2.059 -0.3009 -0.2150  1.7643
 6021SOL    HW229700   0.794   1.249   1.919 -0.6790  2.1392  0.2597
 6022SOL     OW29701   1.151   1.836   8.488 -0.0449  0.5205 -0.3789
 6022SOL    HW129702   1.062   1.862   8.462  0.4917  2.0194 -0.7175
 6022SOL    HW229703   1.186   1.923   8.509  1.1820 -0.0336 -0.1344
 6023SOL     OW29704   2.468   1.346   7.640 -0.2528 -0.1819  0.8280
 6023SOL    HW129705   2.372   1.345   7.647 -0.3156 -2.4534 -0.2814
 6023SOL    HW229706   2.486   1.257   7.609 -3.2487 -0.6432  0.3731
 6024SOL     OW29707   2.978   2.348   6.527 -0.0944  0.2882  0.4825
 6024SOL    HW129708   2.946   2.438   6.533 -2.2928 -0.4571  0.3278
 6024SOL    HW229709   3.069   2.359   6.553  0.0715 -1.1704  0.5285
 6025SOL     OW29710   1.940   0.118   2.726 -0.2443  0.1142  0.6189
 6025SOL    HW129711   1.880   0.077   2.789 -1.5743  1.2602  0.0973
 6025SOL    HW229712   1.896   0.111   2.642 -1.0093  0.5084  0.9881
 6026SOL     OW29713   0.233   2.973   2.130 -0.2253  0.5522  0.0498
 6026SOL    HW129714   0.149   3.014   2.152 -0.2499  1.6023 -2.0140
 6026SOL    HW229715   0.285   3.042   2.171  0.8122 -1.1137  1.5339
 6027SOL     OW29716   2.613   4.370   7.394 -0.2216 -0.2050  0.5881
 6027SOL    HW129717   2.664   4.386   7.473  2.3217 -0.7324 -0.9166
 6027SOL    HW229718   2.586   4.279   7.407  0.0569  0.3010  4.6698
 6028SOL     OW29719   1.648   2.080   8.729 -0.3428  0.0488  0.4066
 6028SOL    HW129720   1.706   2.027   8.784 -2.0370  0.4403  2.5180
 6028SOL    HW229721   1.726   2.118   8.687 -1.5933  1.2836 -0.7747
 6029SOL     OW29722   4.643   1.736  14.354  0.4594 -0.1808 -0.2457
 6029SOL    HW129723   4.583   1.766  14.286  0.0304 -1.6369 -0.4912
 6029SOL    HW229724   4.586   1.694  14.418  0.5948 -0.8889 -0.5927
 6030SOL     OW29725   4.044   2.125   9.361 -0.7080  0.5189  0.3795
 6030SOL    HW129726   4.066   2.146   9.452 -2.5190  2.8280  0.2770
 6030SOL    HW229727   4.135   2.103   9.341 -1.2738 -1.4059 -0.0754
 6031SOL     OW29728   2.618   1.660   3.200 -0.1989 -0.6959  0.5462
 6031SOL    HW129729   2.649   1.593   3.139 -2.1843  0.8428 -2.1749
 6031SOL    HW229730   2.682   1.731   3.193 -1.7346  0.6948  0.5182
 6032SOL     OW29731   3.824   1.955   6.482 -0.4755 -0.1744  0.2391
 6032SOL    HW129732   3.869   1.876   6.510 -2.7634 -1.1197  1.2196
 6032SOL    HW229733   3.792   1.929   6.396 -1.4834 -0.2056  0.6190
 6033SOL     OW29734   2.178   4.291   8.213 -0.3950 -0.1712 -0.0492
 6033SOL    HW129735   2.130   4.254   8.287 -0.1643  0.0129  0.1945
 6033SOL    HW229736   2.189   4.214   8.157 -1.7758  1.5046 -2.5980
 6034SOL     OW29737   2.313   4.151  17.215 -0.6215 -0.1214  0.2416
 6034SOL    HW129738   2.300   4.161  17.121  0.9110 -1.1596 -0.0581
 6034SOL    HW229739   2.223   4.140  17.246 -0.0425  0.3732  2.1185
 6035SOL     OW29740   0.070   3.180   8.299 -0.4052 -0.4786 -0.0835
 6035SOL    HW129741   0.068   3.255   8.358  1.3682 -2.0037  1.9160
 6035SOL    HW229742   0.012   3.118   8.343  0.6125 -1.5740 -0.2788
 6036SOL     OW29743   0.896   1.026   3.664 -0.8003 -0.2886 -0.5709
 6036SOL    HW129744   0.962   1.076   3.712 -1.8399  1.3081 -0.7866
 6036SOL    HW229745   0.821   1.080   3.688  0.2522  0.2046  1.6563
 6037SOL     OW29746   2.076   0.927  10.484  0.3333 -0.1797 -0.0351
 6037SOL    HW129747   2.009   0.951  10.548 -0.9821  0.4549 -1.6266
 6037SOL    HW229748   2.033   0.940  10.399  0.7058  0.6515 -0.0987
 6038SOL     OW29749   2.525   1.516   6.461 -0.1678 -0.4144 -0.3132
 6038SOL    HW129750   2.597   1.545   6.518  1.1145 -0.9262 -1.6529
 6038SOL    HW229751   2.564   1.508   6.374  1.5576  2.6343  0.1392
 6039SOL     OW29752   0.057   1.714   5.175 -0.0798  0.5238 -0.2400
 6039SOL    HW129753   0.065   1.620   5.157 -0.6628  0.7998 -2.0027
 6039SOL    HW229754   4.716   1.731   5.121 -1.8082  0.0834  2.0855
 6040SOL     OW29755   0.855   1.768   4.941 -0.1108 -0.7492 -0.1644
 6040SOL    HW129756   0.779   1.811   4.981 -0.6733 -1.8574 -0.0640
 6040SOL    HW229757   0.900   1.737   5.019  0.8705  3.4993  0.9957
 6041SOL     OW29758   3.921   3.682   4.446  0.3292 -0.1692 -0.0078
 6041SOL    HW129759   3.934   3.701   4.539 -0.5475  1.2431 -0.1786
 6041SOL    HW229760   4.007   3.642   4.428 -0.5726 -1.0317 -2.4289
 6042SOL     OW29761   3.589   1.459   5.860  0.0806 -0.0915 -0.8223
 6042SOL    HW129762   3.606   1.367   5.838  0.4872  0.2770 -2.0352
 6042SOL    HW229763   3.552   1.493   5.778  1.3592  0.1681 -1.2795
 6043SOL     OW29764   3.055   2.490   2.072  0.4441 -0.4828  0.1357
 6043SOL    HW129765   3.121   2.549   2.109  1.3099 -0.3449 -1.6148
 6043SOL    HW229766   3.115   2.415   2.061  0.3853 -0.4580 -0.3611
 6044SOL     OW29767   3.540   0.317  10.781  0.0529  0.2501 -0.1195
 6044SOL    HW129768   3.583   0.268  10.851  0.2016 -0.4189 -0.6789
 6044SOL    HW229769   3.581   0.403  10.779 -1.1713  0.8338 -0.1001
 6045SOL     OW29770   0.487   0.196  17.729 -0.4959 -0.3439 -0.7210
 6045SOL    HW129771   0.455   0.107  17.717 -2.3846  0.3284 -0.7388
 6045SOL    HW229772   0.471   0.200   0.079  0.3391 -1.1338 -0.5513
 6046SOL     OW29773   3.933   4.362   5.495 -0.0505 -0.4015  0.8347
 6046SOL    HW129774   3.976   4.281   5.520  2.3193  0.8793  0.9216
 6046SOL    HW229775   4.009   4.419   5.507 -0.1344 -0.5040  1.8120
 6047SOL     OW29776   4.045   2.672   5.693  0.3689 -0.2205  0.1812
 6047SOL    HW129777   4.005   2.676   5.780  0.4111 -4.0663  0.3918
 6047SOL    HW229778   4.005   2.587   5.675  1.6866 -0.6263 -0.8277
 6048SOL     OW29779   1.814   3.273   4.722  0.4865  0.6120 -0.0195
 6048SOL    HW129780   1.747   3.286   4.655 -0.1369  2.5041  0.9832
 6048SOL    HW229781   1.881   3.337   4.698 -0.4320  1.7986  0.6052
 6049SOL     OW29782   0.893   2.395   3.636 -0.2903 -0.1452 -0.3775
 6049SOL    HW129783   0.950   2.386   3.712  0.8547  1.4409 -1.0595
 6049SOL    HW229784   0.819   2.342   3.667 -1.4053  1.3053 -0.5447
 6050SOL     OW29785   0.536   0.382   6.192  0.3225  0.4773  0.3940
 6050SOL    HW129786   0.560   0.296   6.226 -0.1398  0.8394  1.6256
 6050SOL    HW229787   0.593   0.445   6.237  1.8064  0.0922 -0.9454
 6051SOL     OW29788   2.126   2.915   2.490 -0.1437  0.0911  0.0333
 6051SOL    HW129789   2.066   2.987   2.470 -1.4390 -0.5858  1.5382
 6051SOL    HW229790   2.156   2.896   2.401 -1.9740 -2.2161 -0.0928
 6052SOL     OW29791   1.772   1.998  12.587 -0.2632 -0.2006  0.1781
 6052SOL    HW129792   1.682   1.969  12.601 -0.8681  1.7457  0.2163
 6052SOL    HW229793   1.774   2.006  12.491  0.9544 -0.6371  0.1708
 6053SOL     OW29794   2.773   1.892   8.601  0.0064  0.1302 -0.1564
 6053SOL    HW129795   2.727   1.955   8.547 -1.5234  0.9950  2.1527
 6053SOL    HW229796   2.812   1.833   8.536  0.6393 -0.1328  0.4573
 6054SOL     OW29797   1.265   0.979   6.517 -0.0661  0.0629 -0.1937
 6054SOL    HW129798   1.300   0.936   6.439  0.4863 -1.5525  0.9402
 6054SOL    HW229799   1.193   0.921   6.543 -0.9889  1.2277 -0.1644
 6055SOL     OW29800   4.313   4.635  13.192  0.2274 -0.4447 -0.4220
 6055SOL    HW129801   4.271   4.678  13.117 -3.3903 -0.8694  1.3799
 6055SOL    HW229802   4.259   4.562  13.220 -1.4888  1.8233  2.1690
 6056SOL     OW29803   0.053   3.341   3.620 -0.2921 -0.7324  0.2216
 6056SOL    HW129804   0.096   3.427   3.622  0.6221 -1.2196  1.0579
 6056SOL    HW229805   0.103   3.301   3.691  2.4738 -0.8234 -1.7769
 6057SOL     OW29806   0.459   0.740   5.907  0.0596  0.2212 -0.6379
 6057SOL    HW129807   0.453   0.645   5.917  2.4901  0.0051 -1.1674
 6057SOL    HW229808   0.532   0.775   5.959 -1.1055 -0.5888  1.5533
 6058SOL     OW29809   2.538   3.466   6.048  0.6430  1.0655 -0.1400
 6058SOL    HW129810   2.543   3.386   6.101  2.3599  1.7952  0.8062
 6058SOL    HW229811   2.500   3.433   5.966  1.3878 -0.3237  0.0670
 6059SOL     OW29812   1.442   1.256   6.757 -0.3004  0.4443  0.0168
 6059SOL    HW129813   1.520   1.299   6.722  1.4761 -2.7280  0.1325
 6059SOL    HW229814   1.374   1.323   6.754  0.4253  1.2666  1.8766
 6060SOL     OW29815   2.923   4.072   0.570  0.2973  0.1111  0.1214
 6060SOL    HW129816   2.941   3.990   0.615  0.8623  1.2814  2.0270
 6060SOL    HW229817   2.828   4.080   0.577  0.4538  2.6271 -0.5560
 6061SOL     OW29818   0.186   3.321  15.094  0.1273  0.0117 -0.0710
 6061SOL    HW129819   0.154   3.231  15.087 -1.1518  0.4505  0.1168
 6061SOL    HW229820   0.171   3.344  15.186  0.1554 -1.8530  0.3895
 6062SOL     OW29821   4.166   4.562   8.156 -0.0915  0.5424 -0.0786
 6062SOL    HW129822   4.092   4.561   8.095 -0.4918 -1.6418  0.4307
 6062SOL    HW229823   4.234   4.532   8.096 -0.2993 -0.1564  0.0372
 6063SOL     OW29824   3.561   3.511   4.426 -0.1776 -0.1562 -0.4245
 6063SOL    HW129825   3.509   3.463   4.491 -1.9374  1.5619 -0.5388
 6063SOL    HW229826   3.592   3.578   4.488  1.4547 -1.2148 -0.1093
 6064SOL     OW29827   2.342   1.245   8.067 -0.3949 -0.4857  0.0811
 6064SOL    HW129828   2.362   1.313   8.004 -0.0144 -0.1707  0.5462
 6064SOL    HW229829   2.428   1.205   8.070 -1.2478 -2.4336 -1.2833
 6065SOL     OW29830   2.564   0.549  13.058  0.5022 -0.0486  0.5951
 6065SOL    HW129831   2.508   0.522  12.985  1.6278  2.7044 -1.3028
 6065SOL    HW229832   2.653   0.536  13.025  1.0128  0.1230  1.9005
 6066SOL     OW29833   1.401   4.466   6.497  0.0904  0.3022  0.5850
 6066SOL    HW129834   1.372   4.461   6.588  1.7414  0.6591  1.1417
 6066SOL    HW229835   1.460   4.391   6.489  0.2378  0.3214  1.4319
 6067SOL     OW29836   0.950   1.648   4.431  0.4801 -0.5383 -0.7559
 6067SOL    HW129837   0.980   1.740   4.432 -3.7512  0.8542 -3.2692
 6067SOL    HW229838   0.953   1.641   4.526 -0.3193 -2.1950 -0.8663
 6068SOL     OW29839   3.187   0.691   5.899  0.0144 -0.1956 -0.5399
 6068SOL    HW129840   3.225   0.778   5.911 -0.8734  0.6148 -3.6411
 6068SOL    HW229841   3.259   0.629   5.887  0.4233  0.2884 -0.6015
 6069SOL     OW29842   1.113   4.650  12.634  0.7320 -0.8726 -0.6503
 6069SOL    HW129843   1.039   4.590  12.643  0.4891 -0.1673  2.0342
 6069SOL    HW229844   1.182   4.584  12.632  0.9510 -0.6358 -0.8115
 6070SOL     OW29845   4.296   2.865   4.293 -0.3339  0.1921  0.4240
 6070SOL    HW129846   4.347   2.801   4.244 -1.7346 -0.3771 -0.2648
 6070SOL    HW229847   4.344   2.948   4.284  2.2724 -1.2131  1.4328
 6071SOL     OW29848   1.363   3.802   3.727  0.2896  0.4334  0.2197
 6071SOL    HW129849   1.337   3.827   3.816 -1.7788 -1.9012  0.2681
 6071SOL    HW229850   1.340   3.709   3.728 -1.1830  0.8041  1.5363
 6072SOL     OW29851   3.290   4.317   3.280  0.0901 -0.1665  0.0592
 6072SOL    HW129852   3.344   4.371   3.337 -0.9023 -1.2520  2.0369
 6072SOL    HW229853   3.351   4.248   3.252  0.3195 -0.5524  1.5198
 6073SOL     OW29854   3.689   2.747  11.210  0.1768  0.5170 -0.3710
 6073SOL    HW129855   3.643   2.679  11.260 -0.4897  1.1589 -0.1141
 6073SOL    HW229856   3.628   2.818  11.230  2.0948  2.6518 -2.1600
 6074SOL     OW29857   1.246   2.843   7.207 -0.4458  0.2388 -0.7818
 6074SOL    HW129858   1.257   2.777   7.275  1.0078 -0.0018 -1.2553
 6074SOL    HW229859   1.269   2.802   7.123 -0.1725 -0.8505 -0.1721
 6075SOL     OW29860   1.271   3.470   4.667  0.2445 -0.2892  0.2351
 6075SOL    HW129861   1.362   3.468   4.640 -0.3478 -1.2508 -1.7134
 6075SOL    HW229862   1.255   3.564   4.654  1.5506  0.1925  2.0378
 6076SOL     OW29863   3.617   2.636   2.052 -0.4938  0.0493  0.2507
 6076SOL    HW129864   3.619   2.727   2.082 -1.1200  0.0735  0.2225
 6076SOL    HW229865   3.581   2.638   1.963  0.3297 -1.3303 -0.1082
 6077SOL     OW29866   4.656   3.474  13.983  0.2251  0.0684 -0.0021
 6077SOL    HW129867   4.677   3.557  14.025  2.9180 -1.3495  1.4730
 6077SOL    HW229868   4.709   3.473  13.904  0.1702 -2.6538  0.0001
 6078SOL     OW29869   3.276   1.764   2.006 -0.0943  0.3225 -0.2478
 6078SOL    HW129870   3.308   1.737   2.092 -2.4102  0.4892  0.6737
 6078SOL    HW229871   3.207   1.701   1.983  0.6962 -0.9179  0.7382
 6079SOL     OW29872   2.526   0.140   9.839 -0.3013 -0.0847  0.0293
 6079SOL    HW129873   2.463   0.208   9.865 -2.7096 -1.2588 -2.7930
 6079SOL    HW229874   2.522   0.153   9.744  1.8237  2.4995  0.2893
 6080SOL     OW29875   3.963   3.031   2.295  0.3443  0.3637 -0.6158
 6080SOL    HW129876   3.952   2.953   2.350 -0.8312  0.7784 -0.2743
 6080SOL    HW229877   3.993   3.002   2.209  0.1930  1.0181 -0.8869
 6081SOL     OW29878   0.124   3.681  15.667  0.1162  0.4125 -0.0159
 6081SOL    HW129879   0.040   3.708  15.704  0.7872 -1.6735  3.1062
 6081SOL    HW229880   0.145   3.759  15.616 -0.2087  0.3787 -0.1996
 6082SOL     OW29881   0.652   2.830   9.032  0.3466  0.0030 -0.4677
 6082SOL    HW129882   0.584   2.896   9.021  0.1411 -0.0157  0.7689
 6082SOL    HW229883   0.657   2.829   9.127  1.6814 -0.1264 -0.5287
 6083SOL     OW29884   0.414   2.959  15.990  0.6618  0.6902 -0.3283
 6083SOL    HW129885   0.337   2.906  15.976  2.2891 -1.5676 -0.7073
 6083SOL    HW229886   0.402   3.032  15.929  0.5433  0.6850 -0.3095
 6084SOL     OW29887   2.404   2.173   1.956  0.4969  0.3429 -0.7045
 6084SOL    HW129888   2.427   2.088   1.919  0.6420 -0.5898  1.5428
 6084SOL    HW229889   2.315   2.185   1.923  0.7101  1.7056 -0.7810
 6085SOL     OW29890   3.930   2.523   3.515 -0.0625  0.0745  0.2709
 6085SOL    HW129891   3.898   2.441   3.478 -2.3489  1.8063 -1.5524
 6085SOL    HW229892   3.943   2.579   3.439  0.5287  0.0069  0.3200
 6086SOL     OW29893   3.652   2.880   0.031 -0.7229  0.0842  0.6507
 6086SOL    HW129894   3.601   2.907  17.698  1.1281  1.6056 -0.0340
 6086SOL    HW229895   3.737   2.912   0.001 -1.6838  2.6450  0.7120
 6087SOL     OW29896   2.520   3.934  11.445  0.7373 -0.1476 -0.1669
 6087SOL    HW129897   2.556   4.019  11.419  0.7237  0.3729  1.5646
 6087SOL    HW229898   2.587   3.888  11.496  0.7621  0.6226  0.4904
 6088SOL     OW29899   3.170   2.826   6.115 -0.1380 -0.4339  0.0687
 6088SOL    HW129900   3.219   2.768   6.056  2.5207 -0.1887  2.0134
 6088SOL    HW229901   3.158   2.908   6.066 -0.0910 -0.2456  0.3701
 6089SOL     OW29902   4.338   1.784  16.458 -0.2984 -0.0086  0.1489
 6089SOL    HW129903   4.250   1.806  16.427 -0.6869 -1.1526  0.4481
 6089SOL    HW229904   4.312   1.739  16.538 -1.8537  1.4979  0.4829
 6090SOL     OW29905   0.849   1.687   9.602  0.1720 -0.0367  0.9749
 6090SOL    HW129906   0.777   1.715   9.658 -0.3650 -2.4204  1.4779
 6090SOL    HW229907   0.802   1.620   9.552 -1.3376  0.3737  1.8653
 6091SOL     OW29908   4.539   3.843   5.536  0.1724  0.0156  0.5641
 6091SOL    HW129909   4.580   3.921   5.500  1.3410 -1.2972 -0.9296
 6091SOL    HW229910   4.502   3.876   5.618 -3.4538  0.1031 -1.1126
 6092SOL     OW29911   0.389   1.020   7.557 -0.2028 -0.5900 -0.0671
 6092SOL    HW129912   0.423   1.010   7.468 -2.0248 -0.9032 -0.7391
 6092SOL    HW229913   0.297   1.037   7.540  0.2622 -0.3775 -2.2928
 6093SOL     OW29914   1.723   2.840  12.554 -0.4905  0.2005 -0.3130
 6093SOL    HW129915   1.700   2.818  12.644  0.8440 -1.0857 -0.2817
 6093SOL    HW229916   1.819   2.839  12.559 -0.4185 -0.6761 -1.9240
 6094SOL     OW29917   4.038   1.971  13.057  0.7212  0.5476  0.3556
 6094SOL    HW129918   4.083   2.036  13.111 -0.1819  1.2245  0.2943
 6094SOL    HW229919   4.088   1.890  13.065 -0.6796 -0.3619 -0.0166
 6095SOL     OW29920   4.731   4.465  11.836 -0.2329 -0.1350  0.4708
 6095SOL    HW129921   0.010   4.378  11.801 -1.0278 -0.9849  2.2597
 6095SOL    HW229922   4.688   4.438  11.917  2.0322  0.1949  1.7909
 6096SOL     OW29923   2.160   0.861  14.966  0.4394 -0.1935  0.6426
 6096SOL    HW129924   2.149   0.940  14.913 -1.7393 -1.9351 -1.4885
 6096SOL    HW229925   2.072   0.859  15.004 -0.2237  0.6534 -0.8284
 6097SOL     OW29926   3.951   3.195   6.925  0.5374 -0.3520 -0.4621
 6097SOL    HW129927   3.979   3.125   6.867 -0.6691 -1.3068  0.1058
 6097SOL    HW229928   4.036   3.238   6.929 -0.3545  1.5619 -2.4260
 6098SOL     OW29929   3.664   3.752   5.518 -0.2159 -0.1726 -0.6820
 6098SOL    HW129930   3.606   3.680   5.541 -1.4172  0.4958 -1.6310
 6098SOL    HW229931   3.741   3.739   5.575 -0.9006  0.4686  0.3818
 6099SOL     OW29932   0.670   1.060   4.743  0.2647 -0.5908 -0.2033
 6099SOL    HW129933   0.696   0.982   4.793  0.6050 -1.9290 -2.4975
 6099SOL    HW229934   0.596   1.089   4.796 -1.5207 -0.8647 -2.5846
 6100SOL     OW29935   4.281   3.496   3.811  0.3067 -0.0408 -0.7373
 6100SOL    HW129936   4.335   3.558   3.763  0.1769  0.6449  0.0038
 6100SOL    HW229937   4.351   3.454   3.861 -0.2814  1.2244  1.1474
 6101SOL     OW29938   2.457   3.163   2.917  0.4518  0.7146 -0.4203
 6101SOL    HW129939   2.373   3.178   2.960  0.2465 -0.9474 -0.2510
 6101SOL    HW229940   2.434   3.144   2.826 -0.9261  1.4097 -0.2091
 6102SOL     OW29941   1.187   3.107   3.543  0.2440  0.1932  0.4059
 6102SOL    HW129942   1.107   3.055   3.536 -0.0946  0.8136 -0.3106
 6102SOL    HW229943   1.262   3.051   3.525  0.0886  0.2927 -0.5566
 6103SOL     OW29944   4.541   4.524   3.087  0.5706 -0.2418 -0.3608
 6103SOL    HW129945   4.629   4.542   3.121  0.6699 -1.9314  0.2527
 6103SOL    HW229946   4.564   4.533   2.995 -0.9218 -1.2127 -0.8246
 6104SOL     OW29947   3.815   0.610  17.604  0.6440  0.1191 -0.3485
 6104SOL    HW129948   3.788   0.694  17.640 -2.0920 -1.0706  0.3643
 6104SOL    HW229949   3.847   0.585  17.690 -2.4535 -1.2404  0.4113
 6105SOL     OW29950   1.630   4.191   1.360  0.9521 -0.2254 -0.0104
 6105SOL    HW129951   1.700   4.160   1.303  0.5914 -0.5640 -0.2749
 6105SOL    HW229952   1.557   4.167   1.303  1.3662  2.8720 -1.8368
 6106SOL     OW29953   3.152   1.325   6.276  0.1577  0.6392 -0.1509
 6106SOL    HW129954   3.142   1.330   6.371 -0.4327  1.1688 -0.2453
 6106SOL    HW229955   3.077   1.379   6.252 -2.5187 -2.0431  2.1452
 6107SOL     OW29956   4.707   3.541   4.683  0.3525  0.3029 -0.5768
 6107SOL    HW129957   4.654   3.615   4.713 -0.4338 -0.3919 -0.2368
 6107SOL    HW229958   4.646   3.468   4.696  0.7198  0.4180  1.9457
 6108SOL     OW29959   1.679   2.373   3.435 -0.7511  0.7043  0.1740
 6108SOL    HW129960   1.738   2.310   3.476  0.6028  1.5097 -0.5353
 6108SOL    HW229961   1.649   2.329   3.356  0.3778 -0.0444  0.1714
 6109SOL     OW29962   1.860   1.210   4.870  0.3388 -0.3225 -0.0877
 6109SOL    HW129963   1.898   1.217   4.958 -0.8258  1.0365  0.3184
 6109SOL    HW229964   1.882   1.295   4.833 -0.5375  0.0775  0.2872
 6110SOL     OW29965   1.168   4.644  17.202 -0.1256  0.6778  0.7679
 6110SOL    HW129966   1.175   4.693  17.119  0.3140  1.2080  1.1181
 6110SOL    HW229967   1.080   4.608  17.191 -0.8243  2.2096  1.3005
 6111SOL     OW29968   2.366   3.707   4.276 -0.1511  0.1484 -0.1144
 6111SOL    HW129969   2.374   3.782   4.216 -1.0939 -0.3590 -0.8589
 6111SOL    HW229970   2.429   3.655   4.226  2.3172  2.6363  0.3894
 6112SOL     OW29971   3.902   1.951   3.617 -0.3537 -0.0431 -0.0791
 6112SOL    HW129972   3.876   2.004   3.693 -1.8452 -0.2018 -0.4924
 6112SOL    HW229973   3.952   1.886   3.666  0.5823  0.8914  0.2233
 6113SOL     OW29974   3.239   4.711  17.103  0.1507  0.2166 -0.6102
 6113SOL    HW129975   3.333   4.715  17.122  0.0965 -0.7966 -0.1215
 6113SOL    HW229976   3.219   0.055  17.055  2.6716  2.2009  1.6124
 6114SOL     OW29977   0.225   4.560   5.141 -0.1122  0.0222  0.6782
 6114SOL    HW129978   0.316   4.552   5.110  0.1580  0.0454  1.4587
 6114SOL    HW229979   0.208   4.472   5.176  0.9069 -0.0308  1.0646
 6115SOL     OW29980   1.196   3.829   2.268 -0.1356 -0.2630  0.8150
 6115SOL    HW129981   1.209   3.888   2.194  0.3483 -0.2873  0.8775
 6115SOL    HW229982   1.103   3.849   2.281 -0.0104  2.1629 -2.0388
 6116SOL     OW29983   1.131   0.829   3.824 -0.4573  0.1479  0.0401
 6116SOL    HW129984   1.068   0.898   3.800  0.6956  1.4175  0.6231
 6116SOL    HW229985   1.129   0.839   3.919  0.9913  1.4604 -0.0615
 6117SOL     OW29986   4.307   2.736   5.691 -0.3332  0.0477  0.1735
 6117SOL    HW129987   4.284   2.644   5.682  2.4501 -0.7039  0.7607
 6117SOL    HW229988   4.218   2.770   5.705 -0.0992  0.5598  0.4185
 6118SOL     OW29989   1.632   1.594   3.300 -0.2945  0.3172 -0.5918
 6118SOL    HW129990   1.670   1.512   3.332 -1.2007  1.5547  3.6955
 6118SOL    HW229991   1.565   1.571   3.237 -0.3112  1.1043 -0.8640
 6119SOL     OW29992   3.805   2.758   1.774 -0.0847 -0.0928  0.1989
 6119SOL    HW129993   3.737   2.822   1.753 -0.3149  0.2397  1.9370
 6119SOL    HW229994   3.750   2.680   1.780  0.2124 -0.3324 -0.2445
 6120SOL     OW29995   0.891   0.325   4.783 -0.4104 -0.7540  0.4833
 6120SOL    HW129996   0.799   0.345   4.799 -0.3470 -0.5111  0.5513
 6120SOL    HW229997   0.889   0.230   4.792  1.3067 -0.9770 -1.2444
 6121SOL     OW29998   0.480   2.611   5.477 -0.3610 -0.4440 -0.0213
 6121SOL    HW129999   0.466   2.520   5.449 -1.2861 -0.0613 -0.7699
 6121SOL    HW230000   0.493   2.605   5.572 -0.0864 -0.9977 -0.0913
 6122SOL     OW30001   3.143   3.287  17.100  1.1826 -0.3495  0.6460
 6122SOL    HW130002   3.089   3.246  17.032  2.7409 -1.9216  0.3779
 6122SOL    HW230003   3.201   3.217  17.128 -1.2155 -2.8531 -0.6871
 6123SOL     OW30004   4.181   0.659   8.637  0.0093 -0.0133 -0.5181
 6123SOL    HW130005   4.206   0.747   8.609  0.0361  0.1872  0.1481
 6123SOL    HW230006   4.203   0.595   8.569  1.9686  0.4440 -0.3004
 6124SOL     OW30007   0.919   3.100   8.472  0.4327 -0.2366  0.2260
 6124SOL    HW130008   0.970   3.072   8.395 -0.8087  1.8207 -1.3309
 6124SOL    HW230009   0.958   3.187   8.484 -0.7997  0.5576 -1.5452
 6125SOL     OW30010   0.301   3.250   8.147 -0.2677 -0.0335  0.3954
 6125SOL    HW130011   0.214   3.222   8.177 -0.1798  0.1111  0.7752
 6125SOL    HW230012   0.290   3.344   8.160 -0.2803  0.2215 -1.4361
 6126SOL     OW30013   2.251   0.939   8.133  0.2203 -0.1049 -0.4786
 6126SOL    HW130014   2.262   1.034   8.128 -1.3529  0.0235 -1.3770
 6126SOL    HW230015   2.339   0.902   8.141 -0.0234 -0.6238 -0.2005
 6127SOL     OW30016   3.064   3.471   8.553 -0.6477  0.1215  0.0947
 6127SOL    HW130017   3.021   3.498   8.633  0.3602  0.2047  0.6093
 6127SOL    HW230018   3.010   3.512   8.486  0.4613  1.5835  0.1064
 6128SOL     OW30019   2.350   1.160   9.269  0.9660 -0.2936  0.6717
 6128SOL    HW130020   2.289   1.170   9.195  2.1902 -0.8607 -0.4131
 6128SOL    HW230021   2.424   1.119   9.225  0.3857 -1.0388  0.3998
 6129SOL     OW30022   2.637   1.476   2.579  0.3121 -0.1125 -0.1218
 6129SOL    HW130023   2.645   1.381   2.574  3.0027  0.1875 -1.5969
 6129SOL    HW230024   2.544   1.482   2.599  0.3513  1.3037 -0.3515
 6130SOL     OW30025   4.523   2.063  12.954 -0.2940 -0.0928  0.1332
 6130SOL    HW130026   4.616   2.061  12.975 -0.3070  1.3628  0.3158
 6130SOL    HW230027   4.529   2.116  12.875  1.0742 -1.6334 -0.7881
 6131SOL     OW30028   0.794   2.925   6.549  0.0319  0.3780 -0.3498
 6131SOL    HW130029   0.874   2.878   6.526  1.3962  2.7787 -0.4182
 6131SOL    HW230030   0.796   2.909   6.643  1.2633 -0.9152 -0.6017
 6132SOL     OW30031   4.334   0.572   2.873  0.0423  0.1248  0.0545
 6132SOL    HW130032   4.263   0.589   2.811  1.1641  1.7019 -0.7960
 6132SOL    HW230033   4.356   0.662   2.896  2.9327 -0.2099 -1.4470
 6133SOL     OW30034   1.393   2.033   8.778 -0.0336 -0.0633  0.0170
 6133SOL    HW130035   1.487   2.044   8.766  0.2211  0.0939  2.2228
 6133SOL    HW230036   1.373   2.028   8.684 -0.5653  2.3496  0.0022
 6134SOL     OW30037   3.105   2.837   5.248 -0.1206  0.0973  0.1056
 6134SOL    HW130038   3.042   2.816   5.180  1.0900 -1.5381 -0.5261
 6134SOL    HW230039   3.134   2.925   5.224 -0.3202  0.4637  1.2108
 6135SOL     OW30040   2.413   2.779   8.946  0.1694  0.6741 -0.1117
 6135SOL    HW130041   2.423   2.842   9.017 -0.4936  1.7147 -0.9367
 6135SOL    HW230042   2.506   2.760   8.933 -0.2070 -1.7052  0.5096
 6136SOL     OW30043   2.162   4.723   1.112  0.3975 -0.4624  0.8041
 6136SOL    HW130044   2.160   4.700   1.019 -1.3187  0.6718  0.5728
 6136SOL    HW230045   2.084   0.041   1.104  0.2066 -0.8000  0.3825
 6137SOL     OW30046   2.646   0.843   4.709  0.3085 -0.0807  0.0111
 6137SOL    HW130047   2.583   0.900   4.753 -0.3640  0.3813 -1.5301
 6137SOL    HW230048   2.596   0.761   4.703 -0.2699  0.1632  1.4608
 6138SOL     OW30049   1.138   2.419  11.376  0.6639  0.2044  0.1395
 6138SOL    HW130050   1.111   2.364  11.449 -0.9739  0.6670 -0.1200
 6138SOL    HW230051   1.160   2.506  11.410 -0.5754  0.3640  0.5144
 6139SOL     OW30052   2.977   0.238   1.754 -0.1507 -0.3801  0.0500
 6139SOL    HW130053   2.904   0.300   1.745 -0.9296 -1.6879 -2.5349
 6139SOL    HW230054   3.011   0.281   1.833  0.6920 -0.4297 -0.2876
 6140SOL     OW30055   4.285   3.947   2.401 -0.4371 -0.2801  0.0933
 6140SOL    HW130056   4.242   3.962   2.485 -2.1205  0.0467 -0.8064
 6140SOL    HW230057   4.295   4.038   2.371  0.8695 -0.2420  0.6387
 6141SOL     OW30058   1.059   1.654   7.643 -0.4462  0.3329 -0.2280
 6141SOL    HW130059   1.077   1.581   7.702  2.6358  1.5625  0.3310
 6141SOL    HW230060   1.100   1.617   7.565 -1.0357 -0.9730  0.0844
 6142SOL     OW30061   2.731   1.666  10.317  0.4796  0.1802  0.0673
 6142SOL    HW130062   2.814   1.705  10.344 -1.5250  2.7308  2.5942
 6142SOL    HW230063   2.699   1.739  10.263  1.3583  0.7528  0.3209
 6143SOL     OW30064   0.833   4.106   1.965  0.2602  0.4431  0.7710
 6143SOL    HW130065   0.759   4.165   1.951 -0.2230 -0.6218 -1.1317
 6143SOL    HW230066   0.867   4.145   2.046  0.9108  1.6944 -0.1101
 6144SOL     OW30067   0.172   3.848   8.102  0.0055  0.4236 -0.2037
 6144SOL    HW130068   0.224   3.927   8.085  1.0023 -0.3113 -0.5660
 6144SOL    HW230069   0.110   3.876   8.169  0.8240 -2.7569  1.8973
 6145SOL     OW30070   0.736   4.254  12.445  0.6455 -0.3266  0.5352
 6145SOL    HW130071   0.795   4.205  12.388 -0.5398  0.3092 -1.2422
 6145SOL    HW230072   0.776   4.340  12.432 -2.1556  0.9061 -0.0869
 6146SOL     OW30073   0.965   1.388   2.768 -0.6327  0.1513  0.1550
 6146SOL    HW130074   0.923   1.302   2.775 -2.4351  0.8130 -2.1269
 6146SOL    HW230075   0.903   1.443   2.719  0.1850  1.2138  0.3187
 6147SOL     OW30076   1.112   0.716   6.400  0.1529  0.2293  0.1884
 6147SOL    HW130077   1.089   0.735   6.491 -0.8370  0.5268 -0.1170
 6147SOL    HW230078   1.048   0.764   6.348 -1.2139  0.1711  1.8095
 6148SOL     OW30079   4.178   2.353   0.244  0.2299  0.0627 -0.0968
 6148SOL    HW130080   4.167   2.317   0.156 -1.8485 -0.5718  0.4140
 6148SOL    HW230081   4.240   2.425   0.234  0.1614  0.4745  2.2224
 6149SOL     OW30082   2.297   4.066  13.554 -0.3946 -0.5742 -0.1697
 6149SOL    HW130083   2.208   4.081  13.586 -0.0206  0.7852  0.2404
 6149SOL    HW230084   2.275   4.061  13.461  1.2643  0.6519 -0.6174
 6150SOL     OW30085   0.673   1.684   2.651 -0.0575  0.0951  0.1132
 6150SOL    HW130086   0.642   1.627   2.580  1.1910 -0.1878 -0.2061
 6150SOL    HW230087   0.677   1.772   2.615  1.2799 -0.3802 -0.8897
 6151SOL     OW30088   3.876   2.170   5.577 -0.1491 -0.4594 -0.4571
 6151SOL    HW130089   3.877   2.176   5.481 -1.7378 -1.4322 -0.5347
 6151SOL    HW230090   3.967   2.148   5.595 -0.9451 -0.2376  3.6987
 6152SOL     OW30091   3.207   0.802  16.576 -0.2620  0.0291  0.0426
 6152SOL    HW130092   3.270   0.837  16.514 -0.4563  1.0905  0.4434
 6152SOL    HW230093   3.257   0.806  16.657 -1.2302  0.7756  0.6104
 6153SOL     OW30094   0.191   4.364   7.462 -0.0369 -0.6092  0.0591
 6153SOL    HW130095   0.132   4.435   7.439 -0.2498 -0.9019 -0.2929
 6153SOL    HW230096   0.283   4.391   7.470 -0.8557  1.3829  2.9577
 6154SOL     OW30097   1.351   0.707  11.217  0.1286  1.0144  0.0462
 6154SOL    HW130098   1.302   0.656  11.153  1.4068 -0.0593 -0.0759
 6154SOL    HW230099   1.280   0.738  11.273  1.1898  1.2437  1.2764
 6155SOL     OW30100   1.097   2.494   7.776 -0.5854 -0.3942  0.2930
 6155SOL    HW130101   1.139   2.573   7.810 -1.7770  0.4352 -0.1999
 6155SOL    HW230102   1.110   2.429   7.846 -0.2705  1.2847  1.7880
 6156SOL     OW30103   0.016   3.105  10.210 -0.2074  0.0304  0.0330
 6156SOL    HW130104   0.006   3.184  10.157 -0.4470 -0.0358 -0.0216
 6156SOL    HW230105   0.101   3.079  10.174  0.5778 -0.0032  1.9190
 6157SOL     OW30106   4.360   1.376   6.094 -0.2785  0.3245 -0.1688
 6157SOL    HW130107   4.411   1.381   6.014  1.4238 -1.0097  0.8412
 6157SOL    HW230108   4.274   1.349   6.061 -0.4173  0.7405 -0.1520
 6158SOL     OW30109   3.205   1.235   4.963  0.2015 -0.1257 -0.5329
 6158SOL    HW130110   3.284   1.228   5.017  0.0949  2.2894 -0.0486
 6158SOL    HW230111   3.173   1.145   4.972 -0.2259  0.1952  1.1817
 6159SOL     OW30112   0.842   3.332   3.296  0.1422 -0.4205  0.4403
 6159SOL    HW130113   0.887   3.317   3.213 -0.7208  0.0496 -0.1075
 6159SOL    HW230114   0.852   3.426   3.309  1.0222 -0.3725 -0.6222
 6160SOL     OW30115   1.448   1.192   2.479  0.8369  0.3578  0.1737
 6160SOL    HW130116   1.423   1.284   2.486  0.3126  0.3717 -1.8642
 6160SOL    HW230117   1.539   1.191   2.449  0.7769  2.1922 -0.0724
 6161SOL     OW30118   3.883   0.073   6.541 -0.3084 -0.3671  0.2396
 6161SOL    HW130119   3.935   0.137   6.590  0.5733 -2.3654  1.8793
 6161SOL    HW230120   3.855   0.027   6.620  1.1609 -2.2014 -0.3171
 6162SOL     OW30121   3.527   4.126   6.484  0.0297  0.4265  0.0511
 6162SOL    HW130122   3.613   4.116   6.442 -0.3501  2.0367 -1.0697
 6162SOL    HW230123   3.496   4.036   6.492 -0.6315  0.5905 -0.6827
 6163SOL     OW30124   0.008   0.203   2.986 -0.9759  0.7524  0.0647
 6163SOL    HW130125   0.049   0.261   2.923  0.4102 -2.3679 -1.8767
 6163SOL    HW230126   0.067   0.204   3.061 -0.7119 -1.4947 -0.1071
 6164SOL     OW30127   2.700   0.135   5.897  0.3563  0.0055 -0.2400
 6164SOL    HW130128   2.681   0.176   5.981 -1.2969  0.5836 -0.9119
 6164SOL    HW230129   2.618   0.095   5.870 -0.0244 -0.2946  1.3507
 6165SOL     OW30130   1.988   1.054  14.860 -0.6657  0.8824  0.5250
 6165SOL    HW130131   1.910   1.042  14.915 -0.2867 -1.9827  0.4615
 6165SOL    HW230132   1.960   1.004  14.784 -0.8119  2.0766 -0.2053
 6166SOL     OW30133   2.936   2.506   7.503 -0.2918  0.6110 -0.0891
 6166SOL    HW130134   2.978   2.541   7.582 -0.3872 -0.4473  0.4363
 6166SOL    HW230135   2.969   2.416   7.503 -1.5756  0.1529 -0.3345
 6167SOL     OW30136   1.638   2.926   8.039 -0.4453  0.1277  0.2055
 6167SOL    HW130137   1.553   2.968   8.037  1.1930  3.4093  0.3083
 6167SOL    HW230138   1.631   2.872   8.118 -0.0014  0.0988  0.2250
 6168SOL     OW30139   0.288   4.294   6.527 -0.2393 -0.0935  0.6662
 6168SOL    HW130140   0.373   4.331   6.552  0.2171 -0.8544  0.2790
 6168SOL    HW230141   0.300   4.247   6.444  1.4687  1.3187  0.1088
 6169SOL     OW30142   4.364   2.952  16.906 -0.2559  0.8258  0.1485
 6169SOL    HW130143   4.437   2.899  16.938 -2.1978 -2.5315 -0.9106
 6169SOL    HW230144   4.321   2.884  16.854 -0.6184  1.4012 -0.3144
 6170SOL     OW30145   0.684   0.908   8.060 -0.4194  0.1630  0.3580
 6170SOL    HW130146   0.696   0.998   8.090  1.8456  0.0039 -0.0937
 6170SOL    HW230147   0.589   0.897   8.063 -0.4386  0.4554  0.8256
 6171SOL     OW30148   2.906   1.309   0.406  0.0419  0.0744  0.2549
 6171SOL    HW130149   2.850   1.247   0.451 -2.2949  1.2497 -1.0704
 6171SOL    HW230150   2.950   1.347   0.483  1.5061  0.3708 -0.7111
 6172SOL     OW30151   3.084   1.786   4.036 -0.1404 -0.1391  0.6988
 6172SOL    HW130152   3.166   1.783   3.988  0.3532  1.2757  1.4490
 6172SOL    HW230153   3.072   1.879   4.055  0.2921  0.1339 -0.4002
 6173SOL     OW30154   1.052   4.487   7.714  0.3700  0.2627  0.5626
 6173SOL    HW130155   1.061   4.531   7.799  2.6554 -1.3182  1.1418
 6173SOL    HW230156   1.054   4.396   7.744  2.6077  1.0686  2.8965
 6174SOL     OW30157   3.108   0.980   9.773 -0.0874 -0.0903  0.1059
 6174SOL    HW130158   3.072   0.916   9.711  0.4835  0.4232 -0.7696
 6174SOL    HW230159   3.167   1.042   9.729  1.3156 -0.2324  1.7995
 6175SOL     OW30160   2.532   4.001   8.129 -0.0359  0.2169  0.2484
 6175SOL    HW130161   2.586   4.073   8.162 -1.2424  1.4009 -0.3760
 6175SOL    HW230162   2.599   3.933   8.135  0.4843  0.6723 -0.4620
 6176SOL     OW30163   1.735   2.842   7.181  0.1408  0.0911 -0.8204
 6176SOL    HW130164   1.670   2.905   7.214 -1.8768 -1.2411 -2.2198
 6176SOL    HW230165   1.818   2.886   7.197  0.6252 -0.2139 -2.5079
 6177SOL     OW30166   4.618   1.096   8.252  0.3484 -0.3254  0.1996
 6177SOL    HW130167   4.618   1.143   8.169 -3.1359  1.6265  1.2956
 6177SOL    HW230168   4.577   1.012   8.233  0.0709 -0.2182  0.3225
 6178SOL     OW30169   1.754   4.615   6.513  0.3610  0.2250 -0.5900
 6178SOL    HW130170   1.822   4.679   6.491 -0.6361  1.9655  1.3412
 6178SOL    HW230171   1.800   4.552   6.568  2.8473  2.3911 -0.1877
 6179SOL     OW30172   3.020   4.268   0.799 -0.4593 -0.0134 -0.2616
 6179SOL    HW130173   3.050   4.238   0.713 -2.3768 -1.9588 -0.2653
 6179SOL    HW230174   2.972   4.349   0.784  1.4882  1.0691 -0.7069
 6180SOL     OW30175   1.887   0.634  11.226 -0.0229  0.3252  0.2496
 6180SOL    HW130176   1.904   0.650  11.133 -0.0497 -0.5549  0.0987
 6180SOL    HW230177   1.792   0.637  11.227 -0.0412 -0.4183  0.3729
 6181SOL     OW30178   2.055   3.519   2.961  0.2716  0.1299  0.7866
 6181SOL    HW130179   1.981   3.555   3.009  0.2756  1.5245 -0.2679
 6181SOL    HW230180   2.128   3.581   2.963  0.5010 -0.0564 -1.3563
 6182SOL     OW30181   3.230   2.058   7.765  0.5121  0.0316 -0.0758
 6182SOL    HW130182   3.145   2.099   7.780  1.5202  0.8650  3.4183
 6182SOL    HW230183   3.284   2.131   7.794  0.2461  0.1876  0.0216
 6183SOL     OW30184   0.077   2.064   5.371  0.2298 -0.1770  0.4246
 6183SOL    HW130185   0.015   1.991   5.373 -3.5961  3.1630  2.6386
 6183SOL    HW230186   0.021   2.141   5.375  1.2438  0.6785 -2.1071
 6184SOL     OW30187   3.479   1.013  16.756 -0.4531  0.2349 -0.1283
 6184SOL    HW130188   3.418   1.086  16.744 -1.3267 -0.7950 -2.0748
 6184SOL    HW230189   3.520   1.040  16.838  0.0804  0.2958 -0.4179
 6185SOL     OW30190   4.137   4.587   4.168 -0.5009 -0.7144  0.2162
 6185SOL    HW130191   4.050   4.566   4.136 -0.9205 -0.1587  0.9733
 6185SOL    HW230192   4.185   4.507   4.148  0.3463 -0.3445  0.7656
 6186SOL     OW30193   3.442   2.497   6.078 -0.2748 -0.3502  0.0717
 6186SOL    HW130194   3.467   2.418   6.029 -2.1143  0.5056 -2.2362
 6186SOL    HW230195   3.410   2.543   6.000  1.1355  0.2744 -0.1407
 6187SOL     OW30196   0.101   4.725   4.147 -0.2313  0.3057 -0.3841
 6187SOL    HW130197   0.073   4.671   4.073 -1.2822 -1.1586  1.0774
 6187SOL    HW230198   0.022   0.035   4.175 -0.2885  0.4063 -0.7098
 6188SOL     OW30199   2.251   1.905   0.031  0.0466  0.0879 -0.0915
 6188SOL    HW130200   2.273   1.980   0.086  2.1094 -0.8552  0.3644
 6188SOL    HW230201   2.334   1.859   0.024 -0.1060  0.1993 -2.7823
 6189SOL     OW30202   1.627   1.268   1.199 -0.6766  0.1621  0.1067
 6189SOL    HW130203   1.604   1.318   1.277 -0.2420  0.5704 -0.0239
 6189SOL    HW230204   1.622   1.179   1.231  1.7351 -0.0430 -0.0771
 6190SOL     OW30205   1.563   1.524   7.286  0.3214  0.0230  0.4093
 6190SOL    HW130206   1.568   1.612   7.323 -1.0102  0.9980 -1.7110
 6190SOL    HW230207   1.546   1.551   7.195  1.3960  0.6229  0.3852
 6191SOL     OW30208   4.066   0.492   6.378  0.3145 -0.8552  0.1802
 6191SOL    HW130209   4.054   0.538   6.461 -1.7182 -0.3702 -0.3900
 6191SOL    HW230210   4.128   0.433   6.420 -1.3475 -1.4953  1.7102
 6192SOL     OW30211   4.534   2.977   9.191  0.0346  0.3760  0.3542
 6192SOL    HW130212   4.585   2.920   9.133  0.5976  0.0818  1.1277
 6192SOL    HW230213   4.520   3.053   9.135  1.4464 -0.1979 -0.7753
 6193SOL     OW30214   1.400   2.543   1.552  0.1709 -0.4669  0.3410
 6193SOL    HW130215   1.368   2.528   1.464  1.6786 -4.1284  0.4051
 6193SOL    HW230216   1.384   2.637   1.564 -0.7493 -0.2680 -2.6024
 6194SOL     OW30217   3.587   2.113   5.235 -0.1382  0.3242 -0.0781
 6194SOL    HW130218   3.628   2.069   5.161  0.2309  2.3626 -1.0931
 6194SOL    HW230219   3.586   2.201   5.197 -1.7140  0.4238  0.2034
 6195SOL     OW30220   4.217   2.752  17.313 -0.3700  0.3499  0.1032
 6195SOL    HW130221   4.211   2.816  17.384 -0.1013 -0.7301  1.0982
 6195SOL    HW230222   4.200   2.801  17.232 -1.3255 -0.4822 -0.2086
 6196SOL     OW30223   0.808   1.940   4.581  0.2961 -0.2782 -0.1770
 6196SOL    HW130224   0.847   2.007   4.525  0.6770 -1.1056 -0.8995
 6196SOL    HW230225   0.866   1.947   4.658 -0.9671 -1.7518  0.9067
 6197SOL     OW30226   4.460   1.508   4.228  0.0356  0.3264 -0.2338
 6197SOL    HW130227   4.532   1.571   4.233  2.3960 -2.1606 -2.7023
 6197SOL    HW230228   4.399   1.532   4.298 -0.0504  2.9091 -1.2002
 6198SOL     OW30229   0.442   3.683  16.501  0.2031  0.5734  0.3280
 6198SOL    HW130230   0.507   3.738  16.544  1.5268 -1.4612  0.9249
 6198SOL    HW230231   0.449   3.599  16.546 -2.8734  0.1472  0.0091
 6199SOL     OW30232   1.874   3.300  12.369 -0.9270 -0.0806  0.2668
 6199SOL    HW130233   1.818   3.226  12.393  0.5419 -1.1609  0.3624
 6199SOL    HW230234   1.925   3.261  12.298 -1.3751  4.2823 -2.4600
 6200SOL     OW30235   3.044   3.229   9.493  0.2112  0.0271  0.1745
 6200SOL    HW130236   3.103   3.303   9.508  2.2671 -1.5184 -0.2297
 6200SOL    HW230237   3.098   3.153   9.469 -0.0523 -1.0338  2.8988
 6201SOL     OW30238   1.728   2.751   1.505 -0.6356 -0.1116 -0.3219
 6201SOL    HW130239   1.682   2.731   1.424  2.6254 -2.2669 -1.6028
 6201SOL    HW230240   1.718   2.665   1.545 -0.5946  0.3627  0.7352
 6202SOL     OW30241   2.384   3.539  17.569  0.1808  0.3709  0.1026
 6202SOL    HW130242   2.380   3.493  17.486 -0.5108 -0.2037  0.4550
 6202SOL    HW230243   2.476   3.562  17.582 -0.2634  2.1107  0.1874
 6203SOL     OW30244   4.278   0.888   3.663 -0.2276  0.5153 -0.6705
 6203SOL    HW130245   4.232   0.892   3.747 -0.1693  1.7472 -0.7086
 6203SOL    HW230246   4.351   0.839   3.701 -0.1903  0.4893 -0.7782
 6204SOL     OW30247   3.654   3.798   6.346 -0.3887 -0.0247 -0.1158
 6204SOL    HW130248   3.596   3.751   6.286 -1.5714  0.7690  0.4279
 6204SOL    HW230249   3.634   3.757   6.430 -1.5518  1.1986  0.1980
 6205SOL     OW30250   3.599   3.150   1.430 -0.4097 -0.4938 -0.2080
 6205SOL    HW130251   3.634   3.207   1.362  3.6472 -1.9841  0.6507
 6205SOL    HW230252   3.636   3.182   1.512  2.1142 -1.4972 -0.9699
 6206SOL     OW30253   2.500   2.322  11.200 -1.0089  0.2500 -0.2272
 6206SOL    HW130254   2.453   2.325  11.117 -0.5655 -0.1384 -0.4984
 6206SOL    HW230255   2.479   2.230  11.217  2.1014 -0.9198 -2.6844
 6207SOL     OW30256   3.301   0.877   6.589 -0.0300 -0.4839 -0.0596
 6207SOL    HW130257   3.296   0.933   6.666  3.7342 -0.4441  0.1856
 6207SOL    HW230258   3.208   0.872   6.569  0.3499  0.5877 -2.1478
 6208SOL     OW30259   0.135   3.189   5.361  0.2803 -0.3154  0.2497
 6208SOL    HW130260   0.057   3.134   5.364 -1.8622  2.5615 -2.9380
 6208SOL    HW230261   0.172   3.161   5.278 -0.2459  0.6169 -0.2893
 6209SOL     OW30262   1.141   0.496  12.740  0.0774 -0.1506  0.0554
 6209SOL    HW130263   1.178   0.412  12.714  0.4920 -0.3716  1.3577
 6209SOL    HW230264   1.188   0.497  12.823 -1.8161  0.0870  1.1248
 6210SOL     OW30265   2.867   4.213   8.751 -0.6391 -0.8373 -0.6088
 6210SOL    HW130266   2.794   4.157   8.724 -1.3402 -0.5368  0.6864
 6210SOL    HW230267   2.924   4.220   8.674  0.9920  1.8358  0.8572
 6211SOL     OW30268   2.591   3.785   0.417 -0.0590  0.4889  0.0564
 6211SOL    HW130269   2.588   3.819   0.327 -0.5798 -1.3069 -0.6227
 6211SOL    HW230270   2.528   3.712   0.412  0.3788  0.2270 -1.7307
 6212SOL     OW30271   1.806   2.213   8.544  0.1144  0.1810 -0.0132
 6212SOL    HW130272   1.801   2.241   8.453  2.4782 -0.7679 -0.4240
 6212SOL    HW230273   1.898   2.188   8.545 -0.1129 -0.6363  0.4446
 6213SOL     OW30274   1.819   3.635   7.759 -0.2152  0.0564  0.1659
 6213SOL    HW130275   1.742   3.611   7.810 -1.1000  0.4096 -0.9969
 6213SOL    HW230276   1.832   3.555   7.709 -2.7430  1.1642 -2.2379
 6214SOL     OW30277   2.991   3.500   2.158  0.2391 -0.0979 -0.0145
 6214SOL    HW130278   2.915   3.448   2.130 -0.3902  0.2791  0.9989
 6214SOL    HW230279   3.052   3.483   2.086 -1.4602 -1.4722 -1.1312
 6215SOL     OW30280   4.062   0.512   5.224 -0.3390  0.0839 -0.0076
 6215SOL    HW130281   4.046   0.508   5.319  0.5760 -1.3318  0.0997
 6215SOL    HW230282   3.984   0.467   5.190 -0.4072  0.9916 -1.0343
 6216SOL     OW30283   2.871   2.782   5.113 -0.8111  0.6859  0.0562
 6216SOL    HW130284   2.882   2.694   5.077 -0.1284  2.0394 -3.1118
 6216SOL    HW230285   2.796   2.759   5.168 -1.2807  1.2566 -0.3394
 6217SOL     OW30286   2.122   2.465   3.648  0.0748  0.0016 -0.0684
 6217SOL    HW130287   2.063   2.395   3.673 -0.2540  0.0351 -0.7373
 6217SOL    HW230288   2.199   2.430   3.693  1.1089  1.6639 -0.5377
 6218SOL     OW30289   1.014   0.058   2.420 -0.0993 -0.3164  0.1643
 6218SOL    HW130290   1.073   4.723   2.395 -0.9262 -1.0080  0.1886
 6218SOL    HW230291   1.082   0.112   2.460 -0.7160 -0.3569  1.2413
 6219SOL     OW30292   1.982   2.798   8.621 -0.3324  0.2500  0.3233
 6219SOL    HW130293   2.077   2.795   8.618 -0.2794 -1.6141  3.6107
 6219SOL    HW230294   1.955   2.765   8.535  1.8519 -0.3155 -0.1418
 6220SOL     OW30295   3.432   2.011  17.136 -0.3452 -0.1972 -0.4266
 6220SOL    HW130296   3.364   2.037  17.074  0.2387  0.7310 -0.6845
 6220SOL    HW230297   3.493   2.082  17.119  0.6949 -1.0687 -0.3306
 6221SOL     OW30298   3.975   3.018   3.499 -0.4016 -0.7921 -0.1667
 6221SOL    HW130299   3.944   3.062   3.578 -1.4237  3.1603 -2.7838
 6221SOL    HW230300   3.898   2.971   3.470 -1.2127  0.6161 -0.2988
 6222SOL     OW30301   2.360   1.212  11.381 -0.5734  0.6588 -0.1234
 6222SOL    HW130302   2.446   1.255  11.380  0.4162 -1.3270 -2.6068
 6222SOL    HW230303   2.309   1.264  11.443 -0.6996  2.0690 -1.3951
 6223SOL     OW30304   3.045   2.320  10.373 -0.2784 -0.8229 -0.4453
 6223SOL    HW130305   3.136   2.327  10.345 -0.4664 -1.6284 -1.2535
 6223SOL    HW230306   3.027   2.248  10.312  1.9429 -0.8087 -1.1290
 6224SOL     OW30307   1.193   4.230  13.092  0.7151 -0.1699 -0.3349
 6224SOL    HW130308   1.129   4.159  13.091 -0.0352  0.4924  0.9000
 6224SOL    HW230309   1.209   4.228  13.186  2.1960  3.7484 -0.5193
 6225SOL     OW30310   1.282   3.733   5.058  0.1204 -0.2115 -0.0309
 6225SOL    HW130311   1.269   3.751   4.965 -0.0447  0.4039  0.1113
 6225SOL    HW230312   1.195   3.745   5.097  0.3425  1.5905 -0.1035
 6226SOL     OW30313   2.253   0.243  12.415  0.6014 -0.0419 -0.6559
 6226SOL    HW130314   2.311   0.226  12.341  0.6808 -0.5196 -0.4839
 6226SOL    HW230315   2.310   0.285  12.480  1.1378  0.3647 -1.3918
 6227SOL     OW30316   2.342   4.173   3.456 -0.2473  0.5327 -0.1488
 6227SOL    HW130317   2.253   4.159   3.422 -0.1249  0.7457 -0.5540
 6227SOL    HW230318   2.396   4.144   3.382 -0.7238  1.4380 -0.8622
 6228SOL     OW30319   1.021   0.062   4.180  0.4913 -0.2411  0.0506
 6228SOL    HW130320   1.007   0.093   4.091  3.9140 -0.6743 -0.6332
 6228SOL    HW230321   0.940   0.086   4.225  1.1406 -0.0203  1.1076
 6229SOL     OW30322   1.601   2.345  12.041  0.3106 -0.1995  0.1791
 6229SOL    HW130323   1.574   2.350  11.949  0.6177 -0.9983  0.0377
 6229SOL    HW230324   1.694   2.319  12.036 -0.4861 -2.9623 -0.4021
 6230SOL     OW30325   4.551   1.683   5.062 -0.3672  0.7928  0.2363
 6230SOL    HW130326   4.563   1.689   4.967  0.5333 -0.7277  0.2487
 6230SOL    HW230327   4.484   1.749   5.077 -1.8282 -0.3614 -1.1778
 6231SOL     OW30328   2.075   3.108   7.502  0.2427 -0.3159 -0.6448
 6231SOL    HW130329   2.093   3.202   7.500 -1.1884  0.0132  1.9929
 6231SOL    HW230330   2.161   3.065   7.508 -1.2437 -3.1298  0.4747
 6232SOL     OW30331   3.764   0.456   5.304  0.0681  0.2887  0.4821
 6232SOL    HW130332   3.802   0.429   5.388  1.7099 -1.9349 -0.9925
 6232SOL    HW230333   3.738   0.544   5.330  0.8196  0.7598 -0.3540
 6233SOL     OW30334   3.091   1.889  12.737  0.3495  0.2978  0.1675
 6233SOL    HW130335   3.146   1.830  12.685  0.1537  0.0312  0.2613
 6233SOL    HW230336   3.093   1.848  12.824  0.7143 -0.7595 -0.3403
 6234SOL     OW30337   2.685   3.754   4.958 -0.5158 -0.2970  0.4489
 6234SOL    HW130338   2.741   3.756   5.035 -1.0550 -2.9142  0.9064
 6234SOL    HW230339   2.750   3.748   4.888 -1.8022 -2.0603 -0.6063
 6235SOL     OW30340   2.038   4.409   7.628 -0.4196  0.1300 -0.2634
 6235SOL    HW130341   2.006   4.366   7.707  1.3359 -3.2976 -1.4577
 6235SOL    HW230342   2.133   4.410   7.639 -0.4521 -0.9141  0.0779
 6236SOL     OW30343   2.701   2.543  17.728  0.1560 -0.3800  0.4148
 6236SOL    HW130344   2.620   2.560  17.678  0.3354 -3.2281 -0.8428
 6236SOL    HW230345   2.772   2.530  17.666 -0.4773  1.1566 -0.6544
 6237SOL     OW30346   2.017   0.974   4.063  0.3813 -0.1932  0.0683
 6237SOL    HW130347   2.057   0.889   4.043  0.6686 -0.4194  1.5949
 6237SOL    HW230348   2.021   1.034   3.988 -0.3937  1.3514  1.2595
 6238SOL     OW30349   3.890   1.831   8.019 -0.5199 -0.1847  0.0177
 6238SOL    HW130350   3.955   1.767   7.987  0.3848  0.3602  0.7457
 6238SOL    HW230351   3.843   1.835   7.936  1.3541 -0.3742 -1.0516
 6239SOL     OW30352   1.068   0.976   1.916 -0.0883  0.8145 -0.0114
 6239SOL    HW130353   1.106   1.054   1.956 -0.1588 -0.3231  2.3098
 6239SOL    HW230354   0.991   0.964   1.972  1.5614  0.6176  2.2344
 6240SOL     OW30355   0.360   3.645   2.116 -0.3106  0.2546  0.4557
 6240SOL    HW130356   0.308   3.656   2.037  1.6547 -0.2325 -0.9117
 6240SOL    HW230357   0.334   3.729   2.153 -2.1205 -0.6950  1.3326
 6241SOL     OW30358   0.044   3.972  13.633  0.2875  0.1723  0.3909
 6241SOL    HW130359   0.090   4.051  13.604  2.2082 -1.3948 -0.8353
 6241SOL    HW230360   0.075   3.955  13.721 -0.4670 -2.2466  0.1932
 6242SOL     OW30361   0.292   0.096   5.090  0.6081 -0.4591  0.3262
 6242SOL    HW130362   0.268   0.106   5.182 -1.3708 -1.3495 -0.0966
 6242SOL    HW230363   0.274   0.002   5.085  1.0121 -0.4518 -1.1009
 6243SOL     OW30364   0.307   4.059   0.127  0.4392 -0.2306 -0.4153
 6243SOL    HW130365   0.355   3.987   0.169  0.5288  0.7136  1.0968
 6243SOL    HW230366   0.248   4.069   0.201 -1.0152  1.7259 -1.8284
 6244SOL     OW30367   3.001   3.368   7.177 -0.0853  0.1153  0.1575
 6244SOL    HW130368   2.962   3.325   7.100 -0.1946 -0.2467  0.4134
 6244SOL    HW230369   3.028   3.291   7.227 -0.7466  0.9967  1.8447
 6245SOL     OW30370   1.752   3.250   8.522  0.1754 -0.2461  0.4450
 6245SOL    HW130371   1.752   3.155   8.532  0.3119 -0.2062  0.8100
 6245SOL    HW230372   1.678   3.284   8.572  1.6558  3.5253  0.0423
 6246SOL     OW30373   3.867   1.042  17.577 -0.3605 -0.4419  0.2681
 6246SOL    HW130374   3.803   0.975  17.602  0.4747 -1.1130  0.6609
 6246SOL    HW230375   3.870   1.015  17.485  0.0176 -0.4037  0.2660
 6247SOL     OW30376   0.295   2.439  15.282  0.3451  0.0178  0.4426
 6247SOL    HW130377   0.291   2.512  15.221 -1.3596  0.0820  0.6284
 6247SOL    HW230378   0.224   2.475  15.334  1.1426  1.6642  0.3760
 6248SOL     OW30379   0.505   3.195   7.692 -0.3337 -0.4904  0.0438
 6248SOL    HW130380   0.476   3.112   7.729 -2.0364  0.9524  1.9494
 6248SOL    HW230381   0.510   3.168   7.601 -0.4790  0.1693 -0.1593
 6249SOL     OW30382   0.484   3.738  14.438 -0.3096 -0.2779 -0.1030
 6249SOL    HW130383   0.408   3.748  14.495 -0.9474 -1.4034 -0.7589
 6249SOL    HW230384   0.553   3.713  14.500 -0.6640  2.3120  1.3480
 6250SOL     OW30385   4.548   1.616   0.909  0.1740  0.5374 -0.1841
 6250SOL    HW130386   4.608   1.573   0.847 -2.2475 -3.1978  0.0614
 6250SOL    HW230387   4.585   1.593   0.994 -3.7280 -1.1605  1.0672
 6251SOL     OW30388   2.039   1.017   8.298 -0.0231 -0.4139  0.0876
 6251SOL    HW130389   2.090   0.958   8.243 -0.7498 -0.6393 -0.3357
 6251SOL    HW230390   2.093   1.095   8.312 -1.4160  0.6908 -0.6420
 6252SOL     OW30391   2.538   3.309  11.118  0.3369  0.4771 -0.1287
 6252SOL    HW130392   2.623   3.317  11.074  2.4395  1.2956  4.1181
 6252SOL    HW230393   2.492   3.242  11.067 -0.4500  1.3660 -0.5806
 6253SOL     OW30394   4.599   3.719  11.348 -0.4065  0.6148  0.3083
 6253SOL    HW130395   4.610   3.775  11.271  0.6033  0.8392  0.6258
 6253SOL    HW230396   4.682   3.676  11.365 -1.7639 -1.9495  0.4320
 6254SOL     OW30397   3.416   1.778  12.821 -0.0521 -0.1828  0.6739
 6254SOL    HW130398   3.400   1.684  12.808 -0.6776 -0.4128  3.1399
 6254SOL    HW230399   3.462   1.770  12.904  2.0209  1.8739 -0.2814
 6255SOL     OW30400   0.411   2.148   3.343 -0.8711 -0.3599  0.2686
 6255SOL    HW130401   0.442   2.058   3.349  1.5448  0.5045  0.4815
 6255SOL    HW230402   0.399   2.173   3.435  1.0221  1.1816  0.0917
 6256SOL     OW30403   0.568   2.453  14.749 -1.4940  0.1786 -0.1294
 6256SOL    HW130404   0.515   2.513  14.801 -0.0505  1.2543  0.0956
 6256SOL    HW230405   0.557   2.380  14.809 -2.4767  0.5977  0.1945
 6257SOL     OW30406   3.395   4.496  17.396 -0.1248  0.5623  0.4170
 6257SOL    HW130407   3.327   4.476  17.332 -0.4679  1.3257  0.5410
 6257SOL    HW230408   3.439   4.411  17.403  2.3111  1.5959 -2.9781
 6258SOL     OW30409   4.460   3.279   8.504 -0.6362 -0.0318 -0.6148
 6258SOL    HW130410   4.471   3.365   8.462 -1.5858  0.2980 -0.1934
 6258SOL    HW230411   4.552   3.253   8.512 -0.9033 -0.0878  2.4761
 6259SOL     OW30412   3.601   1.447   6.755  0.1702 -0.1375  0.2542
 6259SOL    HW130413   3.636   1.484   6.835  2.0212  1.0766 -1.1354
 6259SOL    HW230414   3.527   1.504   6.735 -1.2583 -1.5916  1.3915
 6260SOL     OW30415   2.519   2.594   4.224 -0.0927  0.0933  0.0305
 6260SOL    HW130416   2.431   2.557   4.232 -0.0931  0.0196 -0.3114
 6260SOL    HW230417   2.541   2.562   4.311 -0.6026  1.1622  0.5475
 6261SOL     OW30418   3.863   2.490   2.563  0.3569 -0.3270 -0.2590
 6261SOL    HW130419   3.868   2.586   2.565 -1.2422 -0.2413  0.0061
 6261SOL    HW230420   3.856   2.467   2.655  1.0360  1.6820  0.3019
 6262SOL     OW30421   0.325   2.470   8.079  0.2471 -0.7218 -0.6078
 6262SOL    HW130422   0.348   2.392   8.029  3.0085 -0.4691  0.2590
 6262SOL    HW230423   0.230   2.479   8.070  0.2582 -0.1356 -0.1429
 6263SOL     OW30424   0.723   3.488   6.961  0.2160 -0.0539 -0.0501
 6263SOL    HW130425   0.674   3.407   6.944  0.9048 -0.8129  1.6260
 6263SOL    HW230426   0.709   3.496   7.055  0.9502  0.0494  0.0463
 6264SOL     OW30427   4.336   2.827   7.407 -0.0566  0.3702  0.0616
 6264SOL    HW130428   4.366   2.817   7.317  0.5592  1.5761  0.1379
 6264SOL    HW230429   4.306   2.737   7.423 -0.3230  0.3201 -0.7244
 6265SOL     OW30430   1.100   3.600   7.460  0.0967 -0.2477 -0.2537
 6265SOL    HW130431   1.008   3.599   7.487 -0.2633 -0.2030 -1.5058
 6265SOL    HW230432   1.106   3.505   7.455 -0.2122 -0.3158  0.7060
 6266SOL     OW30433   0.777   4.722   3.361  0.0328  0.3533 -0.1441
 6266SOL    HW130434   0.778   4.711   3.265 -0.1151  0.1253 -0.1190
 6266SOL    HW230435   0.835   0.061   3.373  0.6242 -0.0459 -0.4477
 6267SOL     OW30436   2.939   1.478   6.173  0.3126 -0.1270 -0.1843
 6267SOL    HW130437   2.859   1.441   6.211  0.0338  1.3414  0.6572
 6267SOL    HW230438   2.942   1.563   6.217 -1.3398  0.3093 -0.8915
 6268SOL     OW30439   3.510   2.946  13.664  0.9969 -0.0870  0.0036
 6268SOL    HW130440   3.586   2.908  13.621  1.1081 -0.6324  0.6738
 6268SOL    HW230441   3.453   2.869  13.671  1.2600 -0.5552 -3.4275
 6269SOL     OW30442   1.578   3.231   7.724 -0.2469  0.4748  0.0680
 6269SOL    HW130443   1.672   3.246   7.735 -0.2125  1.3212 -1.3984
 6269SOL    HW230444   1.573   3.141   7.692  2.4207  1.2364 -2.4994
 6270SOL     OW30445   4.442   3.241  15.847 -0.4202 -0.6229 -0.4501
 6270SOL    HW130446   4.424   3.147  15.835 -1.6053 -0.5947  0.9545
 6270SOL    HW230447   4.351   3.261  15.869 -0.9297 -1.5410 -1.6945
 6271SOL     OW30448   1.862   3.604   7.393 -0.3319 -0.1420 -0.5615
 6271SOL    HW130449   1.866   3.543   7.467  0.7726  1.0167  0.3374
 6271SOL    HW230450   1.922   3.676   7.412  0.3687 -0.9383  0.2725
 6272SOL     OW30451   3.564   2.044   1.568 -0.2400  0.1619  0.3791
 6272SOL    HW130452   3.498   1.974   1.565 -0.6156  0.5511 -0.5507
 6272SOL    HW230453   3.564   2.061   1.473 -1.1020 -1.2579  0.1248
 6273SOL     OW30454   1.213   4.365  14.102  0.1909 -0.1930  0.0374
 6273SOL    HW130455   1.148   4.313  14.149  1.7325 -1.4206  0.7952
 6273SOL    HW230456   1.174   4.375  14.015 -0.2646  2.8221  0.5603
 6274SOL     OW30457   4.646   0.166   4.237  0.1753  0.3622 -0.0678
 6274SOL    HW130458   4.693   0.247   4.256  0.1406 -0.1470  2.2198
 6274SOL    HW230459   4.591   0.160   4.316 -0.4793 -0.7212 -0.6099
 6275SOL     OW30460   4.330   2.972   2.131  0.0223 -0.3951 -0.6337
 6275SOL    HW130461   4.364   3.061   2.139  1.0115 -0.7585 -0.7474
 6275SOL    HW230462   4.352   2.941   2.219 -0.8147  0.5124 -0.0993
 6276SOL     OW30463   2.848   0.263   4.862 -0.0220 -0.0539  0.2452
 6276SOL    HW130464   2.824   0.336   4.804 -0.7763  1.0626  1.9451
 6276SOL    HW230465   2.807   0.284   4.946 -0.8783 -0.0242 -0.1718
 6277SOL     OW30466   1.539   3.025  14.324 -0.0192  0.1560 -0.1355
 6277SOL    HW130467   1.546   3.103  14.379  2.3773  1.3085 -2.0749
 6277SOL    HW230468   1.495   3.050  14.243  2.3829  0.9023 -1.2192
 6278SOL     OW30469   1.496   1.002   6.770 -0.4088 -0.7446 -0.0404
 6278SOL    HW130470   1.523   0.988   6.679  3.4107  1.2646  0.7650
 6278SOL    HW230471   1.468   1.093   6.768  1.0328 -0.2382  3.1075
 6279SOL     OW30472   2.492   3.980   4.554  0.3282  0.0956  0.1248
 6279SOL    HW130473   2.499   4.011   4.464 -2.1582 -3.7514 -1.4061
 6279SOL    HW230474   2.403   3.945   4.557 -0.8610  3.1232 -0.0366
 6280SOL     OW30475   3.335   1.795   7.729  0.3855  0.3163 -0.2780
 6280SOL    HW130476   3.248   1.779   7.767  1.0157  0.2523  1.1568
 6280SOL    HW230477   3.343   1.889   7.742  0.0605  0.1282  1.3744
 6281SOL     OW30478   1.377   2.814   3.139  0.7861  0.8593 -0.1668
 6281SOL    HW130479   1.294   2.775   3.109  1.5848 -0.7695 -0.2603
 6281SOL    HW230480   1.411   2.858   3.061  2.2422  0.2456  0.1294
 6282SOL     OW30481   1.746   4.631   7.431 -0.0698  0.1447  0.2856
 6282SOL    HW130482   1.719   4.716   7.399 -0.7002 -0.0593  0.2803
 6282SOL    HW230483   1.803   4.597   7.361 -4.0566 -3.0101 -1.4245
 6283SOL     OW30484   2.324   3.494   2.816  0.5788  0.0534  0.4123
 6283SOL    HW130485   2.269   3.443   2.875 -0.4220  1.3306  0.5864
 6283SOL    HW230486   2.414   3.478   2.843 -0.0919  0.4857  2.9559
 6284SOL     OW30487   4.532   2.885   7.927 -0.1417 -0.4533 -0.4749
 6284SOL    HW130488   4.440   2.872   7.949  0.0521 -1.1828 -0.0582
 6284SOL    HW230489   4.560   2.892   8.018 -3.0284  0.6331  0.3210
 6285SOL     OW30490   3.429   2.286   2.839 -0.2232 -0.1841 -0.6308
 6285SOL    HW130491   3.476   2.212   2.800  1.4480  0.2858  0.4972
 6285SOL    HW230492   3.449   2.275   2.932  0.9390 -0.3622 -0.9097
 6286SOL     OW30493   1.661   2.990   6.627  0.6631 -0.1526 -0.4182
 6286SOL    HW130494   1.621   2.958   6.708  1.9090 -1.7401 -0.4380
 6286SOL    HW230495   1.587   2.990   6.567  0.5766  0.0497 -0.3115
 6287SOL     OW30496   4.656   4.017   9.329  0.4496 -0.2971  0.3525
 6287SOL    HW130497   4.633   4.071   9.405 -0.7960 -0.2762 -0.0451
 6287SOL    HW230498   4.581   4.024   9.271  0.2210  0.0229  0.6869
 6288SOL     OW30499   2.513   0.825  15.835 -0.5295  0.1645  0.2789
 6288SOL    HW130500   2.466   0.768  15.774  1.2662 -2.0285  0.9406
 6288SOL    HW230501   2.483   0.806  15.924  0.4504  0.0620  0.5857
 6289SOL     OW30502   1.957   0.049   6.396 -0.0591  0.2026 -0.6339
 6289SOL    HW130503   2.004   4.721   6.449  0.6033  1.5364  0.4072
 6289SOL    HW230504   1.988   0.036   6.307  1.2865 -2.0710  0.1735
 6290SOL     OW30505   2.280   0.677   1.459 -0.7085 -0.2672  0.4169
 6290SOL    HW130506   2.311   0.701   1.372 -0.6323  0.6460  0.6939
 6290SOL    HW230507   2.229   0.599   1.437 -0.8303 -1.2511  4.0779
 6291SOL     OW30508   4.168   0.636   9.376 -0.0569  0.1810 -0.0064
 6291SOL    HW130509   4.146   0.579   9.449  1.1618  1.0292  1.0154
 6291SOL    HW230510   4.231   0.696   9.415 -0.1782  1.5744 -1.9167
 6292SOL     OW30511   0.222   2.836  12.577  0.4925  1.0914 -0.5065
 6292SOL    HW130512   0.173   2.879  12.647  0.1039 -1.0609  0.5737
 6292SOL    HW230513   0.254   2.757  12.622 -0.1616  0.2793 -1.4571
 6293SOL     OW30514   0.127   1.637   7.870  0.1330 -0.6927 -0.0937
 6293SOL    HW130515   0.212   1.601   7.896 -0.2816 -0.1038  2.1460
 6293SOL    HW230516   0.074   1.630   7.949 -1.8770  1.7386 -1.2337
 6294SOL     OW30517   0.972   1.101  12.978 -0.1254  0.0849 -0.0017
 6294SOL    HW130518   0.964   1.179  12.922  1.2210  0.4102  0.2530
 6294SOL    HW230519   0.911   1.041  12.936  0.7039  0.3845 -1.6551
 6295SOL     OW30520   2.847   0.807   8.233  0.4373 -0.2519  0.5758
 6295SOL    HW130521   2.826   0.884   8.286 -1.1913  0.5090 -1.1684
 6295SOL    HW230522   2.769   0.757   8.256 -0.3800  1.2101  1.0036
 6296SOL     OW30523   2.513   3.567  13.007 -0.6186  0.1150 -0.2192
 6296SOL    HW130524   2.608   3.558  12.999 -0.7333 -1.4623  0.1444
 6296SOL    HW230525   2.496   3.610  12.924 -2.8226 -1.7675 -0.7620
 6297SOL     OW30526   0.985   0.581   7.740  0.0537  0.0585 -0.1487
 6297SOL    HW130527   0.958   0.612   7.827  0.4174 -1.5887  0.5546
 6297SOL    HW230528   0.904   0.532   7.723  1.3171 -2.3309  0.6694
 6298SOL     OW30529   3.284   2.207   8.102 -0.3870 -0.3053  0.6947
 6298SOL    HW130530   3.376   2.215   8.078  0.6733  2.6139  5.5871
 6298SOL    HW230531   3.248   2.263   8.034  0.5210 -0.4883  0.0720
 6299SOL     OW30532   3.265   0.949   5.439  0.0617  0.1812 -0.3625
 6299SOL    HW130533   3.287   0.883   5.504 -0.0271 -0.6145 -1.1490
 6299SOL    HW230534   3.215   0.906   5.369 -2.2317  1.8557  0.2347
 6300SOL     OW30535   3.375   2.474  11.964  0.0672 -0.2435 -0.5518
 6300SOL    HW130536   3.422   2.548  11.926  0.5538 -0.8627 -1.1675
 6300SOL    HW230537   3.440   2.423  12.013  0.5490 -0.3554 -1.3076
 6301SOL     OW30538   4.018   2.101   4.657  0.0869 -0.1742  0.3103
 6301SOL    HW130539   4.112   2.120   4.660 -0.4604  2.3576  1.0816
 6301SOL    HW230540   3.991   2.190   4.635 -1.6170 -0.9039 -0.5605
 6302SOL     OW30541   0.384   3.634   4.141  0.0296  0.3249 -0.2036
 6302SOL    HW130542   0.401   3.548   4.180 -0.4723  0.7882  1.0426
 6302SOL    HW230543   0.340   3.602   4.062 -0.7945  1.0797 -0.0607
 6303SOL     OW30544   3.105   2.584   3.737 -0.1141 -0.5835  0.4707
 6303SOL    HW130545   3.015   2.616   3.738 -0.1927 -0.8429  1.3726
 6303SOL    HW230546   3.154   2.663   3.714  1.7905 -2.0956 -0.6624
 6304SOL     OW30547   0.844   4.564   2.531  0.9750 -0.0857 -0.6343
 6304SOL    HW130548   0.919   4.619   2.510  0.3321  0.7281 -0.8071
 6304SOL    HW230549   0.777   4.615   2.484  1.4158 -0.5078 -1.6995
 6305SOL     OW30550   2.650   1.427   4.568 -0.3358 -0.0357  0.1399
 6305SOL    HW130551   2.566   1.468   4.590 -0.9927 -1.2356 -0.1374
 6305SOL    HW230552   2.667   1.375   4.647  1.6443  1.0007  0.3853
 6306SOL     OW30553   1.016   2.010   4.745 -0.1996 -0.2177  0.3496
 6306SOL    HW130554   1.065   2.022   4.827 -0.6428 -0.2516  0.6172
 6306SOL    HW230555   1.070   1.942   4.706  0.6277  1.2279 -1.0199
 6307SOL     OW30556   0.627   1.462   0.283  0.4234  0.1883 -0.3246
 6307SOL    HW130557   0.554   1.405   0.260 -0.7831  0.9139  1.6871
 6307SOL    HW230558   0.704   1.407   0.266  1.1721  1.7689 -2.1016
 6308SOL     OW30559   3.514   0.239   2.109  0.1169 -0.3322  0.2244
 6308SOL    HW130560   3.464   0.318   2.128 -0.5282 -0.5705 -0.4929
 6308SOL    HW230561   3.601   0.278   2.116  0.1741  0.1906 -3.5323
 6309SOL     OW30562   3.521   2.905  12.479  0.3064  0.2446 -0.0031
 6309SOL    HW130563   3.429   2.879  12.474 -0.4972  3.2639 -0.3909
 6309SOL    HW230564   3.550   2.850  12.552  0.6306  1.4850  0.8071
 6310SOL     OW30565   0.992   4.062   2.942 -0.4404  0.0850  0.8488
 6310SOL    HW130566   0.900   4.041   2.956 -0.5333  0.9746  1.5082
 6310SOL    HW230567   1.030   3.975   2.927 -0.1060  0.2009  1.0183
 6311SOL     OW30568   0.494   3.549   4.561 -0.0778  0.4376  0.1470
 6311SOL    HW130569   0.553   3.517   4.629  0.2150 -0.3200 -0.4702
 6311SOL    HW230570   0.414   3.528   4.609  1.5430 -2.0997  1.7615
 6312SOL     OW30571   1.177   3.897  14.151  0.5959  0.0314 -0.5468
 6312SOL    HW130572   1.264   3.874  14.183  0.5294  1.5088  0.7262
 6312SOL    HW230573   1.168   3.850  14.068 -2.6958  0.4462 -0.4214
 6313SOL     OW30574   2.134   3.082   8.250 -0.0675 -0.4727 -0.2868
 6313SOL    HW130575   2.055   3.037   8.279 -2.1638  1.3664 -3.0810
 6313SOL    HW230576   2.188   3.069   8.328 -1.6685  1.7514  1.1852
 6314SOL     OW30577   4.267   2.505   6.708 -0.5074  0.5863  0.2742
 6314SOL    HW130578   4.284   2.539   6.620 -0.4787  2.1542  0.8701
 6314SOL    HW230579   4.286   2.412   6.705 -1.4134  0.5574 -3.5900
 6315SOL     OW30580   2.876   3.293  16.646  0.0638 -0.4851  0.4820
 6315SOL    HW130581   2.905   3.360  16.709  1.5471 -0.6510 -0.0200
 6315SOL    HW230582   2.900   3.215  16.695 -1.2342 -0.6523  0.8493
 6316SOL     OW30583   1.025   0.475  16.115 -0.0423  0.1326  0.2622
 6316SOL    HW130584   1.012   0.429  16.032  1.4604 -0.3912  0.3310
 6316SOL    HW230585   1.017   0.568  16.090 -0.6146  0.5687  2.0558
 6317SOL     OW30586   1.101   3.741  13.921 -0.0491  0.4691  0.0432
 6317SOL    HW130587   1.069   3.680  13.855  0.7968  0.8375 -0.7066
 6317SOL    HW230588   1.166   3.794  13.876 -0.5036 -0.4351 -1.6658
 6318SOL     OW30589   2.512   1.274  12.223  0.0856  0.0443 -0.1514
 6318SOL    HW130590   2.486   1.209  12.157 -0.2886 -1.1672  1.1900
 6318SOL    HW230591   2.502   1.360  12.183 -3.0426  0.3820  1.4133
 6319SOL     OW30592   4.296   2.771   3.706  0.2045 -0.4297  0.3227
 6319SOL    HW130593   4.347   2.842   3.746  1.8911 -1.1093 -0.6217
 6319SOL    HW230594   4.280   2.805   3.618 -0.8379  0.1110  0.7302
 6320SOL     OW30595   2.613   0.205   5.535 -0.3829 -0.8748  0.5181
 6320SOL    HW130596   2.622   0.300   5.530 -0.9561 -0.7722  1.3879
 6320SOL    HW230597   2.688   0.181   5.481 -0.7133 -1.8165  0.4621
 6321SOL     OW30598   0.140   3.971  10.419  0.1470 -0.1131  0.3139
 6321SOL    HW130599   0.136   4.037  10.349 -2.2622 -0.3582  0.2451
 6321SOL    HW230600   0.219   3.986  10.471  0.8634 -2.4429 -0.1106
 6322SOL     OW30601   2.443   2.329   2.883  0.1695 -0.0441  0.2591
 6322SOL    HW130602   2.418   2.378   2.805 -0.2495 -3.9343 -2.0340
 6322SOL    HW230603   2.539   2.332   2.884  0.1852  0.1508 -3.1733
 6323SOL     OW30604   3.925   0.712   7.496  0.3879 -0.1347  0.2255
 6323SOL    HW130605   3.858   0.781   7.499  1.5704  1.1208 -2.2003
 6323SOL    HW230606   3.982   0.741   7.567 -0.3602 -0.0897  0.8143
 6324SOL     OW30607   2.831   1.173   8.432  0.0311 -0.2200  0.3414
 6324SOL    HW130608   2.765   1.104   8.426  0.7424 -0.9241  0.5655
 6324SOL    HW230609   2.858   1.164   8.523 -0.3141  0.8873  0.5435
 6325SOL     OW30610   0.677   3.553   6.038 -0.4856 -0.8150 -0.4265
 6325SOL    HW130611   0.717   3.498   6.105 -0.0914  0.0112  0.0131
 6325SOL    HW230612   0.641   3.492   5.972  0.2923  0.4511 -2.0230
 6326SOL     OW30613   1.789   3.551   8.927 -0.6934  0.1725 -0.0177
 6326SOL    HW130614   1.697   3.565   8.904 -0.4868 -3.5331 -3.1517
 6326SOL    HW230615   1.789   3.463   8.965 -0.1760  0.3898  0.4855
 6327SOL     OW30616   0.904   3.847   6.693 -0.2713 -0.1724 -0.5133
 6327SOL    HW130617   0.853   3.821   6.617 -1.3486 -0.9782  0.4777
 6327SOL    HW230618   0.894   3.767   6.745 -1.8990  0.7790  0.6273
 6328SOL     OW30619   0.884   3.028   3.385 -0.1613 -0.1706 -0.0111
 6328SOL    HW130620   0.790   3.016   3.399 -0.1082  0.3890  0.8694
 6328SOL    HW230621   0.890   3.116   3.348 -0.1275 -0.5058 -0.7928
 6329SOL     OW30622   4.589   2.769  14.459 -0.0840 -0.4157  0.0852
 6329SOL    HW130623   4.663   2.824  14.430 -0.2482 -0.5462 -0.5766
 6329SOL    HW230624   4.600   2.701  14.392  0.1345  0.1574 -0.4677
 6330SOL     OW30625   1.600   3.229   5.454 -0.5247 -0.4054 -0.2877
 6330SOL    HW130626   1.526   3.258   5.401 -0.7028 -1.8466 -0.8426
 6330SOL    HW230627   1.571   3.137   5.459 -3.7566  0.5423 -1.2985
 6331SOL     OW30628   3.397   3.768   3.467  0.7806  0.0393  0.0148
 6331SOL    HW130629   3.395   3.685   3.418  0.9963  1.0395 -1.6935
 6331SOL    HW230630   3.486   3.796   3.449  0.5975 -0.0345 -1.0058
 6332SOL     OW30631   2.605   4.275   1.685  0.0954  0.2053 -0.8375
 6332SOL    HW130632   2.641   4.195   1.722 -1.8087 -0.6091 -0.7892
 6332SOL    HW230633   2.517   4.252   1.658 -0.1943  1.0497 -0.6258
 6333SOL     OW30634   3.237   4.300  16.139  0.3236 -0.1836 -0.6131
 6333SOL    HW130635   3.301   4.236  16.170  1.8970  0.7680 -1.8790
 6333SOL    HW230636   3.271   4.332  16.055  0.6952 -2.0583 -1.1624
 6334SOL     OW30637   3.041   2.320   1.747 -0.3703 -0.0020  0.5622
 6334SOL    HW130638   3.133   2.337   1.763 -0.3071  1.2483 -1.1090
 6334SOL    HW230639   3.029   2.228   1.771  1.0799 -0.4639 -0.4881
 6335SOL     OW30640   3.707   3.754   7.111 -0.1124 -0.1018 -0.0805
 6335SOL    HW130641   3.795   3.721   7.132  0.5104  0.9258 -1.0364
 6335SOL    HW230642   3.650   3.688   7.150 -1.8751  0.8037 -1.1416
 6336SOL     OW30643   2.361   3.850   2.914 -0.1446 -0.1451  0.6951
 6336SOL    HW130644   2.325   3.833   2.827  1.2648  0.1405  0.0636
 6336SOL    HW230645   2.347   3.944   2.926  0.3188  0.0759 -0.4358
 6337SOL     OW30646   2.251   2.887   9.346 -1.0277 -0.2551 -0.2318
 6337SOL    HW130647   2.256   2.919   9.436  0.6554 -0.6367 -0.1915
 6337SOL    HW230648   2.159   2.860   9.340 -0.9571 -0.6956  0.8457
 6338SOL     OW30649   2.392   1.436   7.885  0.3469  0.2410  0.5446
 6338SOL    HW130650   2.301   1.456   7.863  0.4352 -0.7595 -0.7526
 6338SOL    HW230651   2.423   1.445   7.794  0.1505  1.4800  0.6020
 6339SOL     OW30652   4.713   1.813   6.044 -0.6612  0.1636 -0.2509
 6339SOL    HW130653   0.057   1.768   6.068 -1.5992 -0.2202  2.1224
 6339SOL    HW230654   4.646   1.752   6.074 -1.0518 -0.2191 -1.9112
 6340SOL     OW30655   0.443   2.805   3.512 -0.9323  0.5503 -0.7900
 6340SOL    HW130656   0.437   2.769   3.601  0.6287  2.4128  0.0739
 6340SOL    HW230657   0.361   2.766   3.483  0.1483 -2.6711  0.4776
 6341SOL     OW30658   4.264   1.809   4.114 -0.2450 -0.0095 -0.7884
 6341SOL    HW130659   4.240   1.838   4.202 -1.2418 -0.1020 -1.0309
 6341SOL    HW230660   4.254   1.892   4.068 -2.0921  0.7678  1.0212
 6342SOL     OW30661   1.831   2.395   2.407  0.3367 -0.4390 -0.1331
 6342SOL    HW130662   1.874   2.344   2.339 -0.5728 -0.7759 -0.4632
 6342SOL    HW230663   1.798   2.321   2.458 -1.1409  0.3108  0.0016
 6343SOL     OW30664   3.448   0.116   5.065  0.4567 -0.0229  0.0679
 6343SOL    HW130665   3.460   0.171   4.987 -1.5304 -1.9460 -1.6131
 6343SOL    HW230666   3.380   0.166   5.110  1.6324  2.8688 -1.3670
 6344SOL     OW30667   2.182   0.555  10.293 -0.4510  0.6243 -0.3760
 6344SOL    HW130668   2.211   0.626  10.350 -0.0595  1.5193 -1.6652
 6344SOL    HW230669   2.199   0.482  10.352  0.3674  1.3958  0.3372
 6345SOL     OW30670   1.471   0.566   8.426 -0.0738 -0.1236  0.6705
 6345SOL    HW130671   1.480   0.538   8.336 -1.6311  0.0847  0.4658
 6345SOL    HW230672   1.385   0.607   8.424  0.2354  0.5194  0.4688
 6346SOL     OW30673   3.560   2.438   7.552  0.0284 -0.2395  0.1515
 6346SOL    HW130674   3.503   2.390   7.493 -0.4854  0.4987  0.0423
 6346SOL    HW230675   3.644   2.395   7.537  0.1693 -0.0521  0.3938
 6347SOL     OW30676   2.830   1.852  16.510 -0.1830  0.0285  0.0426
 6347SOL    HW130677   2.748   1.893  16.536  0.2052 -0.0753  1.4519
 6347SOL    HW230678   2.849   1.787  16.577 -0.6075  0.6077  0.7193
 6348SOL     OW30679   0.907   4.553   4.320  0.2560  0.0729  0.0458
 6348SOL    HW130680   0.970   4.524   4.386 -0.6350  0.4734  1.0850
 6348SOL    HW230681   0.955   4.621   4.274 -0.4511  1.7890  1.8661
 6349SOL     OW30682   2.108   2.331  12.145 -0.0250  0.2404  0.1282
 6349SOL    HW130683   2.129   2.316  12.237 -1.3869 -0.0656  0.3831
 6349SOL    HW230684   2.176   2.280  12.101 -0.9679  0.1579 -1.2358
 6350SOL     OW30685   3.113   3.326   5.548  0.2248 -0.5214  0.3539
 6350SOL    HW130686   3.185   3.265   5.531 -0.0857 -0.8159  0.1054
 6350SOL    HW230687   3.049   3.261   5.579 -0.9256  0.1836 -0.5267
 6351SOL     OW30688   1.371   2.832   6.965  0.0052 -0.3505  0.0105
 6351SOL    HW130689   1.460   2.795   6.962 -0.4529 -1.2013 -3.2890
 6351SOL    HW230690   1.388   2.923   6.988 -1.4493 -0.2590  0.7194
 6352SOL     OW30691   3.162   4.456   6.713  0.1417  0.5133 -0.2620
 6352SOL    HW130692   3.218   4.382   6.692 -1.2887 -0.8012  0.5223
 6352SOL    HW230693   3.223   4.513   6.759  0.4229  0.4795 -0.5962
 6353SOL     OW30694   3.516   1.059  12.480  0.4079 -0.2482  0.4139
 6353SOL    HW130695   3.579   1.098  12.541  0.7028  0.6104 -0.4275
 6353SOL    HW230696   3.526   1.113  12.401 -1.8660 -1.7254 -0.8950
 6354SOL     OW30697   4.255   1.295   7.656 -0.2400  0.3157 -0.2719
 6354SOL    HW130698   4.250   1.204   7.685  0.8942  0.6444  0.9612
 6354SOL    HW230699   4.166   1.305   7.624  0.1439  4.3159 -0.0528
 6355SOL     OW30700   0.721   3.730   3.106 -0.0636 -0.0701 -0.1949
 6355SOL    HW130701   0.767   3.690   3.180  0.0091  1.3267  0.5113
 6355SOL    HW230702   0.791   3.711   3.043 -1.0131  0.1753 -1.3254
 6356SOL     OW30703   1.636   2.329   4.854 -0.0050  0.1207 -0.5940
 6356SOL    HW130704   1.722   2.288   4.850 -0.3218 -0.7304  1.1075
 6356SOL    HW230705   1.639   2.405   4.913 -2.0827 -1.7185  1.8814
 6357SOL     OW30706   3.635   2.583   1.046 -0.4077  0.1180 -0.4593
 6357SOL    HW130707   3.691   2.531   0.988 -0.2376  0.1381 -0.3129
 6357SOL    HW230708   3.601   2.519   1.108 -1.2287  1.7795  0.8144
 6358SOL     OW30709   3.997   1.912   5.185  0.0803  0.3654 -0.7162
 6358SOL    HW130710   4.056   1.909   5.260 -0.9931  0.9939  0.1611
 6358SOL    HW230711   3.934   1.850   5.223 -1.9043  3.1897  0.6362
 6359SOL     OW30712   2.097   3.072   1.730 -0.7321  0.0663  0.3573
 6359SOL    HW130713   2.046   3.100   1.654  0.2999  3.3060  0.8864
 6359SOL    HW230714   2.073   2.979   1.736  0.4211 -0.6110 -4.7841
 6360SOL     OW30715   2.405   0.366  12.648  0.0442 -0.0152  0.2604
 6360SOL    HW130716   2.496   0.387  12.625 -0.6937  1.4532 -1.2690
 6360SOL    HW230717   2.391   0.421  12.725  4.1051  0.7135  0.5093
 6361SOL     OW30718   0.304   4.306   5.321 -0.2079 -0.2317 -0.3659
 6361SOL    HW130719   0.331   4.241   5.256  2.2573  0.7405 -0.2975
 6361SOL    HW230720   0.258   4.253   5.386  4.0373 -1.9251  1.2611
 6362SOL     OW30721   2.857   3.169  14.516 -0.5543 -0.3451  0.0572
 6362SOL    HW130722   2.898   3.174  14.602 -0.2319  1.0116 -0.1785
 6362SOL    HW230723   2.783   3.230  14.516 -0.6227 -0.4446 -1.7723
 6363SOL     OW30724   1.507   2.838   5.105  0.2684 -0.1413 -0.3231
 6363SOL    HW130725   1.441   2.868   5.042 -3.1914 -1.4197  2.6594
 6363SOL    HW230726   1.564   2.915   5.108  0.6348 -0.4240 -0.0803
 6364SOL     OW30727   2.044   4.194   3.991 -0.1179  0.4757 -0.0578
 6364SOL    HW130728   2.091   4.116   3.960  2.1199  1.3297  1.1979
 6364SOL    HW230729   1.953   4.167   3.986 -0.0944  0.1833  1.2260
 6365SOL     OW30730   2.771   3.403   3.686 -0.5744 -0.3932  0.1968
 6365SOL    HW130731   2.687   3.383   3.646 -0.6487  0.3321 -0.0107
 6365SOL    HW230732   2.820   3.391   3.604  0.1955  0.0484  0.5943
 6366SOL     OW30733   1.636   0.643  14.104 -0.1079 -0.6591 -0.4081
 6366SOL    HW130734   1.639   0.668  14.197  0.8400  0.4041 -0.7187
 6366SOL    HW230735   1.548   0.664  14.073 -0.5565 -0.5954  0.9073
 6367SOL     OW30736   2.136   1.026   1.341  0.1185 -0.3571  0.6120
 6367SOL    HW130737   2.090   0.980   1.412 -1.1107 -1.6582 -1.0145
 6367SOL    HW230738   2.089   0.997   1.263 -0.4989  2.5343 -0.0770
 6368SOL     OW30739   2.482   3.047   3.613 -0.1828 -0.3062 -0.2516
 6368SOL    HW130740   2.410   3.082   3.560 -0.7452  2.6040  2.4134
 6368SOL    HW230741   2.516   3.123   3.660  0.5753 -0.9829  0.2760
 6369SOL     OW30742   1.477   1.233  11.791  0.0884  0.0389 -0.1756
 6369SOL    HW130743   1.425   1.167  11.744  0.2787 -0.7142  0.6765
 6369SOL    HW230744   1.453   1.197  11.876  0.5587 -0.1720 -0.1321
 6370SOL     OW30745   1.744   3.766   1.239 -0.2703  0.5764  0.0332
 6370SOL    HW130746   1.767   3.788   1.330 -0.7420 -1.0752  0.5548
 6370SOL    HW230747   1.798   3.819   1.181  1.4692  0.7091  1.7500
 6371SOL     OW30748   2.019   2.361   4.489  0.2905  0.4818  0.3687
 6371SOL    HW130749   2.006   2.454   4.508  0.7259  0.2498  1.8325
 6371SOL    HW230750   1.994   2.363   4.397  1.7671  1.1471 -0.0160
 6372SOL     OW30751   0.607   2.320   5.270 -0.5197  0.1969 -0.9261
 6372SOL    HW130752   0.519   2.341   5.301 -0.2284 -1.5216  1.0587
 6372SOL    HW230753   0.604   2.225   5.269  0.6061  0.1307  1.7851
 6373SOL     OW30754   2.665   2.697   8.952 -0.2344 -0.3866 -0.1278
 6373SOL    HW130755   2.635   2.618   8.996  1.3430 -1.4897 -1.0743
 6373SOL    HW230756   2.758   2.674   8.952  0.1810  1.2399 -0.4125
 6374SOL     OW30757   4.536   1.632   6.167 -0.0225  0.4109  0.6844
 6374SOL    HW130758   4.457   1.685   6.156  0.3508  0.2951 -2.4535
 6374SOL    HW230759   4.515   1.594   6.252 -2.6278 -1.6777 -0.8792
 6375SOL     OW30760   2.711   1.866  10.113  0.4444 -0.4489 -0.0509
 6375SOL    HW130761   2.698   1.944  10.167  0.5386 -2.3294  2.6903
 6375SOL    HW230762   2.629   1.874  10.066 -0.7348  1.8012  2.3641
 6376SOL     OW30763   2.713   0.528  14.072 -0.3962  0.3676  0.0830
 6376SOL    HW130764   2.782   0.534  14.006  0.2799  1.5133  0.8904
 6376SOL    HW230765   2.648   0.474  14.027 -0.7223 -0.4520  1.5341
 6377SOL     OW30766   2.220   3.880   4.561  0.3875 -0.3351 -1.3098
 6377SOL    HW130767   2.181   3.823   4.495 -0.0714 -0.0537 -1.2909
 6377SOL    HW230768   2.193   3.965   4.525  0.1877 -0.8005 -2.2583
 6378SOL     OW30769   4.404   1.194   6.846 -0.3085 -0.0911 -0.0145
 6378SOL    HW130770   4.421   1.226   6.935  2.0019  1.9720 -1.2052
 6378SOL    HW230771   4.337   1.260   6.827  0.1938  0.5352  0.4015
 6379SOL     OW30772   4.004   3.656   7.352  0.1110 -0.0631  0.3534
 6379SOL    HW130773   4.023   3.742   7.315 -1.6664 -0.0891 -0.6166
 6379SOL    HW230774   4.074   3.602   7.316  0.2499 -0.6109  1.4414
 6380SOL     OW30775   2.017   3.093  13.250 -0.0798  0.2675 -0.2960
 6380SOL    HW130776   1.938   3.080  13.303  0.9701 -2.1414  0.6669
 6380SOL    HW230777   2.078   3.059  13.316 -0.8246  0.4910  0.5087
 6381SOL     OW30778   4.162   2.156   9.606 -0.0629  0.8433 -0.6959
 6381SOL    HW130779   4.184   2.242   9.644 -3.6680  0.8900  1.3065
 6381SOL    HW230780   4.212   2.101   9.666 -1.2217  0.1969 -0.3389
 6382SOL     OW30781   4.217   0.736  16.130  0.0573 -0.1538  0.3116
 6382SOL    HW130782   4.125   0.747  16.108  0.3670  0.6836 -0.5893
 6382SOL    HW230783   4.260   0.785  16.059  0.0313  0.5743  0.8020
 6383SOL     OW30784   3.505   0.313  11.835  0.6684  0.2495 -0.2160
 6383SOL    HW130785   3.564   0.244  11.807  0.2242  0.0482 -0.6634
 6383SOL    HW230786   3.428   0.314  11.777  1.1126 -2.1860 -0.8721
 6384SOL     OW30787   0.311   4.602   2.463 -0.1707 -0.7554 -0.3062
 6384SOL    HW130788   0.228   4.636   2.430  0.6719  0.9742 -0.6773
 6384SOL    HW230789   0.351   4.683   2.497 -1.6378  1.3694 -3.6310
 6385SOL     OW30790   2.116   3.409   8.215  0.7347  0.6091 -0.8834
 6385SOL    HW130791   2.194   3.356   8.229  0.6582  1.0318  1.0682
 6385SOL    HW230792   2.087   3.384   8.127 -1.1299  1.6600 -0.5757
 6386SOL     OW30793   2.261   0.310  14.030 -0.0853 -0.4844  0.6755
 6386SOL    HW130794   2.241   0.325  13.938  0.9341  0.1808  0.5657
 6386SOL    HW230795   2.197   0.241  14.052  0.0126 -1.3246 -1.7096
 6387SOL     OW30796   0.266   1.325  12.244  0.4034 -0.1795  0.5555
 6387SOL    HW130797   0.361   1.334  12.233  0.4647 -1.2927  0.1740
 6387SOL    HW230798   0.257   1.389  12.315 -0.4903  0.1402  0.1484
 6388SOL     OW30799   2.239   1.449   4.386 -0.1876  0.5768 -0.2643
 6388SOL    HW130800   2.162   1.447   4.329  0.7093  0.2446 -1.4638
 6388SOL    HW230801   2.304   1.475   4.321 -2.4010 -0.0668 -2.7769
 6389SOL     OW30802   1.939   0.294   8.770  0.0840 -0.6440  0.2250
 6389SOL    HW130803   1.947   0.362   8.837  1.7830 -1.1380  0.5103
 6389SOL    HW230804   1.850   0.270   8.797 -0.6690  0.1092 -1.5869
 6390SOL     OW30805   3.381   0.227   9.519  0.0041 -0.1280 -0.4102
 6390SOL    HW130806   3.347   0.315   9.501  0.3526  0.2471  0.7817
 6390SOL    HW230807   3.462   0.225   9.468  0.2104 -4.0169  0.0784
 6391SOL     OW30808   1.307   2.130   5.360  0.0710  0.7184  0.5953
 6391SOL    HW130809   1.227   2.099   5.402 -0.7802  1.1062 -0.7193
 6391SOL    HW230810   1.343   2.184   5.430  0.6478 -0.4842  1.2150
 6392SOL     OW30811   2.056   1.562   2.421  0.1214 -0.1582  0.2724
 6392SOL    HW130812   1.994   1.574   2.348  0.8743  2.2519  0.0313
 6392SOL    HW230813   2.078   1.476   2.386  0.9872 -0.8332  2.5188
 6393SOL     OW30814   4.530   1.321   1.888  0.0314  0.3437  0.3165
 6393SOL    HW130815   4.570   1.277   1.813  1.4282  2.9812 -0.4812
 6393SOL    HW230816   4.547   1.412   1.863  0.9838  0.3973  1.1681
 6394SOL     OW30817   4.702   1.688   0.556  1.0137 -0.1692 -0.3728
 6394SOL    HW130818   4.642   1.760   0.537  0.6882 -0.3841 -0.1674
 6394SOL    HW230819   0.055   1.722   0.549  0.2758  1.7099 -0.8688
 6395SOL     OW30820   2.394   4.723   3.800  0.3834  0.6811  0.4975
 6395SOL    HW130821   2.467   4.678   3.844  0.8935  1.3415  0.3286
 6395SOL    HW230822   2.332   4.650   3.798 -0.4191  1.4138 -1.1901
 6396SOL     OW30823   2.560   0.521   8.741 -0.6348  0.5543  0.4663
 6396SOL    HW130824   2.592   0.594   8.794 -1.6093  1.7426 -0.5956
 6396SOL    HW230825   2.620   0.454   8.774  0.1086  0.9961  0.0317
 6397SOL     OW30826   2.069   0.803  15.776  0.2078 -0.1719 -0.3393
 6397SOL    HW130827   1.978   0.818  15.799  0.9154  1.5019  1.3722
 6397SOL    HW230828   2.086   0.730  15.835  1.4453  0.5628  0.2285
 6398SOL     OW30829   1.486   1.197   6.175  0.1523  0.3401  0.1480
 6398SOL    HW130830   1.566   1.182   6.126 -0.9962 -1.6969 -1.0802
 6398SOL    HW230831   1.424   1.145   6.124  2.7187 -0.5058 -2.0669
 6399SOL     OW30832   4.038   2.706   7.926 -0.0977  0.0625 -0.0727
 6399SOL    HW130833   3.969   2.660   7.973  0.3677  1.0159  1.5391
 6399SOL    HW230834   4.108   2.641   7.913 -1.8780 -1.4869 -2.0542
 6400SOL     OW30835   2.669   2.880  11.804 -0.4599 -0.6531 -0.0926
 6400SOL    HW130836   2.630   2.839  11.881  2.3630 -0.9936  1.1416
 6400SOL    HW230837   2.742   2.934  11.835  0.5763 -2.1066 -0.0444
 6401SOL     OW30838   4.384   2.590   2.425 -0.3458  0.9045 -0.2708
 6401SOL    HW130839   4.428   2.627   2.348  0.8896 -0.2301 -0.1015
 6401SOL    HW230840   4.295   2.606   2.396 -0.8788 -0.6164  0.5357
 6402SOL     OW30841   4.641   4.188   2.737  0.0134 -0.3557  0.5765
 6402SOL    HW130842   4.703   4.224   2.674  1.4670  2.4703  3.6410
 6402SOL    HW230843   4.605   4.259   2.790  0.3712 -0.1039  0.4812
 6403SOL     OW30844   4.729   1.182   3.993 -0.3322  0.2316  0.1385
 6403SOL    HW130845   4.657   1.229   4.035 -1.5710 -2.2844  0.7820
 6403SOL    HW230846   0.058   1.154   4.056  0.0949  0.4257 -0.2190
 6404SOL     OW30847   2.336   1.488   1.566 -0.0937 -0.0609 -0.5162
 6404SOL    HW130848   2.421   1.475   1.525 -0.2294 -2.1763 -0.1323
 6404SOL    HW230849   2.294   1.404   1.544  1.4386 -0.7680 -0.7245
 6405SOL     OW30850   2.579   3.603   4.115  0.4022 -0.3380 -0.2203
 6405SOL    HW130851   2.577   3.508   4.128  0.0228 -0.0454  1.9074
 6405SOL    HW230852   2.608   3.617   4.025 -1.5343 -1.8993 -1.0944
 6406SOL     OW30853   3.855   3.628   4.771 -0.3965  0.7035  0.7397
 6406SOL    HW130854   3.827   3.679   4.847  0.6514  0.0806  1.5414
 6406SOL    HW230855   3.942   3.667   4.759 -0.1364  0.0560  0.5057
 6407SOL     OW30856   2.588   0.801   9.097  0.1617  0.0588 -0.2445
 6407SOL    HW130857   2.596   0.897   9.101 -0.4191  0.1529 -1.4244
 6407SOL    HW230858   2.551   0.778   9.182  0.2713  0.9444  0.0518
 6408SOL     OW30859   3.407   1.780  11.282  0.4816 -0.2348  0.2040
 6408SOL    HW130860   3.415   1.833  11.361 -1.7003  1.1150 -0.4581
 6408SOL    HW230861   3.480   1.718  11.285  2.4091  2.2115  2.9617
 6409SOL     OW30862   2.911   3.940  13.143 -0.0601 -0.0297  0.5397
 6409SOL    HW130863   2.888   4.033  13.136 -1.1847 -0.3733 -0.4221
 6409SOL    HW230864   2.820   3.911  13.148  1.3807 -3.7058  5.2430
 6410SOL     OW30865   4.086   0.099  11.375 -0.9021 -0.0638 -0.5796
 6410SOL    HW130866   4.028   0.138  11.440 -0.6950  1.1013 -1.0907
 6410SOL    HW230867   4.149   0.051  11.429 -0.4424 -1.5214 -2.3991
 6411SOL     OW30868   0.568   4.605   3.470 -0.1635  0.1585 -0.1089
 6411SOL    HW130869   0.640   4.663   3.447 -0.2656  0.7369  1.0386
 6411SOL    HW230870   0.572   4.540   3.400  3.7756  1.6950 -1.3012
 6412SOL     OW30871   4.621   4.036   5.369  0.6779 -0.3452  0.2755
 6412SOL    HW130872   4.626   4.114   5.313  0.2348 -1.7374 -1.7206
 6412SOL    HW230873   4.695   3.988   5.330  1.4138  1.8595 -1.0244
 6413SOL     OW30874   1.452   2.250   9.261 -0.1497 -0.6077  0.1538
 6413SOL    HW130875   1.367   2.248   9.217  0.0330 -1.2332 -0.1691
 6413SOL    HW230876   1.507   2.269   9.185 -0.1810  0.9658  0.5185
 6414SOL     OW30877   3.190   2.033  16.687  0.1983  0.0312  0.0203
 6414SOL    HW130878   3.172   2.086  16.765  1.0866  0.9086 -0.3584
 6414SOL    HW230879   3.241   2.099  16.639  1.8514  0.9254  2.9340
 6415SOL     OW30880   1.526   2.234   6.410  0.4130  0.2305  0.4783
 6415SOL    HW130881   1.577   2.309   6.378  1.1983  0.1984  1.6715
 6415SOL    HW230882   1.508   2.190   6.327 -0.2305  2.6506 -0.6626
 6416SOL     OW30883   4.426   0.905   5.596  0.3682  0.1927  0.0755
 6416SOL    HW130884   4.518   0.882   5.580  1.0649  2.4055  0.8222
 6416SOL    HW230885   4.396   0.815   5.605  1.7654 -0.1833  1.1260
 6417SOL     OW30886   0.192   2.405   7.177  0.1234 -0.5828 -0.4928
 6417SOL    HW130887   0.143   2.419   7.258 -1.7429 -1.8961 -1.3959
 6417SOL    HW230888   0.273   2.369   7.214 -0.1817  0.6041  1.3236
 6418SOL     OW30889   0.940   0.238  15.896 -0.1137 -0.2670 -0.0319
 6418SOL    HW130890   0.880   0.313  15.900  1.3961  1.0819 -2.5727
 6418SOL    HW230891   0.938   0.234  15.800 -0.2559 -1.0393  0.0067
 6419SOL     OW30892   1.090   1.964   4.246  0.1928  0.2926 -0.1909
 6419SOL    HW130893   1.184   1.979   4.236  0.6860 -1.1365  2.2280
 6419SOL    HW230894   1.068   2.021   4.320  2.2701 -0.3605  0.9284
 6420SOL     OW30895   2.411   0.652   4.016  0.7672 -0.1019  0.3793
 6420SOL    HW130896   2.497   0.681   4.047  1.2748 -0.8863 -0.2825
 6420SOL    HW230897   2.413   0.561   4.046  1.6185 -0.6115 -1.2302
 6421SOL     OW30898   1.353   1.569   2.834 -0.2652 -0.1542 -0.0266
 6421SOL    HW130899   1.287   1.635   2.851 -1.5323 -1.4658  0.1062
 6421SOL    HW230900   1.384   1.593   2.746 -2.8696  0.8253 -0.6661
 6422SOL     OW30901   1.536   2.926   9.171 -0.0846 -0.1824 -0.0622
 6422SOL    HW130902   1.523   3.010   9.216  0.8033  0.8719 -1.7488
 6422SOL    HW230903   1.447   2.890   9.171  0.4610 -1.5468  2.3953
 6423SOL     OW30904   3.757   2.032   5.857  0.1034 -0.0513  0.2149
 6423SOL    HW130905   3.717   1.952   5.891 -0.2381  0.6049  1.3317
 6423SOL    HW230906   3.686   2.054   5.797 -0.1077 -0.7903  0.1941
 6424SOL     OW30907   0.897   3.756   4.640  0.4746 -0.3172 -0.2890
 6424SOL    HW130908   0.815   3.806   4.638  0.7428  0.0890 -0.9417
 6424SOL    HW230909   0.954   3.826   4.608 -0.6870 -0.5441 -2.8652
 6425SOL     OW30910   3.280   4.599   2.326 -0.6305  0.5155 -0.5096
 6425SOL    HW130911   3.238   4.621   2.243  0.4243  0.0430 -1.1702
 6425SOL    HW230912   3.267   4.683   2.370 -0.7299  0.1967  0.0686
 6426SOL     OW30913   3.024   3.765   7.113 -1.0941 -0.2711 -0.4171
 6426SOL    HW130914   2.934   3.755   7.143 -1.0839 -0.6368 -0.5155
 6426SOL    HW230915   3.011   3.845   7.062  0.4085  0.7234  0.7600
 6427SOL     OW30916   3.230   2.722   4.213  0.1276  0.5699  0.2027
 6427SOL    HW130917   3.212   2.709   4.120 -1.5067 -0.2033  0.6443
 6427SOL    HW230918   3.144   2.709   4.252  0.2690 -1.7935 -0.2543
 6428SOL     OW30919   0.585   4.712  15.852  0.4790 -0.3700  0.7776
 6428SOL    HW130920   0.512   0.038  15.849 -0.0373 -1.0374 -0.3143
 6428SOL    HW230921   0.539   4.641  15.808  0.8009 -1.0577  1.5609
 6429SOL     OW30922   3.381   3.781   3.004  0.6197 -0.0817  0.1776
 6429SOL    HW130923   3.356   3.873   3.013 -1.0502 -0.3765 -1.5299
 6429SOL    HW230924   3.443   3.770   2.932 -0.5802 -4.7487 -0.1501
 6430SOL     OW30925   0.935   3.914   8.762  0.0329  0.1769 -0.2743
 6430SOL    HW130926   0.868   3.909   8.695  0.4184 -0.8503 -0.5835
 6430SOL    HW230927   1.011   3.876   8.717  0.9167 -0.7409  1.9543
 6431SOL     OW30928   1.451   2.258  15.326 -0.3001  0.1780 -0.9033
 6431SOL    HW130929   1.461   2.341  15.279 -0.9744  0.7144 -0.1000
 6431SOL    HW230930   1.488   2.189  15.271 -1.4810 -2.7455  1.9875
 6432SOL     OW30931   0.778   2.386   6.610 -0.1273  0.2846 -0.0967
 6432SOL    HW130932   0.685   2.403   6.624 -0.0027 -0.0800  1.2327
 6432SOL    HW230933   0.783   2.381   6.515 -2.1344 -1.4017 -0.1140
 6433SOL     OW30934   2.293   3.343   9.173 -0.9779 -0.3691 -0.9764
 6433SOL    HW130935   2.352   3.410   9.140 -0.3940  0.1217  1.0920
 6433SOL    HW230936   2.356   3.276   9.201 -1.0589 -0.5286 -1.1704
 6434SOL     OW30937   1.592   1.094   5.142  0.1068 -0.0445  0.3660
 6434SOL    HW130938   1.591   1.173   5.087 -0.1036  0.1737  0.6822
 6434SOL    HW230939   1.599   1.126   5.231 -0.6771 -0.6912  0.6583
 6435SOL     OW30940   4.302   2.737   6.938  0.2989  0.4156 -0.2983
 6435SOL    HW130941   4.342   2.776   6.861  1.1333 -0.7839 -0.4789
 6435SOL    HW230942   4.238   2.674   6.905 -0.3972  0.6820  0.5313
 6436SOL     OW30943   3.975   1.885   5.743 -0.7040  0.4425  0.2203
 6436SOL    HW130944   3.909   1.922   5.801 -0.6577 -0.7612  1.0575
 6436SOL    HW230945   3.973   1.960   5.684 -1.4838  0.4060  0.2123
 6437SOL     OW30946   2.857   1.530   4.442 -0.6686 -0.8826  0.5082
 6437SOL    HW130947   2.775   1.497   4.478 -1.0082 -1.7410 -1.0795
 6437SOL    HW230948   2.844   1.616   4.402  2.6783  0.6679  2.6858
 6438SOL     OW30949   4.337   3.625   9.231 -0.6979  0.0769 -0.8385
 6438SOL    HW130950   4.252   3.665   9.216 -1.3907 -1.6189 -1.3827
 6438SOL    HW230951   4.336   3.545   9.179  3.3289  1.2521 -2.7097
 6439SOL     OW30952   0.909   0.089   8.584  0.1905  0.0720 -0.2395
 6439SOL    HW130953   0.967   0.017   8.562 -2.1602 -1.6963 -0.6785
 6439SOL    HW230954   0.936   0.109   8.674 -0.7537  2.2249 -0.4358
 6440SOL     OW30955   0.640   0.059   5.014  0.2107  0.0304 -0.3889
 6440SOL    HW130956   0.733   0.050   5.034  0.2800 -3.0566 -2.1391
 6440SOL    HW230957   0.602   0.043   5.100 -0.6414  1.7296 -0.4430
 6441SOL     OW30958   1.554   4.655  14.879 -0.1247 -0.2094  0.0772
 6441SOL    HW130959   1.568   4.657  14.974  1.6269 -1.8826 -0.1562
 6441SOL    HW230960   1.527   4.564  14.874  1.1335 -0.5705 -0.0455
 6442SOL     OW30961   0.698   0.671   3.372 -0.0455  0.3478  0.3221
 6442SOL    HW130962   0.608   0.699   3.356 -0.7096 -0.2706  2.9279
 6442SOL    HW230963   0.731   0.748   3.418  0.7719  0.6468 -0.7746
 6443SOL     OW30964   2.965   3.458   4.775 -0.0111  0.2038 -0.2253
 6443SOL    HW130965   2.873   3.432   4.783  0.3143 -0.6324  0.7619
 6443SOL    HW230966   2.955   3.553   4.768 -0.9106  0.0072 -1.6873
 6444SOL     OW30967   4.439   0.478   6.569  0.3221  0.2336  0.2664
 6444SOL    HW130968   4.529   0.456   6.546  0.4161  1.0364 -0.1482
 6444SOL    HW230969   4.442   0.574   6.570 -0.2372  0.2442  1.0214
 6445SOL     OW30970   1.991   3.276   3.602 -0.3030  0.2549  0.5359
 6445SOL    HW130971   1.950   3.360   3.624 -1.2691  0.4299 -1.9399
 6445SOL    HW230972   1.914   3.225   3.576  0.5908 -0.7972 -0.0345
 6446SOL     OW30973   1.720   1.074   6.064  0.0223  0.4529  0.0261
 6446SOL    HW130974   1.697   1.083   5.972  1.3664  0.1441 -0.3433
 6446SOL    HW230975   1.748   0.984   6.082 -1.8898 -0.5596 -2.0627
 6447SOL     OW30976   1.496   2.685   2.681  0.3421  0.2399 -0.0325
 6447SOL    HW130977   1.523   2.642   2.762  0.2297  0.1105 -0.0652
 6447SOL    HW230978   1.574   2.671   2.627  0.3575 -2.4219  0.6873
 6448SOL     OW30979   2.541   3.190  15.147  0.4381 -0.2494  0.7064
 6448SOL    HW130980   2.517   3.106  15.108  0.1721  0.1480  0.0010
 6448SOL    HW230981   2.505   3.187  15.235 -0.9219  0.4923  0.1785
 6449SOL     OW30982   4.363   2.545  17.442  0.3848 -0.3298  0.0905
 6449SOL    HW130983   4.297   2.604  17.406 -2.4317 -3.7209 -0.3034
 6449SOL    HW230984   4.385   2.500  17.360  0.5073 -0.0911 -0.0096
 6450SOL     OW30985   2.640   4.019   0.014 -0.2451  0.2561  0.1033
 6450SOL    HW130986   2.650   3.924   0.015  1.0132  0.3889 -0.3384
 6450SOL    HW230987   2.660   4.039   0.105  1.4182  1.6429 -0.5638
 6451SOL     OW30988   3.677   2.028  17.581  0.1243 -0.0985  0.2628
 6451SOL    HW130989   3.724   1.959  17.628 -1.5247 -0.3128  1.5828
 6451SOL    HW230990   3.591   1.989  17.571 -1.2842  3.1611 -0.1886
 6452SOL     OW30991   3.975   0.596  15.257 -0.4168 -0.0124  0.2612
 6452SOL    HW130992   3.962   0.652  15.334  0.8162  1.0229 -0.2904
 6452SOL    HW230993   4.033   0.531  15.296 -0.8319 -1.3829 -1.3972
 6453SOL     OW30994   1.110   3.625   3.109 -0.5828  0.0242 -0.1051
 6453SOL    HW130995   1.142   3.657   3.193  1.0259 -2.2119  0.1586
 6453SOL    HW230996   1.173   3.554   3.093 -1.8323 -0.9740 -0.5694
 6454SOL     OW30997   1.088   4.348  13.830 -0.4240 -0.4874 -0.4203
 6454SOL    HW130998   1.055   4.429  13.792  2.1476  1.1591  0.8224
 6454SOL    HW230999   1.004   4.312  13.857  0.3056 -0.6403  1.6919
 6455SOL     OW31000   3.549   3.501   3.464 -0.2376  0.6823  0.4614
 6455SOL    HW131001   3.594   3.530   3.543  0.7631 -0.1461  0.1984
 6455SOL    HW231002   3.479   3.442   3.492 -0.8764  1.0007 -0.4725
 6456SOL     OW31003   2.554   0.669  16.974  0.4320  0.5247  0.5244
 6456SOL    HW131004   2.486   0.693  16.910 -0.3157  0.8228  1.4395
 6456SOL    HW231005   2.522   0.588  17.013 -1.5164  1.3072  0.5772
 6457SOL     OW31006   3.262   0.038  17.671  0.1614  0.5585 -0.1328
 6457SOL    HW131007   3.193   0.022  17.607  0.0925  0.0471  0.0700
 6457SOL    HW231008   3.338   0.069  17.621  0.9876 -1.9664 -0.4840
 6458SOL     OW31009   0.177   3.256  15.889 -0.2628 -0.1741 -0.1744
 6458SOL    HW131010   0.257   3.239  15.840 -0.9995 -0.2898 -1.3521
 6458SOL    HW231011   0.132   3.321  15.835 -0.0740  0.1453  0.0585
 6459SOL     OW31012   3.332   3.125  11.376 -0.2075  0.0242 -0.3283
 6459SOL    HW131013   3.262   3.074  11.416  0.1678 -0.1664  0.0792
 6459SOL    HW231014   3.277   3.175  11.315 -0.3208  1.2869  0.8016
 6460SOL     OW31015   3.279   2.345   5.688  0.2449 -0.1859  0.1144
 6460SOL    HW131016   3.374   2.333   5.689  0.3325  0.4508 -1.1610
 6460SOL    HW231017   3.246   2.282   5.624 -0.9545 -0.8935  1.4103
 6461SOL     OW31018   4.610   0.863   3.465 -0.0449 -0.1602 -0.7684
 6461SOL    HW131019   4.623   0.925   3.537 -0.7731  0.4914 -1.1968
 6461SOL    HW231020   4.655   0.786   3.500  1.2013 -0.1068 -2.2388
 6462SOL     OW31021   0.834   3.402  16.209 -0.0469  0.4042 -0.3047
 6462SOL    HW131022   0.805   3.482  16.252  2.5556 -0.1318  2.3809
 6462SOL    HW231023   0.747   3.366  16.193  0.8990 -2.1488  0.1835
 6463SOL     OW31024   4.066   2.260   7.267 -0.2180  0.3687 -0.2175
 6463SOL    HW131025   4.016   2.320   7.321  0.4944 -0.1695  1.0393
 6463SOL    HW231026   4.141   2.276   7.323  1.0509 -0.2434 -1.7165
 6464SOL     OW31027   4.011   1.355   7.567 -0.3159  0.3000  0.4565
 6464SOL    HW131028   3.967   1.430   7.607  0.6452  1.0457  0.1226
 6464SOL    HW231029   3.996   1.370   7.473  2.0599 -4.2181 -0.6197
 6465SOL     OW31030   1.363   4.528   6.233 -0.2216 -0.4777 -0.2910
 6465SOL    HW131031   1.350   4.498   6.323 -1.1214 -0.3980 -0.3988
 6465SOL    HW231032   1.457   4.539   6.216 -0.2435 -1.5599 -1.0677
 6466SOL     OW31033   1.769   0.810  10.365 -0.2750 -0.2372  0.3692
 6466SOL    HW131034   1.814   0.732  10.399 -0.5595  0.3546  2.0863
 6466SOL    HW231035   1.853   0.848  10.339  0.6471 -0.9567  2.2852
 6467SOL     OW31036   1.916   1.393   6.702  0.6045 -0.2522 -0.3169
 6467SOL    HW131037   1.971   1.355   6.633 -0.2982  0.7087 -1.5648
 6467SOL    HW231038   1.960   1.370   6.784  2.0359  2.3928 -0.3406
 6468SOL     OW31039   1.397   2.687   3.398  1.0049 -0.4230 -0.3860
 6468SOL    HW131040   1.386   2.718   3.307 -0.3040  0.5505  0.1019
 6468SOL    HW231041   1.347   2.606   3.395  0.5190 -0.1506  0.6265
 6469SOL     OW31042   2.412   4.045   5.870 -0.1769 -0.4562 -0.4598
 6469SOL    HW131043   2.505   4.069   5.872 -0.6889  1.3134  1.9482
 6469SOL    HW231044   2.406   3.956   5.902  0.2001  0.0347  0.9944
 6470SOL     OW31045   2.854   1.042   7.834  0.0167  0.0251  0.3494
 6470SOL    HW131046   2.807   0.960   7.820  2.0307 -0.8907 -0.9828
 6470SOL    HW231047   2.784   1.108   7.829  1.3234  1.2457 -1.7451
 6471SOL     OW31048   2.655   4.101   0.815 -0.1290 -0.0445 -0.1369
 6471SOL    HW131049   2.598   4.178   0.814  0.4293  0.4011  2.3373
 6471SOL    HW231050   2.643   4.059   0.730  1.6978  1.1526 -0.9709
 6472SOL     OW31051   3.457   3.171   6.679 -0.5074  0.3368  0.2663
 6472SOL    HW131052   3.448   3.267   6.681  2.2319  0.6231 -0.6111
 6472SOL    HW231053   3.451   3.149   6.772 -0.3468  1.5519  0.5709
 6473SOL     OW31054   2.990   1.118   5.653  0.4363 -0.0455 -0.0562
 6473SOL    HW131055   3.021   1.073   5.731  1.4562 -3.3521 -2.3940
 6473SOL    HW231056   3.047   1.087   5.582  0.9987  2.4753 -0.7113
 6474SOL     OW31057   0.765   3.626  12.684  0.4726 -0.3967 -0.0063
 6474SOL    HW131058   0.678   3.614  12.723  0.0544  2.3632 -0.0847
 6474SOL    HW231059   0.761   3.543  12.637  0.7663 -1.2637  1.5264
 6475SOL     OW31060   2.813   0.403   2.351 -0.3938  0.2220  0.5371
 6475SOL    HW131061   2.784   0.369   2.267  0.3914 -0.5397  0.5725
 6475SOL    HW231062   2.785   0.334   2.412  1.4620 -0.0421  1.0886
 6476SOL     OW31063   1.700   0.195   6.118 -0.2778  0.0088 -0.3281
 6476SOL    HW131064   1.681   0.277   6.164  1.1967  0.4728 -0.5786
 6476SOL    HW231065   1.748   0.215   6.038 -0.6363  2.0890 -0.0359
 6477SOL     OW31066   2.264   0.963   1.692 -0.6212 -0.1107 -0.1954
 6477SOL    HW131067   2.246   0.877   1.654 -0.5557 -0.1182 -0.2101
 6477SOL    HW231068   2.178   1.004   1.695 -0.8108 -0.6257  1.4778
 6478SOL     OW31069   4.300   4.661  12.444 -0.0807  0.7309  0.1173
 6478SOL    HW131070   4.232   4.623  12.499 -1.1199  0.2499 -1.5168
 6478SOL    HW231071   4.315   4.590  12.381  0.3599  0.9293 -0.0020
 6479SOL     OW31072   3.017   3.679   8.140 -0.2220 -0.0999 -0.2063
 6479SOL    HW131073   3.010   3.637   8.054 -2.1716 -3.3586  1.5587
 6479SOL    HW231074   3.112   3.686   8.151 -0.3528 -2.4176  2.1682
 6480SOL     OW31075   2.204   4.538   3.586  0.1844  0.4829 -0.0555
 6480SOL    HW131076   2.208   4.476   3.659 -3.0262  1.6622  1.1266
 6480SOL    HW231077   2.149   4.609   3.619  0.0840  0.5595 -0.3843
 6481SOL     OW31078   1.932   4.431  16.712 -0.1164 -0.2434  0.1684
 6481SOL    HW131079   1.909   4.410  16.621  0.3278 -1.4353  0.3427
 6481SOL    HW231080   1.986   4.509  16.698  0.5410 -0.3590  2.0635
 6482SOL     OW31081   0.559   4.492   1.790 -0.0342  0.3616 -0.2050
 6482SOL    HW131082   0.558   4.409   1.742  1.2129  0.9351 -1.2406
 6482SOL    HW231083   0.655   4.497   1.791 -0.0122 -0.0526 -0.1061
 6483SOL     OW31084   1.829   0.651  12.010  0.5601 -0.0204  0.2943
 6483SOL    HW131085   1.878   0.721  11.967  1.6716 -1.8379 -1.4114
 6483SOL    HW231086   1.759   0.695  12.057 -1.1073 -2.7313  0.3370
 6484SOL     OW31087   2.919   3.989   3.133  0.5818 -0.1198  0.0442
 6484SOL    HW131088   2.832   3.952   3.142  1.6359 -1.9275  2.7420
 6484SOL    HW231089   2.904   4.054   3.202  0.2946 -1.0617  0.8760
 6485SOL     OW31090   4.019   4.207  12.142 -0.4640 -0.9411  0.2492
 6485SOL    HW131091   3.967   4.133  12.112 -1.3162 -0.2419 -0.0051
 6485SOL    HW231092   4.004   4.218  12.236  1.5045  0.5721  0.3907
 6486SOL     OW31093   2.762   3.078   2.570  0.3513  0.0739 -0.2669
 6486SOL    HW131094   2.858   3.083   2.568  0.3465  0.3122  0.0811
 6486SOL    HW231095   2.745   3.104   2.661 -2.7453  0.6519 -1.0097
 6487SOL     OW31096   0.143   0.411   5.421 -0.3297 -0.2840 -0.5396
 6487SOL    HW131097   0.234   0.437   5.406 -0.7451  1.9369  0.6846
 6487SOL    HW231098   0.133   0.316   5.412 -0.6041 -0.0139 -2.9553
 6488SOL     OW31099   2.798   4.438   3.208 -0.3231  0.6184 -0.4515
 6488SOL    HW131100   2.782   4.438   3.114  1.7008 -3.4687 -0.8168
 6488SOL    HW231101   2.885   4.398   3.216 -0.5566  0.0150 -0.9153
 6489SOL     OW31102   3.260   3.487   8.169  0.8372  0.0491  0.0795
 6489SOL    HW131103   3.308   3.555   8.121  0.1776  0.5343  0.1038
 6489SOL    HW231104   3.246   3.527   8.255 -1.3695 -0.1003 -0.1967
 6490SOL     OW31105   3.028   1.967   4.603  0.4275 -0.8001 -0.0734
 6490SOL    HW131106   3.119   1.973   4.632 -0.2693 -0.6673  2.0404
 6490SOL    HW231107   3.020   1.872   4.608 -1.6078 -0.7855 -2.8535
 6491SOL     OW31108   2.719   2.196   6.557 -0.2257  0.3543 -0.0856
 6491SOL    HW131109   2.812   2.200   6.580 -0.8325 -0.7221  2.5459
 6491SOL    HW231110   2.719   2.163   6.466  0.4257 -1.7670  0.6718
 6492SOL     OW31111   2.501   0.068   7.688  0.5583 -0.3452 -0.1406
 6492SOL    HW131112   2.580   0.070   7.634  2.4443 -2.6871  2.5403
 6492SOL    HW231113   2.487   0.163   7.690 -1.7901 -0.7159  0.9179
 6493SOL     OW31114   1.931   1.633   5.002 -0.1027  0.0868 -0.1835
 6493SOL    HW131115   1.930   1.729   4.999  1.0782  0.1367  1.1382
 6493SOL    HW231116   2.021   1.608   5.021 -0.6936  0.1279  2.6823
 6494SOL     OW31117   2.755   2.919   5.790  0.3907  1.4022 -0.0286
 6494SOL    HW131118   2.850   2.925   5.791  0.5848 -2.1184  0.2078
 6494SOL    HW231119   2.740   2.833   5.828 -1.1058  1.3774 -0.6926
 6495SOL     OW31120   0.346   0.273   4.729 -0.1431 -0.5842  0.8096
 6495SOL    HW131121   0.298   0.347   4.768  1.5817  0.1690  1.4746
 6495SOL    HW231122   0.281   0.209   4.700  1.5413 -0.7798 -2.5049
 6496SOL     OW31123   1.448   4.200   2.613  0.0132 -0.1050  0.1328
 6496SOL    HW131124   1.509   4.152   2.558 -0.4589 -2.3927  1.5688
 6496SOL    HW231125   1.474   4.178   2.702 -0.8676  0.1583  0.4584
 6497SOL     OW31126   0.895   2.276   4.526  0.2753  0.0665 -0.5115
 6497SOL    HW131127   0.866   2.304   4.613  1.2591 -2.0468  0.4824
 6497SOL    HW231128   0.990   2.273   4.532  0.2822  1.8081  0.1296
 6498SOL     OW31129   2.726   0.567  10.795  0.4836  0.1879 -0.0974
 6498SOL    HW131130   2.663   0.508  10.838  2.1625 -2.1330 -0.8113
 6498SOL    HW231131   2.748   0.627  10.866 -1.1939  0.3820  0.2617
 6499SOL     OW31132   4.329   3.174  15.169 -0.6467  0.3781 -0.2804
 6499SOL    HW131133   4.416   3.155  15.206 -0.8152 -0.3007 -0.2276
 6499SOL    HW231134   4.357   3.224  15.092  0.5751 -0.1602 -0.1981
 6500SOL     OW31135   2.458   1.016  16.482 -0.4839 -0.1775  0.2236
 6500SOL    HW131136   2.481   1.093  16.431 -0.4889  0.0862  0.6229
 6500SOL    HW231137   2.538   1.007  16.533 -1.4218 -0.2619  1.6672
 6501SOL     OW31138   3.366   0.587   5.489 -0.4433  0.4497 -0.1935
 6501SOL    HW131139   3.339   0.611   5.401 -0.7409 -1.6052 -0.6685
 6501SOL    HW231140   3.349   0.664   5.543  1.4829  1.4979 -1.0870
 6502SOL     OW31141   4.216   2.142   3.077 -0.3038 -0.0863 -0.5725
 6502SOL    HW131142   4.243   2.112   3.164 -0.8800 -1.0863 -0.7512
 6502SOL    HW231143   4.133   2.100   3.057 -0.6604  0.0111  0.7033
 6503SOL     OW31144   3.039   4.511   1.024 -0.2202 -0.0163  0.1551
 6503SOL    HW131145   3.103   4.532   0.956 -2.4687 -0.1608 -1.9913
 6503SOL    HW231146   3.002   4.590   1.063 -0.1621 -0.2052  0.6021
 6504SOL     OW31147   4.019   3.350  11.600 -0.9134  0.4803 -0.4270
 6504SOL    HW131148   4.028   3.258  11.575 -1.5573 -0.1003  1.4507
 6504SOL    HW231149   4.106   3.385  11.580 -0.4974  0.5981  1.5616
 6505SOL     OW31150   3.580   2.727   4.708  0.5308  0.1960 -0.1793
 6505SOL    HW131151   3.648   2.669   4.672 -0.4927 -0.3205 -1.2530
 6505SOL    HW231152   3.537   2.754   4.627  1.0790 -0.0921 -0.5632
 6506SOL     OW31153   2.564   2.432  12.542 -0.3975 -0.3066  0.9459
 6506SOL    HW131154   2.514   2.491  12.598 -0.4892  0.4788  0.0430
 6506SOL    HW231155   2.545   2.343  12.569 -1.3403 -0.2909  0.3556
 6507SOL     OW31156   1.380   2.108   7.034  0.0691  0.5229 -0.2345
 6507SOL    HW131157   1.293   2.133   7.065  0.4251  0.4871  0.7871
 6507SOL    HW231158   1.428   2.191   7.027  0.8353  0.1661  0.8889
 6508SOL     OW31159   1.726   2.825  13.117 -0.1343 -0.1508  0.0857
 6508SOL    HW131160   1.685   2.912  13.120 -0.7284 -0.4060 -0.9072
 6508SOL    HW231161   1.804   2.834  13.062 -2.1929 -1.6151 -3.0647
 6509SOL     OW31162   3.804   3.051  12.076 -0.1972  0.1904 -0.2785
 6509SOL    HW131163   3.735   3.007  12.125  1.5211 -1.6806  0.4657
 6509SOL    HW231164   3.768   3.080  11.992 -1.2422  1.4985  0.6257
 6510SOL     OW31165   4.590   4.649  13.103 -0.3731 -0.0559 -0.1109
 6510SOL    HW131166   4.556   4.721  13.049  0.1821 -0.9136 -1.5985
 6510SOL    HW231167   4.508   4.630  13.149  0.5197 -1.0822  1.0518
 6511SOL     OW31168   3.348   2.659   2.497 -0.2787 -0.3052 -0.2717
 6511SOL    HW131169   3.311   2.595   2.559 -0.1868 -0.1293 -0.0380
 6511SOL    HW231170   3.286   2.732   2.502  0.7114  0.4764  0.7250
 6512SOL     OW31171   1.825   3.844   4.279  0.2903  0.0544  0.0719
 6512SOL    HW131172   1.888   3.863   4.210  0.9227 -0.0737  0.6238
 6512SOL    HW231173   1.824   3.749   4.287  0.0005  0.0055 -0.5963
 6513SOL     OW31174   1.158   2.167   9.835  0.7079 -0.2226 -0.9214
 6513SOL    HW131175   1.090   2.119   9.882  0.7675  0.6353  0.0383
 6513SOL    HW231176   1.115   2.250   9.811  0.6769  0.3234  1.0371
 6514SOL     OW31177   2.391   3.943   4.095  0.0667  0.6276 -0.2877
 6514SOL    HW131178   2.400   4.003   4.169 -2.1822 -0.0876  0.5538
 6514SOL    HW231179   2.475   3.953   4.050  0.1535  0.1415 -0.2392
 6515SOL     OW31180   3.760   2.820   7.038  0.3274  0.0028  0.1237
 6515SOL    HW131181   3.681   2.815   7.092  0.5157  1.6286  0.5328
 6515SOL    HW231182   3.728   2.780   6.957  0.1539  1.4007 -0.4961
 6516SOL     OW31183   0.716   3.158   4.764  0.4056  0.2298  0.5496
 6516SOL    HW131184   0.691   3.066   4.778  1.2518  0.0301  0.7059
 6516SOL    HW231185   0.687   3.164   4.672 -3.2869  2.7416  1.8613
 6517SOL     OW31186   0.925   0.667   1.547 -0.2149  0.2797 -0.2179
 6517SOL    HW131187   0.866   0.739   1.523  0.8693  1.1666 -0.2501
 6517SOL    HW231188   0.888   0.585   1.514 -0.4207  0.2730  0.0267
 6518SOL     OW31189   3.971   2.998  16.316 -0.0215  0.3658  0.2413
 6518SOL    HW131190   3.936   3.077  16.276 -0.6989 -0.3827 -0.6458
 6518SOL    HW231191   4.002   2.938  16.247 -1.6597 -0.8867  0.6098
 6519SOL     OW31192   2.616   0.748  13.805 -0.1889 -0.2715 -0.1656
 6519SOL    HW131193   2.619   0.804  13.882 -3.4266 -1.3399  0.7028
 6519SOL    HW231194   2.674   0.675  13.828  0.9066  0.2513 -1.2167
 6520SOL     OW31195   0.215   2.131  12.824 -0.6188  0.1003 -0.4991
 6520SOL    HW131196   0.161   2.054  12.840  1.1451 -0.8559  0.7033
 6520SOL    HW231197   0.268   2.099  12.751  1.1896  1.3474  0.2738
 6521SOL     OW31198   4.499   1.121   4.665 -0.4173  0.0892 -0.2780
 6521SOL    HW131199   4.415   1.126   4.620  0.4794 -1.3173 -2.1120
 6521SOL    HW231200   4.481   1.149   4.755 -0.1568  2.1261 -0.8654
 6522SOL     OW31201   1.556   0.448   2.434  0.5177  0.2714 -0.0140
 6522SOL    HW131202   1.575   0.364   2.476  0.7459 -0.2294 -1.1211
 6522SOL    HW231203   1.644   0.484   2.418  0.3898  0.1370 -1.0434
 6523SOL     OW31204   2.059   1.854   9.025  0.1738 -0.0918 -0.3842
 6523SOL    HW131205   2.142   1.888   8.992  0.0105 -0.1506 -0.8487
 6523SOL    HW231206   2.070   1.905   9.106  0.9740  1.2700 -1.3454
 6524SOL     OW31207   3.951   3.646   6.979 -0.3998 -0.0296 -0.9481
 6524SOL    HW131208   3.951   3.552   6.993 -1.6773  0.4041  1.9150
 6524SOL    HW231209   4.037   3.650   6.935  0.1479  1.3327  0.2256
 6525SOL     OW31210   3.099   2.208   3.281 -0.1449 -0.3238  0.4158
 6525SOL    HW131211   3.057   2.275   3.227  2.4432 -0.0141 -1.2320
 6525SOL    HW231212   3.170   2.253   3.327  0.3855 -1.0313  0.3013
 6526SOL     OW31213   0.852   2.046   9.811  0.0013 -0.1289 -0.2522
 6526SOL    HW131214   0.768   2.001   9.820 -0.7171  0.7974 -2.2535
 6526SOL    HW231215   0.898   2.032   9.894  0.0058  0.8444 -0.0932
 6527SOL     OW31216   0.035   2.772   8.763  0.1795  0.0999 -0.0418
 6527SOL    HW131217   0.086   2.693   8.780  1.4100  1.2392  1.5216
 6527SOL    HW231218   0.085   2.814   8.693 -0.9858  1.0570 -0.2915
 6528SOL     OW31219   2.604   1.958   2.963 -0.1135  0.2259  0.4213
 6528SOL    HW131220   2.672   2.016   2.997  3.0401 -2.1119 -1.9059
 6528SOL    HW231221   2.522   2.002   2.988  0.0699  1.9166 -1.8508
 6529SOL     OW31222   2.027   3.357   5.124 -0.1898 -0.1941 -0.1262
 6529SOL    HW131223   2.014   3.442   5.166 -1.6451 -1.0938  1.2395
 6529SOL    HW231224   2.106   3.381   5.076 -0.8158 -0.9860 -1.5335
 6530SOL     OW31225   1.418   0.708   3.352 -0.7242  0.2110 -0.1210
 6530SOL    HW131226   1.341   0.674   3.397  0.2057  0.0816  1.3893
 6530SOL    HW231227   1.390   0.736   3.265  0.4993 -0.7002 -0.8068
 6531SOL     OW31228   1.788   1.433   4.024  0.0284 -0.3118  0.4698
 6531SOL    HW131229   1.864   1.431   4.083  1.7210 -1.6867 -1.7572
 6531SOL    HW231230   1.819   1.404   3.939 -0.2365 -1.7042  0.8354
 6532SOL     OW31231   1.156   2.211   8.841 -0.5332  0.6793  0.4184
 6532SOL    HW131232   1.208   2.138   8.807 -2.6510 -1.8102  2.5458
 6532SOL    HW231233   1.185   2.212   8.933  1.4222  0.2448 -0.2085
 6533SOL     OW31234   3.337   2.915   9.158 -0.2799  0.2197 -0.1589
 6533SOL    HW131235   3.302   3.005   9.159 -0.0691  0.2920  1.4418
 6533SOL    HW231236   3.265   2.855   9.179  1.9758 -1.3804  3.0354
 6534SOL     OW31237   2.868   0.447   1.484 -0.2499  0.0587  0.3976
 6534SOL    HW131238   2.867   0.390   1.407  1.6752  0.2335  0.2587
 6534SOL    HW231239   2.823   0.398   1.554 -1.6280  1.9215  0.8109
 6535SOL     OW31240   3.773   4.036   0.334 -0.4280  0.2596 -0.2668
 6535SOL    HW131241   3.694   4.036   0.280 -0.7630  1.7387  0.2210
 6535SOL    HW231242   3.749   3.989   0.413 -0.2981  1.6446  0.5993
 6536SOL     OW31243   2.159   3.827   4.815 -0.4461 -0.0451  0.5429
 6536SOL    HW131244   2.203   3.839   4.731  0.6766 -0.9201  1.0177
 6536SOL    HW231245   2.132   3.917   4.831  1.5106  1.3548 -4.2498
 6537SOL     OW31246   3.069   1.072   0.874  0.0468  0.5186 -0.6085
 6537SOL    HW131247   3.099   1.080   0.783  1.0129 -0.8406 -0.4109
 6537SOL    HW231248   2.974   1.068   0.861  0.1850 -0.5353 -1.2745
 6538SOL     OW31249   4.300   1.443  12.229  0.1008 -0.0741 -0.2181
 6538SOL    HW131250   4.356   1.520  12.230 -1.4897  1.0945  0.4859
 6538SOL    HW231251   4.339   1.396  12.303  2.0316 -0.3370 -1.4203
 6539SOL     OW31252   1.536   0.152   8.570  0.2835  0.2756 -0.3411
 6539SOL    HW131253   1.588   0.191   8.640  0.0281 -2.3312  1.2909
 6539SOL    HW231254   1.461   0.212   8.577  0.6531  0.8547 -1.3985
 6540SOL     OW31255   1.188   3.080   7.066  0.1312 -0.2364 -0.1253
 6540SOL    HW131256   1.182   3.164   7.111  1.8466 -0.7031  0.9568
 6540SOL    HW231257   1.191   3.013   7.135 -1.0076  0.8408  0.9753
 6541SOL     OW31258   3.778   0.256   5.801  0.7576  0.0964  0.5852
 6541SOL    HW131259   3.758   0.285   5.890  0.1820 -1.4614  0.9623
 6541SOL    HW231260   3.717   0.183   5.789 -2.9065  3.1676  0.3657
 6542SOL     OW31261   1.537   1.075   1.899  0.1871 -0.5521 -0.0428
 6542SOL    HW131262   1.524   1.010   1.830  1.7489  1.4728 -2.2852
 6542SOL    HW231263   1.450   1.091   1.934 -0.8728 -0.0131 -2.9085
 6543SOL     OW31264   1.392   1.843  15.238  0.0108 -0.3349  0.1979
 6543SOL    HW131265   1.363   1.914  15.182  2.1816  1.1539  0.9543
 6543SOL    HW231266   1.483   1.842  15.208  0.0497 -0.9305  0.3245
 6544SOL     OW31267   0.595   2.731   7.746 -0.0481  0.2030 -0.1088
 6544SOL    HW131268   0.652   2.661   7.779  1.0899  0.7556 -0.9244
 6544SOL    HW231269   0.529   2.674   7.706  0.7630  0.6807 -2.1245
 6545SOL     OW31270   1.541   3.141   2.126  0.0163  0.9192  0.0403
 6545SOL    HW131271   1.534   3.047   2.106  0.4280  0.4276  2.1817
 6545SOL    HW231272   1.464   3.155   2.181  0.1563 -1.5976  0.9059
 6546SOL     OW31273   0.778   1.626   6.519 -0.3168  0.4478  0.0941
 6546SOL    HW131274   0.850   1.688   6.507  0.3965 -0.8697 -2.4118
 6546SOL    HW231275   0.789   1.606   6.612  1.2033 -0.4205 -0.2882
 6547SOL     OW31276   2.873   3.852  12.176  0.6149  0.5097  0.1805
 6547SOL    HW131277   2.948   3.824  12.123  0.2497 -0.9751  0.4532
 6547SOL    HW231278   2.861   3.776  12.234  3.4333  0.6150  0.8759
 6548SOL     OW31279   3.832   2.808   2.406  0.3650  0.0253  0.2199
 6548SOL    HW131280   3.878   2.809   2.490 -0.5202  0.9873  0.6942
 6548SOL    HW231281   3.750   2.775   2.442 -1.7908  1.5993 -3.2791
 6549SOL     OW31282   3.353   0.815   5.648  0.4416 -0.1740  0.3561
 6549SOL    HW131283   3.444   0.843   5.644  0.2837 -0.0097 -1.7393
 6549SOL    HW231284   3.337   0.864   5.729 -1.0204  1.3477 -0.8393
 6550SOL     OW31285   2.803   4.539   6.163  0.2021  0.1536 -0.0228
 6550SOL    HW131286   2.838   4.603   6.224  0.5085  0.2138 -0.2605
 6550SOL    HW231287   2.709   4.555   6.177 -0.1088  1.4170 -3.4371
 6551SOL     OW31288   4.153   2.638   7.180  0.4210 -0.7638  0.1694
 6551SOL    HW131289   4.113   2.704   7.236 -0.6869 -1.6433  0.3954
 6551SOL    HW231290   4.147   2.674   7.092 -1.0791  0.7791  0.9236
 6552SOL     OW31291   1.250   2.986   5.406 -0.1296 -0.3844  0.4673
 6552SOL    HW131292   1.191   3.008   5.478  0.8511  2.0342  0.5157
 6552SOL    HW231293   1.206   3.040   5.340  0.1138 -1.7683 -0.8310
 6553SOL     OW31294   4.243   4.518   9.264  0.0563  0.0494  0.2512
 6553SOL    HW131295   4.237   4.452   9.332  1.7462 -1.6122 -1.2153
 6553SOL    HW231296   4.337   4.539   9.264 -0.2916  1.7053 -2.0946
 6554SOL     OW31297   4.688   2.176   7.083  0.3460 -0.5193 -0.0260
 6554SOL    HW131298   4.643   2.233   7.020  0.2846 -0.8746 -0.3065
 6554SOL    HW231299   0.032   2.154   7.036  0.4580 -0.2790  0.0534
 6555SOL     OW31300   3.168   2.018   0.412  0.2104  0.1709  0.1909
 6555SOL    HW131301   3.206   1.959   0.477 -0.6110 -0.1259  0.4060
 6555SOL    HW231302   3.077   2.002   0.439  1.2412  0.3651  3.7261
 6556SOL     OW31303   4.170   0.312   7.151 -0.1005  0.4720  0.3612
 6556SOL    HW131304   4.086   0.359   7.154  0.4385  1.5126 -1.2450
 6556SOL    HW231305   4.226   0.387   7.130  0.3119 -0.0309 -0.3564
 6557SOL     OW31306   0.829   3.754   1.767 -0.1190  0.2825  0.7670
 6557SOL    HW131307   0.789   3.788   1.687 -2.0004  0.7409  1.9262
 6557SOL    HW231308   0.771   3.789   1.834  1.0608  1.0475  1.3940
 6558SOL     OW31309   1.670   2.878  16.895  0.6155  0.6734 -0.3457
 6558SOL    HW131310   1.634   2.790  16.897  0.0154  0.9407  0.4132
 6558SOL    HW231311   1.590   2.920  16.863 -0.3527  0.2265  1.4849
 6559SOL     OW31312   3.103   1.506   5.285 -0.0758  0.1190  0.2424
 6559SOL    HW131313   3.065   1.591   5.310 -2.5727 -0.6396 -0.9497
 6559SOL    HW231314   3.032   1.463   5.237  0.1407 -2.4859  2.2515
 6560SOL     OW31315   0.592   0.926   2.311  0.1377 -0.2388  0.8284
 6560SOL    HW131316   0.552   1.010   2.290  0.6425 -0.2783 -0.3142
 6560SOL    HW231317   0.632   0.911   2.225 -0.3858  0.9581  0.3748
 6561SOL     OW31318   1.882   2.467  15.975 -0.0415  0.0187 -0.5562
 6561SOL    HW131319   1.968   2.463  16.017  0.1855 -0.2123 -1.0445
 6561SOL    HW231320   1.861   2.375  15.957  0.6353 -0.5887  1.7123
 6562SOL     OW31321   4.243   1.952   4.409 -0.0908 -0.2058  0.1645
 6562SOL    HW131322   4.217   1.860   4.421  0.6512 -0.2378  1.5418
 6562SOL    HW231323   4.197   1.980   4.487 -0.3982 -0.3494  0.0372
 6563SOL     OW31324   3.252   2.623   5.292 -0.4839 -0.2785  0.7353
 6563SOL    HW131325   3.206   2.703   5.267  2.0439  0.2559 -2.3026
 6563SOL    HW231326   3.328   2.653   5.342 -0.2662  2.0852 -1.0030
 6564SOL     OW31327   4.543   4.504   6.959  0.3755  1.0551  0.0487
 6564SOL    HW131328   4.575   4.592   6.939  2.3827 -0.4343 -3.3553
 6564SOL    HW231329   4.552   4.504   7.054  0.8965 -2.5694 -0.0079
 6565SOL     OW31330   2.934   1.141  11.214 -0.0338  0.0632 -0.3102
 6565SOL    HW131331   2.862   1.200  11.193  1.1227  1.0950 -1.4439
 6565SOL    HW231332   3.004   1.191  11.171  2.4317 -3.8139 -0.8353
 6566SOL     OW31333   3.336   0.901  15.797 -0.5872  0.2466 -0.2273
 6566SOL    HW131334   3.350   0.840  15.725  0.5373  1.6312 -1.1711
 6566SOL    HW231335   3.423   0.894  15.837 -0.8131  0.0102  0.2236
 6567SOL     OW31336   2.218   2.400   6.754 -0.2134 -0.8015 -0.1596
 6567SOL    HW131337   2.129   2.406   6.719  0.3857 -0.8456 -1.6609
 6567SOL    HW231338   2.257   2.361   6.676  0.5187  1.5396 -0.9897
 6568SOL     OW31339   1.314   1.477   7.104 -0.5180 -0.7656  0.2007
 6568SOL    HW131340   1.376   1.495   7.033  0.2771  0.5771  1.2270
 6568SOL    HW231341   1.242   1.533   7.077 -0.2627 -0.0692  0.9669
 6569SOL     OW31342   2.011   3.703   1.674  0.0671 -0.5550 -0.2714
 6569SOL    HW131343   1.991   3.626   1.620  0.8096 -0.5576 -0.5318
 6569SOL    HW231344   2.074   3.657   1.729 -0.6574 -1.3771 -0.1106
 6570SOL     OW31345   0.788   3.105   2.938 -0.2198  0.0176 -0.3029
 6570SOL    HW131346   0.800   3.198   2.959  1.7133 -0.3901  0.4432
 6570SOL    HW231347   0.759   3.100   2.847 -1.9326 -0.5047  0.2842
 6571SOL     OW31348   2.599   3.024   8.708  0.0102 -0.0638  1.0280
 6571SOL    HW131349   2.519   2.993   8.751  0.1442 -2.9487 -0.7520
 6571SOL    HW231350   2.566   3.051   8.623 -1.6045 -1.1774  1.2845
 6572SOL     OW31351   2.318   4.194   0.705 -0.1061  0.4192 -0.7554
 6572SOL    HW131352   2.352   4.141   0.777 -0.4344 -0.2585 -1.1100
 6572SOL    HW231353   2.226   4.170   0.703  0.4389 -1.5493 -2.5578
 6573SOL     OW31354   2.866   4.145   0.996 -0.2403  0.1603  0.2333
 6573SOL    HW131355   2.920   4.203   0.942 -0.0301 -1.0254 -0.8363
 6573SOL    HW231356   2.790   4.139   0.939 -0.7299 -1.6793  1.0789
 6574SOL     OW31357   0.596   3.899   4.908 -0.4861  0.0269 -0.1698
 6574SOL    HW131358   0.668   3.961   4.891 -0.6414 -0.1048 -1.2987
 6574SOL    HW231359   0.555   3.895   4.822 -1.0318  0.1500  0.0872
 6575SOL     OW31360   1.535   3.863   5.042 -0.3876 -0.1416  0.4483
 6575SOL    HW131361   1.480   3.795   5.081  0.7265 -1.2410  0.1251
 6575SOL    HW231362   1.608   3.891   5.098 -1.0816  0.4196  1.0668
 6576SOL     OW31363   4.231   0.346  12.037 -0.0352 -0.1513 -0.1159
 6576SOL    HW131364   4.281   0.292  12.098 -0.1640 -0.1829 -0.0385
 6576SOL    HW231365   4.302   0.405  12.010 -0.2432  1.7920  3.6887
 6577SOL     OW31366   0.155   2.074  11.497 -0.2663  0.6169 -0.7382
 6577SOL    HW131367   0.129   2.000  11.443 -1.6788  0.7584 -0.2452
 6577SOL    HW231368   0.250   2.062  11.505  0.3392  3.5492 -3.4321
 6578SOL     OW31369   4.555   4.572   7.228 -0.0555 -0.1542 -0.1678
 6578SOL    HW131370   4.533   4.638   7.294 -1.7536 -0.6702 -0.2295
 6578SOL    HW231371   4.576   4.498   7.285 -1.1226 -0.0699  0.3460
 6579SOL     OW31372   0.611   2.606   1.917 -0.6143  0.5685  0.1788
 6579SOL    HW131373   0.576   2.545   1.853  0.1285 -0.9298  1.2110
 6579SOL    HW231374   0.538   2.669   1.916  0.2677  1.6269  1.1880
 6580SOL     OW31375   2.167   3.479  10.894  0.2230  0.3096 -0.1830
 6580SOL    HW131376   2.172   3.565  10.937  1.2201  0.2655 -0.2014
 6580SOL    HW231377   2.241   3.448  10.947 -2.1762 -2.5420  1.4695
 6581SOL     OW31378   3.396   2.420  14.367 -1.1327  0.2437 -0.0637
 6581SOL    HW131379   3.395   2.361  14.292 -1.0406 -0.0823  0.1919
 6581SOL    HW231380   3.311   2.462  14.352 -0.5641  1.5992  0.5025
 6582SOL     OW31381   1.328   0.176   7.481 -0.2279  0.0981  0.6603
 6582SOL    HW131382   1.238   0.192   7.455 -0.4480 -0.5540  1.0363
 6582SOL    HW231383   1.379   0.222   7.414  0.8465 -0.9161  0.7674
 6583SOL     OW31384   3.381   4.613   4.081 -0.2840 -0.5458 -0.6689
 6583SOL    HW131385   3.359   4.703   4.107  0.7700 -0.8838  1.3695
 6583SOL    HW231386   3.448   4.602   4.148  0.6588  1.6533 -1.2513
 6584SOL     OW31387   4.270   1.626   5.812  0.0675 -0.6813  0.0181
 6584SOL    HW131388   4.229   1.562   5.753  1.0269  0.6295 -2.0864
 6584SOL    HW231389   4.343   1.585   5.859  2.4635  2.1768 -1.2150
 6585SOL     OW31390   3.134   1.179  12.900  0.8321 -0.1875  0.1274
 6585SOL    HW131391   3.218   1.143  12.870  0.3041 -0.7869 -0.6323
 6585SOL    HW231392   3.068   1.128  12.854  0.5277 -1.2826  1.8075
 6586SOL     OW31393   3.669   4.682   5.037  0.3313 -0.7654 -0.4535
 6586SOL    HW131394   3.644   4.603   5.087 -2.0048  0.9640  1.1081
 6586SOL    HW231395   3.613   0.016   5.068  1.3596  0.0755 -0.4936
 6587SOL     OW31396   1.200   2.707   6.777  0.0769 -0.1049  0.1932
 6587SOL    HW131397   1.227   2.737   6.690 -1.3459  0.5888 -0.0136
 6587SOL    HW231398   1.249   2.758   6.841  2.8097 -2.9294  0.3120
 6588SOL     OW31399   2.487   2.590  17.579 -0.6034 -0.0762 -0.3091
 6588SOL    HW131400   2.482   2.667  17.524  0.4737  0.1954 -0.0230
 6588SOL    HW231401   2.424   2.532  17.536 -2.5825  0.9551  1.2086
 6589SOL     OW31402   3.841   0.878   5.829 -0.1438  0.2416 -0.0106
 6589SOL    HW131403   3.864   0.867   5.921  0.7554 -4.0517 -0.7276
 6589SOL    HW231404   3.927   0.859   5.793  0.6191  0.1705  1.8844
 6590SOL     OW31405   0.485   2.200   4.338  0.3085  0.1953  0.2290
 6590SOL    HW131406   0.498   2.143   4.262  0.8939 -0.8517  1.1023
 6590SOL    HW231407   0.471   2.134   4.407 -1.7177  0.1063 -0.2882
 6591SOL     OW31408   0.133   3.325   4.909 -0.2062  0.0549 -0.0133
 6591SOL    HW131409   0.151   3.240   4.949 -1.9254  0.0401  0.7352
 6591SOL    HW231410   0.042   3.333   4.936  0.3976 -1.5618  2.5132
 6592SOL     OW31411   2.491   3.310  10.427 -0.4937 -0.7431  0.1812
 6592SOL    HW131412   2.472   3.282  10.337 -3.0968 -2.5967  1.3080
 6592SOL    HW231413   2.405   3.326  10.465  0.0095  2.9508 -0.2433
 6593SOL     OW31414   2.055   3.304   2.731  0.7718 -0.2645  0.2335
 6593SOL    HW131415   2.039   3.377   2.791  1.2051 -1.0997  1.3636
 6593SOL    HW231416   1.967   3.285   2.698 -0.1593  1.5713  1.7033
 6594SOL     OW31417   0.096   3.475   5.750  0.0910 -0.2668 -0.0723
 6594SOL    HW131418   0.052   3.475   5.835 -0.2219 -2.1967 -0.2324
 6594SOL    HW231419   0.109   3.570   5.744 -3.1114  0.2007  0.8586
 6595SOL     OW31420   4.651   1.099   8.537  0.6134  0.1944 -0.0765
 6595SOL    HW131421   4.649   1.082   8.443 -0.2964  0.2666 -0.0690
 6595SOL    HW231422   4.567   1.137   8.560  0.5401  0.0848 -0.1655
 6596SOL     OW31423   2.458   2.200   4.254  0.3539  0.3636  0.1493
 6596SOL    HW131424   2.550   2.229   4.255  0.4509  0.0932 -0.9602
 6596SOL    HW231425   2.450   2.167   4.343 -1.1080 -1.9369 -0.8527
 6597SOL     OW31426   1.434   0.950   2.306  0.7456  0.2932  0.1982
 6597SOL    HW131427   1.511   0.894   2.318  3.0991  3.3488 -0.3967
 6597SOL    HW231428   1.475   1.037   2.305  1.8876 -0.2269  0.8104
 6598SOL     OW31429   4.716   1.342   7.475  0.0791 -0.5620 -0.0514
 6598SOL    HW131430   0.014   1.423   7.437  0.3443 -0.1072  1.1543
 6598SOL    HW231431   4.647   1.384   7.525 -0.6636 -1.4888 -0.3065
 6599SOL     OW31432   4.698   2.321  11.977 -0.4501  0.4726  0.4126
 6599SOL    HW131433   4.723   2.231  11.955 -0.1109  0.5156  0.6199
 6599SOL    HW231434   0.001   2.333  12.063  0.2530  0.2413  0.1241
 6600SOL     OW31435   3.958   4.678   8.861 -0.6757  0.7553 -0.1951
 6600SOL    HW131436   3.992   4.661   8.949  3.7222  0.5750 -1.9227
 6600SOL    HW231437   4.027   4.632   8.813 -0.6518 -0.0328  0.5941
 6601SOL     OW31438   0.020   2.604  16.106 -0.8240 -0.0393 -0.7772
 6601SOL    HW131439   0.043   2.523  16.151  1.9300  1.9266  1.4082
 6601SOL    HW231440   4.734   2.668  16.174 -0.8516 -3.5249  2.4797
 6602SOL     OW31441   2.922   4.172   3.926  0.1258 -0.7451  0.5522
 6602SOL    HW131442   2.945   4.140   3.839  1.9579 -0.5872  0.9723
 6602SOL    HW231443   3.005   4.171   3.974  1.7003 -0.7475 -2.1969
 6603SOL     OW31444   1.351   3.208  10.049  0.1807  0.0371 -0.2745
 6603SOL    HW131445   1.367   3.287   9.997  2.2857 -1.3287 -1.6727
 6603SOL    HW231446   1.351   3.250  10.135 -0.6561  0.4051 -0.4535
 6604SOL     OW31447   0.511   1.681   0.417 -0.4899  0.5201 -0.6805
 6604SOL    HW131448   0.478   1.683   0.327  0.1323 -1.3053 -0.9439
 6604SOL    HW231449   0.586   1.626   0.395  0.2384  0.9868  0.6189
 6605SOL     OW31450   3.630   1.180   3.244  0.0585  0.7588 -0.2208
 6605SOL    HW131451   3.684   1.143   3.314  0.7512  0.5707 -0.8539
 6605SOL    HW231452   3.567   1.232   3.293 -0.3351 -0.0569  0.1501
 6606SOL     OW31453   3.356   3.329   5.774  0.0108 -0.2806 -0.2867
 6606SOL    HW131454   3.339   3.265   5.705 -1.1415 -0.9561  0.6282
 6606SOL    HW231455   3.268   3.360   5.798  0.8456  2.7613 -1.0387
 6607SOL     OW31456   0.583   4.533  17.402 -0.3758 -0.7582  0.1997
 6607SOL    HW131457   0.496   4.492  17.405  0.5643 -2.8243 -1.0093
 6607SOL    HW231458   0.562   4.626  17.407 -0.2946 -0.8215  1.6902
 6608SOL     OW31459   0.854   1.925   6.786 -0.7999  0.0516  0.0843
 6608SOL    HW131460   0.805   1.933   6.867 -0.9626 -0.2385  0.0133
 6608SOL    HW231461   0.923   1.869   6.822 -0.3500 -0.0847 -1.0015
 6609SOL     OW31462   0.683   4.273   4.171 -0.0721  0.0419 -0.7644
 6609SOL    HW131463   0.664   4.313   4.086 -2.6010 -0.4589 -0.4311
 6609SOL    HW231464   0.604   4.221   4.182 -1.3550  1.9815 -0.8987
 6610SOL     OW31465   1.281   3.407   3.088 -0.3448 -0.7424  0.0074
 6610SOL    HW131466   1.309   3.437   3.174 -0.4961 -1.4336  0.3033
 6610SOL    HW231467   1.363   3.366   3.060 -0.2188 -0.1684 -0.4689
 6611SOL     OW31468   3.376   2.644   0.087 -0.4852  0.1310  0.0110
 6611SOL    HW131469   3.461   2.631   0.130  0.6560  0.1295 -2.2583
 6611SOL    HW231470   3.408   2.698   0.015  0.4418 -0.1965  0.1832
 6612SOL     OW31471   2.830   3.793   5.258  0.5168  0.3896  0.1378
 6612SOL    HW131472   2.760   3.728   5.264  0.8696  0.2171  2.0894
 6612SOL    HW231473   2.858   3.809   5.348 -0.4804  2.7143  0.0611
 6613SOL     OW31474   4.005   3.905   7.275 -0.0885  0.1207  0.0685
 6613SOL    HW131475   4.000   3.992   7.315  2.8092  0.0672  0.5297
 6613SOL    HW231476   3.982   3.925   7.184  3.6001 -0.3302 -0.9543
 6614SOL     OW31477   0.724   3.175   4.133  0.2733  0.2869 -0.7472
 6614SOL    HW131478   0.794   3.208   4.191 -0.4307 -0.7420  0.6984
 6614SOL    HW231479   0.765   3.123   4.065 -1.6543  0.4518 -2.0242
 6615SOL     OW31480   4.417   4.227   8.584 -0.4035 -0.1333 -0.6399
 6615SOL    HW131481   4.507   4.196   8.600 -0.2242  0.7680  0.0671
 6615SOL    HW231482   4.435   4.286   8.511 -0.6727 -0.3842 -0.9121
 6616SOL     OW31483   1.358   3.013   9.479 -0.2297 -0.6734 -0.1959
 6616SOL    HW131484   1.350   3.033   9.573 -0.0863 -1.8909  0.0747
 6616SOL    HW231485   1.440   3.059   9.459  0.3509 -2.6650 -2.3991
 6617SOL     OW31486   1.227   2.558   4.435 -0.4313 -0.2636 -0.8296
 6617SOL    HW131487   1.307   2.609   4.447 -1.6344  1.3038  0.5364
 6617SOL    HW231488   1.274   2.477   4.416  2.3016  0.8462  1.1868
 6618SOL     OW31489   3.294   0.978  13.161 -0.4607 -0.1005  0.0984
 6618SOL    HW131490   3.309   0.898  13.212 -2.8767  0.5934  1.8677
 6618SOL    HW231491   3.290   0.936  13.075  0.2986  0.1693 -0.0699
 6619SOL     OW31492   2.638   2.594   0.288  0.0088 -0.2491 -0.3294
 6619SOL    HW131493   2.652   2.543   0.207 -1.3942 -1.4970  0.2137
 6619SOL    HW231494   2.631   2.529   0.358 -0.8398  0.9029  0.6214
 6620SOL     OW31495   1.810   0.947   5.067 -0.0914  0.1658 -0.1776
 6620SOL    HW131496   1.799   0.921   4.976 -0.3585 -2.0535  0.4780
 6620SOL    HW231497   1.730   0.998   5.081  0.6547  0.8202  1.7881
 6621SOL     OW31498   2.030   0.335   4.345 -0.2978 -0.8828  0.1623
 6621SOL    HW131499   2.023   0.247   4.309  1.6104 -0.6637 -0.7490
 6621SOL    HW231500   2.110   0.364   4.302 -0.7635 -1.8315 -1.3255
 6622SOL     OW31501   2.430   2.778   0.275 -0.9104 -0.5239  0.0234
 6622SOL    HW131502   2.459   2.829   0.198 -1.6131  0.1169  0.1822
 6622SOL    HW231503   2.508   2.724   0.286 -0.7803 -0.2223  0.5860
 6623SOL     OW31504   3.600   2.626  15.910 -0.9997 -0.0969  0.4564
 6623SOL    HW131505   3.560   2.543  15.932 -2.0027  0.6820  1.5676
 6623SOL    HW231506   3.595   2.617  15.814  4.4957  0.2927  0.1462
 6624SOL     OW31507   3.998   3.519   2.502 -0.2826  0.4390 -0.7565
 6624SOL    HW131508   3.940   3.487   2.571  0.1000  0.1703 -0.5623
 6624SOL    HW231509   3.935   3.518   2.430 -0.8138 -1.5566 -0.2419
 6625SOL     OW31510   2.907   0.641   6.950 -0.1310  0.6354  0.5909
 6625SOL    HW131511   2.824   0.639   6.998 -0.3493  0.6976  0.2097
 6625SOL    HW231512   2.878   0.698   6.880 -0.2877 -0.4976 -0.2572
 6626SOL     OW31513   1.548   0.952  12.296  0.0358  0.1651  0.2414
 6626SOL    HW131514   1.592   0.888  12.240  0.3305  0.2524  0.3746
 6626SOL    HW231515   1.475   0.902  12.332  1.6434 -1.3710  1.3721
 6627SOL     OW31516   3.392   1.129  15.628 -0.3585  0.1251 -0.0256
 6627SOL    HW131517   3.326   1.060  15.636  2.7274 -2.3552  4.3775
 6627SOL    HW231518   3.342   1.207  15.604  0.1731  0.6428  0.5698
 6628SOL     OW31519   2.571   2.635  12.309 -0.6548 -0.6388 -0.2935
 6628SOL    HW131520   2.480   2.662  12.320 -0.0181  1.3730  0.2112
 6628SOL    HW231521   2.580   2.552  12.354  0.4351 -0.9831 -1.1269
 6629SOL     OW31522   0.036   3.804  12.054  0.2403 -0.1785  0.4086
 6629SOL    HW131523   0.108   3.749  12.087  2.4448  1.5066 -1.5201
 6629SOL    HW231524   4.694   3.750  12.064  0.2200 -0.3051 -0.4049
 6630SOL     OW31525   4.079   0.769   7.711 -0.7771 -0.0208 -0.4150
 6630SOL    HW131526   4.102   0.677   7.704 -1.8089 -0.4926  2.3505
 6630SOL    HW231527   4.058   0.780   7.804 -0.1647  2.8679 -0.6198
 6631SOL     OW31528   0.093   2.465  13.606 -0.1266 -0.2713  0.5085
 6631SOL    HW131529   0.097   2.543  13.662  1.5556  1.0331 -1.4385
 6631SOL    HW231530   0.031   2.407  13.650 -1.4567  1.1982  0.5887
 6632SOL     OW31531   1.257   1.083   3.125  0.3342 -0.5201  0.0339
 6632SOL    HW131532   1.221   0.997   3.099  1.3075 -1.5480  2.1071
 6632SOL    HW231533   1.249   1.079   3.220  0.7936 -0.4021  0.0741
 6633SOL     OW31534   0.028   0.368  12.175  0.1970  0.2121 -0.0305
 6633SOL    HW131535   0.084   0.374  12.098 -0.4844 -1.6197 -0.6849
 6633SOL    HW231536   4.700   0.303  12.144 -1.1030 -0.4582  3.9964
 6634SOL     OW31537   3.406   0.078   6.480 -0.2019 -0.3033  0.0094
 6634SOL    HW131538   3.438   4.735   6.522 -1.4587 -2.0118 -2.2407
 6634SOL    HW231539   3.324   0.088   6.528  0.2400  1.6045  0.3639
 6635SOL     OW31540   2.455   3.347   2.066  0.3466 -0.2428 -0.0701
 6635SOL    HW131541   2.398   3.310   2.134 -0.3800 -0.2282 -0.6696
 6635SOL    HW231542   2.407   3.335   1.985 -1.3930  0.2693  0.8796
 6636SOL     OW31543   4.025   3.695   3.397 -0.3861  0.7989 -0.0737
 6636SOL    HW131544   3.952   3.679   3.457  0.1044  0.0405  0.3235
 6636SOL    HW231545   4.098   3.665   3.452 -1.8860  0.9655  2.0041
 6637SOL     OW31546   4.723   1.369   9.833  0.1200 -0.1467  0.3031
 6637SOL    HW131547   0.032   1.304   9.886  0.5410  0.1224  0.2742
 6637SOL    HW231548   4.632   1.342   9.850  0.0087  1.6637  2.5891
 6638SOL     OW31549   1.160   0.083  14.123  0.0250  0.3626 -0.2214
 6638SOL    HW131550   1.198   0.006  14.168  1.0036  0.2304 -1.2750
 6638SOL    HW231551   1.127   0.044  14.042  1.3336 -1.0253 -0.1008
 6639SOL     OW31552   2.637   2.949   7.216 -0.1361  0.1247  0.2524
 6639SOL    HW131553   2.562   2.896   7.190  0.4180 -0.7611  0.4653
 6639SOL    HW231554   2.697   2.937   7.143 -0.2822 -1.7014  0.4286
 6640SOL     OW31555   3.713   1.569   4.215 -0.2013 -0.5808 -0.0364
 6640SOL    HW131556   3.774   1.525   4.273  0.9320  0.0034 -0.7819
 6640SOL    HW231557   3.779   1.618   4.166  0.1380 -0.1800  0.8288
 6641SOL     OW31558   0.138   1.935   7.430 -0.0474 -0.2738 -0.2073
 6641SOL    HW131559   0.156   1.883   7.508  2.7951 -0.1188 -0.7580
 6641SOL    HW231560   0.154   2.024   7.461  2.0243 -0.5439 -0.5090
 6642SOL     OW31561   0.771   1.272  12.372 -0.3132 -0.0602  0.3514
 6642SOL    HW131562   0.809   1.186  12.388  2.5608  0.4350 -3.6721
 6642SOL    HW231563   0.771   1.315  12.457 -2.1686  1.9609 -0.6395
 6643SOL     OW31564   4.458   0.013  10.278 -0.6972 -0.0893 -0.0407
 6643SOL    HW131565   4.447   4.659  10.307 -1.4892 -0.1744 -0.6382
 6643SOL    HW231566   4.550   0.024  10.305 -1.1416  0.7207  1.1358
 6644SOL     OW31567   4.718   3.939   8.284 -0.0399  0.6648  0.7128
 6644SOL    HW131568   4.732   3.971   8.373  0.2746  1.2307  0.4601
 6644SOL    HW231569   4.654   3.869   8.298  1.0337 -0.6156 -0.7632
 6645SOL     OW31570   1.573   0.147   7.899  0.1661 -0.0270  0.1508
 6645SOL    HW131571   1.540   0.116   7.983  0.1953 -0.4484  0.0044
 6645SOL    HW231572   1.502   0.150   7.835  0.6669 -0.3615 -0.4166
 6646SOL     OW31573   1.256   2.137   3.824  0.0456  0.0377 -0.6769
 6646SOL    HW131574   1.203   2.194   3.880  0.7819  0.2159 -0.1477
 6646SOL    HW231575   1.240   2.188   3.745  2.8118  0.8932 -0.6972
 6647SOL     OW31576   1.610   2.102  16.231  0.4572 -0.7104  0.2966
 6647SOL    HW131577   1.560   2.180  16.254 -0.5454 -1.9705  2.3767
 6647SOL    HW231578   1.634   2.069  16.318 -2.3806 -0.6702  1.0726
 6648SOL     OW31579   2.360   0.399   4.120 -0.1479  0.2993 -0.1632
 6648SOL    HW131580   2.357   0.304   4.111 -1.7243  0.2724  0.5971
 6648SOL    HW231581   2.340   0.424   4.210 -0.0804  0.4189 -0.1817
 6649SOL     OW31582   1.932   0.300   9.597 -0.5063  0.0456  0.6313
 6649SOL    HW131583   1.869   0.366   9.625 -0.2392  0.7846 -0.4774
 6649SOL    HW231584   1.923   0.311   9.502 -3.1925 -1.3790  0.7152
 6650SOL     OW31585   0.990   0.205  10.984  0.5251  0.1057  0.0159
 6650SOL    HW131586   0.926   0.156  10.932  0.5758 -0.5709  0.5808
 6650SOL    HW231587   1.067   0.149  10.975  0.2319 -0.0116 -1.8459
 6651SOL     OW31588   3.507   2.179   9.060 -0.1749  0.7574  0.0930
 6651SOL    HW131589   3.418   2.201   9.086 -0.3303  1.3040 -0.9117
 6651SOL    HW231590   3.555   2.257   9.090  0.3620  0.9758 -1.3452
 6652SOL     OW31591   2.226   0.378   5.806  0.2073 -0.2159 -0.2469
 6652SOL    HW131592   2.279   0.300   5.786  1.5765  0.5797  0.2306
 6652SOL    HW231593   2.148   0.358   5.755 -1.2311  1.3977  1.3432
 6653SOL     OW31594   2.486   0.845   2.386  0.0011 -0.1960 -0.1395
 6653SOL    HW131595   2.521   0.907   2.322 -1.5940  0.0895 -0.7456
 6653SOL    HW231596   2.445   0.784   2.324 -0.3436 -1.2062  1.0643
 6654SOL     OW31597   0.981   1.171   7.814 -0.0569 -0.2652 -0.2453
 6654SOL    HW131598   0.930   1.211   7.884 -1.1801 -2.3896  0.1587
 6654SOL    HW231599   1.031   1.248   7.787 -1.4071 -0.1748 -2.4966
 6655SOL     OW31600   1.426   0.709  14.900 -0.7291 -0.0425 -0.6045
 6655SOL    HW131601   1.421   0.759  14.981 -0.5327 -0.6228 -0.2298
 6655SOL    HW231602   1.429   0.619  14.933  1.1909  0.9337  1.8923
 6656SOL     OW31603   1.323   0.157   7.748  0.0691  0.3193 -0.7211
 6656SOL    HW131604   1.259   0.227   7.762 -0.2779 -0.3392  0.9979
 6656SOL    HW231605   1.326   0.165   7.653 -0.0814  0.4517 -0.7152
 6657SOL     OW31606   3.894   4.201   7.337 -0.0678 -0.5850 -0.3644
 6657SOL    HW131607   3.949   4.223   7.261 -0.0513 -2.2534 -0.8292
 6657SOL    HW231608   3.800   4.201   7.319 -0.1369  1.5605 -0.1031
 6658SOL     OW31609   2.850   2.700   3.019  0.0954 -0.1642  0.2997
 6658SOL    HW131610   2.808   2.785   3.023 -1.1875 -0.7663 -0.5007
 6658SOL    HW231611   2.776   2.641   3.033  0.1371  0.1154  1.7838
 6659SOL     OW31612   1.744   2.774   4.327 -0.7975 -0.2473 -0.1943
 6659SOL    HW131613   1.757   2.759   4.421 -0.2752 -2.7793 -0.6633
 6659SOL    HW231614   1.732   2.868   4.338 -0.5526 -0.6929  3.8821
 6660SOL     OW31615   1.358   0.321   4.404  0.0014  0.3455 -0.0053
 6660SOL    HW131616   1.315   0.241   4.434  2.3543 -1.0629 -0.3639
 6660SOL    HW231617   1.396   0.296   4.319  1.4353  0.8046  0.5039
 6661SOL     OW31618   2.385   0.050   7.143 -0.6627 -0.2628  0.1332
 6661SOL    HW131619   2.353   0.080   7.058  0.3304  3.6407  1.1343
 6661SOL    HW231620   2.454   0.115   7.158 -0.0200 -0.6730 -1.0546
 6662SOL     OW31621   3.509   4.419   3.683  0.4787 -0.2475 -0.5697
 6662SOL    HW131622   3.570   4.347   3.694 -0.0511 -1.0241 -2.7289
 6662SOL    HW231623   3.574   4.489   3.684 -0.8158  0.9223  1.7377
 6663SOL     OW31624   2.339   0.583   6.883  0.0769 -0.8559  0.0951
 6663SOL    HW131625   2.301   0.660   6.925  1.6793 -0.8381  1.5247
 6663SOL    HW231626   2.354   0.531   6.963 -0.4153 -0.2868  0.5534
 6664SOL     OW31627   3.135   0.912   8.621 -0.6548 -0.6047  0.0304
 6664SOL    HW131628   3.075   0.858   8.672 -2.5898  1.9420  0.4440
 6664SOL    HW231629   3.093   0.998   8.621 -2.1871 -1.3617  0.0888
 6665SOL     OW31630   2.301   3.878   8.962  0.0255  0.3475  0.0131
 6665SOL    HW131631   2.284   3.878   8.868 -0.3476 -0.7870  0.0812
 6665SOL    HW231632   2.222   3.924   8.991  0.2415 -0.3071  1.6863
 6666SOL     OW31633   3.510   2.142  15.465 -0.5962  0.5226  0.0303
 6666SOL    HW131634   3.605   2.147  15.468 -0.4877 -1.0953 -0.8053
 6666SOL    HW231635   3.488   2.054  15.495  1.4245 -1.4840 -4.2840
 6667SOL     OW31636   3.841   4.247   3.449 -0.4600  0.0348  0.2671
 6667SOL    HW131637   3.761   4.237   3.398  0.2439 -0.2720 -0.7799
 6667SOL    HW231638   3.909   4.204   3.398 -2.9016 -2.3356 -0.9830
 6668SOL     OW31639   3.059   3.104  13.646  0.1871  0.1444  0.0825
 6668SOL    HW131640   3.155   3.101  13.647  0.2073  0.5458 -0.4926
 6668SOL    HW231641   3.038   3.128  13.736 -0.4320 -2.7723  0.7150
 6669SOL     OW31642   0.956   3.689  16.597 -0.2738 -0.0125 -0.2364
 6669SOL    HW131643   1.031   3.740  16.627  0.1132 -1.7301  1.7380
 6669SOL    HW231644   0.935   3.634  16.672 -1.4814 -0.3186 -0.7923
 6670SOL     OW31645   1.410   1.843   7.355 -0.7458 -0.0756 -0.4430
 6670SOL    HW131646   1.493   1.853   7.309 -1.2430  1.2969 -1.0357
 6670SOL    HW231647   1.448   1.802   7.433 -0.3654  0.3403 -0.4049
 6671SOL     OW31648   0.883   3.568  16.845 -0.2261 -0.4519  0.1028
 6671SOL    HW131649   0.833   3.514  16.906 -1.7875 -0.8047 -1.4752
 6671SOL    HW231650   0.971   3.556  16.879  1.0829  0.7422 -2.8840
 6672SOL     OW31651   3.347   4.611  10.451  0.4199  0.2352 -0.3950
 6672SOL    HW131652   3.401   4.631  10.374  2.0561 -2.4361  0.0408
 6672SOL    HW231653   3.289   4.539  10.425 -1.2654  1.6170 -0.4628
 6673SOL     OW31654   3.299   4.498   6.002 -0.2067 -0.2659  0.0330
 6673SOL    HW131655   3.352   4.575   5.980  0.0456 -0.3351  0.3876
 6673SOL    HW231656   3.256   4.514   6.086 -0.7399 -0.4093 -0.2144
 6674SOL     OW31657   0.586   0.715   6.342  0.1016  0.0205  0.1525
 6674SOL    HW131658   0.584   0.742   6.434  2.4603 -1.2189  0.5581
 6674SOL    HW231659   0.499   0.675   6.348  0.6745 -1.3138 -0.5693
 6675SOL     OW31660   2.559   0.463  15.253  0.1729 -0.6758  0.0142
 6675SOL    HW131661   2.653   0.478  15.263  0.3733 -3.1625  1.6541
 6675SOL    HW231662   2.553   0.441  15.160 -0.4981 -0.2518 -0.0473
 6676SOL     OW31663   1.864   4.232   4.329 -0.0838  0.5275  0.3823
 6676SOL    HW131664   1.778   4.272   4.339 -0.2221 -0.6568  4.1521
 6676SOL    HW231665   1.874   4.178   4.408 -0.9594 -0.3356 -0.0969
 6677SOL     OW31666   1.350   4.598   7.736  0.1423  0.1408  0.4262
 6677SOL    HW131667   1.341   4.614   7.642  2.9625  0.0792  0.1438
 6677SOL    HW231668   1.307   4.671   7.781 -0.1222  0.8749 -1.0515
 6678SOL     OW31669   2.301   4.563  11.666 -0.1886  0.4450 -0.4558
 6678SOL    HW131670   2.308   4.522  11.579  2.4509 -0.1132  0.0121
 6678SOL    HW231671   2.381   4.533  11.709 -0.4812 -1.1545 -1.0182
 6679SOL     OW31672   0.575   0.795   6.612 -0.2801 -0.2191  0.4436
 6679SOL    HW131673   0.548   0.886   6.612  0.7294  0.0775 -1.0166
 6679SOL    HW231674   0.495   0.746   6.629 -0.8154 -0.3011 -2.2755
 6680SOL     OW31675   2.824   2.285   2.098  0.1344  0.2115  0.2294
 6680SOL    HW131676   2.911   2.325   2.092  0.0167  0.4094 -0.1468
 6680SOL    HW231677   2.768   2.348   2.143  1.9275  2.7067 -1.0690
 6681SOL     OW31678   3.294   0.087  13.463 -0.4517  0.4787 -0.2741
 6681SOL    HW131679   3.335   0.005  13.438  0.0384 -0.0459  2.1909
 6681SOL    HW231680   3.369   0.127  13.507 -1.6770  1.0810  1.2713
 6682SOL     OW31681   3.637   0.388   6.478  0.4935 -0.8022  0.7683
 6682SOL    HW131682   3.552   0.377   6.521 -0.0663 -1.7545 -0.5818
 6682SOL    HW231683   3.688   0.445   6.536 -0.0469  0.1118  0.3448
 6683SOL     OW31684   3.666   3.564   2.373  0.0311 -0.3301  0.4204
 6683SOL    HW131685   3.701   3.475   2.366 -3.7579 -1.7974  0.4139
 6683SOL    HW231686   3.748   3.612   2.359  0.0677 -1.0986 -1.9857
 6684SOL     OW31687   4.593   2.003   8.426  0.3921 -0.2476  0.0762
 6684SOL    HW131688   4.668   2.061   8.441 -1.2078  1.8677 -0.1999
 6684SOL    HW231689   4.601   1.973   8.335  2.6532 -0.2674  0.2801
 6685SOL     OW31690   1.777   3.559  13.468  0.3824  0.1936 -0.3003
 6685SOL    HW131691   1.843   3.616  13.506  0.6380 -0.5946  0.4524
 6685SOL    HW231692   1.751   3.499  13.538 -0.4811 -0.7072 -1.3981
 6686SOL     OW31693   3.783   1.923   2.731 -0.2999 -0.7625  0.2208
 6686SOL    HW131694   3.815   1.857   2.793 -0.1835 -1.2447 -0.3522
 6686SOL    HW231695   3.837   1.900   2.655 -1.4421 -0.3535 -0.7224
 6687SOL     OW31696   1.200   3.070   9.255  0.4075  0.4337  0.4690
 6687SOL    HW131697   1.125   3.087   9.313 -0.6565 -0.1723 -0.7118
 6687SOL    HW231698   1.270   3.069   9.321 -0.9160  1.2575  1.9034
 6688SOL     OW31699   0.094   2.412  15.891 -0.1192 -0.1044 -0.4964
 6688SOL    HW131700   0.175   2.407  15.941 -1.3845  0.0287  1.6082
 6688SOL    HW231701   0.038   2.463  15.950  1.1634  0.2479  0.4125
 6689SOL     OW31702   2.521   2.338   0.127 -0.7946 -0.4092  0.4763
 6689SOL    HW131703   2.576   2.401   0.080 -2.5412  1.4415  0.9605
 6689SOL    HW231704   2.593   2.295   0.174  0.0509  2.3803  1.7381
 6690SOL     OW31705   1.988   3.853   6.628 -0.2279 -0.1281  0.2392
 6690SOL    HW131706   1.928   3.787   6.663 -2.6731 -0.0775 -3.8344
 6690SOL    HW231707   2.020   3.894   6.708 -0.0021  1.1348 -0.4950
 6691SOL     OW31708   3.318   3.521   3.956  0.0817  0.1196  0.6871
 6691SOL    HW131709   3.260   3.451   3.984  0.6615 -1.5593 -2.2825
 6691SOL    HW231710   3.261   3.595   3.934  0.7105  1.1481  2.4932
 6692SOL     OW31711   2.807   0.561  16.373 -0.9928  0.5005 -0.5027
 6692SOL    HW131712   2.779   0.502  16.443 -0.8565 -1.3415 -1.9899
 6692SOL    HW231713   2.720   0.600  16.357 -1.6796 -0.8217  0.0167
 6693SOL     OW31714   2.561   2.288  11.839  0.0873  0.0487  0.5671
 6693SOL    HW131715   2.466   2.287  11.850  0.0131  0.2326 -0.0415
 6693SOL    HW231716   2.585   2.246  11.922  2.1722  1.1103  0.5156
 6694SOL     OW31717   0.455   1.424   7.936 -0.4066  0.6851  0.2458
 6694SOL    HW131718   0.505   1.415   8.017 -1.0924 -0.3594  0.5424
 6694SOL    HW231719   0.373   1.455   7.973 -0.0328  1.6098  0.2929
 6695SOL     OW31720   3.603   2.508   4.468  0.3195  0.1753 -0.1950
 6695SOL    HW131721   3.571   2.581   4.414 -0.7660  0.9267  1.4549
 6695SOL    HW231722   3.538   2.441   4.450  0.1819 -0.4612  2.6006
 6696SOL     OW31723   3.250   0.681  11.492  0.2950 -0.0081 -0.6595
 6696SOL    HW131724   3.316   0.633  11.442 -0.9290 -0.2362 -2.0273
 6696SOL    HW231725   3.308   0.713  11.561  0.2207 -1.5274  0.1101
 6697SOL     OW31726   4.061   3.070   8.235  0.4715  0.5902 -0.2510
 6697SOL    HW131727   4.025   3.155   8.259 -0.3871  0.9304 -2.7020
 6697SOL    HW231728   4.148   3.090   8.268  1.2484 -0.6315 -1.5154
 6698SOL     OW31729   2.188   2.067   6.311  0.5847  0.5443  0.4924
 6698SOL    HW131730   2.124   2.045   6.243  2.3012 -1.6908 -0.3770
 6698SOL    HW231731   2.149   2.023   6.387  0.0974 -1.8486 -1.1436
 6699SOL     OW31732   3.265   0.451   8.670 -0.6965  0.2034 -0.0090
 6699SOL    HW131733   3.228   0.525   8.718 -1.6941 -0.3392  0.0626
 6699SOL    HW231734   3.238   0.486   8.585  1.0637 -0.9478 -1.0296
 6700SOL     OW31735   3.700   3.814  12.879 -0.4443 -0.0773  0.1008
 6700SOL    HW131736   3.610   3.845  12.885 -0.4174  0.3673 -1.7572
 6700SOL    HW231737   3.725   3.835  12.789  1.4617 -4.3516 -0.3731
 6701SOL     OW31738   2.740   0.587   6.283 -0.0121  0.1676 -0.0949
 6701SOL    HW131739   2.662   0.533   6.290 -1.1137  2.0984  2.4732
 6701SOL    HW231740   2.711   0.635   6.205 -0.8804  1.6095  1.1114
 6702SOL     OW31741   3.702   3.537  11.238 -0.2695  0.1639 -0.2331
 6702SOL    HW131742   3.753   3.566  11.314  1.1942 -1.8759 -0.4221
 6702SOL    HW231743   3.774   3.518  11.178 -0.0507 -0.4527  0.2108
 6703SOL     OW31744   3.881   3.654   3.615  0.6819 -0.5931 -0.9100
 6703SOL    HW131745   3.920   3.568   3.632 -2.5024 -2.3631 -2.4860
 6703SOL    HW231746   3.792   3.643   3.648  1.5092 -0.6639  1.3038
 6704SOL     OW31747   3.953   3.408   7.108 -0.3051  0.4134 -0.7627
 6704SOL    HW131748   3.870   3.433   7.149 -0.2513 -0.7831  0.0598
 6704SOL    HW231749   3.935   3.323   7.068  4.4669 -1.0878  0.2910
 6705SOL     OW31750   1.934   0.174   7.220 -0.1286 -0.1165  0.1457
 6705SOL    HW131751   1.930   0.082   7.245 -2.2069  0.6578  2.6727
 6705SOL    HW231752   1.901   0.173   7.129 -1.4545 -0.4851  0.6272
 6706SOL     OW31753   1.986   1.428  15.117  0.0919 -0.3461 -0.2749
 6706SOL    HW131754   2.036   1.359  15.072  0.8973  0.7016 -0.9992
 6706SOL    HW231755   1.913   1.431  15.055 -1.2852  3.3445  1.5304
 6707SOL     OW31756   0.979   3.287   2.687 -0.2253 -0.6236 -0.4619
 6707SOL    HW131757   0.978   3.278   2.592  0.8627  1.4125 -0.6734
 6707SOL    HW231758   1.060   3.336   2.699 -0.2838 -0.3975 -0.9578
 6708SOL     OW31759   2.449   0.812   7.851  0.1342 -0.1952 -0.0176
 6708SOL    HW131760   2.449   0.830   7.945  0.7722  0.2846 -0.1105
 6708SOL    HW231761   2.364   0.843   7.821 -0.0743 -0.5024  0.2512
 6709SOL     OW31762   1.234   4.039   1.270 -0.0397  0.2150 -0.0787
 6709SOL    HW131763   1.263   4.102   1.335 -2.0524  0.8892  0.1642
 6709SOL    HW231764   1.276   4.070   1.190 -2.3698 -0.3087 -1.5110
 6710SOL     OW31765   0.455   4.453   2.197 -0.0093 -0.1371  0.2160
 6710SOL    HW131766   0.491   4.540   2.211 -2.3148  0.7408  0.7429
 6710SOL    HW231767   0.512   4.418   2.129  2.6540  3.1939  0.7534
 6711SOL     OW31768   4.502   3.410   3.957 -0.3060  0.1809 -0.2549
 6711SOL    HW131769   4.576   3.360   3.992 -0.6988 -0.2372 -0.0197
 6711SOL    HW231770   4.538   3.498   3.957 -1.9370  0.8361 -0.9544
 6712SOL     OW31771   3.438   4.062   3.225 -0.2659 -0.2993 -0.4472
 6712SOL    HW131772   3.497   4.002   3.270 -0.3855 -1.1658 -1.4204
 6712SOL    HW231773   3.502   4.122   3.186 -0.1605 -0.0565  0.0958
 6713SOL     OW31774   3.967   0.846   7.242 -0.0754 -0.0695  0.1631
 6713SOL    HW131775   3.961   0.940   7.261  0.4986  0.3877 -1.8347
 6713SOL    HW231776   3.944   0.810   7.327  0.4369 -1.5499 -0.3295
 6714SOL     OW31777   2.174   3.084   0.629 -0.1367  0.0948 -0.7299
 6714SOL    HW131778   2.213   3.036   0.703 -2.4019 -0.0860  0.3490
 6714SOL    HW231779   2.244   3.062   0.568  0.6338 -2.1069  0.9279
 6715SOL     OW31780   3.692   0.308   6.039 -0.5710  0.3174  0.1352
 6715SOL    HW131781   3.689   0.401   6.061  0.5375  0.7575 -1.5974
 6715SOL    HW231782   3.647   0.269   6.115  2.8407 -3.7327  0.0968
 6716SOL     OW31783   0.885   3.797  12.175 -0.0923  0.1433  0.1696
 6716SOL    HW131784   0.828   3.815  12.101 -2.3468  0.8547  2.0783
 6716SOL    HW231785   0.858   3.707  12.194  2.3057 -0.5148  0.5534
 6717SOL     OW31786   4.199   3.610   6.216 -0.0034 -0.3312  0.4643
 6717SOL    HW131787   4.221   3.676   6.281  1.0928 -0.0969 -0.1378
 6717SOL    HW231788   4.116   3.651   6.191  0.2533  0.2568  0.5763
 6718SOL     OW31789   2.763   4.663   5.571 -0.3852 -0.1682  0.1831
 6718SOL    HW131790   2.793   4.730   5.510  0.6111 -0.4948  0.3152
 6718SOL    HW231791   2.703   4.717   5.622  2.2385  0.7564  2.2932
 6719SOL     OW31792   2.374   1.324   4.882  0.3905 -0.5117 -0.8357
 6719SOL    HW131793   2.299   1.365   4.839  1.1584  0.4389 -1.2659
 6719SOL    HW231794   2.445   1.364   4.833  1.6543 -0.4041  1.0942
 6720SOL     OW31795   2.234   0.794   4.418  0.4698 -0.5594  0.5220
 6720SOL    HW131796   2.168   0.751   4.364 -0.1712  1.3725 -0.2119
 6720SOL    HW231797   2.183   0.823   4.494  0.8146  0.9591  0.1643
 6721SOL     OW31798   0.543   0.077  16.610 -0.4568  0.4668  0.9253
 6721SOL    HW131799   0.635   0.059  16.592 -1.1311  0.6596 -2.6200
 6721SOL    HW231800   0.537   0.129  16.691 -1.3464  1.1188  0.4335
 6722SOL     OW31801   0.105   1.394   2.059 -0.1996 -0.1933 -0.0677
 6722SOL    HW131802   0.136   1.396   2.149  1.4320 -0.6563 -0.6156
 6722SOL    HW231803   0.029   1.338   2.073  0.9209 -1.7116 -0.0594
 6723SOL     OW31804   1.058   3.985   3.636  0.4805  0.1133 -0.2990
 6723SOL    HW131805   1.088   4.063   3.590 -0.6346  0.7627  0.0930
 6723SOL    HW231806   1.072   4.007   3.728  1.6814 -0.0495 -0.4433
 6724SOL     OW31807   4.690   4.082  17.244 -0.1753 -0.6738  0.1259
 6724SOL    HW131808   0.038   4.049  17.211 -0.8485 -1.6657 -0.5722
 6724SOL    HW231809   4.660   4.140  17.174  1.1348 -0.8738 -0.6008
 6725SOL     OW31810   4.505   1.575   6.437  0.2296 -0.2873  0.4436
 6725SOL    HW131811   4.515   1.493   6.485  0.0064  0.4369  1.7089
 6725SOL    HW231812   4.589   1.614   6.462  1.1745 -1.6999 -0.5301
 6726SOL     OW31813   2.212   1.179   4.448 -0.0844 -0.1338 -0.0897
 6726SOL    HW131814   2.291   1.150   4.403  0.2612 -1.5953  1.4520
 6726SOL    HW231815   2.219   1.275   4.444  2.1244 -0.3240 -0.7694
 6727SOL     OW31816   0.840   3.617   3.322 -0.3300  0.5293 -0.0824
 6727SOL    HW131817   0.785   3.645   3.395  0.4062  0.0041  0.6701
 6727SOL    HW231818   0.905   3.685   3.338  0.2224 -0.0230 -0.0233
 6728SOL     OW31819   0.519   0.900   9.382 -0.5064 -0.0138  0.6961
 6728SOL    HW131820   0.564   0.840   9.322 -1.8664 -1.0229  0.6822
 6728SOL    HW231821   0.595   0.955   9.398 -0.9752  0.6912  0.4890
 6729SOL     OW31822   3.410   2.837   8.863 -0.5018  0.3159  0.0489
 6729SOL    HW131823   3.497   2.799   8.849 -0.8193 -0.6217  0.6023
 6729SOL    HW231824   3.424   2.873   8.951 -1.6581  3.5109 -1.0704
 6730SOL     OW31825   3.649   2.477   8.068 -0.2953  0.0516  0.1846
 6730SOL    HW131826   3.696   2.531   8.132 -1.0840  2.1972 -1.0219
 6730SOL    HW231827   3.564   2.515   8.089 -1.6242 -2.5722 -0.6098
 6731SOL     OW31828   4.527   3.893   7.694  0.9510  0.5100  0.1036
 6731SOL    HW131829   4.512   3.799   7.688 -1.3200  0.9132 -0.5639
 6731SOL    HW231830   4.567   3.899   7.781 -0.0858 -1.9942  0.7615
 6732SOL     OW31831   3.216   4.017   0.846 -0.6962  0.0482 -0.3023
 6732SOL    HW131832   3.182   4.087   0.790 -0.3057 -1.3362 -2.2704
 6732SOL    HW231833   3.215   3.941   0.789  1.5853  0.3887 -0.7831
 6733SOL     OW31834   0.313   2.043   5.939 -0.1626  0.0481 -0.4847
 6733SOL    HW131835   0.270   2.033   5.854 -0.6608  2.2735 -0.4763
 6733SOL    HW231836   0.276   2.121   5.979 -0.0001  0.1843 -0.6003
 6734SOL     OW31837   0.365   0.749   5.225 -0.5503  0.2722 -0.1006
 6734SOL    HW131838   0.381   0.828   5.278  0.6601 -0.1195  0.1119
 6734SOL    HW231839   0.409   0.687   5.283 -0.0020  1.2076  0.4972
 6735SOL     OW31840   0.810   4.102   4.363 -0.4044  0.4058  0.4511
 6735SOL    HW131841   0.905   4.116   4.359 -0.2401 -0.7018  0.5874
 6735SOL    HW231842   0.787   4.187   4.324 -1.9054 -0.2336 -0.0549
 6736SOL     OW31843   1.008   0.412  16.379 -0.1535  0.7316  0.7527
 6736SOL    HW131844   0.947   0.483  16.400 -1.7527 -0.5229  0.3324
 6736SOL    HW231845   1.042   0.432  16.292 -0.2938 -1.5066  0.1844
 6737SOL     OW31846   4.486   1.430  15.073 -0.1596  0.5884 -0.4812
 6737SOL    HW131847   4.545   1.371  15.025 -0.2228 -0.8681  1.2213
 6737SOL    HW231848   4.399   1.401  15.045 -0.5140 -0.6238  1.8617
 6738SOL     OW31849   3.944   0.034   1.329  0.1098  0.2325  0.1574
 6738SOL    HW131850   3.994   0.016   1.409  0.8037  4.1485  0.6183
 6738SOL    HW231851   3.997   4.731   1.259  0.0151 -0.5790  0.5459
 6739SOL     OW31852   3.570   4.358   6.630  0.4481  0.4733  0.2653
 6739SOL    HW131853   3.547   4.278   6.583 -0.9723  0.2480  1.3312
 6739SOL    HW231854   3.609   4.314   6.706  0.4078  0.1194  0.0796
 6740SOL     OW31855   3.299   0.095   4.214 -0.2275  0.2220 -0.1816
 6740SOL    HW131856   3.243   0.077   4.290  1.1926  0.6934  0.9825
 6740SOL    HW231857   3.239   0.149   4.162 -1.3826  0.2415  1.1620
 6741SOL     OW31858   2.423   1.742   2.914 -0.1046  0.5936  0.0925
 6741SOL    HW131859   2.514   1.748   2.942 -0.2384  2.4933  0.1213
 6741SOL    HW231860   2.376   1.795   2.978 -0.0347  1.1901 -0.3494
 6742SOL     OW31861   2.037   1.387  11.348  0.2163 -0.1250  0.1674
 6742SOL    HW131862   1.999   1.456  11.404 -1.0189  1.0395 -2.1274
 6742SOL    HW231863   2.054   1.439  11.269  2.3648 -0.0115  0.6949
 6743SOL     OW31864   3.746   0.458   4.042 -1.0321  0.0590 -0.0390
 6743SOL    HW131865   3.652   0.449   4.029 -1.4576  0.3143  2.7860
 6743SOL    HW231866   3.745   0.553   4.057  1.0406  0.3849 -1.9167
 6744SOL     OW31867   2.296   0.169   1.264  0.6293  0.2932  0.0428
 6744SOL    HW131868   2.285   0.100   1.200 -1.2765  0.6408 -0.0072
 6744SOL    HW231869   2.201   0.178   1.279  0.3017 -0.1732 -1.7716
 6745SOL     OW31870   2.001   4.435   3.136 -0.5061  0.2899 -0.1722
 6745SOL    HW131871   2.078   4.412   3.084  0.9631  1.7344  1.3663
 6745SOL    HW231872   2.045   4.408   3.216 -0.2637 -1.7408 -1.0131
 6746SOL     OW31873   2.531   2.622   6.625  0.6707  0.1109 -0.5090
 6746SOL    HW131874   2.575   2.603   6.542  3.4340  1.2627  0.6799
 6746SOL    HW231875   2.501   2.534   6.650  2.7801 -0.4735 -0.0500
 6747SOL     OW31876   1.081   0.813   7.633 -0.3661 -0.5178 -0.1418
 6747SOL    HW131877   1.059   0.732   7.680  0.1812 -1.5207 -1.6280
 6747SOL    HW231878   0.997   0.859   7.635  0.3047  0.7333 -0.9198
 6748SOL     OW31879   0.416   4.142   7.319  0.6307 -0.1747 -0.3671
 6748SOL    HW131880   0.473   4.219   7.329  1.7711 -0.9594 -0.8576
 6748SOL    HW231881   0.443   4.089   7.394 -1.9496  0.6096  1.1490
 6749SOL     OW31882   3.907   0.373  10.560  0.3567  0.7450  0.5350
 6749SOL    HW131883   3.958   0.438  10.608  1.1642  0.9954 -0.6525
 6749SOL    HW231884   3.902   0.294  10.613 -1.1267  0.2379 -0.3512
 6750SOL     OW31885   0.531   2.404   3.031 -0.3307  0.5696  0.5016
 6750SOL    HW131886   0.620   2.372   3.046  0.1105  1.6227  0.0998
 6750SOL    HW231887   0.512   2.348   2.955  1.8115 -0.1243  0.4868
 6751SOL     OW31888   2.615   1.157   2.903  0.4837 -0.1239 -0.3875
 6751SOL    HW131889   2.560   1.114   2.837 -0.0504 -0.4092  0.2489
 6751SOL    HW231890   2.548   1.213   2.943  0.5340 -1.6961  1.8956
 6752SOL     OW31891   3.214   3.157   8.128 -0.2260 -0.2528  0.2332
 6752SOL    HW131892   3.289   3.213   8.145 -1.2190  1.1971 -0.1744
 6752SOL    HW231893   3.157   3.163   8.204  0.1264  1.0859  0.3819
 6753SOL     OW31894   1.935   0.210  14.366  0.4605  0.6575 -0.0238
 6753SOL    HW131895   1.919   0.255  14.449 -0.7545  0.8689 -0.3707
 6753SOL    HW231896   1.991   0.140  14.400 -0.1816 -0.0251 -0.3565
 6754SOL     OW31897   0.353   2.911   0.207  0.2757  0.0501  0.1177
 6754SOL    HW131898   0.427   2.957   0.247  1.1717 -2.1375  0.9984
 6754SOL    HW231899   0.362   2.955   0.123  0.9959 -3.1049 -1.4564
 6755SOL     OW31900   1.071   4.523   2.103  0.2116 -0.4366  0.2843
 6755SOL    HW131901   1.102   4.523   2.193 -1.7226 -1.8643  0.9560
 6755SOL    HW231902   1.156   4.513   2.061 -0.1665  0.4626 -0.6943
 6756SOL     OW31903   0.211   2.554   8.798 -0.8870 -0.2109  0.3666
 6756SOL    HW131904   0.253   2.586   8.879  0.7936 -2.9253  0.5763
 6756SOL    HW231905   0.200   2.463   8.824 -0.6150  0.0948  1.5616
 6757SOL     OW31906   3.691   2.891   1.499  0.1232  0.3260  0.0448
 6757SOL    HW131907   3.606   2.902   1.542 -0.7878 -3.0247 -0.8890
 6757SOL    HW231908   3.698   2.979   1.463 -0.1218 -0.7261 -2.5205
 6758SOL     OW31909   2.990   3.092  12.452 -0.0160  0.0995  0.3896
 6758SOL    HW131910   3.030   3.142  12.381  0.1012 -0.7662 -0.1586
 6758SOL    HW231911   2.986   3.156  12.523  4.3579  0.4830  0.2656
 6759SOL     OW31912   4.592   0.242   6.194  0.3200  0.1551  0.9608
 6759SOL    HW131913   4.619   0.174   6.133 -1.1426 -0.5582  1.0876
 6759SOL    HW231914   4.563   0.310   6.133  0.3850  0.0781  0.8444
 6760SOL     OW31915   3.070   0.017  15.968  0.0922  0.2946 -0.6843
 6760SOL    HW131916   3.003   0.083  15.986  1.1729  1.6688 -1.6577
 6760SOL    HW231917   3.135   0.082  15.942 -0.3875  0.7823 -0.6580
 6761SOL     OW31918   1.986   3.356   4.004  0.3350  0.8874  0.0920
 6761SOL    HW131919   2.043   3.298   3.952 -2.1219 -1.5061  0.0602
 6761SOL    HW231920   2.020   3.340   4.092 -1.7849  0.5274  0.8419
 6762SOL     OW31921   0.642   3.659   3.543 -0.1788 -0.1204  0.0112
 6762SOL    HW131922   0.593   3.690   3.618 -2.2901 -0.8175 -1.0937
 6762SOL    HW231923   0.597   3.705   3.472  0.6644  2.2944  1.0439
 6763SOL     OW31924   1.866   2.275  12.061 -0.4857 -0.6106 -0.1367
 6763SOL    HW131925   1.930   2.335  12.098  1.5289 -1.9071 -1.5322
 6763SOL    HW231926   1.917   2.217  12.004 -0.5088 -1.6180  0.8666
 6764SOL     OW31927   4.292   1.189   8.870 -0.5252  0.3331  0.2792
 6764SOL    HW131928   4.228   1.252   8.839 -0.6387 -0.0538 -0.2602
 6764SOL    HW231929   4.235   1.136   8.925 -2.7100  2.1903 -0.2291
 6765SOL     OW31930   4.234   1.173   8.446 -0.5333 -0.3253 -0.7368
 6765SOL    HW131931   4.176   1.100   8.423 -1.5794  0.4510 -0.5336
 6765SOL    HW231932   4.185   1.209   8.520 -1.2730  0.3643 -1.5580
 6766SOL     OW31933   0.736   3.754   6.478 -0.0202 -0.4873 -0.3149
 6766SOL    HW131934   0.658   3.785   6.524  0.4894 -0.2556  0.3764
 6766SOL    HW231935   0.690   3.710   6.407  1.3280  0.6870 -1.9282
 6767SOL     OW31936   0.784   3.213  17.702 -0.3402  0.0085 -0.0429
 6767SOL    HW131937   0.870   3.225  17.742 -0.4349  0.8110 -0.0943
 6767SOL    HW231938   0.732   3.278   0.006 -2.3209 -1.7646  0.2248
 6768SOL     OW31939   3.223   4.079   8.588 -0.0962  1.0975 -0.3699
 6768SOL    HW131940   3.160   4.141   8.552 -1.1652  1.0959  1.4950
 6768SOL    HW231941   3.303   4.130   8.602  0.4531 -0.3245  1.7940
 6769SOL     OW31942   2.335   4.092   7.587  0.2025  0.8188 -0.0227
 6769SOL    HW131943   2.335   4.178   7.629  1.1403  1.0321 -0.4586
 6769SOL    HW231944   2.341   4.041   7.668 -2.2640 -0.5868 -0.7313
 6770SOL     OW31945   4.217   3.480   5.385 -0.1261  0.4241  0.2419
 6770SOL    HW131946   4.172   3.545   5.331 -1.2629 -0.7383 -0.2215
 6770SOL    HW231947   4.296   3.527   5.410 -0.3405  1.6590 -1.3929
 6771SOL     OW31948   3.331   0.953   4.859 -0.0141 -0.2293 -0.0847
 6771SOL    HW131949   3.306   0.883   4.799 -2.5599  0.2596  0.4223
 6771SOL    HW231950   3.242   0.968   4.891  0.1197  1.4401 -0.4938
 6772SOL     OW31951   2.457   3.094   8.150  0.6668  0.0217 -0.0377
 6772SOL    HW131952   2.469   3.041   8.072 -1.2821 -0.3401 -0.1050
 6772SOL    HW231953   2.411   3.164   8.104 -0.3438 -1.1320 -0.7687
 6773SOL     OW31954   0.934   1.559   3.253 -0.0562 -0.1254 -0.1573
 6773SOL    HW131955   1.019   1.561   3.297  0.5025 -3.7228 -1.0860
 6773SOL    HW231956   0.960   1.572   3.162  1.1449  2.5448  0.5652
 6774SOL     OW31957   4.343   3.244   2.149  0.5645  0.0978  0.0267
 6774SOL    HW131958   4.407   3.315   2.149  0.9282 -0.2308 -2.8984
 6774SOL    HW231959   4.282   3.273   2.216 -1.8777 -2.0567 -1.3021
 6775SOL     OW31960   4.503   1.267   2.348 -0.2023 -0.3495 -0.5318
 6775SOL    HW131961   4.493   1.355   2.383 -0.5968 -0.5648 -0.1115
 6775SOL    HW231962   4.471   1.273   2.258  1.4451  0.7910 -1.0543
 6776SOL     OW31963   1.540   4.616   6.695  0.1518  0.0798  0.1875
 6776SOL    HW131964   1.598   4.608   6.619 -0.0049 -1.6894  0.2409
 6776SOL    HW231965   1.530   4.529   6.735 -3.1629 -0.7426 -2.3280
 6777SOL     OW31966   3.524   4.527   5.246 -0.3555 -1.1247  0.0089
 6777SOL    HW131967   3.613   4.526   5.282 -0.0036 -5.6508 -0.9032
 6777SOL    HW231968   3.496   4.443   5.282 -2.5981  0.6545  2.3682
 6778SOL     OW31969   4.531   0.912   9.625 -0.8690  0.1169  0.1188
 6778SOL    HW131970   4.590   0.878   9.557 -0.4608  1.3655 -0.1439
 6778SOL    HW231971   4.513   0.844   9.690 -0.5584 -0.5842 -0.5193
 6779SOL     OW31972   4.376   3.179  13.352 -0.7615 -0.4590 -0.2396
 6779SOL    HW131973   4.363   3.101  13.407  1.3532 -0.9155 -0.3952
 6779SOL    HW231974   4.318   3.247  13.387  0.0186 -0.8056  1.7625
 6780SOL     OW31975   0.639   4.263  12.738  0.3132  0.2005 -0.0128
 6780SOL    HW131976   0.670   4.248  12.649 -1.2220  1.3586 -0.7403
 6780SOL    HW231977   0.658   4.180  12.782  3.2968  0.7570 -0.2557
 6781SOL     OW31978   2.988   0.879   3.566 -0.2732  0.3028 -0.0980
 6781SOL    HW131979   2.913   0.903   3.512 -1.3784 -1.3860  0.6656
 6781SOL    HW231980   2.987   0.944   3.636  3.4853 -0.0242  0.2453
 6782SOL     OW31981   0.253   1.100   2.350  0.3580  0.2965 -0.3676
 6782SOL    HW131982   0.215   1.027   2.398 -2.1661  2.8736  1.5344
 6782SOL    HW231983   0.236   1.063   2.263 -2.6584 -0.0832  0.4101
 6783SOL     OW31984   0.737   3.900   4.176 -0.1121 -0.2044 -0.0510
 6783SOL    HW131985   0.738   3.818   4.224  3.9254 -0.9828 -1.4133
 6783SOL    HW231986   0.765   3.957   4.248  1.8954 -0.0257 -0.9722
 6784SOL     OW31987   3.537   3.795  15.066 -1.0005 -0.2502 -0.1972
 6784SOL    HW131988   3.567   3.886  15.062 -0.5486 -0.3862  0.1159
 6784SOL    HW231989   3.452   3.801  15.023 -0.4686 -0.9613 -1.3414
 6785SOL     OW31990   0.100   4.595  12.921 -0.4534  0.2408 -0.4701
 6785SOL    HW131991   0.101   4.691  12.921  0.6483  0.2310  0.2285
 6785SOL    HW231992   0.068   4.582  13.010  2.1833  1.6232  0.6833
 6786SOL     OW31993   3.599   3.200  13.770 -0.2988  0.0206 -0.2499
 6786SOL    HW131994   3.533   3.257  13.730  0.4418  0.3385 -1.0058
 6786SOL    HW231995   3.562   3.114  13.748 -3.1270  0.8412  1.2031
 6787SOL     OW31996   3.334   0.521   3.502 -0.0322  0.0574 -0.2668
 6787SOL    HW131997   3.271   0.454   3.477  1.0636 -1.0638  0.0116
 6787SOL    HW231998   3.287   0.603   3.489 -0.3762 -0.1120 -0.0804
 6788SOL     OW31999   1.205   4.232   6.388 -0.2624  0.5712 -0.2497
 6788SOL    HW132000   1.279   4.185   6.351 -0.7951 -0.7634  0.4005
 6788SOL    HW232001   1.232   4.253   6.477 -0.2757 -0.6049  0.0339
 6789SOL     OW32002   3.507   1.782   1.893  0.4918  0.6619 -0.4703
 6789SOL    HW132003   3.446   1.761   1.823 -1.5758 -1.1853  1.8882
 6789SOL    HW232004   3.447   1.799   1.965  0.8195 -1.2127  0.2422
 6790SOL     OW32005   1.105   0.659   0.232  0.1462  0.4049  0.2539
 6790SOL    HW132006   1.084   0.637   0.323  0.5494  0.2231  0.3020
 6790SOL    HW232007   1.186   0.613   0.211 -0.1126 -0.1471  0.4839
 6791SOL     OW32008   2.226   3.432   6.018  0.2229 -0.0612  0.3054
 6791SOL    HW132009   2.278   3.487   6.076 -0.3092 -0.9911  1.6513
 6791SOL    HW232010   2.294   3.391   5.965 -0.4659  0.6428 -1.1528
 6792SOL     OW32011   0.798   4.432   5.426 -0.0767  0.1024  0.7153
 6792SOL    HW132012   0.732   4.386   5.477  1.2047 -0.9273  1.4380
 6792SOL    HW232013   0.825   4.490   5.497  1.1733 -1.4569  1.5175
 6793SOL     OW32014   3.429   1.434   2.052  0.1526  0.0556  0.1912
 6793SOL    HW132015   3.367   1.483   2.106 -0.1582 -0.5465  0.3778
 6793SOL    HW232016   3.466   1.378   2.120 -0.6491 -0.4922  0.1775
 6794SOL     OW32017   3.228   1.888   6.717 -0.8511  0.5445 -0.1432
 6794SOL    HW132018   3.233   1.947   6.642  0.2690  1.0534  0.3399
 6794SOL    HW232019   3.255   1.934   6.797 -0.7097 -0.9695  0.6830
 6795SOL     OW32020   1.765   0.134   8.134  0.1885 -0.1582  0.4321
 6795SOL    HW132021   1.801   0.203   8.191 -1.0332  0.6483  0.2197
 6795SOL    HW232022   1.825   0.121   8.060  1.8345  0.0897  1.7197
 6796SOL     OW32023   1.586   3.956   3.688 -0.3251 -0.3907  0.7110
 6796SOL    HW132024   1.508   3.908   3.715 -1.2465  1.5183  1.4781
 6796SOL    HW232025   1.565   4.040   3.729 -1.9428 -1.0222  1.1598
 6797SOL     OW32026   2.748   3.249  16.093 -0.1607  0.2744 -0.1622
 6797SOL    HW132027   2.790   3.326  16.056  0.0957  1.8262  3.4297
 6797SOL    HW232028   2.698   3.293  16.161 -0.2591 -1.4401  0.8678
 6798SOL     OW32029   2.101   4.645   0.860 -0.0305 -0.0387  0.5457
 6798SOL    HW132030   2.031   4.591   0.823 -0.2631  1.3460 -1.0558
 6798SOL    HW232031   2.146   4.681   0.783 -2.0178 -0.0941 -0.6402
 6799SOL     OW32032   2.325   1.487   7.081  0.0458 -0.3809 -0.0342
 6799SOL    HW132033   2.419   1.475   7.071  0.4067  1.6511  1.1408
 6799SOL    HW232034   2.309   1.458   7.170 -0.5430  1.3857  0.4341
 6800SOL     OW32035   1.377   2.456  13.172  0.1139  0.3210 -0.1018
 6800SOL    HW132036   1.341   2.469  13.084  0.1983 -2.1233 -0.4801
 6800SOL    HW232037   1.400   2.546  13.195  3.4186  0.0209 -2.1361
 6801SOL     OW32038   4.460   3.581   5.446  0.2326 -0.1513  0.6719
 6801SOL    HW132039   4.482   3.669   5.475  4.1787 -1.1269  0.6314
 6801SOL    HW232040   4.543   3.533   5.446  1.5336  2.1164  0.8201
 6802SOL     OW32041   2.433   4.508   8.758  0.3806  0.4823  0.0374
 6802SOL    HW132042   2.387   4.428   8.783 -1.1383  1.7507  1.3494
 6802SOL    HW232043   2.524   4.494   8.784  0.3820  0.4698  0.0253
 6803SOL     OW32044   3.683   2.904   6.565 -0.1173 -0.0874 -0.4329
 6803SOL    HW132045   3.638   2.825   6.535  3.4906 -2.1369 -0.4373
 6803SOL    HW232046   3.723   2.932   6.483 -1.1421  2.2137 -0.1639
 6804SOL     OW32047   3.694   3.230   8.295 -0.1134  0.5332  0.2722
 6804SOL    HW132048   3.721   3.232   8.203  0.1081  1.8490  0.3652
 6804SOL    HW232049   3.600   3.242   8.283  0.2906  2.1850 -1.2431
 6805SOL     OW32050   2.690   0.936   8.468 -0.0323 -0.0054  0.0236
 6805SOL    HW132051   2.722   0.864   8.522 -3.2692 -1.8705 -0.5013
 6805SOL    HW232052   2.608   0.956   8.513  0.4028  1.2811  0.2389
 6806SOL     OW32053   3.758   3.496   4.207 -0.4106  0.5787 -0.1478
 6806SOL    HW132054   3.704   3.530   4.278  0.2221  1.2378  0.0258
 6806SOL    HW232055   3.841   3.469   4.248 -0.1147  1.7135  0.0229
 6807SOL     OW32056   3.460   4.295   6.069  0.4560  0.3510 -0.0116
 6807SOL    HW132057   3.465   4.343   6.151 -0.1886 -1.3882  1.0476
 6807SOL    HW232058   3.406   4.358   6.022  2.6647  1.6649 -0.8143
 6808SOL     OW32059   3.782   1.473   8.784 -0.4062 -0.0783  0.3374
 6808SOL    HW132060   3.785   1.550   8.727  0.2829  2.1929  3.4792
 6808SOL    HW232061   3.689   1.451   8.776 -0.2308 -0.3952 -0.7964
 6809SOL     OW32062   4.366   2.547   2.716  0.1003  0.1635  0.1845
 6809SOL    HW132063   4.462   2.546   2.709 -0.0406  2.1563 -1.8343
 6809SOL    HW232064   4.347   2.525   2.625 -0.3279  0.3987  0.2182
 6810SOL     OW32065   1.265   2.921   4.316 -0.2171  0.4627 -0.3930
 6810SOL    HW132066   1.305   2.850   4.265  0.3640  0.6914 -0.2560
 6810SOL    HW232067   1.196   2.956   4.260  1.0420  1.3292 -1.4132
 6811SOL     OW32068   4.063   1.788   5.475  0.4886 -0.0872  0.1129
 6811SOL    HW132069   4.029   1.749   5.555 -2.0095  0.3889 -0.7063
 6811SOL    HW232070   4.091   1.713   5.423  1.0938 -1.2480  2.1451
 6812SOL     OW32071   4.432   0.337   2.486 -0.1468 -0.2594  0.1705
 6812SOL    HW132072   4.452   0.403   2.552  2.1718  0.4146 -1.2045
 6812SOL    HW232073   4.459   0.379   2.405  0.3560  0.5806  0.7815
 6813SOL     OW32074   3.465   4.346   2.945  0.2961  0.2449 -0.1084
 6813SOL    HW132075   3.438   4.378   2.859  1.2779 -2.0988 -1.2605
 6813SOL    HW232076   3.496   4.428   2.984  0.6442  0.0649 -0.0033
 6814SOL     OW32077   2.801   0.812   5.807  0.4104 -0.2305 -0.0133
 6814SOL    HW132078   2.866   0.871   5.845  0.0505  1.1489 -1.5682
 6814SOL    HW232079   2.852   0.777   5.734 -0.6865 -2.3795  0.2404
 6815SOL     OW32080   2.886   4.180   2.929 -0.1515 -0.0111 -0.4693
 6815SOL    HW132081   2.898   4.140   3.015  0.1753  0.4874 -0.2820
 6815SOL    HW232082   2.977   4.176   2.899 -0.9283 -0.1759 -2.8027
 6816SOL     OW32083   0.811   2.348  17.345  0.3346 -0.2058 -0.2007
 6816SOL    HW132084   0.749   2.281  17.317  0.1924 -0.5377  0.8927
 6816SOL    HW232085   0.803   2.327  17.438  1.0913 -0.6141 -0.2246
 6817SOL     OW32086   0.978   4.224   0.637 -0.0370 -0.0387 -0.1893
 6817SOL    HW132087   0.998   4.198   0.727  0.6970  0.7991 -0.1191
 6817SOL    HW232088   1.027   4.304   0.618 -1.7545  1.2208  0.6028
 6818SOL     OW32089   4.258   2.195   5.859  0.3802 -0.1971 -0.0846
 6818SOL    HW132090   4.321   2.138   5.814 -0.5949 -2.2274  1.1405
 6818SOL    HW232091   4.290   2.201   5.949 -1.6540  1.0002  0.5539
 6819SOL     OW32092   0.136   4.690   5.758 -0.3231 -0.2983 -0.4695
 6819SOL    HW132093   0.107   4.716   5.846 -0.5994  1.2995 -1.0291
 6819SOL    HW232094   0.227   4.669   5.779 -0.9017  0.4559  2.8517
 6820SOL     OW32095   3.826   2.907   6.309 -0.1003  0.2365 -0.5903
 6820SOL    HW132096   3.886   2.916   6.235  0.1980 -0.4277 -0.4321
 6820SOL    HW232097   3.785   2.821   6.298 -1.1335  0.8181 -1.2949
 6821SOL     OW32098   2.615   0.935  15.211  0.1830 -0.1440  0.2262
 6821SOL    HW132099   2.655   1.018  15.236  0.4270 -0.5314  1.1177
 6821SOL    HW232100   2.682   0.871  15.235  0.9824  0.9050  0.7678
 6822SOL     OW32101   2.733   3.886  12.539 -0.2106 -0.0385 -0.2899
 6822SOL    HW132102   2.828   3.880  12.539 -0.0325  2.8353  0.6503
 6822SOL    HW232103   2.722   3.915  12.630 -2.9278  0.8343 -0.8693
 6823SOL     OW32104   0.796   3.060   7.873  0.2532  0.0263 -0.1217
 6823SOL    HW132105   0.752   2.981   7.902 -0.7074  0.4475 -0.4312
 6823SOL    HW232106   0.788   3.042   7.779 -0.2390 -0.8735  0.0898
 6824SOL     OW32107   1.615   1.742   9.919  0.0567  0.8060 -0.1393
 6824SOL    HW132108   1.670   1.772   9.991  0.7911 -1.7761  0.3784
 6824SOL    HW232109   1.537   1.797   9.912 -0.5874 -0.0681  0.1988
 6825SOL     OW32110   0.662   2.859  13.198 -0.2739 -0.1906 -0.0546
 6825SOL    HW132111   0.716   2.919  13.251 -0.5704 -1.6166  1.8632
 6825SOL    HW232112   0.590   2.919  13.179  1.0459  0.9590 -1.5238
 6826SOL     OW32113   4.125   0.094   3.590 -0.0044 -0.1467 -0.4483
 6826SOL    HW132114   4.202   0.140   3.622 -0.9305 -0.6222  2.4982
 6826SOL    HW232115   4.149   0.077   3.499  0.0413  3.6453 -1.1164
 6827SOL     OW32116   0.184   4.107   0.350 -0.7785  0.1976  0.2678
 6827SOL    HW132117   0.246   4.067   0.411  0.4726  2.1654  0.2915
 6827SOL    HW232118   0.219   4.196   0.349 -1.7213  0.5676  0.1072
 6828SOL     OW32119   0.692   2.035   6.130 -0.1057  0.7493  0.4289
 6828SOL    HW132120   0.732   1.951   6.152  0.4372  0.0984 -3.0536
 6828SOL    HW232121   0.606   2.002   6.106  1.0693  0.4637 -3.4165
 6829SOL     OW32122   1.878   0.602   6.421 -0.4361  0.4335  0.0685
 6829SOL    HW132123   1.917   0.659   6.355 -2.1403  1.5871  0.0647
 6829SOL    HW232124   1.909   0.515   6.393 -1.0831  0.4801 -0.7714
 6830SOL     OW32125   2.258   0.071  13.317 -0.3287 -0.1114  0.5067
 6830SOL    HW132126   2.222   0.146  13.364  0.9851  0.5610  0.4472
 6830SOL    HW232127   2.249   4.734  13.377  0.2146 -0.2452  0.4286
 6831SOL     OW32128   1.246   4.540  16.285  0.3660 -0.0161 -0.1061
 6831SOL    HW132129   1.161   4.564  16.322  0.0650  0.1196 -0.8856
 6831SOL    HW232130   1.229   4.447  16.273  0.7302 -0.2877  1.5046
 6832SOL     OW32131   1.788   2.970   2.110  0.4528  0.0815 -0.1002
 6832SOL    HW132132   1.743   3.028   2.049  2.3735  2.8201  1.0881
 6832SOL    HW232133   1.865   2.941   2.061  0.4304 -0.0316 -0.0694
 6833SOL     OW32134   3.128   4.490   2.788  0.1552  0.0220 -0.1202
 6833SOL    HW132135   3.089   4.498   2.701  0.8845 -1.3747 -0.5832
 6833SOL    HW232136   3.216   4.452   2.776  0.6372  0.8127  0.8947
 6834SOL     OW32137   1.504   2.809  11.293 -0.0377 -0.0602  0.3495
 6834SOL    HW132138   1.466   2.854  11.217  0.8632 -0.4329 -0.3252
 6834SOL    HW232139   1.567   2.874  11.325  0.5405 -1.0703  1.2815
 6835SOL     OW32140   1.221   3.237   3.786  0.5075 -0.4530  0.5986
 6835SOL    HW132141   1.131   3.227   3.817 -0.0021  0.3498 -0.6445
 6835SOL    HW232142   1.217   3.206   3.696  0.0602  1.4728 -0.0401
 6836SOL     OW32143   1.952   2.317   7.005  0.6338  0.2973  0.3102
 6836SOL    HW132144   1.983   2.405   7.024  4.1559 -1.0908  0.9992
 6836SOL    HW232145   1.905   2.334   6.923  1.6155 -0.1606 -0.3520
 6837SOL     OW32146   2.476   1.682  10.772  0.4565 -0.3975 -0.2124
 6837SOL    HW132147   2.533   1.674  10.696  1.3362  0.9355  0.3137
 6837SOL    HW232148   2.544   1.676  10.839 -0.5014  0.8205  0.8539
 6838SOL     OW32149   4.260   4.396   4.480  0.1194  0.4205 -0.1010
 6838SOL    HW132150   4.211   4.334   4.425  1.0639  0.9135 -1.4863
 6838SOL    HW232151   4.304   4.452   4.416  0.9888 -1.2805 -1.0197
 6839SOL     OW32152   3.642   2.496   3.153 -0.4623 -0.9807  0.0031
 6839SOL    HW132153   3.641   2.403   3.131  0.9186 -1.4719  2.0456
 6839SOL    HW232154   3.550   2.510   3.175 -0.1619 -0.7928  1.1424
 6840SOL     OW32155   0.414   3.051   9.528 -0.2023 -0.2283  0.7169
 6840SOL    HW132156   0.407   3.080   9.437  0.4526 -0.7918  0.4911
 6840SOL    HW232157   0.330   3.011   9.552 -1.8645  1.4800 -2.2187
 6841SOL     OW32158   4.716   1.578  15.168 -0.2707  0.2727  1.2136
 6841SOL    HW132159   4.626   1.554  15.146  0.1732 -0.3868  0.1071
 6841SOL    HW232160   4.710   1.673  15.163  1.0096  0.2517 -0.6551
 6842SOL     OW32161   4.145   1.011   5.293 -0.3531  0.4153  0.0568
 6842SOL    HW132162   4.131   0.923   5.258 -1.5035 -0.0226  1.5972
 6842SOL    HW232163   4.170   1.056   5.213  1.0198  1.5593  1.1236
 6843SOL     OW32164   4.087   1.076   9.005  0.2172  0.5702  0.4555
 6843SOL    HW132165   3.995   1.081   9.028  0.1261  0.1352  0.1932
 6843SOL    HW232166   4.127   1.059   9.090  0.6612 -0.2986  0.0771
 6844SOL     OW32167   0.250   3.481   7.226  0.1924  0.0387  0.2745
 6844SOL    HW132168   0.212   3.476   7.139 -1.5030  0.3668  1.0052
 6844SOL    HW232169   0.303   3.560   7.213  1.7435 -1.1304 -0.6014
 6845SOL     OW32170   1.086   2.118  15.976  0.0747 -0.0157  0.9976
 6845SOL    HW132171   1.042   2.152  15.898  1.5076 -1.6254 -0.5266
 6845SOL    HW232172   1.179   2.116  15.951 -0.6503 -2.4257 -1.6035
 6846SOL     OW32173   1.207   0.225   7.201 -0.0997  0.4645  0.2113
 6846SOL    HW132174   1.157   0.224   7.119  2.0488 -0.6025 -1.0786
 6846SOL    HW232175   1.152   0.167   7.253  1.3268 -0.3013  0.8571
 6847SOL     OW32176   1.231   2.595  11.646 -0.1355  0.6140 -0.5212
 6847SOL    HW132177   1.271   2.650  11.714  1.8727 -0.1048 -1.1190
 6847SOL    HW232178   1.236   2.641  11.562  0.6025 -0.4099 -1.0365
 6848SOL     OW32179   1.230   2.813   3.901 -0.1820  0.2459  0.0636
 6848SOL    HW132180   1.279   2.759   3.964 -0.9481  0.3524  0.7543
 6848SOL    HW232181   1.218   2.744   3.835  1.3210  0.3203 -0.3048
 6849SOL     OW32182   0.376   3.134  15.744  0.0665 -0.2624 -0.0425
 6849SOL    HW132183   0.348   3.050  15.708 -0.7264  0.5959 -1.4062
 6849SOL    HW232184   0.462   3.148  15.704  0.5963 -2.6943  0.2230
 6850SOL     OW32185   4.339   0.167  11.498  0.3948 -0.5544  0.0559
 6850SOL    HW132186   4.337   0.262  11.509 -0.2720 -0.6328  0.6372
 6850SOL    HW232187   4.434   0.157  11.496  0.3258 -1.1846  0.0142
 6851SOL     OW32188   4.520   3.909   3.982 -0.0937  0.1583  0.3244
 6851SOL    HW132189   4.590   3.972   4.001 -1.6269  1.2288  2.4644
 6851SOL    HW232190   4.447   3.966   4.005  0.6730  1.0056  0.6638
 6852SOL     OW32191   2.994   0.355  15.780  0.1192  0.0263  0.1326
 6852SOL    HW132192   2.919   0.414  15.788  1.1476  1.2450  0.8888
 6852SOL    HW232193   2.996   0.341  15.686  1.8361 -0.0612  0.1817
 6853SOL     OW32194   2.806   0.442   0.136 -0.0846 -0.1884  0.5956
 6853SOL    HW132195   2.827   0.491   0.057  1.8294 -0.5990  0.8545
 6853SOL    HW232196   2.863   0.366   0.148  0.5029  0.4909  2.1918
 6854SOL     OW32197   1.049   3.516   3.838 -0.5604 -0.0958 -0.4481
 6854SOL    HW132198   0.972   3.568   3.815 -0.2856  0.5020 -0.0262
 6854SOL    HW232199   1.015   3.474   3.916  2.4423 -0.3373  0.7248
 6855SOL     OW32200   0.311   2.492   4.894  0.8375 -0.2995  0.2476
 6855SOL    HW132201   0.331   2.525   4.807 -1.6382 -0.4921 -0.3839
 6855SOL    HW232202   0.395   2.507   4.937  0.0510  2.5737  0.8208
 6856SOL     OW32203   4.223   2.582  12.595 -0.6761  0.4618  0.3236
 6856SOL    HW132204   4.170   2.632  12.658 -2.0125 -2.7313  1.7088
 6856SOL    HW232205   4.213   2.491  12.622 -1.2909  0.6174  0.6167
 6857SOL     OW32206   4.513   0.961  16.861  0.3307  0.5177  0.3138
 6857SOL    HW132207   4.474   0.888  16.908  0.9674 -0.4508 -0.6685
 6857SOL    HW232208   4.444   1.013  16.820  1.0839 -0.6738 -2.5174
 6858SOL     OW32209   4.276   3.209   1.813  0.5750  0.4588 -0.9249
 6858SOL    HW132210   4.299   3.135   1.869  0.4140  0.5321 -0.7626
 6858SOL    HW232211   4.349   3.269   1.830 -0.3205  1.3304 -0.2039
 6859SOL     OW32212   0.362   3.206   8.468 -0.2183 -0.1425 -0.1412
 6859SOL    HW132213   0.291   3.171   8.415  0.5957  0.3904 -1.5960
 6859SOL    HW232214   0.431   3.210   8.401 -0.4154 -1.5776 -0.4199
 6860SOL     OW32215   2.563   3.814   0.913  0.6674 -0.2725 -0.2530
 6860SOL    HW132216   2.570   3.908   0.894  1.8263 -0.6963 -1.9677
 6860SOL    HW232217   2.645   3.801   0.960  0.3700 -0.6990  0.1498
 6861SOL     OW32218   2.008   0.318   6.357 -0.3009  0.0969  0.6904
 6861SOL    HW132219   2.000   0.336   6.263  3.1689 -0.6057  0.2523
 6861SOL    HW232220   1.964   0.233   6.355 -1.6457  0.8096  0.4042
 6862SOL     OW32221   0.062   1.796   5.553  0.1744 -0.8875 -0.3229
 6862SOL    HW132222   0.005   1.805   5.477 -2.1286 -1.4225  1.3466
 6862SOL    HW232223   0.017   1.827   5.631  1.8478 -1.1818  0.7465
 6863SOL     OW32224   1.813   3.896   7.633  0.4496 -0.1880 -0.3125
 6863SOL    HW132225   1.808   3.807   7.668  0.0880  0.0297  0.1876
 6863SOL    HW232226   1.872   3.943   7.692 -0.2367  0.1281  0.1247
 6864SOL     OW32227   4.103   1.520  12.559 -0.0571  0.1211  0.2880
 6864SOL    HW132228   4.152   1.595  12.524  0.7898  0.0501  1.3269
 6864SOL    HW232229   4.103   1.456  12.488 -1.5236  0.3025  0.1163
 6865SOL     OW32230   2.253   2.866   8.533  0.4946 -0.2492  0.1023
 6865SOL    HW132231   2.260   2.961   8.545 -1.0540 -0.0526 -0.4318
 6865SOL    HW232232   2.322   2.852   8.469  0.6106 -0.3068  0.2408
 6866SOL     OW32233   2.553   3.896   1.206  0.1679 -0.2455 -0.3457
 6866SOL    HW132234   2.603   3.819   1.181  1.4884  0.6572 -0.4952
 6866SOL    HW232235   2.629   3.955   1.213 -0.4581  0.2965  1.9453
 6867SOL     OW32236   1.597   2.563  11.266  0.2341 -0.2318  0.6236
 6867SOL    HW132237   1.574   2.654  11.282  2.4329  0.4463 -0.1757
 6867SOL    HW232238   1.519   2.542  11.213  0.6173  3.2085 -1.3404
 6868SOL     OW32239   0.610   2.915  15.582  0.1133  0.1139 -0.5594
 6868SOL    HW132240   0.640   2.910  15.673  0.0958 -0.3640 -0.5749
 6868SOL    HW232241   0.577   2.825  15.573  0.5739 -0.0470 -0.6762
 6869SOL     OW32242   3.364   3.374   9.349  0.5301  0.0706 -0.0997
 6869SOL    HW132243   3.442   3.384   9.405 -0.4581 -0.6969  1.4346
 6869SOL    HW232244   3.298   3.422   9.399  0.7765 -1.3517  1.5815
 6870SOL     OW32245   1.519   4.386  14.790 -0.5104  0.1470  0.2504
 6870SOL    HW132246   1.493   4.330  14.863 -2.2733  1.4399  0.6168
 6870SOL    HW232247   1.432   4.414  14.759 -1.0756 -1.4624  0.3865
 6871SOL     OW32248   1.013   3.177   1.839  0.8376 -0.6101  0.0812
 6871SOL    HW132249   1.015   3.124   1.918  1.2044  0.3451  0.7075
 6871SOL    HW232250   1.100   3.155   1.805  0.6207 -0.8689 -0.3089
 6872SOL     OW32251   2.783   1.200  14.093  0.3191  0.2036 -0.6747
 6872SOL    HW132252   2.748   1.288  14.076  0.6551  0.0669 -2.0875
 6872SOL    HW232253   2.735   1.185  14.174 -0.4509 -0.8081 -1.3219
 6873SOL     OW32254   2.218   3.226   6.636 -0.3460 -0.1077  0.2344
 6873SOL    HW132255   2.184   3.137   6.640  0.3666 -0.4299 -0.9593
 6873SOL    HW232256   2.237   3.253   6.726  0.9591 -1.6837  0.4354
 6874SOL     OW32257   1.555   3.945   6.035 -0.0995  0.2045  0.2861
 6874SOL    HW132258   1.612   3.871   6.017 -0.3721 -0.0703  0.5520
 6874SOL    HW232259   1.469   3.907   6.021 -0.2266  0.4429  0.4177
 6875SOL     OW32260   4.267   0.497   3.395 -0.1271  0.0789  0.4890
 6875SOL    HW132261   4.254   0.491   3.490  0.3913  0.9497  0.6129
 6875SOL    HW232262   4.291   0.589   3.385  1.7628 -0.5314 -0.5131
 6876SOL     OW32263   0.720   2.996   0.756  0.3420 -0.0398 -0.1394
 6876SOL    HW132264   0.727   2.907   0.789  2.4448  0.1357 -0.0726
 6876SOL    HW232265   0.686   3.047   0.830 -0.3943  0.9694 -1.1738
 6877SOL     OW32266   3.448   1.588   1.348 -0.3797 -0.3763 -0.1077
 6877SOL    HW132267   3.421   1.496   1.340 -0.4342 -0.4385  0.8792
 6877SOL    HW232268   3.367   1.629   1.379 -1.4794 -2.0264 -0.7885
 6878SOL     OW32269   2.913   4.688   5.893 -0.1777  0.9068  0.1213
 6878SOL    HW132270   2.958   4.735   5.962 -0.4097  0.4287  0.5954
 6878SOL    HW232271   2.831   0.001   5.886  0.0406  1.1486 -0.7778
 6879SOL     OW32272   0.064   3.819   8.981 -0.5046  0.5594 -0.4237
 6879SOL    HW132273   4.736   3.817   9.052  0.0481 -0.5273  0.0405
 6879SOL    HW232274   0.083   3.913   8.973  2.1296  0.0576 -0.2980
 6880SOL     OW32275   4.064   2.616   6.894 -0.1608  0.2254 -0.2666
 6880SOL    HW132276   4.015   2.670   6.833 -0.1962 -0.1714 -0.5874
 6880SOL    HW232277   4.119   2.573   6.829 -0.9092 -0.7698 -0.2320
 6881SOL     OW32278   3.734   4.486  11.391 -0.0982 -0.4678 -0.1014
 6881SOL    HW132279   3.821   4.456  11.417  0.3076  0.3557 -0.4889
 6881SOL    HW232280   3.723   4.431  11.314  3.1001 -0.6039 -0.4486
 6882SOL     OW32281   0.881   4.531   4.953 -0.2423 -0.1311 -0.0809
 6882SOL    HW132282   0.948   4.537   5.021  0.1396 -2.6726 -0.2236
 6882SOL    HW232283   0.807   4.551   5.010 -1.0323  0.4146 -1.3155
 6883SOL     OW32284   1.617   2.027  16.482  0.0999  0.0285 -0.1537
 6883SOL    HW132285   1.586   1.941  16.510  1.0551  0.0327  0.9193
 6883SOL    HW232286   1.559   2.072  16.544  0.7696 -0.6484  0.9672
 6884SOL     OW32287   3.143   1.081   0.590 -0.2075  0.6067 -0.4768
 6884SOL    HW132288   3.125   1.040   0.506 -3.4439  1.0106  0.0057
 6884SOL    HW232289   3.206   1.148   0.564  0.1299  1.0729  1.5010
 6885SOL     OW32290   4.622   0.495  11.914 -0.3742  0.2214 -0.1395
 6885SOL    HW132291   4.603   0.582  11.949 -0.4163  0.3011 -0.3632
 6885SOL    HW232292   4.541   0.445  11.914  0.4252 -1.0926 -2.6749
 6886SOL     OW32293   3.384   0.657   2.193  0.3334  0.2986  0.1137
 6886SOL    HW132294   3.348   0.745   2.180 -0.1378  0.0868 -0.0031
 6886SOL    HW232295   3.460   0.669   2.137  1.7414 -3.3590  1.2182
 6887SOL     OW32296   4.047   2.786   8.315  0.2194  0.2409 -0.7402
 6887SOL    HW132297   4.058   2.867   8.266  1.7857  0.9000  0.7141
 6887SOL    HW232298   3.994   2.819   8.388  0.7363  1.5016 -0.9318
 6888SOL     OW32299   2.663   4.126   9.106  0.4191  0.2026  0.3251
 6888SOL    HW132300   2.643   4.058   9.041  0.3002  0.8307 -0.2977
 6888SOL    HW232301   2.588   4.118   9.164 -0.5472 -1.9490 -1.2246
 6889SOL     OW32302   3.136   1.278   6.642 -0.4798  0.2282 -1.0336
 6889SOL    HW132303   3.209   1.253   6.700 -1.6441 -3.1945 -1.0459
 6889SOL    HW232304   3.071   1.211   6.661 -1.1474  1.2336  0.2579
 6890SOL     OW32305   3.279   4.280   1.009  0.0535 -0.1861 -0.2232
 6890SOL    HW132306   3.309   4.255   0.921  0.3893 -0.1914 -0.1096
 6890SOL    HW232307   3.199   4.326   0.985  0.9769  0.6213 -1.7742
 6891SOL     OW32308   1.074   3.011   4.061 -0.3546 -0.4789 -0.1839
 6891SOL    HW132309   1.112   2.943   4.005 -1.8773  1.8549 -4.0572
 6891SOL    HW232310   0.993   3.026   4.013  0.0559 -2.7573 -1.6530
 6892SOL     OW32311   3.827   2.083   4.896 -0.6152 -0.0567  0.5357
 6892SOL    HW132312   3.876   2.045   4.823 -2.0343 -0.2746 -0.3106
 6892SOL    HW232313   3.859   2.171   4.877  0.9536 -0.9787 -1.0751
 6893SOL     OW32314   4.642   1.559  12.499 -0.7451  0.3041 -0.0226
 6893SOL    HW132315   4.593   1.552  12.581  0.2743  0.2420  0.5833
 6893SOL    HW232316   4.631   1.465  12.484  2.0030  0.2672 -1.8658
 6894SOL     OW32317   2.232   2.681   8.203  0.3453  0.1261 -0.0849
 6894SOL    HW132318   2.274   2.596   8.188 -1.4163 -0.8679  0.6655
 6894SOL    HW232319   2.306   2.734   8.231 -0.1808  1.8678 -2.0600
 6895SOL     OW32320   1.073   0.441  16.691  0.0382 -0.3344  0.1339
 6895SOL    HW132321   1.060   0.517  16.633 -0.6638 -1.1254 -0.7490
 6895SOL    HW232322   1.091   0.373  16.627  1.0407  0.6641 -0.6409
 6896SOL     OW32323   2.511   1.371   2.156 -0.1928 -0.3584 -0.4045
 6896SOL    HW132324   2.527   1.462   2.132 -2.5792 -0.2255 -1.4773
 6896SOL    HW232325   2.598   1.335   2.140 -0.1704 -0.3792 -0.2313
 6897SOL     OW32326   0.322   2.771   4.950  0.4833  0.3589 -0.3143
 6897SOL    HW132327   0.363   2.759   5.036 -1.5975  0.2667  0.6448
 6897SOL    HW232328   0.343   2.862   4.930  0.7981  0.3332 -0.0981
 6898SOL     OW32329   1.092   4.133   3.869 -0.1839  0.4558 -0.2944
 6898SOL    HW132330   1.090   4.227   3.854  1.4978  0.5745  0.2195
 6898SOL    HW232331   1.013   4.117   3.921  0.5728 -1.7917  0.1777
 6899SOL     OW32332   0.257   3.248   6.484 -0.1133 -0.1186  0.7308
 6899SOL    HW132333   0.246   3.251   6.579  1.8972 -0.6311  0.9898
 6899SOL    HW232334   0.199   3.176   6.461  0.4183 -0.0895 -0.6808
 6900SOL     OW32335   1.939   0.736   8.568  0.6655 -0.1969 -0.8117
 6900SOL    HW132336   1.983   0.654   8.545 -0.1218 -0.2101 -2.3410
 6900SOL    HW232337   1.854   0.726   8.524  1.2660 -1.3805 -1.7127
 6901SOL     OW32338   2.064   2.165  12.464 -0.2598 -0.1156 -0.3231
 6901SOL    HW132339   2.060   2.260  12.464 -0.7837 -0.1378 -0.1609
 6901SOL    HW232340   2.066   2.138  12.555  1.1128  0.8685 -0.0699
 6902SOL     OW32341   0.934   0.641   5.964  0.6232 -0.1264 -0.4467
 6902SOL    HW132342   0.935   0.612   5.873 -1.0314 -0.6100 -0.3031
 6902SOL    HW232343   1.011   0.599   6.001 -0.8348 -1.1835  1.3426
 6903SOL     OW32344   4.609   2.980   1.675  0.6804  0.4366  0.1489
 6903SOL    HW132345   4.622   3.028   1.756 -0.6298 -0.1742  0.7310
 6903SOL    HW232346   4.578   3.048   1.615  3.2852  1.8186  0.3644
 6904SOL     OW32347   4.193   0.347   5.930  0.7315  0.0137 -0.5253
 6904SOL    HW132348   4.195   0.442   5.939  1.4634 -0.1287  0.7869
 6904SOL    HW232349   4.139   0.318   6.003 -1.6480 -0.7960 -2.6024
 6905SOL     OW32350   3.100   0.987   0.332  0.7905  0.7255 -0.3857
 6905SOL    HW132351   3.115   0.946   0.247 -2.0743 -2.5282  0.6749
 6905SOL    HW232352   3.028   1.042   0.301  0.8811 -0.7011 -3.0771
 6906SOL     OW32353   4.682   3.574   6.671 -1.2421  0.4240 -0.6311
 6906SOL    HW132354   4.612   3.632   6.700 -1.4413 -0.1990  0.1311
 6906SOL    HW232355   0.012   3.642   6.656 -1.3381  0.5648 -0.4144
 6907SOL     OW32356   2.719   0.180   2.500  0.4475 -0.3625 -0.3921
 6907SOL    HW132357   2.643   0.167   2.558  0.4326 -1.7441 -0.7143
 6907SOL    HW232358   2.695   0.124   2.426 -0.7066 -3.0865  2.0302
 6908SOL     OW32359   1.200   0.439   6.727 -0.2843  0.1407 -0.7940
 6908SOL    HW132360   1.221   0.457   6.636  1.6572 -2.8336 -0.9443
 6908SOL    HW232361   1.273   0.467   6.782  1.2420  1.6497 -3.5868
 6909SOL     OW32362   1.152   2.609   3.654 -0.4079 -0.2347  0.3783
 6909SOL    HW132363   1.131   2.570   3.570  2.5187 -1.3371  0.1562
 6909SOL    HW232364   1.133   2.699   3.626 -0.3713 -0.3037  0.1362
 6910SOL     OW32365   4.298   1.227  14.580  0.5818  0.1567  0.4557
 6910SOL    HW132366   4.256   1.285  14.642 -2.4873 -0.4527 -1.0213
 6910SOL    HW232367   4.308   1.294  14.512  0.0069  2.0738  2.2965
 6911SOL     OW32368   4.542   2.433  14.988  0.2137 -0.2432  0.0090
 6911SOL    HW132369   4.501   2.426  14.902  0.5464 -1.7622 -0.0360
 6911SOL    HW232370   4.515   2.350  15.027 -1.4869  0.7444  0.8820
 6912SOL     OW32371   1.612   1.494   8.036  0.4580 -0.3251  0.2025
 6912SOL    HW132372   1.640   1.484   8.127  2.0679 -0.6287 -0.3189
 6912SOL    HW232373   1.605   1.402   8.010 -3.3347 -0.0226  0.1670
 6913SOL     OW32374   0.251   3.214   0.407  0.1889 -0.0507  0.3464
 6913SOL    HW132375   0.188   3.286   0.401 -0.3744 -0.5091  0.7591
 6913SOL    HW232376   0.198   3.135   0.397  0.4966 -0.5161  2.3718
 6914SOL     OW32377   3.605   3.447   1.644  0.0695  0.4033  0.1984
 6914SOL    HW132378   3.548   3.448   1.722 -0.1351  1.0970  0.0365
 6914SOL    HW232379   3.677   3.388   1.665 -0.0846 -0.1805 -0.8964
 6915SOL     OW32380   3.297   0.837   3.192 -0.9841  0.6849 -0.0810
 6915SOL    HW132381   3.355   0.774   3.234 -0.4513  0.7618 -0.6892
 6915SOL    HW232382   3.269   0.777   3.123  0.6526 -0.4010  0.1945
 6916SOL     OW32383   1.029   3.079  13.713 -0.2344 -0.2734 -0.1384
 6916SOL    HW132384   1.117   3.042  13.715  0.1944  0.6919 -1.5081
 6916SOL    HW232385   0.983   3.045  13.790 -0.0044  1.9789  0.9932
 6917SOL     OW32386   3.399   4.355   1.565 -0.0832  0.3730 -0.3395
 6917SOL    HW132387   3.352   4.430   1.601 -1.3334  0.3363 -1.8784
 6917SOL    HW232388   3.359   4.280   1.609  0.7809  1.2584  1.9295
 6918SOL     OW32389   1.386   1.812   8.174 -0.2417 -0.2046 -0.6679
 6918SOL    HW132390   1.410   1.866   8.250  0.4311  0.1431 -1.1287
 6918SOL    HW232391   1.387   1.878   8.105 -1.0884 -0.3943 -0.8643
 6919SOL     OW32392   4.285   0.934   8.568 -0.1642  0.1275  0.4265
 6919SOL    HW132393   4.325   0.951   8.653  1.5364 -0.5130 -0.2444
 6919SOL    HW232394   4.274   1.022   8.532 -1.7125 -0.4465 -0.4899
 6920SOL     OW32395   1.143   0.895   7.363 -0.2752  0.2434  0.7957
 6920SOL    HW132396   1.090   0.936   7.295  0.4000 -0.2287 -0.0089
 6920SOL    HW232397   1.113   0.928   7.448 -1.3940 -0.9027  0.8371
 6921SOL     OW32398   4.594   2.721   2.893 -0.4431 -0.9942  0.5848
 6921SOL    HW132399   4.611   2.628   2.878 -0.2149 -0.9981  0.8838
 6921SOL    HW232400   4.657   2.736   2.963  0.0117 -1.8511  0.3545
 6922SOL     OW32401   2.199   0.395   4.893  0.1970  0.2445 -0.0282
 6922SOL    HW132402   2.107   0.395   4.868  0.3193  0.3791 -0.4870
 6922SOL    HW232403   2.216   0.484   4.925  1.0087 -0.2251  0.8345
 6923SOL     OW32404   2.116   3.172   5.334 -0.0939 -0.3834 -0.3789
 6923SOL    HW132405   2.103   3.220   5.252  2.2731  1.1485  0.1384
 6923SOL    HW232406   2.157   3.240   5.387  0.6963 -1.2534  0.1217
 6924SOL     OW32407   1.155   1.005   9.588 -0.3334  0.1858  0.2386
 6924SOL    HW132408   1.172   0.986   9.681  0.6843  0.3120  0.0745
 6924SOL    HW232409   1.151   1.101   9.594  0.6005  0.2474 -0.1561
 6925SOL     OW32410   2.026   0.336   6.993  0.5262  0.1381  0.7635
 6925SOL    HW132411   2.045   0.427   7.015 -2.4605  1.1963 -1.1438
 6925SOL    HW232412   1.936   0.340   6.962  0.9081  0.1361 -0.3218
 6926SOL     OW32413   3.839   2.544  11.864 -0.5884 -0.0856  0.0532
 6926SOL    HW132414   3.780   2.562  11.937 -0.5086 -0.3799  0.1926
 6926SOL    HW232415   3.923   2.549  11.910  0.1200 -0.2351 -1.2238
 6927SOL     OW32416   4.475   1.456  10.852  0.0599  0.3237 -0.3440
 6927SOL    HW132417   4.522   1.508  10.917  1.8643 -1.9988  0.1898
 6927SOL    HW232418   4.515   1.483  10.769 -0.0597 -1.6023 -1.0092
 6928SOL     OW32419   1.828   1.915   7.852  0.2351  0.0629 -0.3998
 6928SOL    HW132420   1.798   2.004   7.869 -0.8013 -0.2394 -0.6583
 6928SOL    HW232421   1.756   1.852   7.862 -1.7922  2.3964 -0.1970
 6929SOL     OW32422   0.167   4.066   4.350 -0.1233 -0.2268 -0.3889
 6929SOL    HW132423   0.184   4.036   4.261 -1.9326 -1.9860 -0.1505
 6929SOL    HW232424   0.232   4.012   4.395  0.9306 -0.8743 -2.7009
 6930SOL     OW32425   3.377   0.257  12.528 -0.3903  0.4894  0.0079
 6930SOL    HW132426   3.342   0.172  12.502  1.0051  0.8829 -3.2275
 6930SOL    HW232427   3.424   0.234  12.608 -2.0507  2.8083  1.6343
 6931SOL     OW32428   4.292   4.541   6.901  0.1377  0.6467 -0.7889
 6931SOL    HW132429   4.385   4.545   6.923  0.2661  0.6728 -1.3338
 6931SOL    HW232430   4.261   4.632   6.898 -1.2733  0.1947  0.5705
 6932SOL     OW32431   0.799   3.847   2.772  0.2887 -0.2427  0.6742
 6932SOL    HW132432   0.852   3.841   2.692 -0.4273  2.2894  0.0080
 6932SOL    HW232433   0.852   3.800   2.836 -0.1006  1.2914  2.1205
 6933SOL     OW32434   0.983   0.211   7.636  0.3120  0.3684  0.7303
 6933SOL    HW132435   0.927   0.137   7.658  1.5861 -0.9789 -0.5244
 6933SOL    HW232436   0.956   0.275   7.702 -1.5418 -1.0957  1.3959
 6934SOL     OW32437   2.187   0.837  11.541  0.1017  0.0198 -0.0375
 6934SOL    HW132438   2.196   0.840  11.446 -1.1839  2.5054 -0.0641
 6934SOL    HW232439   2.239   0.762  11.571  1.0480  0.9657  0.6876
 6935SOL     OW32440   2.861   0.681   3.028  0.0411  0.0523 -0.0566
 6935SOL    HW132441   2.897   0.667   3.115  0.2787 -3.2104 -0.6850
 6935SOL    HW232442   2.808   0.758   3.049 -1.7306 -1.2139 -0.0007
 6936SOL     OW32443   4.088   3.643   0.472  0.3934  0.1410  0.3380
 6936SOL    HW132444   4.149   3.660   0.544  0.4593 -0.2902  0.3848
 6936SOL    HW232445   4.080   3.732   0.437  3.6021 -0.6005 -2.3291
 6937SOL     OW32446   3.118   2.045   3.489  0.4180  0.3162 -0.4514
 6937SOL    HW132447   3.096   2.120   3.433 -0.9522  0.7259  0.6389
 6937SOL    HW232448   3.032   2.032   3.530 -0.0706 -2.7971 -2.4425
 6938SOL     OW32449   2.345   0.839   2.604 -0.3848 -0.1593 -0.1098
 6938SOL    HW132450   2.393   0.919   2.626 -0.5743 -0.5883  1.8897
 6938SOL    HW232451   2.382   0.814   2.519  1.1242 -2.8048  1.3208
 6939SOL     OW32452   0.234   2.321  11.559  0.0596  0.1142 -0.7496
 6939SOL    HW132453   0.186   2.339  11.640 -0.4118  0.0089 -1.0062
 6939SOL    HW232454   0.218   2.227  11.553 -1.6294  0.3943 -0.3945
 6940SOL     OW32455   2.687   2.645   5.587  0.2725  0.7693 -0.2324
 6940SOL    HW132456   2.716   2.728   5.625  1.9237 -1.4055  3.2385
 6940SOL    HW232457   2.618   2.678   5.530  0.5777  1.0724 -0.4318
 6941SOL     OW32458   1.440   2.134   4.780 -0.0222  0.3533  1.0684
 6941SOL    HW132459   1.515   2.186   4.809  0.1022  0.1149  1.1706
 6941SOL    HW232460   1.393   2.191   4.719 -2.0604 -0.7895  1.5550
 6942SOL     OW32461   4.616   3.492  11.999  0.1740  0.3116 -0.0719
 6942SOL    HW132462   4.589   3.559  11.936 -1.5976  2.0101  2.5447
 6942SOL    HW232463   4.538   3.437  11.992  0.9163 -0.2020 -4.5909
 6943SOL     OW32464   1.157   2.536  13.428  0.2933  0.3867 -0.2203
 6943SOL    HW132465   1.247   2.557  13.454 -0.1782 -0.3544  2.0646
 6943SOL    HW232466   1.131   2.617  13.384  0.7956 -0.2600 -1.7134
 6944SOL     OW32467   3.307   0.807  16.837 -0.3985  0.0328  0.0369
 6944SOL    HW132468   3.355   0.873  16.788  0.6512 -2.2129 -1.9970
 6944SOL    HW232469   3.344   0.822  16.924  0.7474 -2.5317 -0.0067
 6945SOL     OW32470   3.990   4.561   7.935  0.0158  0.2218  0.3046
 6945SOL    HW132471   3.915   4.619   7.941 -0.1222 -0.2248  2.6128
 6945SOL    HW232472   4.022   4.566   7.845 -0.4269  2.4811  0.2888
 6946SOL     OW32473   3.756   3.056   5.870  0.0632  0.2056  0.0373
 6946SOL    HW132474   3.667   3.087   5.885  0.8705  1.8611  1.3424
 6946SOL    HW232475   3.780   3.072   5.961 -1.3636  0.2922  0.3999
 6947SOL     OW32476   2.373   1.993   2.248  0.4003 -0.6620  0.0538
 6947SOL    HW132477   2.346   1.969   2.336  0.9538 -1.0531  0.1180
 6947SOL    HW232478   2.465   1.969   2.255  0.9825  1.6327  0.1384
 6948SOL     OW32479   3.079   4.650   3.017  0.0681 -0.1596  0.3237
 6948SOL    HW132480   3.102   4.574   3.071 -0.3858  0.1224  0.9216
 6948SOL    HW232481   3.095   4.622   2.927 -3.6548 -1.8705  0.1722
 6949SOL     OW32482   3.577   3.894   8.053 -0.2275 -0.0655  0.3027
 6949SOL    HW132483   3.655   3.946   8.035 -0.5881 -0.0725 -1.2436
 6949SOL    HW232484   3.542   3.944   8.127 -0.2517  1.0515 -0.4680
 6950SOL     OW32485   0.466   4.627   3.144  0.2889 -0.2121  0.6398
 6950SOL    HW132486   0.477   4.709   3.192  2.1257  0.2278 -0.5264
 6950SOL    HW232487   0.492   4.638   3.053  0.2364 -0.0371  0.6452
 6951SOL     OW32488   1.056   4.320   5.811 -0.3785 -0.3040  0.1180
 6951SOL    HW132489   1.045   4.302   5.905 -1.2813 -2.8849 -0.4875
 6951SOL    HW232490   1.136   4.273   5.790 -1.0882 -0.5398 -2.1155
 6952SOL     OW32491   2.593   0.149   6.494  0.7401  0.3296  0.0859
 6952SOL    HW132492   2.573   0.134   6.586 -1.7342 -1.4249 -0.7288
 6952SOL    HW232493   2.664   0.211   6.510 -0.1471  1.1865  0.7093
 6953SOL     OW32494   3.803   2.462   1.571 -0.2547 -0.5631 -0.1547
 6953SOL    HW132495   3.879   2.407   1.553  0.4816  0.1671  0.7653
 6953SOL    HW232496   3.745   2.404   1.621  0.9811 -1.1047  0.6207
 6954SOL     OW32497   4.253   2.871   8.005  0.2227 -0.0309 -0.4118
 6954SOL    HW132498   4.172   2.823   7.985  1.1425 -0.8203 -2.2608
 6954SOL    HW232499   4.218   2.959   7.991 -0.0097  0.0572  0.7542
 6955SOL     OW32500   2.051   0.093  10.110 -0.0930  0.2764  0.1777
 6955SOL    HW132501   2.125   0.072  10.053 -0.2382 -0.4015  0.2375
 6955SOL    HW232502   2.094   0.056  10.188 -0.5398  2.0292  1.2678
 6956SOL     OW32503   3.622   2.199   8.091 -0.4616 -0.9335  0.2531
 6956SOL    HW132504   3.635   2.294   8.102  2.2949 -1.6673  3.2640
 6956SOL    HW232505   3.599   2.166   8.177 -1.5489 -0.8668 -0.0067
 6957SOL     OW32506   2.800   1.597   7.337 -0.1882  0.0572 -0.4219
 6957SOL    HW132507   2.828   1.672   7.389 -0.8271 -0.1708  0.2548
 6957SOL    HW232508   2.885   1.563   7.310  0.3677  0.6562  0.5744
 6958SOL     OW32509   3.885   0.709  14.322 -0.1502 -0.0646  0.1552
 6958SOL    HW132510   3.896   0.614  14.321  0.4734 -0.0173  2.6712
 6958SOL    HW232511   3.974   0.745  14.328 -0.3145  0.1069  1.7251
 6959SOL     OW32512   3.286   0.438  16.150 -0.1363 -0.1806 -0.0273
 6959SOL    HW132513   3.288   0.509  16.215 -0.8675 -0.3804  0.2135
 6959SOL    HW232514   3.250   0.486  16.075  0.5298  0.3676  0.0077
 6960SOL     OW32515   3.984   3.941  15.268 -0.0256 -1.0288 -0.5031
 6960SOL    HW132516   4.004   3.874  15.333 -0.0229  0.1837  0.7498
 6960SOL    HW232517   4.038   3.925  15.191  1.2494 -0.1145  0.2058
 6961SOL     OW32518   0.080   1.398  15.335 -0.6436 -0.0452 -0.3406
 6961SOL    HW132519   0.099   1.441  15.418  0.9352 -0.4077 -0.5089
 6961SOL    HW232520   0.057   1.471  15.278  2.6896 -0.4592 -2.1779
 6962SOL     OW32521   0.339   3.961   2.079 -0.1302  0.6125 -0.2810
 6962SOL    HW132522   0.376   3.978   1.992  1.0992 -1.1018 -0.0749
 6962SOL    HW232523   0.274   4.030   2.066 -0.5295  0.5587  1.4471
 6963SOL     OW32524   0.919   4.683   6.499  0.0102  0.1998 -0.0201
 6963SOL    HW132525   0.916   4.626   6.422 -0.2551  0.9388 -0.5557
 6963SOL    HW232526   1.014   4.677   6.511  0.2166 -0.5761 -1.9871
 6964SOL     OW32527   1.531   0.503  15.162  0.5159  0.1481  0.3847
 6964SOL    HW132528   1.500   0.430  15.216  0.2222  0.9438  1.2832
 6964SOL    HW232529   1.496   0.473  15.078  1.1284 -1.6516  0.7701
 6965SOL     OW32530   4.451   0.497   2.197  0.0524  0.9704 -0.2188
 6965SOL    HW132531   4.373   0.530   2.152  0.1140  3.1064  1.2658
 6965SOL    HW232532   4.469   0.558   2.268  2.2200  0.4320 -0.2984
 6966SOL     OW32533   3.866   3.381   4.681  0.5092  0.1557  0.4415
 6966SOL    HW132534   3.880   3.395   4.587 -0.7112 -1.2657  0.0425
 6966SOL    HW232535   3.878   3.468   4.718  0.0001 -0.1660  1.3545
 6967SOL     OW32536   1.878   3.527   8.210 -0.6640  0.0010 -0.1135
 6967SOL    HW132537   1.917   3.571   8.135  1.6540 -0.5283  0.7741
 6967SOL    HW232538   1.957   3.491   8.250 -1.4475 -0.6744  0.8247
 6968SOL     OW32539   3.224   2.644   7.444  0.4199  0.4832 -0.3728
 6968SOL    HW132540   3.203   2.627   7.352 -2.6160  2.0647  0.0183
 6968SOL    HW232541   3.144   2.684   7.479 -0.5185 -0.7633 -1.1041
 6969SOL     OW32542   2.966   2.801   2.628  0.8177  0.1148  0.1293
 6969SOL    HW132543   3.039   2.861   2.618  0.9679  0.0211  0.7044
 6969SOL    HW232544   2.913   2.842   2.697  1.0190  1.5521 -0.5771
 6970SOL     OW32545   1.232   1.402   6.101  0.0232 -0.4068 -0.5146
 6970SOL    HW132546   1.309   1.375   6.151 -0.6832  0.2836  0.9425
 6970SOL    HW232547   1.218   1.326   6.045 -3.1026  1.2407 -1.9784
 6971SOL     OW32548   3.894   0.071   3.359  0.0776 -0.0273 -0.0591
 6971SOL    HW132549   3.989   0.070   3.346 -0.1850  0.0507 -1.9183
 6971SOL    HW232550   3.886   4.716   3.385 -0.9448 -0.0896 -0.5816
 6972SOL     OW32551   2.346   0.811  15.179 -0.0266 -0.4434  0.0210
 6972SOL    HW132552   2.268   0.850  15.141  0.2482 -0.4061 -0.5009
 6972SOL    HW232553   2.396   0.890  15.200  0.7796 -0.5570 -1.4816
 6973SOL     OW32554   2.724   2.126   9.330  0.3554  0.4869 -0.1646
 6973SOL    HW132555   2.734   2.043   9.285 -1.6761 -0.2820  0.8276
 6973SOL    HW232556   2.738   2.106   9.422 -0.1137  2.0725  0.2583
 6974SOL     OW32557   1.361   4.470   8.600 -0.4460 -0.0310 -0.2326
 6974SOL    HW132558   1.357   4.556   8.558  0.2450  0.0417 -0.1495
 6974SOL    HW232559   1.434   4.435   8.550  1.1576  3.2814 -0.2339
 6975SOL     OW32560   2.298   2.149   0.154  0.6084  0.1083 -0.7965
 6975SOL    HW132561   2.228   2.215   0.158 -0.0533 -0.5648 -1.1986
 6975SOL    HW232562   2.372   2.206   0.173  2.1077 -1.7825 -0.9966
 6976SOL     OW32563   1.019   4.438   3.092  0.2269  0.2167 -0.0343
 6976SOL    HW132564   0.977   4.424   3.007 -3.6175 -1.2999  2.0840
 6976SOL    HW232565   1.100   4.389   3.081  0.1541  0.0522  0.1670
 6977SOL     OW32566   1.924   4.658   3.850  0.1151 -0.1326  0.0140
 6977SOL    HW132567   1.971   4.734   3.816 -0.4110 -0.1939 -0.8281
 6977SOL    HW232568   1.834   4.690   3.849  0.8389  1.9181 -0.5402
 6978SOL     OW32569   0.333   3.704  10.452 -0.2113 -0.7331  0.4180
 6978SOL    HW132570   0.240   3.720  10.441  0.0328  0.1116 -0.4217
 6978SOL    HW232571   0.360   3.736  10.366 -1.2009  0.8881  0.7220
 6979SOL     OW32572   4.468   2.946  14.731 -0.5223 -0.3020 -0.3048
 6979SOL    HW132573   4.533   3.000  14.685 -1.1337  0.5821 -0.1180
 6979SOL    HW232574   4.483   2.864  14.682  0.1241  0.1422 -0.8558
 6980SOL     OW32575   3.807   2.024   7.273 -0.0607 -0.3717 -0.4249
 6980SOL    HW132576   3.725   2.069   7.294  0.4659  0.4706 -0.1265
 6980SOL    HW232577   3.865   2.096   7.245  3.1790 -2.5301  0.7812
 6981SOL     OW32578   3.871   4.198  13.097 -0.5828  0.2428  0.3093
 6981SOL    HW132579   3.866   4.283  13.141  0.3536 -0.4804  1.8292
 6981SOL    HW232580   3.882   4.138  13.171 -2.1818 -1.1479 -0.5789
 6982SOL     OW32581   3.512   3.840  16.806  0.6565  0.3810  0.3410
 6982SOL    HW132582   3.438   3.887  16.767  1.5560  2.5559  1.2796
 6982SOL    HW232583   3.535   3.794  16.725  0.0891 -0.6966  0.7910
 6983SOL     OW32584   1.211   2.405  12.023 -0.8740  0.5037 -0.0860
 6983SOL    HW132585   1.237   2.317  11.995 -1.6942  0.2500 -0.0667
 6983SOL    HW232586   1.280   2.429  12.085 -0.0955 -2.2623  0.1274
 6984SOL     OW32587   2.838   1.084  10.167  0.0503 -0.4457  0.1891
 6984SOL    HW132588   2.775   1.151  10.196 -0.3902 -0.7391 -0.0896
 6984SOL    HW232589   2.920   1.092  10.216 -0.2506 -1.4143  0.8585
 6985SOL     OW32590   2.864   0.005   6.820  0.4224  0.7967 -0.5184
 6985SOL    HW132591   2.855   0.071   6.751 -2.3836 -0.4987 -1.3703
 6985SOL    HW232592   2.954   0.025   6.845 -0.2618 -0.6067  3.1366
 6986SOL     OW32593   1.932   2.574   5.814  0.0340 -0.4386 -0.4788
 6986SOL    HW132594   1.982   2.626   5.751  0.0619  0.6326  0.4327
 6986SOL    HW232595   1.840   2.589   5.794 -0.4246 -2.5034  0.1285
 6987SOL     OW32596   1.263   2.644   2.555  0.2233 -0.2152  0.1890
 6987SOL    HW132597   1.356   2.637   2.577 -0.4322  1.1558  3.3809
 6987SOL    HW232598   1.223   2.673   2.637 -2.7086 -1.7109 -0.6930
 6988SOL     OW32599   3.647   2.447   0.390  0.4332  0.6655 -0.1470
 6988SOL    HW132600   3.587   2.522   0.384 -1.4679 -0.9715 -1.4844
 6988SOL    HW232601   3.700   2.457   0.311  2.0788 -2.8952  0.5416
 6989SOL     OW32602   4.198   1.117   1.865  0.0362 -0.3884  0.1886
 6989SOL    HW132603   4.270   1.054   1.866  0.7742  0.4718  1.5081
 6989SOL    HW232604   4.208   1.168   1.945 -1.2090 -0.7755  0.5761
 6990SOL     OW32605   2.738   0.434  16.004 -0.4459  0.1648  0.3897
 6990SOL    HW132606   2.782   0.493  16.066 -1.3542 -0.4125  1.5760
 6990SOL    HW232607   2.750   0.486  15.925 -0.4064  1.3238  1.1583
 6991SOL     OW32608   1.408   2.141  11.573 -0.1487  0.6271 -0.0113
 6991SOL    HW132609   1.344   2.070  11.563  3.3420 -2.7335  1.3054
 6991SOL    HW232610   1.370   2.207  11.631  0.3018 -0.0663  1.0806
 6992SOL     OW32611   3.883   4.329  15.537  0.3047  0.1263  0.7358
 6992SOL    HW132612   3.898   4.234  15.537 -0.0887  0.0688 -0.3432
 6992SOL    HW232613   3.910   4.350  15.447 -3.3510 -0.0569 -0.3811
 6993SOL     OW32614   1.257   3.129   5.127 -0.0030  0.1589 -1.2086
 6993SOL    HW132615   1.316   3.189   5.173 -1.7747 -0.7087  2.1703
 6993SOL    HW232616   1.302   3.108   5.045 -0.6500 -0.5989 -1.3681
 6994SOL     OW32617   4.425   4.668   7.738  0.3293 -0.3140 -0.0684
 6994SOL    HW132618   4.462   4.605   7.676  2.4494 -0.0237  0.9001
 6994SOL    HW232619   4.483   0.007   7.726  2.0314 -1.8455 -1.2819
 6995SOL     OW32620   1.660   0.902   3.014 -0.6472 -0.1672 -0.5890
 6995SOL    HW132621   1.726   0.949   2.963  1.3712 -2.4929 -0.0991
 6995SOL    HW232622   1.580   0.938   2.974 -1.1605  0.3299  0.8776
 6996SOL     OW32623   1.320   0.074   4.738  0.9369 -0.4468  0.3493
 6996SOL    HW132624   1.285   4.728   4.703  1.0225 -0.3613  0.0547
 6996SOL    HW232625   1.390   0.091   4.674  2.1713  0.4550  1.9176
 6997SOL     OW32626   4.049   1.818   3.797  0.2911  0.0395 -0.0130
 6997SOL    HW132627   4.022   1.847   3.884  0.1411 -1.8502  0.5787
 6997SOL    HW232628   4.134   1.860   3.785 -0.3918  1.0731 -1.2406
 6998SOL     OW32629   3.557   0.923  17.005  0.3164 -0.4092  0.5259
 6998SOL    HW132630   3.635   0.878  17.037  1.9756  2.4346  0.4616
 6998SOL    HW232631   3.525   0.967  17.084  0.0697 -0.2135  0.3128
 6999SOL     OW32632   0.813   4.665   7.049  0.1814 -0.1989 -0.1107
 6999SOL    HW132633   0.847   4.679   6.961 -3.0208 -0.6973 -1.4263
 6999SOL    HW232634   0.746   4.596   7.044  2.1165 -2.1417  0.5564
 7000SOL     OW32635   2.660   0.702   6.057  0.0522 -0.4554 -0.0424
 7000SOL    HW132636   2.686   0.745   5.975  2.7286 -3.7311 -0.9085
 7000SOL    HW232637   2.576   0.667   6.029 -0.3727  0.8922 -0.4676
 7001SOL     OW32638   1.545   3.282   3.111  0.6615  0.1027 -0.1274
 7001SOL    HW132639   1.597   3.242   3.181  1.9256  0.6714 -0.7478
 7001SOL    HW232640   1.466   3.233   3.134  0.0678  1.9129  1.7196
 7002SOL     OW32641   3.911   1.097   6.828  0.6355  0.5768  0.1048
 7002SOL    HW132642   3.900   1.088   6.922  3.1712 -0.3299  0.3316
 7002SOL    HW232643   3.996   1.142   6.830  0.9460  0.0480 -0.7370
 7003SOL     OW32644   0.470   4.433   5.075 -0.2836 -0.5380  0.5370
 7003SOL    HW132645   0.522   4.363   5.115 -0.7297 -0.8812  0.5199
 7003SOL    HW232646   0.416   4.385   5.012 -0.1746  0.0310  0.0120
 7004SOL     OW32647   4.195   0.280   4.795 -0.1412  0.0106 -0.2223
 7004SOL    HW132648   4.218   0.257   4.885 -2.0108  0.7073  0.4481
 7004SOL    HW232649   4.099   0.276   4.802  0.0602 -2.8026  0.6468
 7005SOL     OW32650   1.143   3.798   7.658 -0.2154  0.7378  0.1496
 7005SOL    HW132651   1.154   3.758   7.744 -3.2753 -0.5283 -0.0142
 7005SOL    HW232652   1.130   3.725   7.597  1.7495  1.7934 -1.5222
 7006SOL     OW32653   2.656   1.369   1.416 -0.0583 -0.0627  0.0916
 7006SOL    HW132654   2.608   1.354   1.335  0.8412  4.0411 -1.1660
 7006SOL    HW232655   2.641   1.292   1.471  1.4741 -0.1454  0.4171
 7007SOL     OW32656   3.578   1.172   5.812  0.5462 -0.1755 -0.7284
 7007SOL    HW132657   3.606   1.094   5.764 -0.1727 -0.8847 -0.0084
 7007SOL    HW232658   3.633   1.166   5.889  0.5239  1.0901 -0.6247
 7008SOL     OW32659   3.273   3.699   4.413  0.1876 -0.3434  0.3729
 7008SOL    HW132660   3.315   3.703   4.327  1.0186 -0.2497  0.7807
 7008SOL    HW232661   3.342   3.732   4.470  0.0237  0.8002 -0.1071
 7009SOL     OW32662   2.418   2.250   7.812  0.0883 -0.0599 -0.4128
 7009SOL    HW132663   2.499   2.228   7.857  0.2395  0.5777 -0.3681
 7009SOL    HW232664   2.351   2.231   7.877 -0.8404  0.6020 -1.1677
 7010SOL     OW32665   1.260   2.295  12.772 -0.5290  0.6774  0.8495
 7010SOL    HW132666   1.229   2.233  12.705  2.5660 -0.3290  0.3515
 7010SOL    HW232667   1.232   2.376  12.730 -1.8592  0.9055  2.1877
 7011SOL     OW32668   0.779   4.166   9.074  0.2521  0.0000  0.0072
 7011SOL    HW132669   0.738   4.081   9.063 -0.2902  0.1829  0.6347
 7011SOL    HW232670   0.871   4.144   9.087  0.1329 -1.2164 -1.2806
 7012SOL     OW32671   2.802   0.836   2.772 -0.0029  0.5165  0.3030
 7012SOL    HW132672   2.762   0.751   2.757  0.3629  0.4801 -0.4632
 7012SOL    HW232673   2.799   0.882   2.688  0.5443  3.0567  1.6778
 7013SOL     OW32674   2.700   2.122   4.940 -0.3179  0.0830  0.0734
 7013SOL    HW132675   2.696   2.162   4.853 -0.2849 -0.8608 -0.3591
 7013SOL    HW232676   2.777   2.171   4.970 -1.6559  0.0814  3.5680
 7014SOL     OW32677   3.737   0.409   9.207  0.2393  0.2804 -0.0796
 7014SOL    HW132678   3.760   0.499   9.186  0.8737  0.5100  1.6149
 7014SOL    HW232679   3.653   0.400   9.161 -0.7148  0.5140  1.6345
 7015SOL     OW32680   0.556   1.273   9.046  0.3857 -0.5358 -0.4619
 7015SOL    HW132681   0.587   1.228   9.125  0.7658  1.6867  0.6520
 7015SOL    HW232682   0.543   1.366   9.066  0.3595 -0.5367 -0.4741
 7016SOL     OW32683   4.385   1.991  15.656 -0.7004  0.1408  0.1407
 7016SOL    HW132684   4.434   2.068  15.629  0.8087 -0.7882  0.2478
 7016SOL    HW232685   4.425   1.934  15.590  1.5775  0.4616  1.2437
 7017SOL     OW32686   4.126   2.165  11.082  0.1685  0.2707  0.3666
 7017SOL    HW132687   4.200   2.213  11.045 -1.6916  3.0103  0.2333
 7017SOL    HW232688   4.091   2.237  11.136 -0.3869  0.2578  0.0241
 7018SOL     OW32689   3.216   2.760  10.190 -0.1680 -0.4083  0.4031
 7018SOL    HW132690   3.158   2.701  10.142 -1.0377  0.5394  0.2801
 7018SOL    HW232691   3.179   2.848  10.183  2.2415  0.4219 -2.1095
 7019SOL     OW32692   1.552   0.926   7.036 -0.1313 -0.0517 -0.4849
 7019SOL    HW132693   1.538   0.966   6.950 -1.3653 -1.4015 -0.9055
 7019SOL    HW232694   1.558   1.010   7.082 -0.2698 -0.8104  0.8899
 7020SOL     OW32695   2.076   1.656   1.345  0.5917  0.2364 -0.0744
 7020SOL    HW132696   2.123   1.718   1.289  0.4374  0.8184  0.4372
 7020SOL    HW232697   2.052   1.712   1.419 -3.1151 -2.8694  1.1099
 7021SOL     OW32698   1.367   3.949  10.389 -0.0499 -0.2809  0.7278
 7021SOL    HW132699   1.286   3.976  10.347  1.0623  2.2598  0.2360
 7021SOL    HW232700   1.344   3.982  10.476  2.2160 -1.5271  1.8290
 7022SOL     OW32701   2.624   1.585  15.947  0.2302  0.3811 -0.3712
 7022SOL    HW132702   2.533   1.573  15.971 -0.3991 -0.1976 -3.0488
 7022SOL    HW232703   2.625   1.624  15.859  0.6328  1.5245  0.1393
 7023SOL     OW32704   1.378   3.183   8.786  0.2771 -0.3879  0.4446
 7023SOL    HW132705   1.291   3.169   8.749 -0.2547  2.8499  0.4873
 7023SOL    HW232706   1.386   3.100   8.833 -1.0556 -1.6439 -1.5572
 7024SOL     OW32707   0.851   3.262   4.423 -0.2222 -0.6991  0.2939
 7024SOL    HW132708   0.852   3.341   4.477 -0.1308  1.3965 -2.7534
 7024SOL    HW232709   0.768   3.223   4.450  0.2345 -1.0493  1.2124
 7025SOL     OW32710   3.820   4.576   3.479 -0.3691  0.1826 -0.2845
 7025SOL    HW132711   3.860   4.489   3.467 -0.6341 -0.2932  2.2909
 7025SOL    HW232712   3.793   4.568   3.571 -2.7147 -3.6380 -1.2925
 7026SOL     OW32713   2.846   4.585  17.461  0.0853  0.3052 -0.1279
 7026SOL    HW132714   2.819   4.516  17.401  1.4243  0.1222 -0.5275
 7026SOL    HW232715   2.841   4.663  17.406 -4.1116  0.0059 -0.1823
 7027SOL     OW32716   2.175   2.994   5.008 -0.2505 -0.4846  0.0696
 7027SOL    HW132717   2.150   2.999   5.100 -2.6759  0.6845 -0.6458
 7027SOL    HW232718   2.190   2.899   5.001  2.3198 -0.0551 -0.1369
 7028SOL     OW32719   0.213   0.939  13.477  0.9117 -0.1090 -0.0184
 7028SOL    HW132720   0.256   0.997  13.539 -1.1388 -0.8251  2.0298
 7028SOL    HW232721   0.179   0.866  13.528  2.4708 -0.8756 -0.0619
 7029SOL     OW32722   0.778   4.488  15.340  0.1499  0.1173  0.5576
 7029SOL    HW132723   0.696   4.480  15.290  1.2178  0.3763 -1.2363
 7029SOL    HW232724   0.812   4.399  15.351 -1.7557 -0.8112 -0.9846
 7030SOL     OW32725   2.649   3.497  16.722  0.2966 -0.1542  0.5242
 7030SOL    HW132726   2.636   3.591  16.704 -0.3569 -0.1273  1.1170
 7030SOL    HW232727   2.712   3.479  16.653 -1.4693 -0.3564 -1.0249
 7031SOL     OW32728   3.729   2.339   5.878  0.1528 -0.1464 -0.1118
 7031SOL    HW132729   3.763   2.249   5.873  1.8006  0.3347  2.5960
 7031SOL    HW232730   3.638   2.328   5.904  0.0406 -0.3911 -0.5962
 7032SOL     OW32731   3.782   3.746   9.417 -1.3493  0.3484  0.3589
 7032SOL    HW132732   3.821   3.733   9.503 -0.3426 -0.3030 -0.2003
 7032SOL    HW232733   3.721   3.816   9.439  0.3682  2.0650 -0.3211
 7033SOL     OW32734   3.377   3.975   5.702 -0.7031 -0.1881 -0.5203
 7033SOL    HW132735   3.356   4.010   5.789 -3.6557  2.4472 -2.2977
 7033SOL    HW232736   3.292   3.933   5.687 -0.9291  0.4870 -1.1133
 7034SOL     OW32737   1.162   1.721   4.093 -0.2128  0.8556 -0.3772
 7034SOL    HW132738   1.166   1.801   4.144  0.2520  1.8537 -1.9785
 7034SOL    HW232739   1.159   1.753   4.003  1.1832  1.2143 -0.2915
 7035SOL     OW32740   3.919   2.531  15.599 -0.1081  0.0770  0.0267
 7035SOL    HW132741   3.948   2.544  15.689  0.7491  1.7653 -0.4913
 7035SOL    HW232742   3.833   2.491  15.614  0.4917 -1.7494 -1.3372
 7036SOL     OW32743   1.306   2.700   7.893  0.0040  0.2847 -0.8137
 7036SOL    HW132744   1.361   2.730   7.821 -2.5375 -0.0422 -2.8819
 7036SOL    HW232745   1.363   2.646   7.948 -0.6010 -0.5807 -1.0386
 7037SOL     OW32746   2.719   2.618  12.020  0.0964 -0.3406 -0.2390
 7037SOL    HW132747   2.655   2.663  12.075 -0.1921  0.5497 -1.3033
 7037SOL    HW232748   2.742   2.548  12.081 -2.7914 -1.2037 -0.1211
 7038SOL     OW32749   0.140   1.410  14.988  0.6666 -0.3875 -0.1047
 7038SOL    HW132750   0.081   1.335  14.984 -0.8950  0.7904  0.5431
 7038SOL    HW232751   0.114   1.443  15.074  1.3397 -2.8440  1.0532
 7039SOL     OW32752   3.805   0.889  14.912  0.0149  0.2992  0.1860
 7039SOL    HW132753   3.869   0.884  14.983  0.9607  1.3725 -0.5781
 7039SOL    HW232754   3.852   0.835  14.848  2.5648  1.8284  0.7687
 7040SOL     OW32755   2.681   1.312   4.824  0.0648  0.0142 -0.1872
 7040SOL    HW132756   2.692   1.397   4.866 -2.9958  0.6759 -0.7380
 7040SOL    HW232757   2.716   1.262   4.898  1.0448  1.1023  0.0789
 7041SOL     OW32758   4.233   2.526   7.872 -0.1354 -0.7555 -0.2044
 7041SOL    HW132759   4.318   2.481   7.871  1.9643  3.1331  2.4818
 7041SOL    HW232760   4.217   2.534   7.778 -0.0073 -2.5794 -0.3679
 7042SOL     OW32761   3.854   1.429   5.939 -0.3867  0.8255  0.5818
 7042SOL    HW132762   3.761   1.451   5.930 -0.4604  1.2079  2.4428
 7042SOL    HW232763   3.884   1.504   5.989  0.5523  1.1350 -0.4624
 7043SOL     OW32764   3.326   3.372   5.234  0.7292 -0.0959 -0.5059
 7043SOL    HW132765   3.318   3.462   5.267 -0.4914 -0.6359  0.6976
 7043SOL    HW232766   3.357   3.388   5.145  0.6169 -3.5876 -1.1402
 7044SOL     OW32767   3.406   1.828   1.601  0.5195  0.7870 -0.3633
 7044SOL    HW132768   3.431   1.777   1.524 -1.4256 -1.9059  0.7991
 7044SOL    HW232769   3.326   1.786   1.633  0.8285  1.7579  1.7242
 7045SOL     OW32770   3.554   2.635  11.876 -0.1859 -0.4678 -0.3222
 7045SOL    HW132771   3.590   2.567  11.820  0.8675  1.6386 -2.1985
 7045SOL    HW232772   3.575   2.719  11.835 -1.7795  0.2386  0.2698
 7046SOL     OW32773   2.132   3.671   5.649  0.0769  0.2704  0.0822
 7046SOL    HW132774   2.131   3.607   5.578  1.4896 -0.8568  1.0715
 7046SOL    HW232775   2.225   3.682   5.671  0.1534 -0.8169  0.3039
 7047SOL     OW32776   3.290   3.287   1.477 -0.5112  0.3054 -0.1559
 7047SOL    HW132777   3.275   3.316   1.387  3.9927  0.5431 -0.8196
 7047SOL    HW232778   3.385   3.278   1.480 -0.4131  1.6131  0.7110
 7048SOL     OW32779   4.245   1.118   3.499  0.5533 -0.1347  0.4133
 7048SOL    HW132780   4.272   1.033   3.533  0.4219 -0.2178  0.3133
 7048SOL    HW232781   4.167   1.103   3.445  0.6500 -2.6731  0.9680
 7049SOL     OW32782   3.368   3.458  17.118 -0.3102  0.8858 -0.1791
 7049SOL    HW132783   3.359   3.499  17.205  0.8229  2.1649 -0.6667
 7049SOL    HW232784   3.289   3.409  17.099  1.0512 -1.2315 -0.3161
 7050SOL     OW32785   0.340   1.738   2.357  0.1033 -0.2594  0.1777
 7050SOL    HW132786   0.273   1.790   2.313  0.1056 -1.0794 -0.7852
 7050SOL    HW232787   0.316   1.747   2.450 -0.3301 -1.3209  0.1636
 7051SOL     OW32788   2.438   1.681   2.169  0.3454 -0.3141  0.7590
 7051SOL    HW132789   2.506   1.733   2.211  0.7944 -0.8254  0.6639
 7051SOL    HW232790   2.404   1.640   2.248  0.7236  2.1788  2.2125
 7052SOL     OW32791   2.756   3.355   2.445  0.0080  1.1352 -0.3150
 7052SOL    HW132792   2.731   3.346   2.353 -0.9166  2.1370 -0.1776
 7052SOL    HW232793   2.771   3.264   2.469  0.2253  0.6497 -2.2350
 7053SOL     OW32794   2.006   3.901   7.091  0.1666  0.6924  0.7521
 7053SOL    HW132795   1.932   3.954   7.122  1.3857  1.2291  2.7761
 7053SOL    HW232796   2.073   3.942   7.145  2.3855  0.1257 -1.5605
 7054SOL     OW32797   3.515   3.037   2.256 -0.4167  0.1098 -0.5702
 7054SOL    HW132798   3.480   3.106   2.312  0.7152 -2.4945  3.3337
 7054SOL    HW232799   3.434   2.994   2.228  0.1389 -1.9679  0.9515
 7055SOL     OW32800   1.118   4.668   3.259  0.2680  0.8394  0.1779
 7055SOL    HW132801   1.074   0.015   3.245  1.5122  2.0921  3.7308
 7055SOL    HW232802   1.075   4.619   3.189  2.0111  0.3442 -0.5589
 7056SOL     OW32803   3.058   1.345  11.474 -0.2983  0.1941 -0.1806
 7056SOL    HW132804   3.045   1.250  11.469  1.4012 -0.0524  0.0935
 7056SOL    HW232805   2.970   1.383  11.473  0.1513  1.1786 -2.1194
 7057SOL     OW32806   2.659   2.368   6.785  0.2874 -0.3592 -0.1555
 7057SOL    HW132807   2.625   2.285   6.817  0.1768 -0.0946  0.4236
 7057SOL    HW232808   2.687   2.337   6.699 -0.0120  2.5227 -1.2859
 7058SOL     OW32809   3.549   3.837   5.859 -0.1551 -0.1066 -0.4931
 7058SOL    HW132810   3.508   3.904   5.914  2.3312  0.1409  1.0633
 7058SOL    HW232811   3.534   3.896   5.786 -1.0262  0.7535  0.3714
 7059SOL     OW32812   2.087   4.340   8.885  0.7752  0.0537  0.0885
 7059SOL    HW132813   2.169   4.389   8.895  1.1437 -0.4398 -0.5216
 7059SOL    HW232814   2.022   4.402   8.918  0.7220 -0.3371  0.7087
 7060SOL     OW32815   1.162   2.253   4.121  0.2856 -0.2681  0.5977
 7060SOL    HW132816   1.233   2.198   4.087 -0.3431  0.9601 -2.7147
 7060SOL    HW232817   1.169   2.248   4.216 -0.8570  3.4216  0.8601
 7061SOL     OW32818   3.566   2.599   1.746  0.3620 -0.6241 -0.1279
 7061SOL    HW132819   3.512   2.521   1.735  1.6586 -1.5097 -0.1922
 7061SOL    HW232820   3.516   2.667   1.701 -0.5740 -1.1499  0.1157
 7062SOL     OW32821   3.545   0.603  17.101  0.1671 -0.7531  0.2138
 7062SOL    HW132822   3.453   0.619  17.124 -0.4625  0.3127 -3.0187
 7062SOL    HW232823   3.549   0.509  17.118  1.9664 -0.4682  1.2635
 7063SOL     OW32824   2.967   3.604   8.774 -0.3787 -0.0261 -0.4501
 7063SOL    HW132825   3.009   3.677   8.820  0.3643  0.0727 -1.2706
 7063SOL    HW232826   2.876   3.616   8.799  0.3153  2.1668  0.9985
 7064SOL     OW32827   4.339   2.542   0.883 -0.0370  0.4718 -0.5921
 7064SOL    HW132828   4.276   2.597   0.837 -0.5900  0.7534  0.5148
 7064SOL    HW232829   4.407   2.601   0.915 -2.0674  3.0236 -0.9953
 7065SOL     OW32830   3.996   0.205   7.453 -0.3956  0.1616  0.1939
 7065SOL    HW132831   3.917   0.152   7.458 -0.3639  0.0126 -0.7501
 7065SOL    HW232832   3.963   0.295   7.445 -1.4273 -0.1576  0.7882
 7066SOL     OW32833   1.359   0.042   9.196 -0.4520  0.2571  0.4398
 7066SOL    HW132834   1.371   0.090   9.278  0.7278  1.9447 -0.7288
 7066SOL    HW232835   1.443   4.733   9.199 -0.7452 -0.3701 -0.7713
 7067SOL     OW32836   0.760   0.597   8.399 -1.0727 -0.2586  0.7789
 7067SOL    HW132837   0.814   0.570   8.473 -0.4117 -1.0116  0.0255
 7067SOL    HW232838   0.709   0.516   8.389 -0.8986 -0.2925  0.1991
 7068SOL     OW32839   3.890   0.112  15.874 -0.1344  0.1427 -0.5670
 7068SOL    HW132840   3.843   0.104  15.957  0.9278 -2.0534 -0.1762
 7068SOL    HW232841   3.832   0.176  15.833  0.8744  1.5487  0.2141
 7069SOL     OW32842   2.732   3.265  10.515  0.5902  0.5306 -0.3756
 7069SOL    HW132843   2.768   3.272  10.426  2.9931 -3.3673  0.2964
 7069SOL    HW232844   2.639   3.268  10.493  0.6355 -0.3327 -0.7084
 7070SOL     OW32845   0.762   3.243   5.717 -0.6805  0.0658 -0.3831
 7070SOL    HW132846   0.721   3.236   5.631  0.3054 -0.9648 -0.7591
 7070SOL    HW232847   0.710   3.304   5.770 -2.1938 -0.6166 -1.0733
 7071SOL     OW32848   0.931   0.829   5.329 -0.0807  0.1472 -0.3540
 7071SOL    HW132849   0.917   0.760   5.264  0.8320  1.1234 -1.5792
 7071SOL    HW232850   0.845   0.857   5.361  0.7562  3.9983 -1.4738
 7072SOL     OW32851   3.880   0.105   3.671  0.5677  0.0483  0.3671
 7072SOL    HW132852   3.964   0.103   3.626  0.3409  1.2185 -0.1015
 7072SOL    HW232853   3.893   0.176   3.733 -1.5517  1.6024 -0.9953
 7073SOL     OW32854   1.290   1.560   0.805 -0.0420  0.4165  0.0131
 7073SOL    HW132855   1.316   1.475   0.840  1.4621  1.7912  2.1985
 7073SOL    HW232856   1.217   1.596   0.856  0.1840  2.9364 -1.4152
 7074SOL     OW32857   1.505   3.752  10.646  0.3725 -0.1967 -0.1025
 7074SOL    HW132858   1.523   3.845  10.658  0.0421 -0.0831 -0.4717
 7074SOL    HW232859   1.558   3.707  10.711  0.8286  1.7015  0.8012
 7075SOL     OW32860   3.926   2.337   2.181  0.0549 -0.1088  0.4823
 7075SOL    HW132861   3.968   2.401   2.123 -2.4590  0.0262 -1.1581
 7075SOL    HW232862   3.857   2.387   2.224  1.1384  0.6746  1.3184
 7076SOL     OW32863   0.837   0.713  11.858  0.7616 -0.2604  0.0645
 7076SOL    HW132864   0.889   0.665  11.793 -0.4367  0.7682 -1.6414
 7076SOL    HW232865   0.857   0.656  11.932 -2.1249  1.2149  1.9586
 7077SOL     OW32866   2.860   1.711   7.767 -0.2016 -0.3030  0.0368
 7077SOL    HW132867   2.871   1.769   7.692 -2.4171 -1.4713 -1.2044
 7077SOL    HW232868   2.781   1.745   7.809 -0.8850 -0.2988 -1.2591
 7078SOL     OW32869   3.405   3.890   1.955  0.0954 -0.1706  0.1864
 7078SOL    HW132870   3.420   3.950   1.882  2.2160 -1.6430 -0.5832
 7078SOL    HW232871   3.386   3.953   2.025 -2.5400 -0.6749 -0.0792
 7079SOL     OW32872   0.687   0.641   2.416 -0.0091 -0.4456  0.2528
 7079SOL    HW132873   0.775   0.607   2.403  0.0163 -0.6838  1.0076
 7079SOL    HW232874   0.694   0.697   2.340 -1.4594 -1.0787 -0.3561
 7080SOL     OW32875   1.039   4.410   8.796 -0.4265  0.0674  0.1081
 7080SOL    HW132876   0.963   4.390   8.849  0.2050  0.1762  1.0485
 7080SOL    HW232877   1.104   4.415   8.866  0.1359  3.2189 -0.6393
 7081SOL     OW32878   0.313   2.245   8.268 -0.3778 -0.2976 -0.0147
 7081SOL    HW132879   0.388   2.213   8.218  0.8228  1.1509  0.8847
 7081SOL    HW232880   0.278   2.318   8.215  0.8535  0.3577  0.0857
 7082SOL     OW32881   4.519   3.778   6.098  0.7183  0.0402 -0.4325
 7082SOL    HW132882   4.503   3.768   6.004 -3.5831  1.0580  0.2007
 7082SOL    HW232883   4.516   3.686   6.125 -0.2937  0.4348  0.8198
 7083SOL     OW32884   2.967   4.559   9.892  0.4129  0.0667  0.2116
 7083SOL    HW132885   3.025   4.632   9.913  0.5684 -0.6875  2.3650
 7083SOL    HW232886   2.879   4.596   9.906 -0.0557 -1.0592  0.2342
 7084SOL     OW32887   0.772   4.291   2.596 -0.3300 -0.3827 -0.1862
 7084SOL    HW132888   0.808   4.282   2.684 -2.2418 -3.5204  0.3033
 7084SOL    HW232889   0.781   4.385   2.582 -1.9974  0.1644  2.2425
 7085SOL     OW32890   3.097   2.529   0.730 -0.1146  0.0535 -0.1828
 7085SOL    HW132891   3.022   2.528   0.669  0.4251  0.4843 -0.8547
 7085SOL    HW232892   3.087   2.443   0.769  2.6723 -0.0668  0.2383
 7086SOL     OW32893   0.246   4.474   4.671  0.4267 -0.0780 -0.6320
 7086SOL    HW132894   0.197   4.406   4.625 -0.4466 -0.0983  0.3055
 7086SOL    HW232895   0.269   4.532   4.599  1.2375  0.0500 -0.2732
 7087SOL     OW32896   0.194   3.472   2.248  0.1490 -0.2176 -0.4151
 7087SOL    HW132897   0.255   3.534   2.208 -1.6534  0.3870 -2.2193
 7087SOL    HW232898   0.109   3.513   2.230  0.6232  0.9756  0.0612
 7088SOL     OW32899   3.668   1.451   7.538  0.3554  0.5719  0.1681
 7088SOL    HW132900   3.593   1.415   7.586  1.0470 -0.1440  0.7155
 7088SOL    HW232901   3.715   1.485   7.614  2.1175 -0.6747 -0.3897
 7089SOL     OW32902   0.009   0.018   2.328 -0.1768  0.1117 -0.3992
 7089SOL    HW132903   4.700   4.682   2.285 -1.0577  1.5106 -1.8081
 7089SOL    HW232904   0.041   0.067   2.252  1.0512  0.5875  0.4264
 7090SOL     OW32905   1.005   2.201   9.291  0.1418  0.0894  0.0063
 7090SOL    HW132906   0.937   2.182   9.356  1.7959 -1.5575  1.2341
 7090SOL    HW232907   1.017   2.110   9.261  0.0945  0.3664 -0.8495
 7091SOL     OW32908   1.538   0.280   5.478 -0.1976 -0.2650  0.5702
 7091SOL    HW132909   1.448   0.282   5.510  0.3830  0.1924  2.2046
 7091SOL    HW232910   1.537   0.371   5.449  1.7251  0.1763  1.8536
 7092SOL     OW32911   0.038   1.542   4.754 -0.0836 -0.0321 -0.0145
 7092SOL    HW132912   4.687   1.506   4.771  0.6830 -2.0207 -0.2499
 7092SOL    HW232913   0.022   1.584   4.670  0.0920  0.0556 -0.0028
 7093SOL     OW32914   3.363   4.537  10.005 -0.8063 -0.3325 -0.3485
 7093SOL    HW132915   3.297   4.606  10.015  0.2259  0.6889 -0.6128
 7093SOL    HW232916   3.416   4.549  10.084 -0.4606  3.5892 -1.1444
 7094SOL     OW32917   0.360   4.474   5.509 -0.2957  0.2950 -0.7418
 7094SOL    HW132918   0.300   4.548   5.502  1.3434  1.5533 -1.4814
 7094SOL    HW232919   0.353   4.428   5.425  0.2885  3.1005 -2.3175
 7095SOL     OW32920   2.458   0.210   3.680  0.5523 -0.4166  0.2590
 7095SOL    HW132921   2.553   0.197   3.672  0.7933  0.1871  2.1663
 7095SOL    HW232922   2.441   0.137   3.739 -0.4439 -1.6622 -1.5743
 7096SOL     OW32923   2.441   2.158  10.324 -0.2238 -0.1427 -0.2958
 7096SOL    HW132924   2.422   2.107  10.403  1.6409  0.1331  0.3351
 7096SOL    HW232925   2.374   2.124  10.264 -0.6414  1.8721 -0.9736
 7097SOL     OW32926   1.366   4.554  10.292 -0.1247 -0.0810  0.1265
 7097SOL    HW132927   1.285   4.564  10.242  0.6661 -0.8964 -1.3101
 7097SOL    HW232928   1.415   4.633  10.268  0.9647 -0.7144  0.2842
 7098SOL     OW32929   0.941   3.568   9.301  0.2619 -0.4261 -0.1362
 7098SOL    HW132930   0.989   3.508   9.358  2.1491 -0.3231 -1.5916
 7098SOL    HW232931   0.933   3.505   9.230  0.0416 -0.7891  0.2153
 7099SOL     OW32932   1.642   3.700  12.084 -0.1090  0.0153 -0.4272
 7099SOL    HW132933   1.558   3.739  12.059  0.6404 -0.0124 -2.9995
 7099SOL    HW232934   1.662   3.741  12.168 -1.5019  1.0150 -0.5913
 7100SOL     OW32935   1.415   0.816   9.848  0.1615 -0.1822 -0.3994
 7100SOL    HW132936   1.436   0.856   9.763  0.6176  1.6552  0.5709
 7100SOL    HW232937   1.452   0.729   9.833  1.4774  0.2801  0.1774
 7101SOL     OW32938   0.939   1.050   4.345  0.0456 -0.3088 -0.1361
 7101SOL    HW132939   0.960   1.034   4.253 -0.8958 -0.3347 -0.3404
 7101SOL    HW232940   1.027   1.080   4.368 -1.1733  1.9936  1.4384
 7102SOL     OW32941   3.836   2.336  12.719  0.0296 -0.2527  0.2479
 7102SOL    HW132942   3.873   2.278  12.786  0.0796  0.7751  1.1167
 7102SOL    HW232943   3.767   2.282  12.680  1.2470 -0.5858 -1.4726
 7103SOL     OW32944   0.488   2.566   6.938 -0.5930  0.4470  0.0424
 7103SOL    HW132945   0.538   2.647   6.951  0.4500 -0.4772  1.8260
 7103SOL    HW232946   0.513   2.505   7.007  1.3164 -0.2018 -1.2229
 7104SOL     OW32947   3.695   3.469  17.374 -0.0890  0.1782 -0.6486
 7104SOL    HW132948   3.653   3.553  17.355 -1.6978 -0.8102 -1.5249
 7104SOL    HW232949   3.668   3.434  17.289 -0.4935 -2.8219  0.7120
 7105SOL     OW32950   2.642   1.848   2.243 -0.3371  0.2719 -0.2742
 7105SOL    HW132951   2.686   1.908   2.303 -0.2260 -0.8448  0.7495
 7105SOL    HW232952   2.697   1.883   2.172 -3.1434  1.6612 -1.7475
 7106SOL     OW32953   3.165   1.748   8.376 -0.8828 -0.1178  0.1030
 7106SOL    HW132954   3.231   1.693   8.334  1.2511  2.2831  0.2821
 7106SOL    HW232955   3.162   1.822   8.315 -1.4795  1.6231  2.2448
 7107SOL     OW32956   4.597   3.526   8.351  0.7262  0.1392 -0.0231
 7107SOL    HW132957   4.597   3.614   8.389 -0.3865  0.5765 -1.0330
 7107SOL    HW232958   4.575   3.540   8.259 -1.6467 -0.0035  0.5105
 7108SOL     OW32959   0.554   1.358  12.224  0.2419 -0.1333 -0.0338
 7108SOL    HW132960   0.630   1.312  12.260  0.9273 -0.0173 -1.3294
 7108SOL    HW232961   0.582   1.445  12.255 -1.3378  0.6652 -0.8411
 7109SOL     OW32962   3.403   2.180   0.733  0.5396  0.1751 -0.3946
 7109SOL    HW132963   3.410   2.272   0.758  1.1555  0.2254 -0.7505
 7109SOL    HW232964   3.485   2.146   0.768 -0.6183 -0.2187  1.9102
 7110SOL     OW32965   1.206   0.332   3.640  0.2154  0.4933 -0.5962
 7110SOL    HW132966   1.129   0.376   3.677  0.2577 -1.2674  1.5956
 7110SOL    HW232967   1.250   0.311   3.723 -0.7361 -2.0108 -0.7261
 7111SOL     OW32968   0.387   0.203   4.209 -0.2459  0.5770 -0.1494
 7111SOL    HW132969   0.324   0.262   4.168 -1.9268  0.1291  1.7592
 7111SOL    HW232970   0.315   0.159   4.256 -0.8257  2.8973  1.1056
 7112SOL     OW32971   1.303   1.258   1.944  0.4057  0.6454 -0.3266
 7112SOL    HW132972   1.317   1.284   2.036 -1.3140 -2.2565  0.7478
 7112SOL    HW232973   1.265   1.336   1.904 -1.1389  0.4022  0.6743
 7113SOL     OW32974   3.875   3.776   0.075  0.0022  0.0597 -0.1909
 7113SOL    HW132975   3.910   3.844   0.017  1.6242 -0.9850 -0.4436
 7113SOL    HW232976   3.843   3.709   0.014 -3.3035 -0.7785  2.4807
 7114SOL     OW32977   4.569   4.015   4.927  0.2786 -0.3481 -0.3616
 7114SOL    HW132978   4.519   4.069   4.989 -2.0500 -0.8993 -1.7959
 7114SOL    HW232979   4.513   4.014   4.850  0.7272  0.3265 -0.6992
 7115SOL     OW32980   4.642   3.844   1.932  0.4535 -0.1980 -0.6001
 7115SOL    HW132981   4.575   3.887   1.985 -0.4554 -0.1671 -1.7829
 7115SOL    HW232982   4.674   3.780   1.996  0.0559 -1.4797 -1.6810
 7116SOL     OW32983   2.873   2.640   7.270  0.2824 -0.6294  0.4756
 7116SOL    HW132984   2.913   2.579   7.332 -1.1284 -2.7108 -0.6506
 7116SOL    HW232985   2.847   2.580   7.200  0.5397 -0.3490  0.1395
 7117SOL     OW32986   1.340   3.633   0.938  0.9299  0.6197  0.0888
 7117SOL    HW132987   1.340   3.728   0.928 -1.0066  0.5293 -0.7701
 7117SOL    HW232988   1.272   3.618   0.873  0.0429 -2.9030  1.7816
 7118SOL     OW32989   2.859   2.635   2.202  0.1416 -0.1892  0.3510
 7118SOL    HW132990   2.779   2.610   2.155 -0.0359  1.0110  0.0271
 7118SOL    HW232991   2.920   2.599   2.137 -0.4276  1.3862 -1.0363
 7119SOL     OW32992   0.073   4.616   7.453  0.1397  0.1176  0.3570
 7119SOL    HW132993   0.130   4.690   7.435  0.8598 -0.4198  0.4133
 7119SOL    HW232994   0.015   4.656   7.518  0.4296  0.7738  0.2034
 7120SOL     OW32995   0.871   1.376   5.708  0.0948 -1.0480  0.4132
 7120SOL    HW132996   0.942   1.366   5.644  2.0429  2.5558  2.0813
 7120SOL    HW232997   0.924   1.398   5.784 -0.8344 -0.2471  0.8254
 7121SOL     OW32998   4.510   3.243   4.607  0.1339  0.4103 -0.4948
 7121SOL    HW132999   4.555   3.163   4.632 -1.7516 -0.7486 -0.7690
 7121SOL    HW233000   4.433   3.231   4.662  1.4897 -3.7504  0.4467
 7122SOL     OW33001   2.890   0.251  12.248  0.0904 -0.7700 -0.2597
 7122SOL    HW133002   2.926   0.281  12.332  0.1591 -0.5685 -0.3621
 7122SOL    HW233003   2.852   0.167  12.274  2.0471 -0.5707  3.2329
 7123SOL     OW33004   2.202   0.864   9.261 -0.0232 -0.0289  0.0067
 7123SOL    HW133005   2.223   0.854   9.169  1.0190 -1.3221  0.3810
 7123SOL    HW233006   2.292   0.851   9.290  0.1874  0.2301 -0.5425
 7124SOL     OW33007   1.682   0.791  17.512  0.0340 -0.2929  0.4699
 7124SOL    HW133008   1.633   0.851  17.455 -0.6003 -2.6666 -1.4929
 7124SOL    HW233009   1.705   0.861  17.573  0.4728  2.3239 -2.6742
 7125SOL     OW33010   2.105   4.381   4.181 -0.0759 -0.6805 -0.3422
 7125SOL    HW133011   2.016   4.352   4.202 -0.9684  1.2605 -1.4854
 7125SOL    HW233012   2.116   4.311   4.117  1.9795  0.5468 -1.3163
 7126SOL     OW33013   0.703   2.103   1.623  0.2203 -0.5112  0.2203
 7126SOL    HW133014   0.679   2.011   1.614  1.9741 -1.0753  1.1982
 7126SOL    HW233015   0.695   2.140   1.535 -0.3959 -0.1376  0.4308
 7127SOL     OW33016   3.728   3.849  15.354  0.0796 -0.3958 -0.3207
 7127SOL    HW133017   3.687   3.897  15.282 -0.5082 -1.9972 -1.0534
 7127SOL    HW233018   3.819   3.848  15.324 -0.4586 -1.0474 -1.9059
 7128SOL     OW33019   4.184   4.460   8.396 -0.0024  0.2047  0.0474
 7128SOL    HW133020   4.161   4.492   8.309  0.0507 -0.3368 -0.1679
 7128SOL    HW233021   4.276   4.431   8.395  1.1613  3.7909  2.0841
 7129SOL     OW33022   4.701   3.563  10.022 -0.2585  0.0572 -0.3746
 7129SOL    HW133023   4.691   3.608  10.106 -1.4899 -2.2337  0.6983
 7129SOL    HW233024   0.047   3.515  10.027 -1.0498 -1.3604 -1.0613
 7130SOL     OW33025   0.360   3.925  12.332 -0.3461  0.2924  0.3197
 7130SOL    HW133026   0.449   3.959  12.320 -0.1012 -0.3303  0.3833
 7130SOL    HW233027   0.310   3.974  12.266  0.2829 -0.3840 -0.6447
 7131SOL     OW33028   4.571   2.870   6.308  0.0839 -0.4235 -0.1420
 7131SOL    HW133029   4.479   2.875   6.334  0.1895 -1.5577  0.4402
 7131SOL    HW233030   4.601   2.789   6.349 -0.9691 -1.1713 -0.8559
 7132SOL     OW33031   4.349   3.221   2.598  0.2233 -0.2825  0.1374
 7132SOL    HW133032   4.281   3.188   2.657  2.2616  0.4070  2.8516
 7132SOL    HW233033   4.369   3.306   2.637  2.5652 -0.3037 -1.0506
 7133SOL     OW33034   0.716   2.512  10.505  0.1954  0.2759  0.1281
 7133SOL    HW133035   0.793   2.540  10.456 -0.1573  3.0284  1.1020
 7133SOL    HW233036   0.648   2.535  10.441 -1.0089 -0.0641  1.2769
 7134SOL     OW33037   4.551   2.583   6.822 -0.6191 -0.7210  0.1355
 7134SOL    HW133038   4.467   2.610   6.859 -0.3029  1.9774 -1.1472
 7134SOL    HW233039   4.529   2.586   6.728  2.9487  0.6216 -0.6223
 7135SOL     OW33040   1.964   3.618  15.979 -0.0661  1.1293 -0.5003
 7135SOL    HW133041   1.947   3.704  16.017  0.5496  1.9800 -2.1504
 7135SOL    HW233042   2.058   3.606  15.975 -0.2442 -0.7457  0.8971
 7136SOL     OW33043   2.472   3.334   8.940  0.4781  0.7074 -0.4747
 7136SOL    HW133044   2.563   3.362   8.950  1.0693 -1.4134  0.2565
 7136SOL    HW233045   2.432   3.420   8.927 -0.4847  0.5703  1.4699
 7137SOL     OW33046   1.626   1.351   5.557 -0.2490  0.2625 -0.4618
 7137SOL    HW133047   1.691   1.297   5.513 -0.9793  0.6387 -1.9981
 7137SOL    HW233048   1.619   1.429   5.502 -0.1911 -1.5403 -3.0106
 7138SOL     OW33049   4.163   1.252   7.196  0.5297 -0.1823 -0.6503
 7138SOL    HW133050   4.178   1.346   7.198  1.0940 -0.3143  2.1252
 7138SOL    HW233051   4.223   1.228   7.126  1.3172  0.5766 -0.2411
 7139SOL     OW33052   1.695   0.286  12.458 -0.1783 -0.3256 -0.3700
 7139SOL    HW133053   1.702   0.373  12.496  0.9313 -0.2840 -0.6782
 7139SOL    HW233054   1.764   0.289  12.392 -0.4713  1.4088 -0.5799
 7140SOL     OW33055   1.866   2.389  14.128  0.7818  0.0841  0.0946
 7140SOL    HW133056   1.817   2.308  14.139  0.5785  0.3785  1.2804
 7140SOL    HW233057   1.948   2.352  14.096 -0.8256 -4.1473  0.7893
 7141SOL     OW33058   0.043   0.315  14.413  1.0300  0.5410 -0.3212
 7141SOL    HW133059   0.089   0.361  14.343  0.7874  1.6805  0.2831
 7141SOL    HW233060   0.007   0.391  14.459 -0.5690 -0.0970 -0.5282
 7142SOL     OW33061   0.569   1.189   7.032  0.1386  0.0811  0.4979
 7142SOL    HW133062   0.641   1.139   7.072  0.2449 -0.0229  0.1831
 7142SOL    HW233063   0.588   1.165   6.941 -0.6527  0.4623  0.2368
 7143SOL     OW33064   4.272   1.015   7.758  0.2406  0.3585 -0.2752
 7143SOL    HW133065   4.354   0.966   7.760 -0.0725 -0.1749 -0.8580
 7143SOL    HW233066   4.222   0.983   7.833 -0.0390 -0.2785 -0.7364
 7144SOL     OW33067   2.972   0.531   8.923 -0.2190  0.7141 -0.1596
 7144SOL    HW133068   3.054   0.564   8.886 -0.8128  0.7503 -1.4595
 7144SOL    HW233069   3.001   0.442   8.943 -1.4568  0.9785  2.8275
 7145SOL     OW33070   0.610   1.596  13.810  0.0675  0.3001  0.6303
 7145SOL    HW133071   0.642   1.574  13.897  0.5128  0.2643  0.4593
 7145SOL    HW233072   0.686   1.643  13.775 -0.4129 -1.3006 -2.5203
 7146SOL     OW33073   4.578   3.344  13.241 -0.5446 -0.1046  0.3058
 7146SOL    HW133074   4.638   3.342  13.316 -0.4504  0.7293  0.2504
 7146SOL    HW233075   4.498   3.303  13.275 -2.8256  4.9004  0.9793
 7147SOL     OW33076   3.403   0.308  12.104  0.5159 -0.5928  0.4048
 7147SOL    HW133077   3.394   0.215  12.123 -2.0434 -0.4800 -0.2208
 7147SOL    HW233078   3.448   0.316  12.020 -0.3153 -2.7536 -0.2512
 7148SOL     OW33079   2.563   4.187   2.554  0.1601 -0.1831  0.3018
 7148SOL    HW133080   2.642   4.223   2.514 -0.1925  0.5057  0.2242
 7148SOL    HW233081   2.605   4.160   2.636 -0.7201  0.0445  0.8189
 7149SOL     OW33082   1.812   2.527  15.166  0.1626  0.1849 -0.6048
 7149SOL    HW133083   1.837   2.520  15.258  1.5543  0.4620 -0.9625
 7149SOL    HW233084   1.835   2.617  15.144 -1.0173  0.8075  0.7319
 7150SOL     OW33085   0.923   1.211   5.462 -0.3318  0.5181 -0.1617
 7150SOL    HW133086   0.991   1.200   5.395 -1.1956  3.1154 -1.4702
 7150SOL    HW233087   0.847   1.163   5.429  1.0162  0.3024 -3.0063
 7151SOL     OW33088   4.561   3.490  16.230 -0.4055 -0.6256 -0.0141
 7151SOL    HW133089   4.631   3.533  16.280 -3.0688  2.6712  0.8335
 7151SOL    HW233090   4.608   3.474  16.148 -1.2995  0.8101 -0.8098
 7152SOL     OW33091   2.333   1.862   1.482  0.0748 -0.0533 -0.0416
 7152SOL    HW133092   2.270   1.797   1.451  0.2977  0.7291 -2.1328
 7152SOL    HW233093   2.397   1.808   1.528 -0.1493  0.1458  0.4934
 7153SOL     OW33094   3.397   1.241   3.397 -0.0757  0.1083 -0.1113
 7153SOL    HW133095   3.427   1.203   3.479 -2.1645 -1.1657  0.0891
 7153SOL    HW233096   3.416   1.334   3.407 -1.2510  0.2430  0.9363
 7154SOL     OW33097   3.231   4.394  15.890  0.5263 -0.5486  0.3567
 7154SOL    HW133098   3.216   4.334  15.818  1.0550  0.1812 -0.3624
 7154SOL    HW233099   3.215   4.477  15.846  1.2028  0.2579  1.6083
 7155SOL     OW33100   4.142   3.643  16.034  0.9081  0.2370 -0.3705
 7155SOL    HW133101   4.152   3.663  16.127 -1.6677 -1.5261  0.3054
 7155SOL    HW233102   4.230   3.614  16.013  0.9058 -0.6029  0.8040
 7156SOL     OW33103   0.398   2.795   3.109  0.0208 -0.3432  0.1604
 7156SOL    HW133104   0.412   2.811   3.016 -1.8936 -1.3864 -0.3054
 7156SOL    HW233105   0.489   2.779   3.135 -0.1435  0.4925  1.2364
 7157SOL     OW33106   2.882   0.206   6.641 -0.4338  0.3031 -0.2292
 7157SOL    HW133107   2.904   0.243   6.555  2.2446 -0.6937  0.0552
 7157SOL    HW233108   2.877   0.284   6.697  1.9092 -0.6515  1.2750
 7158SOL     OW33109   2.847   0.068   8.861 -0.1359 -0.3091 -0.4066
 7158SOL    HW133110   2.889   4.731   8.907 -1.3521  0.2629  1.6052
 7158SOL    HW233111   2.766   0.052   8.909  0.6054 -1.3239  0.5275
 7159SOL     OW33112   0.838   2.487   4.091 -0.6862 -0.1039  0.0567
 7159SOL    HW133113   0.854   2.581   4.093 -0.7342 -0.0940 -0.0243
 7159SOL    HW233114   0.790   2.468   4.171 -1.1561 -1.3958 -0.5336
 7160SOL     OW33115   4.713   2.788  16.310  0.4011 -0.0232  0.4384
 7160SOL    HW133116   4.651   2.851  16.274  1.1763  1.4524  1.6896
 7160SOL    HW233117   0.054   2.843  16.310 -1.0257  1.9745 -2.4465
 7161SOL     OW33118   2.668   3.779  16.641  0.4963 -0.0398 -0.6482
 7161SOL    HW133119   2.648   3.770  16.547 -0.7191  1.4474 -0.5448
 7161SOL    HW233120   2.664   3.875  16.646 -2.5640 -0.3883  3.2672
 7162SOL     OW33121   1.211   2.523  12.583 -0.1434 -0.1612 -0.7516
 7162SOL    HW133122   1.297   2.551  12.614 -0.9079 -0.4743  1.7125
 7162SOL    HW233123   1.167   2.600  12.547 -1.5494 -0.4479  0.3389
 7163SOL     OW33124   4.654   0.199  12.450 -0.0032  0.7416 -0.5894
 7163SOL    HW133125   4.644   0.210  12.545 -0.5797 -1.3893 -0.3983
 7163SOL    HW233126   4.595   0.266  12.416  0.3304  1.5565  0.4251
 7164SOL     OW33127   4.142   1.217   6.144 -0.2565 -0.1562 -0.0957
 7164SOL    HW133128   4.084   1.187   6.073  1.2151 -1.7752 -0.6329
 7164SOL    HW233129   4.218   1.161   6.126 -1.4755 -1.4549 -1.1761
 7165SOL     OW33130   0.207   2.026   5.657 -0.4709 -1.0366 -0.4372
 7165SOL    HW133131   0.117   2.054   5.675  0.0650  0.8004 -0.5838
 7165SOL    HW233132   0.191   1.975   5.578  0.7279 -0.4016 -1.0943
 7166SOL     OW33133   1.439   2.049   9.447 -0.5575 -0.1645 -0.4966
 7166SOL    HW133134   1.475   2.121   9.395 -0.8093 -1.3341 -2.2932
 7166SOL    HW233135   1.503   1.982   9.421  0.3181  0.2585  0.5652
 7167SOL     OW33136   0.583   2.770   8.633 -0.5001 -0.1412  0.4650
 7167SOL    HW133137   0.516   2.724   8.582  0.6631 -0.3282 -0.8965
 7167SOL    HW233138   0.601   2.834   8.564 -1.7677 -0.1504  0.1341
 7168SOL     OW33139   4.591   1.546   8.825  0.5186  0.6367  0.0666
 7168SOL    HW133140   4.639   1.628   8.832  0.0842  0.8864  0.1167
 7168SOL    HW233141   4.657   1.483   8.796 -1.1018 -0.8898 -0.3562
 7169SOL     OW33142   3.504   0.025   8.977  0.1435 -0.8238  0.4145
 7169SOL    HW133143   3.574   0.053   8.918  0.0017 -1.7657 -0.2026
 7169SOL    HW233144   3.434   0.046   8.915 -0.5221 -1.1069  1.0680
 7170SOL     OW33145   1.442   0.174   4.977 -0.6004 -0.1556  0.7898
 7170SOL    HW133146   1.431   0.143   4.887 -0.3314 -0.9133  1.0198
 7170SOL    HW233147   1.348   0.186   4.995 -0.2983  2.0986  0.9042
 7171SOL     OW33148   3.798   1.589   2.182  0.0928 -0.1606  0.9126
 7171SOL    HW133149   3.834   1.616   2.267  0.8668 -0.3532  0.6400
 7171SOL    HW233150   3.771   1.665   2.132 -1.0742 -0.5185  1.0034
 7172SOL     OW33151   0.290   0.218   2.328  0.3271 -0.1044  0.3294
 7172SOL    HW133152   0.356   0.193   2.392  0.3207  1.9358  1.1469
 7172SOL    HW233153   0.326   0.307   2.324  0.3785 -0.1683 -0.5225
 7173SOL     OW33154   3.330   4.616   9.735 -0.3736 -0.0031 -0.1953
 7173SOL    HW133155   3.335   4.575   9.822  0.2552  0.0241 -0.2185
 7173SOL    HW233156   3.375   4.697   9.761  0.5763 -0.7171  0.3920
 7174SOL     OW33157   3.531   3.940   2.406  0.0688 -0.1138  0.0699
 7174SOL    HW133158   3.614   3.952   2.359  0.0166 -1.1169 -0.2897
 7174SOL    HW233159   3.518   4.029   2.438 -0.5727  0.7034 -2.4673
 7175SOL     OW33160   4.713   3.378   6.842 -0.6935 -0.6080  0.2776
 7175SOL    HW133161   0.013   3.442   6.903  0.6419 -1.2809  0.1959
 7175SOL    HW233162   4.704   3.433   6.764 -0.7413  0.2753  0.9085
 7176SOL     OW33163   2.961   3.263  16.411 -0.5969 -0.5198 -0.1234
 7176SOL    HW133164   2.933   3.288  16.500  0.9802 -1.0400  0.5282
 7176SOL    HW233165   3.056   3.266  16.422 -0.8716 -1.5582  2.5798
 7177SOL     OW33166   0.919   2.867   3.116 -0.6432 -0.6014 -0.1139
 7177SOL    HW133167   0.964   2.840   3.196  0.2471  0.7414 -0.1646
 7177SOL    HW233168   0.909   2.961   3.132 -0.7879 -0.2490 -2.3180
 7178SOL     OW33169   3.962   3.828   5.379 -0.4834 -0.5061 -0.2329
 7178SOL    HW133170   3.970   3.866   5.467  2.6537 -1.9633  0.0972
 7178SOL    HW233171   3.922   3.744   5.402 -0.9166 -0.5249 -1.0835
 7179SOL     OW33172   0.278   1.893  15.302  0.2495 -0.1376  0.3157
 7179SOL    HW133173   0.235   1.879  15.218 -0.8922 -2.1884  1.2413
 7179SOL    HW233174   0.309   1.983  15.295  0.2338 -0.2974 -1.6680
 7180SOL     OW33175   3.939   1.646   6.142 -0.3995 -0.2238  0.3001
 7180SOL    HW133176   4.011   1.696   6.182  0.0336  1.1677 -2.2154
 7180SOL    HW233177   3.908   1.605   6.223 -1.2972 -0.4061 -0.1461
 7181SOL     OW33178   3.707   2.392  15.643 -0.3608 -0.3406 -0.4173
 7181SOL    HW133179   3.644   2.463  15.633 -0.3409 -0.8503 -4.0471
 7181SOL    HW233180   3.654   2.314  15.656  0.7453 -0.9336  0.4967
 7182SOL     OW33181   0.320   2.462   4.383  0.6863 -0.0363  0.3869
 7182SOL    HW133182   0.245   2.464   4.324  1.4939  0.9330 -0.5950
 7182SOL    HW233183   0.362   2.379   4.361 -0.4422 -0.6481  0.5263
 7183SOL     OW33184   2.559   3.005   4.895 -0.3230 -0.0564  0.2163
 7183SOL    HW133185   2.497   2.984   4.825  0.7502  1.9278 -1.2992
 7183SOL    HW233186   2.637   2.951   4.886 -0.6497 -0.6413  0.8694
 7184SOL     OW33187   1.291   1.784  16.663  0.0403  0.2476 -0.3319
 7184SOL    HW133188   1.244   1.801  16.581  0.7726  3.1434 -0.1543
 7184SOL    HW233189   1.366   1.843  16.656  1.7259 -1.4764  3.1750
 7185SOL     OW33190   1.411   3.814   7.266 -0.0608 -0.2271 -0.0258
 7185SOL    HW133191   1.449   3.778   7.186 -2.6138 -0.0839 -1.3132
 7185SOL    HW233192   1.490   3.820   7.319 -1.8531  2.0706  2.3568
 7186SOL     OW33193   3.764   2.653   1.380  0.0381 -0.0946  0.1351
 7186SOL    HW133194   3.760   2.595   1.456  0.9273 -1.5532 -0.9289
 7186SOL    HW233195   3.728   2.734   1.415 -0.8744 -0.4652  0.0624
 7187SOL     OW33196   3.976   0.739   8.339  0.0065  0.0064  0.2818
 7187SOL    HW133197   3.921   0.671   8.301 -1.4670  1.0590  0.5179
 7187SOL    HW233198   4.063   0.701   8.348 -0.5530 -1.0265  1.4501
 7188SOL     OW33199   3.090   3.948   1.566  0.4994  0.2418  0.2280
 7188SOL    HW133200   3.010   3.900   1.589  0.6038  0.2678  0.6432
 7188SOL    HW233201   3.083   3.946   1.470  0.5808 -1.6363  0.2634
 7189SOL     OW33202   0.566   2.685   4.427  0.3352  0.3467 -0.5963
 7189SOL    HW133203   0.624   2.756   4.453  0.7311 -1.0808  2.3999
 7189SOL    HW233204   0.623   2.645   4.362 -0.1847 -1.7719  0.2318
 7190SOL     OW33205   3.947   2.983  11.262 -0.6387  0.3141  0.1471
 7190SOL    HW133206   3.854   2.959  11.266 -0.4108 -0.8134 -1.4269
 7190SOL    HW233207   3.951   3.076  11.283  0.8997  0.2879 -0.1014
 7191SOL     OW33208   4.426   4.589   6.179  0.4977  0.0580 -0.7681
 7191SOL    HW133209   4.410   4.498   6.204  1.7284 -0.2706 -1.1807
 7191SOL    HW233210   4.363   4.601   6.109 -1.2690 -0.8367  0.6623
 7192SOL     OW33211   4.183   3.492   7.253  0.1208  0.1668  0.0177
 7192SOL    HW133212   4.238   3.425   7.294 -0.4412 -0.9809 -1.0922
 7192SOL    HW233213   4.123   3.429   7.211  1.6855 -0.8939 -0.6369
 7193SOL     OW33214   1.983   2.830   1.670  0.0924 -0.4756 -0.2202
 7193SOL    HW133215   1.919   2.846   1.601 -0.8659  1.2537  1.0649
 7193SOL    HW233216   2.045   2.775   1.622 -0.1571 -0.9620  0.0077
 7194SOL     OW33217   2.319   4.532   0.286 -0.7160 -0.4758  0.0066
 7194SOL    HW133218   2.338   4.594   0.215  1.4982 -1.3050 -0.1265
 7194SOL    HW233219   2.409   4.510   0.308 -0.6446 -1.0413 -0.8656
 7195SOL     OW33220   2.890   2.421  14.313 -0.0824 -0.9473  0.6563
 7195SOL    HW133221   2.902   2.382  14.226  1.0674 -1.5371  1.0776
 7195SOL    HW233222   2.795   2.410  14.321 -0.4571  0.0668 -2.2886
 7196SOL     OW33223   1.722   0.556  15.850  0.0100 -0.6760 -0.5748
 7196SOL    HW133224   1.671   0.506  15.914 -0.7516 -0.2028 -0.8205
 7196SOL    HW233225   1.738   0.488  15.784 -1.1430 -0.7394 -0.7877
 7197SOL     OW33226   3.106   4.103   4.588  0.6835 -0.1913  0.0286
 7197SOL    HW133227   3.144   4.134   4.506  0.5354 -1.6402 -0.5992
 7197SOL    HW233228   3.066   4.180   4.628  0.0069 -0.2136 -0.5990
 7198SOL     OW33229   4.101   0.613   3.893  0.1272 -0.4448  0.2171
 7198SOL    HW133230   4.167   0.544   3.885 -0.7331 -1.3591  0.9922
 7198SOL    HW233231   4.151   0.672   3.950 -0.8293  0.3054  0.2785
 7199SOL     OW33232   1.213   2.292   4.980 -0.5780  0.1855  0.0537
 7199SOL    HW133233   1.305   2.266   4.971 -0.2067  1.0523  1.3371
 7199SOL    HW233234   1.178   2.225   5.039 -1.4948  0.4328 -0.2097
 7200SOL     OW33235   0.250   2.568   5.873  0.5187  0.4855 -0.2905
 7200SOL    HW133236   0.160   2.563   5.905  0.4813 -0.0487 -0.4743
 7200SOL    HW233237   0.260   2.489   5.818  0.7696  0.7100 -0.5666
 7201SOL     OW33238   4.556   1.337  14.264 -0.2896  0.0095 -0.4201
 7201SOL    HW133239   4.479   1.383  14.297 -0.0944 -0.0937  0.1833
 7201SOL    HW233240   4.598   1.297  14.341  1.3151  1.9873 -0.2710
 7202SOL     OW33241   1.640   0.841   8.546  0.2585 -0.0605 -0.1535
 7202SOL    HW133242   1.644   0.931   8.578 -1.9409 -0.6119  1.6983
 7202SOL    HW233243   1.694   0.853   8.468  0.0542  1.1191 -0.1174
 7203SOL     OW33244   1.114   0.118   8.130 -0.1497 -0.0679  0.1743
 7203SOL    HW133245   1.197   0.141   8.171  0.2598 -1.3357  0.0765
 7203SOL    HW233246   1.107   0.174   8.053  1.4976 -3.1562 -2.2036
 7204SOL     OW33247   0.782   1.664   2.136 -0.1267  0.2367  0.1516
 7204SOL    HW133248   0.828   1.665   2.052  0.0489 -3.4267  0.1875
 7204SOL    HW233249   0.822   1.587   2.177 -1.5808 -0.7403 -0.2608
 7205SOL     OW33250   0.686   1.135   2.891  0.1732  0.1915  0.7886
 7205SOL    HW133251   0.624   1.112   2.961  0.9207 -0.1734  1.3238
 7205SOL    HW233252   0.716   1.214   2.937 -0.2754 -0.1691  1.7036
 7206SOL     OW33253   4.424   1.292  15.769 -0.2224  0.2661 -0.6125
 7206SOL    HW133254   4.493   1.309  15.705  1.4561 -0.8496  0.8901
 7206SOL    HW233255   4.472   1.266  15.848  1.0986  0.4344 -1.3482
 7207SOL     OW33256   1.203   2.637   5.005 -0.5626  0.0416  0.3858
 7207SOL    HW133257   1.171   2.579   4.937  0.4185  1.0587 -0.9449
 7207SOL    HW233258   1.198   2.588   5.088  0.0751  0.0902  0.4512
 7208SOL     OW33259   3.569   4.056   0.137 -0.2221  0.3520 -0.6600
 7208SOL    HW133260   3.537   4.147   0.138  1.2677  0.8471  2.1371
 7208SOL    HW233261   3.606   4.052   0.048 -1.1946 -0.6125 -1.0122
 7209SOL     OW33262   1.224   1.543   9.250  0.0599  0.3346  0.0871
 7209SOL    HW133263   1.199   1.619   9.302  1.1627 -0.5472  1.9069
 7209SOL    HW233264   1.318   1.542   9.267  0.1749  0.7221 -0.5267
 7210SOL     OW33265   1.774   4.480   4.606 -0.0360  0.4576  0.5093
 7210SOL    HW133266   1.794   4.386   4.610 -1.5211  0.0868 -1.0753
 7210SOL    HW233267   1.686   4.476   4.568  0.2634 -1.7970  0.0041
 7211SOL     OW33268   1.811   0.385   4.505 -0.0655  0.3473  0.0417
 7211SOL    HW133269   1.802   0.465   4.557 -1.4137  0.5448 -0.5066
 7211SOL    HW233270   1.893   0.393   4.455  0.6581 -1.6230  0.8889
 7212SOL     OW33271   0.342   2.911   5.546  0.0611  0.0763  0.5328
 7212SOL    HW133272   0.263   2.926   5.598 -1.3543 -0.6266 -1.4474
 7212SOL    HW233273   0.361   2.819   5.565  2.7816  0.4518 -0.3335
 7213SOL     OW33274   0.293   1.523   3.919 -0.3742 -0.2942  0.1915
 7213SOL    HW133275   0.282   1.612   3.951 -0.3365 -0.1412 -0.2240
 7213SOL    HW233276   0.203   1.489   3.923  0.3429 -2.5181 -2.3084
 7214SOL     OW33277   3.569   4.458   4.500 -0.5198  0.1234 -0.6259
 7214SOL    HW133278   3.635   4.510   4.546 -0.9548 -1.2823  1.6030
 7214SOL    HW233279   3.500   4.456   4.567 -0.9220  1.7242 -0.9887
 7215SOL     OW33280   3.559   0.207   5.421 -0.2748  0.4830  0.2584
 7215SOL    HW133281   3.595   0.264   5.489 -1.4648  0.6044  0.7981
 7215SOL    HW233282   3.516   0.266   5.358  0.3965 -0.3821 -1.0005
 7216SOL     OW33283   4.241   2.397  15.749 -0.4863  0.6956  0.2405
 7216SOL    HW133284   4.272   2.474  15.798 -1.0209  1.2627 -0.3038
 7216SOL    HW233285   4.151   2.402  15.782 -1.4940 -1.8696 -2.1261
 7217SOL     OW33286   2.492   3.045   0.096  0.9771  0.0741 -0.2249
 7217SOL    HW133287   2.582   3.036   0.126  2.2015  3.8620 -2.7758
 7217SOL    HW233288   2.484   3.139   0.114  1.9116  0.1805 -0.3621
 7218SOL     OW33289   0.230   3.354  14.484  0.0828 -0.1142  0.8208
 7218SOL    HW133290   0.270   3.277  14.525  0.1610 -0.6683 -0.2974
 7218SOL    HW233291   0.191   3.400  14.559  0.6485 -0.0696  1.0814
 7219SOL     OW33292   3.263   3.000  11.759  0.3347  0.2304 -0.1325
 7219SOL    HW133293   3.315   3.050  11.821 -0.0070  0.4824 -0.0525
 7219SOL    HW233294   3.219   2.938  11.817 -0.8851  0.6167 -0.6435
 7220SOL     OW33295   1.943   0.883   9.147  0.0212  0.2361  0.5778
 7220SOL    HW133296   2.017   0.864   9.205 -1.0278  1.1093  2.1950
 7220SOL    HW233297   1.866   0.877   9.203 -0.7747  0.3762 -0.5184
 7221SOL     OW33298   3.744   3.161   2.407 -0.1973 -0.2367 -0.1606
 7221SOL    HW133299   3.815   3.100   2.388 -0.3991 -0.1741 -1.1012
 7221SOL    HW233300   3.671   3.116   2.364 -0.5275  1.2054 -1.1230
 7222SOL     OW33301   0.874   3.876  13.425 -0.1863  0.0084 -0.5715
 7222SOL    HW133302   0.856   3.875  13.331 -2.5094  1.6558 -0.1588
 7222SOL    HW233303   0.959   3.832  13.419 -0.4778 -0.7290  0.7318
 7223SOL     OW33304   2.084   3.689  13.935  0.3369  0.0794  0.0680
 7223SOL    HW133305   2.171   3.713  13.902 -0.0964 -0.2207 -1.2448
 7223SOL    HW233306   2.052   3.772  13.972 -0.5975  1.4651 -3.9283
 7224SOL     OW33307   2.985   3.627   9.375  1.0040 -0.1510 -0.2556
 7224SOL    HW133308   3.030   3.702   9.336  0.9695 -0.6516 -1.2632
 7224SOL    HW233309   2.978   3.665   9.463  1.8491 -0.9209  0.1469
 7225SOL     OW33310   1.212   1.807   4.694 -0.3796 -0.8958  0.3272
 7225SOL    HW133311   1.240   1.739   4.632  0.3303 -0.9434  0.6963
 7225SOL    HW233312   1.296   1.818   4.740 -0.9616  0.4054  1.0534
 7226SOL     OW33313   1.051   0.904   3.134 -0.3937  0.5162  0.4227
 7226SOL    HW133314   0.961   0.908   3.102 -0.7308 -3.3022  0.8543
 7226SOL    HW233315   1.039   0.859   3.218  0.6112 -1.3674 -0.4435
 7227SOL     OW33316   0.885   1.358   6.483 -0.0956 -0.4662  0.0801
 7227SOL    HW133317   0.865   1.447   6.510  0.8899 -0.0266 -0.6333
 7227SOL    HW233318   0.978   1.373   6.468 -0.0780  0.5933  1.3230
 7228SOL     OW33319   3.857   1.215   5.283 -0.6907 -0.0618 -0.1288
 7228SOL    HW133320   3.802   1.279   5.327 -0.1614 -1.1477  2.0859
 7228SOL    HW233321   3.949   1.224   5.307 -0.6084  2.5846 -1.4631
 7229SOL     OW33322   3.006   3.100   7.373 -0.3118 -0.6838 -0.2064
 7229SOL    HW133323   3.028   3.143   7.455  0.8565 -1.6612 -0.0111
 7229SOL    HW233324   2.931   3.045   7.398 -1.0104 -0.7416 -2.4215
 7230SOL     OW33325   1.329   3.471   4.215 -0.0576  0.0340 -0.2348
 7230SOL    HW133326   1.335   3.514   4.130 -1.9742  1.5947  0.3986
 7230SOL    HW233327   1.274   3.395   4.197  3.2118 -1.8963 -1.8995
 7231SOL     OW33328   3.924   3.994   2.614 -0.3573  0.1684 -0.1050
 7231SOL    HW133329   3.865   3.920   2.596  2.3652 -1.5376 -2.0398
 7231SOL    HW233330   4.008   3.952   2.630  0.9866  3.5417  1.6045
 7232SOL     OW33331   3.524   0.186   1.331  0.3707  0.4620  0.1489
 7232SOL    HW133332   3.584   0.243   1.379  0.1690  1.8548 -1.2327
 7232SOL    HW233333   3.579   0.107   1.331 -1.5988 -0.9139 -0.7280
 7233SOL     OW33334   0.279   3.554   8.100 -0.0535 -0.0425  0.1681
 7233SOL    HW133335   0.241   3.549   8.012 -2.9421 -1.0833  1.4662
 7233SOL    HW233336   0.243   3.640   8.121 -3.5351 -1.0637 -1.6277
 7234SOL     OW33337   2.223   0.122  11.503  0.3209  0.2670  0.1521
 7234SOL    HW133338   2.153   0.119  11.569  2.3127  0.8061  2.2924
 7234SOL    HW233339   2.193   0.055  11.442  0.9507  1.9006 -1.9303
 7235SOL     OW33340   1.236   0.796   8.103 -0.3218 -0.2394  0.1467
 7235SOL    HW133341   1.330   0.812   8.093 -0.4923 -0.2216 -1.3681
 7235SOL    HW233342   1.202   0.829   8.020 -0.2264  1.1767  0.6589
 7236SOL     OW33343   1.895   2.259   3.995 -1.0022  0.4500  0.2075
 7236SOL    HW133344   1.950   2.198   3.946  0.9170  2.6233 -0.3304
 7236SOL    HW233345   1.856   2.313   3.927  1.2336  1.2559 -0.4378
 7237SOL     OW33346   3.523   3.504  13.125 -0.0777 -0.0966  0.1440
 7237SOL    HW133347   3.574   3.548  13.192  0.2914 -0.0547 -0.1653
 7237SOL    HW233348   3.464   3.576  13.102  0.7635 -0.3665 -2.8452
 7238SOL     OW33349   2.405   4.401  17.269 -0.8958  0.0242  0.2098
 7238SOL    HW133350   2.343   4.328  17.261 -2.4205  1.2485  0.7232
 7238SOL    HW233351   2.491   4.359  17.266 -0.2462  1.4051 -0.7139
 7239SOL     OW33352   1.739   2.655   7.418 -0.0315  0.0238 -0.1550
 7239SOL    HW133353   1.710   2.694   7.336 -0.1258 -2.2399 -1.1773
 7239SOL    HW233354   1.823   2.620   7.387 -0.7010 -0.1636 -1.7575
 7240SOL     OW33355   2.124   2.928   3.312  0.1976  0.0774 -0.6291
 7240SOL    HW133356   2.090   2.984   3.242  0.4069 -1.3924 -1.8959
 7240SOL    HW233357   2.166   2.858   3.261  2.6765  2.1049 -1.4001
 7241SOL     OW33358   3.079   4.038   2.756 -0.0620 -0.2672  0.4961
 7241SOL    HW133359   3.157   4.089   2.780 -0.7676  1.1224 -0.1418
 7241SOL    HW233360   3.089   3.966   2.818  1.7526 -0.5748 -0.1454
 7242SOL     OW33361   4.060   1.229   8.650 -0.3135 -0.5085 -0.3455
 7242SOL    HW133362   4.013   1.156   8.689  0.0591 -0.1331  0.8016
 7242SOL    HW233363   4.049   1.305   8.707 -0.6251  0.1571 -1.2798
 7243SOL     OW33364   3.583   0.779   4.843  0.0761  0.2415 -0.1359
 7243SOL    HW133365   3.572   0.874   4.842 -1.2618  0.1061  1.0811
 7243SOL    HW233366   3.594   0.757   4.936  1.1060 -0.3529 -0.3968
 7244SOL     OW33367   3.049   3.616   2.629 -0.2809  0.0680  0.3075
 7244SOL    HW133368   3.036   3.634   2.536  1.7574 -1.9812 -0.4039
 7244SOL    HW233369   3.094   3.698   2.649  0.4183 -0.4441  0.8553
 7245SOL     OW33370   4.609   1.273  11.907 -0.3694 -0.1487 -0.7269
 7245SOL    HW133371   4.646   1.353  11.945  0.2123 -0.1820 -1.2131
 7245SOL    HW233372   4.682   1.214  11.929  1.2941  1.8488 -0.8261
 7246SOL     OW33373   0.245   2.337   5.720  0.0744 -0.0116  0.5594
 7246SOL    HW133374   0.279   2.272   5.658  0.7981  1.6231 -0.7844
 7246SOL    HW233375   0.153   2.311   5.722  0.4259 -1.1507  1.9915
 7247SOL     OW33376   1.574   2.003   3.974  0.0971 -0.1054 -0.3275
 7247SOL    HW133377   1.648   2.040   4.022 -2.9292  1.8367  2.7673
 7247SOL    HW233378   1.602   2.005   3.882  1.2832 -1.1551  0.0150
 7248SOL     OW33379   1.121   0.959   7.036  0.0115 -0.6770  0.0937
 7248SOL    HW133380   1.043   0.974   6.983  0.5028  1.9662  0.1175
 7248SOL    HW233381   1.180   1.033   7.021 -2.3220  1.0169 -0.6997
 7249SOL     OW33382   3.630   3.093   3.618  0.4570 -0.1549  0.8086
 7249SOL    HW133383   3.598   3.065   3.704  1.2763 -0.6411  0.9628
 7249SOL    HW233384   3.689   3.019   3.599 -0.3442 -0.7134  0.5120
 7250SOL     OW33385   3.016   3.859  13.955  0.1558  0.5561 -0.3093
 7250SOL    HW133386   3.091   3.898  14.000 -0.4402  0.7969  0.4675
 7250SOL    HW233387   3.032   3.858  13.861 -2.8743 -1.7125 -0.7959
 7251SOL     OW33388   3.154   3.825   5.649  0.3650  0.0127  0.3560
 7251SOL    HW133389   3.101   3.804   5.726  0.7450 -2.5329 -0.0871
 7251SOL    HW233390   3.085   3.837   5.584 -1.3911  0.4835  2.3223
 7252SOL     OW33391   1.250   0.794  12.273 -0.2112  0.0625  0.4275
 7252SOL    HW133392   1.200   0.720  12.237  1.6254 -1.0252  0.1338
 7252SOL    HW233393   1.208   0.866  12.226  0.8290  1.3087  1.4022
 7253SOL     OW33394   0.758   2.546   2.800 -0.5383  0.1230  0.5232
 7253SOL    HW133395   0.761   2.494   2.881  0.0823  0.7133  0.8753
 7253SOL    HW233396   0.795   2.487   2.735  0.8074  0.2910  1.1377
 7254SOL     OW33397   4.009   3.012   6.519 -0.1823 -0.1318 -0.4695
 7254SOL    HW133398   4.095   3.022   6.477  0.0954 -1.3391 -0.1889
 7254SOL    HW233399   3.962   2.953   6.461  0.8105 -3.1932  1.8169
 7255SOL     OW33400   3.502   0.673  16.449  0.1231  0.3845 -0.1385
 7255SOL    HW133401   3.433   0.641  16.391  1.1410 -0.8275 -0.6903
 7255SOL    HW233402   3.483   0.765  16.431 -1.5647  0.2016  0.6237
 7256SOL     OW33403   1.903   0.374   4.814 -0.1403 -0.2058 -0.5055
 7256SOL    HW133404   1.851   0.385   4.735 -0.8481 -1.8185 -0.2684
 7256SOL    HW233405   1.858   0.304   4.863  1.3007 -2.0422 -1.7921
 7257SOL     OW33406   1.692   2.435   6.010 -0.4489 -0.1407  0.0878
 7257SOL    HW133407   1.771   2.390   5.981  0.1086  0.4906  0.6391
 7257SOL    HW233408   1.695   2.522   5.969 -0.4567 -0.6523 -0.9987
 7258SOL     OW33409   0.030   2.500   3.318 -0.3449 -0.0416 -0.6436
 7258SOL    HW133410   0.005   2.511   3.226  0.0817  1.3771 -0.5749
 7258SOL    HW233411   0.073   2.414   3.313 -1.2084 -0.6192  1.9211
 7259SOL     OW33412   0.918   1.637   4.697  0.3867 -0.2577 -0.2722
 7259SOL    HW133413   0.889   1.692   4.769 -0.6163  0.5805 -1.3239
 7259SOL    HW233414   0.990   1.594   4.744 -1.5925 -0.7492  2.2727
 7260SOL     OW33415   3.704   3.296   9.176  0.1654 -0.3280 -0.4553
 7260SOL    HW133416   3.785   3.298   9.125 -0.6806 -1.8302 -1.9053
 7260SOL    HW233417   3.720   3.371   9.233  0.7005 -0.5765 -0.2839
 7261SOL     OW33418   4.439   4.154   6.572 -0.2366 -0.4255 -0.2995
 7261SOL    HW133419   4.471   4.220   6.633  0.4301 -0.3367 -0.7493
 7261SOL    HW233420   4.366   4.112   6.618 -0.3975  0.1022 -0.0720
 7262SOL     OW33421   2.387   0.512   1.862 -0.6573  0.8511 -0.3995
 7262SOL    HW133422   2.403   0.542   1.772 -2.9704 -0.1283 -1.1225
 7262SOL    HW233423   2.476   0.482   1.883 -0.6308  0.0509 -1.6379
 7263SOL     OW33424   0.359   1.171   8.153  0.6418  0.3541  0.0044
 7263SOL    HW133425   0.378   1.259   8.183  3.1018  0.5153 -2.0418
 7263SOL    HW233426   0.322   1.189   8.066  1.0578 -0.7581 -0.4048
 7264SOL     OW33427   0.272   4.194   9.440  0.1857 -0.2417 -0.3002
 7264SOL    HW133428   0.342   4.256   9.420  1.5775 -1.5697  0.4357
 7264SOL    HW233429   0.239   4.182   9.351 -1.0442  1.3162 -0.0528
 7265SOL     OW33430   2.542   2.180   0.532 -0.9475 -0.5129 -0.4682
 7265SOL    HW133431   2.446   2.181   0.522 -1.2640 -0.0286  2.7147
 7265SOL    HW233432   2.560   2.272   0.550 -0.1753 -0.7360 -0.1121
 7266SOL     OW33433   1.905   1.961   5.326 -0.3210  0.2337 -0.4431
 7266SOL    HW133434   1.868   1.992   5.408  0.3270  2.7092 -1.0628
 7266SOL    HW233435   1.853   1.887   5.295  0.5292 -0.5487 -0.0234
 7267SOL     OW33436   3.432   4.728   4.636  0.2737 -0.4535  0.8197
 7267SOL    HW133437   3.405   4.636   4.638 -0.6288 -0.2235 -0.2314
 7267SOL    HW233438   3.398   0.016   4.549  0.7288 -1.7846  0.2605
 7268SOL     OW33439   4.202   1.311   6.392  0.5344  0.0486  0.4935
 7268SOL    HW133440   4.295   1.286   6.391  0.6003  0.2869  1.0006
 7268SOL    HW233441   4.187   1.279   6.303  2.2566 -0.7357  0.4692
 7269SOL     OW33442   4.121   1.860   6.978 -0.7653  0.3960 -0.3491
 7269SOL    HW133443   4.159   1.840   6.892  1.4442 -1.9067  1.1911
 7269SOL    HW233444   4.106   1.955   6.981  2.3011  0.7934  2.0464
 7270SOL     OW33445   1.929   4.412   1.036  0.2863 -0.1213  0.3327
 7270SOL    HW133446   1.936   4.416   0.941  0.2844 -3.4414  0.1950
 7270SOL    HW233447   1.838   4.382   1.045  1.0366 -3.1252 -1.8175
 7271SOL     OW33448   2.241   4.228   6.123 -0.1747 -0.0906 -0.0837
 7271SOL    HW133449   2.181   4.160   6.091  0.7424 -0.7531 -0.3845
 7271SOL    HW233450   2.275   4.257   6.038 -0.8908  1.3146  0.1129
 7272SOL     OW33451   2.721   3.827   9.348 -0.1230  0.3783 -0.0673
 7272SOL    HW133452   2.662   3.901   9.329 -1.3254 -0.0605  1.9412
 7272SOL    HW233453   2.800   3.857   9.303  0.5120  1.5885  1.8215
 7273SOL     OW33454   4.660   4.293  17.063 -0.0033 -0.5864  0.4017
 7273SOL    HW133455   4.713   4.292  16.983  0.0230 -3.1433  0.4287
 7273SOL    HW233456   4.646   4.386  17.078  0.8142 -0.4755  0.5091
 7274SOL     OW33457   0.501   1.556   3.722  0.5592 -0.3393  0.1215
 7274SOL    HW133458   0.546   1.599   3.795  0.1162 -0.9981  0.7752
 7274SOL    HW233459   0.420   1.538   3.770  1.4245 -0.3671  1.5575
 7275SOL     OW33460   0.836   1.620   1.491  0.4456 -0.0865  0.1691
 7275SOL    HW133461   0.789   1.543   1.523 -0.3215 -0.9200 -2.9290
 7275SOL    HW233462   0.857   1.661   1.575  2.6147 -1.1109  0.1269
 7276SOL     OW33463   2.453   2.678   1.558  0.0538 -0.2858 -0.2332
 7276SOL    HW133464   2.516   2.607   1.569 -0.9330 -1.2668 -0.8800
 7276SOL    HW233465   2.501   2.745   1.509  1.6859  0.0841  1.8533
 7277SOL     OW33466   3.508   4.399  13.526  0.2164  0.2793 -0.5581
 7277SOL    HW133467   3.552   4.477  13.558  2.4712 -1.4018  0.3940
 7277SOL    HW233468   3.538   4.325  13.579 -3.2231 -3.0136 -3.1144
 7278SOL     OW33469   2.071   2.236   6.103 -0.4833 -0.2657  0.6714
 7278SOL    HW133470   2.030   2.170   6.159 -0.5170 -1.2925 -0.5565
 7278SOL    HW233471   2.129   2.283   6.163  1.3302 -0.1006 -1.2127
 7279SOL     OW33472   3.313   3.051   8.558 -0.5468 -0.0499  0.0836
 7279SOL    HW133473   3.356   3.132   8.530 -0.1157 -0.8175 -1.4857
 7279SOL    HW233474   3.384   3.023   8.616 -0.1132 -0.7430 -0.7827
 7280SOL     OW33475   0.312   0.793   7.117  0.0704 -0.4354 -0.5407
 7280SOL    HW133476   0.326   0.865   7.177  0.7980 -0.6416 -0.4657
 7280SOL    HW233477   0.288   0.719   7.173 -2.4964  0.5236 -0.3722
 7281SOL     OW33478   1.655   4.106   8.475  0.0855 -0.6292 -0.1179
 7281SOL    HW133479   1.625   4.074   8.390 -3.1997 -1.7115  1.4158
 7281SOL    HW233480   1.617   4.194   8.473  0.0759 -0.6510 -0.9937
 7282SOL     OW33481   4.274   2.008   9.795  0.1391  0.0018  0.1979
 7282SOL    HW133482   4.323   2.046   9.868 -0.8888 -0.9371  1.3774
 7282SOL    HW233483   4.344   1.967   9.743  1.8612 -0.2944  2.7298
 7283SOL     OW33484   1.542   1.887  12.593 -1.2547  0.5101 -0.2550
 7283SOL    HW133485   1.478   1.898  12.523 -0.2047 -2.4673 -1.7117
 7283SOL    HW233486   1.515   1.802  12.626 -4.3480  2.1560  1.3863
 7284SOL     OW33487   4.267   2.655   8.371 -0.2961 -0.1313 -0.3229
 7284SOL    HW133488   4.186   2.705   8.366  0.3949  0.7491 -2.7564
 7284SOL    HW233489   4.236   2.595   8.439 -1.2000 -0.2266 -0.8168
 7285SOL     OW33490   1.441   2.925   1.803 -0.6679 -0.4367 -0.0386
 7285SOL    HW133491   1.520   2.880   1.832  0.3076  0.0094 -1.9947
 7285SOL    HW233492   1.386   2.939   1.880 -0.1176  0.1302  0.2636
 7286SOL     OW33493   3.601   4.498   5.898  0.2701  0.1283 -0.1103
 7286SOL    HW133494   3.573   4.582   5.862 -1.0505 -0.0851  0.4227
 7286SOL    HW233495   3.636   4.460   5.818 -0.6075 -2.9788  1.0089
 7287SOL     OW33496   1.285   1.787   8.907 -0.0983  0.1529 -0.4720
 7287SOL    HW133497   1.306   1.879   8.892  0.1511  0.3145  0.8917
 7287SOL    HW233498   1.192   1.779   8.927 -0.0568  0.1420 -0.2842
 7288SOL     OW33499   1.166   1.181   4.736 -0.1850  0.4325  0.4459
 7288SOL    HW133500   1.167   1.251   4.670 -0.0404  0.6871  0.7157
 7288SOL    HW233501   1.076   1.196   4.767 -1.1251 -0.3880 -1.8278
 7289SOL     OW33502   3.871   0.311  11.834 -0.1291  0.7156  0.2463
 7289SOL    HW133503   3.932   0.239  11.820 -1.5990 -0.8102  1.7516
 7289SOL    HW233504   3.791   0.259  11.837  0.1051  0.3906  0.8500
 7290SOL     OW33505   3.986   4.279   7.942  0.4676  0.4052 -0.1913
 7290SOL    HW133506   3.984   4.374   7.935 -0.1067  0.6711  3.7319
 7290SOL    HW233507   3.898   4.258   7.912 -0.2931  0.2982  2.1251
 7291SOL     OW33508   2.700   1.733  16.788  0.5262 -0.1873 -0.0558
 7291SOL    HW133509   2.660   1.652  16.820  0.3919 -0.1050 -0.0178
 7291SOL    HW233510   2.792   1.713  16.770  0.6146  0.1190  0.0570
 7292SOL     OW33511   0.023   0.085  13.853 -0.6617  0.4563 -0.1753
 7292SOL    HW133512   0.111   0.088  13.816 -1.2751 -0.9355 -1.7588
 7292SOL    HW233513   4.721   0.017  13.797 -1.2576 -0.0286  0.8227
 7293SOL     OW33514   3.788   1.235   7.354  0.4758  0.2381  0.3857
 7293SOL    HW133515   3.844   1.295   7.304  2.2821 -2.6220 -1.0302
 7293SOL    HW233516   3.775   1.285   7.434  0.4076 -0.5358  0.8490
 7294SOL     OW33517   3.708   2.713  13.103 -0.0324  0.4541  0.5167
 7294SOL    HW133518   3.792   2.744  13.136 -1.7530  3.1782  2.3416
 7294SOL    HW233519   3.699   2.621  13.128 -4.3159  0.3496 -1.3869
 7295SOL     OW33520   2.267   0.766   3.533 -0.0340 -0.2912  0.0289
 7295SOL    HW133521   2.327   0.764   3.608  1.3940  1.1812 -1.0828
 7295SOL    HW233522   2.201   0.711   3.576  1.6290  0.4244  3.4701
 7296SOL     OW33523   0.811   3.316   7.516 -0.1216  0.2569  0.1903
 7296SOL    HW133524   0.817   3.411   7.512  0.5846  0.1258 -1.5409
 7296SOL    HW233525   0.805   3.298   7.610  1.2771  1.3191  0.4700
 7297SOL     OW33526   4.335   3.091   6.733 -0.3635  0.4534 -0.0374
 7297SOL    HW133527   4.404   3.111   6.796  1.2054 -2.4218 -0.8079
 7297SOL    HW233528   4.272   3.084   6.804 -0.8787  2.1322 -0.3258
 7298SOL     OW33529   2.476   0.299  11.419  0.2424 -0.6826  0.2553
 7298SOL    HW133530   2.417   0.342  11.357  1.9605  0.3557 -0.6598
 7298SOL    HW233531   2.530   0.370  11.453  2.0240 -2.1432  0.4634
 7299SOL     OW33532   0.338   3.354  11.461 -0.5613 -0.1795 -0.2636
 7299SOL    HW133533   0.412   3.413  11.480 -0.0254 -0.3495 -1.8142
 7299SOL    HW233534   0.383   3.270  11.458 -1.1213 -0.4521 -0.8669
 7300SOL     OW33535   4.449   3.084   7.527  0.1946 -0.1631 -0.3059
 7300SOL    HW133536   4.465   3.103   7.619 -2.6520  3.3907 -0.5383
 7300SOL    HW233537   4.401   3.002   7.526 -1.9109  1.0648 -0.1906
 7301SOL     OW33538   4.097   1.512   3.138  0.0060 -0.4381  0.5553
 7301SOL    HW133539   4.132   1.459   3.066  1.9808  0.8706  0.5755
 7301SOL    HW233540   4.166   1.523   3.203  0.1064 -1.5678  0.6495
 7302SOL     OW33541   0.034   0.896   2.391  0.5680  0.3879  0.1561
 7302SOL    HW133542   4.707   0.945   2.339  0.0596  0.3696  0.7656
 7302SOL    HW233543   4.720   0.847   2.455 -0.2475 -0.3946 -1.0887
 7303SOL     OW33544   0.093   1.588   2.567 -0.0172 -0.0741 -0.2700
 7303SOL    HW133545   0.078   1.561   2.658 -0.5990 -1.9196 -0.9249
 7303SOL    HW233546   0.013   1.630   2.538  0.4164  2.7095  2.5851
 7304SOL     OW33547   0.045   4.204   6.936 -0.4955  1.0153  0.4165
 7304SOL    HW133548   0.077   4.183   7.024 -2.2377 -1.2803  0.5005
 7304SOL    HW233549   0.076   4.294   6.921  2.7084 -0.1125  0.2232
 7305SOL     OW33550   0.659   4.117   6.072  0.0062 -0.5608  0.6031
 7305SOL    HW133551   0.602   4.087   6.143 -0.8928  1.0946  0.5735
 7305SOL    HW233552   0.685   4.033   6.034 -1.4180 -1.0484  0.7021
 7306SOL     OW33553   0.547   0.902   9.701  0.5228  0.3428 -0.3772
 7306SOL    HW133554   0.496   0.908   9.620  0.0370  1.2600  0.0000
 7306SOL    HW233555   0.476   0.877   9.760 -0.8151 -0.8035 -2.4776
 7307SOL     OW33556   1.319   1.565   5.857  0.1378  0.0225  0.0393
 7307SOL    HW133557   1.347   1.639   5.803 -0.8461 -0.8117 -1.6355
 7307SOL    HW233558   1.407   1.528   5.860 -0.3199 -1.3803 -3.3804
 7308SOL     OW33559   1.271   4.618  14.242  0.5343  0.1367  0.4632
 7308SOL    HW133560   1.243   4.526  14.236  3.2196 -0.6035 -0.6161
 7308SOL    HW233561   1.273   4.618  14.337  1.8845 -1.6925  0.4504
 7309SOL     OW33562   2.549   4.144   7.881 -0.1552 -0.1853  0.2682
 7309SOL    HW133563   2.520   4.124   7.970 -1.3439  2.4704  0.4903
 7309SOL    HW233564   2.597   4.065   7.857  0.1514  0.7261 -2.1246
 7310SOL     OW33565   2.157   0.431   7.640  0.5374  0.0827  0.1088
 7310SOL    HW133566   2.206   0.357   7.603  0.2868  0.9457 -1.9636
 7310SOL    HW233567   2.090   0.383   7.687  0.7629 -0.5597 -0.2321
 7311SOL     OW33568   4.393   3.084   4.843  0.3388  0.2881  0.1763
 7311SOL    HW133569   4.339   3.007   4.861  1.2694 -0.3962  0.0329
 7311SOL    HW233570   4.474   3.048   4.806 -0.4063 -1.7470  0.5490
 7312SOL     OW33571   1.684   0.942   6.404  0.2726 -0.1684 -0.5337
 7312SOL    HW133572   1.691   1.036   6.389  0.9023 -0.3790 -1.5305
 7312SOL    HW233573   1.772   0.912   6.383  0.1554 -0.7728 -0.1434
 7313SOL     OW33574   1.736   0.060   2.547  0.4357  0.4564  0.6158
 7313SOL    HW133575   1.679   0.116   2.599  0.4642 -0.7036  1.8911
 7313SOL    HW233576   1.716   0.107   2.466  1.4132  1.1539  0.7731
 7314SOL     OW33577   2.587   4.098   4.797 -0.1083  0.7697  0.1549
 7314SOL    HW133578   2.561   4.079   4.706 -0.5088 -1.3182  0.7149
 7314SOL    HW233579   2.675   4.067   4.813 -0.6620 -1.1594 -0.5254
 7315SOL     OW33580   4.635   0.097  12.179 -0.0845  0.9093  0.3524
 7315SOL    HW133581   4.728   0.085  12.160 -0.1629 -1.3544  1.4270
 7315SOL    HW233582   4.618   0.097  12.273 -0.3041  1.2490  0.3157
 7316SOL     OW33583   1.432   1.301   7.508  0.1692  0.0854 -0.1623
 7316SOL    HW133584   1.523   1.317   7.533 -0.2816  0.5262  1.1937
 7316SOL    HW233585   1.397   1.232   7.565 -0.8506  0.2005 -0.6453
 7317SOL     OW33586   0.785   2.625   4.895 -0.5637 -0.1634 -0.0860
 7317SOL    HW133587   0.725   2.552   4.910 -0.8984  0.3106  0.9218
 7317SOL    HW233588   0.872   2.590   4.916 -0.0991  0.9600 -0.1067
 7318SOL     OW33589   0.061   4.078   8.888  0.3252  0.0045 -0.7466
 7318SOL    HW133590   0.106   4.133   8.953 -2.6074  0.3678  0.9485
 7318SOL    HW233591   4.718   4.128   8.870  1.9733  2.7594 -0.3626
 7319SOL     OW33592   0.451   3.207   2.163 -0.1088 -0.6661  0.1756
 7319SOL    HW133593   0.412   3.256   2.235 -0.9076 -1.1161  0.0412
 7319SOL    HW233594   0.484   3.283   2.114  0.0570 -1.3123 -0.7188
 7320SOL     OW33595   3.840   2.502   2.871 -0.5425  0.7138 -0.0939
 7320SOL    HW133596   3.795   2.509   2.955  3.0239 -1.9625  2.0549
 7320SOL    HW233597   3.878   2.589   2.870 -0.1100  0.5380  0.6921
 7321SOL     OW33598   0.136   0.093   7.740  0.2867  0.6894  0.0498
 7321SOL    HW133599   0.180   0.118   7.821  0.9748 -2.1733  0.5559
 7321SOL    HW233600   0.148   4.736   7.757  0.3398  0.7437  0.3177
 7322SOL     OW33601   1.404   1.486   3.914 -0.0505 -0.1830  0.0760
 7322SOL    HW133602   1.319   1.449   3.938 -0.2735  0.8853  0.9711
 7322SOL    HW233603   1.463   1.442   3.975  1.6084  1.4788 -0.3303
 7323SOL     OW33604   0.188   4.011  12.114 -0.4138  0.0369  0.4956
 7323SOL    HW133605   0.119   3.949  12.093  0.6215 -0.6115 -1.0012
 7323SOL    HW233606   0.136   4.092  12.121 -2.4516 -1.3134  0.9048
 7324SOL     OW33607   1.907   1.295   5.602 -0.7172 -0.0737  0.0191
 7324SOL    HW133608   1.921   1.331   5.690 -2.1587 -1.6178  0.8635
 7324SOL    HW233609   1.962   1.358   5.555  0.1529 -1.5248 -0.9160
 7325SOL     OW33610   3.494   4.682  10.242 -0.5486 -0.4222 -0.0038
 7325SOL    HW133611   3.542   0.027  10.223  2.3048 -1.9881  0.5309
 7325SOL    HW233612   3.576   4.632  10.244 -1.1337 -1.4862 -1.8826
 7326SOL     OW33613   2.579   4.196  11.574  0.5908  0.1553 -0.4748
 7326SOL    HW133614   2.604   4.151  11.655 -3.4452 -0.9026  0.1709
 7326SOL    HW233615   2.488   4.217  11.596  0.3929 -0.4125 -0.7393
 7327SOL     OW33616   0.604   1.914   8.080 -0.1905  0.0359 -0.0756
 7327SOL    HW133617   0.581   2.004   8.057  0.9112 -0.0247 -1.4688
 7327SOL    HW233618   0.520   1.885   8.113  0.4786 -2.7517 -0.8555
 7328SOL     OW33619   1.848   2.294  15.373 -0.2694  0.1534  0.2179
 7328SOL    HW133620   1.912   2.223  15.375  2.1617  2.3184 -0.1444
 7328SOL    HW233621   1.888   2.353  15.437 -0.7186  1.1453 -0.4067
 7329SOL     OW33622   3.350   4.106  17.520  0.2676 -0.3140  0.0814
 7329SOL    HW133623   3.316   4.145  17.439 -2.8076 -0.6188  1.2182
 7329SOL    HW233624   3.406   4.172  17.560 -0.3166  0.5176 -0.4694
 7330SOL     OW33625   3.208   4.522  16.915  0.0349 -0.4783  0.1406
 7330SOL    HW133626   3.292   4.541  16.872 -0.4288 -1.3206 -1.1510
 7330SOL    HW233627   3.213   4.594  16.977 -0.3646  0.5743 -1.0436
 7331SOL     OW33628   3.820   3.609   9.652  0.2153  0.1948  0.0665
 7331SOL    HW133629   3.880   3.544   9.615 -0.9529  0.6325 -2.5290
 7331SOL    HW233630   3.773   3.544   9.705 -0.1619 -1.5282 -2.3911
 7332SOL     OW33631   1.495   3.144  14.087  0.5515  0.0464 -0.3223
 7332SOL    HW133632   1.569   3.204  14.074  0.8196 -0.0126  0.9011
 7332SOL    HW233633   1.426   3.197  14.127 -0.3464 -0.0432 -1.7919
 7333SOL     OW33634   0.428   3.955   7.106  0.0244  0.2089  0.1779
 7333SOL    HW133635   0.507   3.939   7.159 -1.2136 -0.1906  1.9119
 7333SOL    HW233636   0.387   4.008   7.174 -1.8253  0.9274 -1.4918
 7334SOL     OW33637   0.123   0.513   9.862 -0.0818 -0.0415 -0.2256
 7334SOL    HW133638   0.075   0.595   9.872 -0.9336 -0.5796  0.1415
 7334SOL    HW233639   0.148   0.503   9.770 -3.0898 -1.6356 -0.9008
 7335SOL     OW33640   2.993   4.215   8.476 -0.0987 -0.1815 -0.2007
 7335SOL    HW133641   2.941   4.165   8.413 -1.5171  2.5335 -1.2061
 7335SOL    HW233642   2.997   4.300   8.432  3.4889 -0.4762 -0.4089
 7336SOL     OW33643   0.201   1.399   9.670 -0.2406 -0.2899  0.6402
 7336SOL    HW133644   0.125   1.397   9.728  1.3218 -1.8299  2.6678
 7336SOL    HW233645   0.169   1.387   9.580 -1.2043 -0.9345  1.0675
 7337SOL     OW33646   3.221   3.450  13.821  0.0487 -0.3289  0.8114
 7337SOL    HW133647   3.139   3.406  13.844  0.1443  0.8371  3.4012
 7337SOL    HW233648   3.275   3.410  13.889 -1.1054  0.4088  2.1631
 7338SOL     OW33649   0.767   1.643   2.900 -0.4835  0.0251 -0.3172
 7338SOL    HW133650   0.737   1.659   2.810  0.2280 -1.4151 -0.7993
 7338SOL    HW233651   0.683   1.635   2.947  0.3825  1.1331  1.4189
 7339SOL     OW33652   0.609   1.401   8.194 -0.0276 -0.1166  0.2994
 7339SOL    HW133653   0.535   1.446   8.235 -0.3230  0.1694 -0.5407
 7339SOL    HW233654   0.686   1.446   8.231 -0.1373  1.7453 -1.6873
 7340SOL     OW33655   1.778   2.431   5.090 -0.5357 -0.2099 -0.1295
 7340SOL    HW133656   1.777   2.503   5.027  2.7198  0.2697  0.3377
 7340SOL    HW233657   1.692   2.441   5.130  0.3743 -2.1775  2.3188
 7341SOL     OW33658   1.412   0.963   2.636  0.0619 -0.3578  0.2095
 7341SOL    HW133659   1.456   0.938   2.555  1.6837  2.5707  0.1829
 7341SOL    HW233660   1.405   1.057   2.621  2.7408 -0.2310 -0.2327
 7342SOL     OW33661   4.633   0.008   6.026  0.2522  0.1584  0.7768
 7342SOL    HW133662   4.562   4.696   6.069 -1.2519  1.3537 -0.3723
 7342SOL    HW233663   4.601   4.723   5.939  1.1232 -0.0803  0.5107
 7343SOL     OW33664   2.504   1.028   6.425  0.3013 -0.5346 -0.1794
 7343SOL    HW133665   2.438   1.064   6.366 -0.4919  1.0760  1.7107
 7343SOL    HW233666   2.465   1.044   6.511  2.4532 -0.7221  0.8390
 7344SOL     OW33667   1.412   3.983  12.615 -0.2208  0.0127 -0.2734
 7344SOL    HW133668   1.385   4.012  12.702  0.8547 -1.9430  0.7128
 7344SOL    HW233669   1.474   3.915  12.643 -1.9283 -1.3587  0.1652
 7345SOL     OW33670   4.158   0.306  12.405  0.1165  0.2414 -0.0970
 7345SOL    HW133671   4.220   0.249  12.360  0.6276  0.3159  0.5030
 7345SOL    HW233672   4.077   0.257  12.413  0.4776 -0.0587  1.9100
 7346SOL     OW33673   4.145   0.602   2.639 -0.2048 -0.0945 -0.0757
 7346SOL    HW133674   4.129   0.520   2.591  0.0406 -1.0129  1.3865
 7346SOL    HW233675   4.059   0.643   2.644  0.3204  1.0491 -0.5241
 7347SOL     OW33676   2.025   2.632   2.116  0.1103 -0.8115 -0.2936
 7347SOL    HW133677   1.982   2.707   2.073 -0.6023  0.1614  2.1319
 7347SOL    HW233678   1.985   2.640   2.202  0.5791 -1.6363  0.0038
 7348SOL     OW33679   1.337   4.474   1.395 -0.2293 -0.1855  0.5966
 7348SOL    HW133680   1.335   4.399   1.454  1.0052  0.3776  1.3622
 7348SOL    HW233681   1.427   4.476   1.363  0.5660  0.6740  2.8708
 7349SOL     OW33682   3.660   0.539  12.214 -0.2711 -0.6806 -0.3644
 7349SOL    HW133683   3.576   0.528  12.170 -0.3782 -2.1205  0.1918
 7349SOL    HW233684   3.678   0.451  12.247 -0.0285 -0.0679  1.1365
 7350SOL     OW33685   4.592   2.547   7.323  0.3374 -0.0446  0.2552
 7350SOL    HW133686   4.568   2.628   7.280 -0.2358  0.7474  2.0836
 7350SOL    HW233687   4.522   2.548   7.388  0.2219 -1.4684  0.1729
 7351SOL     OW33688   1.001   2.713   4.599 -0.3664 -0.1609  0.0827
 7351SOL    HW133689   1.071   2.648   4.595  3.3065  3.9233 -1.6421
 7351SOL    HW233690   0.927   2.664   4.563 -1.3629  1.3176  0.1444
 7352SOL     OW33691   4.413   2.149  10.426 -0.5182  0.6545 -0.5239
 7352SOL    HW133692   4.393   2.238  10.397  2.5545  0.8918 -1.9059
 7352SOL    HW233693   4.327   2.127  10.462  0.2234  0.0006  0.8145
 7353SOL     OW33694   0.947   1.562   0.162  0.2303  0.3866  0.0128
 7353SOL    HW133695   0.902   1.544   0.244 -1.4667  0.1929 -0.9733
 7353SOL    HW233696   0.914   1.483   0.120 -3.6382  2.9513 -1.8153
 7354SOL     OW33697   3.528   4.672  17.123 -0.2837  0.3090 -0.3792
 7354SOL    HW133698   3.608   4.723  17.128 -2.7918  4.3860 -2.2116
 7354SOL    HW233699   3.567   4.586  17.109 -1.9232 -1.0709  3.4745
 7355SOL     OW33700   0.660   2.704   3.179 -0.2251 -0.5576  0.2328
 7355SOL    HW133701   0.708   2.637   3.129  1.1693 -0.0821  0.9189
 7355SOL    HW233702   0.723   2.776   3.178  0.9391 -1.5639 -0.3169
 7356SOL     OW33703   3.265   0.125  15.593  0.1377 -0.4515 -0.3836
 7356SOL    HW133704   3.340   0.070  15.614  0.7540  1.0175  1.3020
 7356SOL    HW233705   3.221   0.070  15.529  1.2540 -1.9894  0.1718
 7357SOL     OW33706   0.991   1.496   4.198 -0.2759 -0.0357 -0.5110
 7357SOL    HW133707   1.050   1.561   4.159 -1.6458  1.4032 -0.1593
 7357SOL    HW233708   0.943   1.542   4.267 -2.3258 -2.3873 -0.3781
 7358SOL     OW33709   1.403   3.851   4.814 -0.3492  0.2441  0.1308
 7358SOL    HW133710   1.482   3.826   4.766 -0.0590  1.1424  0.1427
 7358SOL    HW233711   1.434   3.877   4.901  0.4949 -2.2735  0.5838
 7359SOL     OW33712   0.072   1.593  12.034 -0.2649 -0.0970 -0.0430
 7359SOL    HW133713   0.111   1.679  12.020  3.2996 -1.8515 -1.0265
 7359SOL    HW233714   0.116   1.566  12.114 -0.3434  2.2604  0.8028
 7360SOL     OW33715   1.206   3.805   2.881 -0.4227 -0.3061  0.4750
 7360SOL    HW133716   1.288   3.759   2.895 -0.5979 -0.8726 -0.4257
 7360SOL    HW233717   1.161   3.769   2.958 -0.3719  0.3415  0.8091
 7361SOL     OW33718   4.495   4.591   4.450 -0.3243 -0.4013  0.4562
 7361SOL    HW133719   4.545   4.535   4.390  1.6336  1.7707  0.0699
 7361SOL    HW233720   4.508   4.541   4.531 -0.4312  1.8454  1.8579
 7362SOL     OW33721   1.835   4.526   2.596  0.4237  0.2555  0.3302
 7362SOL    HW133722   1.753   4.485   2.624  0.5699 -0.7452 -0.7140
 7362SOL    HW233723   1.808   4.618   2.597  0.3002  0.2107  1.1137
 7363SOL     OW33724   3.576   4.660   6.190  0.0849  0.0092  0.3448
 7363SOL    HW133725   3.592   4.734   6.248 -0.3487  1.0515 -0.8599
 7363SOL    HW233726   3.542   4.589   6.245  1.6250 -1.3709 -0.5019
 7364SOL     OW33727   1.468   3.289   5.207  1.0522  0.2188 -0.2643
 7364SOL    HW133728   1.487   3.240   5.127  1.3940  0.7431 -0.5044
 7364SOL    HW233729   1.448   3.377   5.175  2.3588 -0.4458 -2.8306
 7365SOL     OW33730   0.775   1.962  14.048  0.0376  0.0949 -0.6118
 7365SOL    HW133731   0.731   2.038  14.011  0.7698  1.2248  0.8621
 7365SOL    HW233732   0.699   1.911  14.078  0.6638 -1.4489 -1.6124
 7366SOL     OW33733   4.042   0.329   6.149  0.4073 -0.2251 -0.2419
 7366SOL    HW133734   3.947   0.318   6.152  0.2273  1.0169 -1.4548
 7366SOL    HW233735   4.061   0.380   6.227  2.0675 -2.5803  0.8973
 7367SOL     OW33736   0.821   4.190   3.258 -0.8826  0.1276  0.1642
 7367SOL    HW133737   0.820   4.127   3.185 -0.3929 -0.5248  0.7189
 7367SOL    HW233738   0.754   4.252   3.229  0.3714  0.1571 -2.6194
 7368SOL     OW33739   0.408   1.000   7.839 -0.5290  0.5702 -0.2445
 7368SOL    HW133740   0.384   0.995   7.746  0.0199  0.3690 -0.3762
 7368SOL    HW233741   0.342   1.060   7.874 -0.6127  0.7350 -0.6838
 7369SOL     OW33742   1.143   2.350   8.010 -0.7233  0.3599  1.1227
 7369SOL    HW133743   1.172   2.406   8.081 -0.9199  0.7189  0.9183
 7369SOL    HW233744   1.159   2.265   8.051 -0.3663 -0.5881 -0.9490
 7370SOL     OW33745   4.373   2.724  16.123  0.0367  0.2185  0.4857
 7370SOL    HW133746   4.315   2.788  16.165 -0.7212 -0.5714  0.6457
 7370SOL    HW233747   4.422   2.787  16.069 -2.2288  1.8739  0.3496
 7371SOL     OW33748   1.396   1.191   4.915 -0.0820  0.2585 -0.4657
 7371SOL    HW133749   1.327   1.172   4.852  0.2333  2.6353 -1.5149
 7371SOL    HW233750   1.347   1.264   4.955  1.4111  1.3932 -0.7074
 7372SOL     OW33751   2.207   4.533   9.200  0.4304 -0.0326 -0.8096
 7372SOL    HW133752   2.236   4.578   9.120  0.0615 -1.0612 -1.5279
 7372SOL    HW233753   2.258   4.570   9.272  1.3445  1.6526 -2.3007
 7373SOL     OW33754   4.713   3.296  17.120  0.3071 -0.3702  0.1388
 7373SOL    HW133755   0.068   3.277  17.102  0.0279 -0.9375 -0.6762
 7373SOL    HW233756   4.675   3.226  17.067  1.0082 -1.2020  0.7268
 7374SOL     OW33757   2.746   3.112   3.750  0.6316 -0.1119  0.5753
 7374SOL    HW133758   2.776   3.202   3.742  0.9397 -0.3365 -0.7769
 7374SOL    HW233759   2.832   3.075   3.771  0.5494 -1.5532 -1.5556
 7375SOL     OW33760   2.791   0.773   6.763 -0.5050 -0.1215  0.6616
 7375SOL    HW133761   2.750   0.757   6.678 -0.1244 -1.6973  0.7774
 7375SOL    HW233762   2.723   0.813   6.818 -1.0730  0.8902 -0.7764
 7376SOL     OW33763   1.019   3.862   1.252  0.3658 -0.4690  0.4397
 7376SOL    HW133764   1.080   3.787   1.256  1.0448  0.0490 -0.2364
 7376SOL    HW233765   1.087   3.930   1.249  2.0084 -2.0679  1.2883
 7377SOL     OW33766   0.372   4.080   8.558 -0.6762  0.5347  0.5031
 7377SOL    HW133767   0.359   4.043   8.646 -0.7013 -0.2829  0.1478
 7377SOL    HW233768   0.462   4.112   8.567 -0.4891  0.0227  0.4073
 7378SOL     OW33769   2.691   0.780   6.459  0.0426 -0.3852 -0.0817
 7378SOL    HW133770   2.713   0.701   6.409 -3.2153 -1.4896  0.2460
 7378SOL    HW233771   2.596   0.779   6.449  0.2829 -1.6901 -2.1041
 7379SOL     OW33772   3.586   2.803   6.818 -0.4931  0.3362  0.1734
 7379SOL    HW133773   3.587   2.896   6.839  0.7198  0.7345 -1.6690
 7379SOL    HW233774   3.514   2.802   6.754 -0.3572  1.3392  0.0151
 7380SOL     OW33775   1.771   4.520   8.607 -0.0208  0.1938 -0.2957
 7380SOL    HW133776   1.754   4.440   8.657  0.9241  1.3967  1.9901
 7380SOL    HW233777   1.705   4.583   8.637 -1.5685 -3.2487  3.4684
 7381SOL     OW33778   4.165   1.946   1.896  0.3301 -0.5446  0.4315
 7381SOL    HW133779   4.133   1.861   1.926  0.7742 -1.1482 -0.8139
 7381SOL    HW233780   4.251   1.961   1.935  0.1333  1.2874  0.1821
 7382SOL     OW33781   0.778   0.554   3.138  0.1610 -0.1633  0.1514
 7382SOL    HW133782   0.798   0.642   3.108 -2.1166 -0.4107 -2.0783
 7382SOL    HW233783   0.741   0.585   3.221  0.6168  0.7374  0.0156
 7383SOL     OW33784   0.335   2.891   8.289  0.0284 -0.4490 -0.4523
 7383SOL    HW133785   0.332   2.932   8.202  0.5491 -0.0733 -0.2927
 7383SOL    HW233786   0.359   2.801   8.267 -2.4230 -0.1101 -4.5823
 7384SOL     OW33787   3.546   2.510  14.738 -0.5748 -0.1633 -0.2652
 7384SOL    HW133788   3.477   2.495  14.803 -2.0175 -1.9506 -2.1914
 7384SOL    HW233789   3.495   2.570  14.685 -2.4443 -1.2724  0.2451
 7385SOL     OW33790   0.211   1.994   8.270 -0.2043  0.2023 -0.3046
 7385SOL    HW133791   0.170   1.984   8.184  1.8865  1.5294 -1.4702
 7385SOL    HW233792   0.251   2.080   8.258 -1.7372  0.8165 -1.0355
 7386SOL     OW33793   4.005   1.010  14.692  0.8662  0.1663  0.3811
 7386SOL    HW133794   3.930   1.041  14.641  0.8186 -0.6812 -0.0683
 7386SOL    HW233795   3.990   0.916  14.680  0.1960  0.1794  1.0500
 7387SOL     OW33796   3.149   0.074   2.722 -0.0757 -0.2592  0.1154
 7387SOL    HW133797   3.126   4.718   2.722 -1.1598  0.0141  3.9452
 7387SOL    HW233798   3.119   0.101   2.636  2.1734  3.1168  0.3797
 7388SOL     OW33799   3.226   1.454   5.892 -0.6160 -0.3785 -0.0118
 7388SOL    HW133800   3.258   1.503   5.969 -0.5485 -0.1550 -0.1828
 7388SOL    HW233801   3.187   1.524   5.840  2.3278  1.5025  0.2983
 7389SOL     OW33802   1.752   3.562  12.375 -0.3927  0.1729  0.2887
 7389SOL    HW133803   1.794   3.477  12.393  0.0655  0.5951  1.2182
 7389SOL    HW233804   1.826   3.609  12.336 -0.8202  1.9257  1.6080
 7390SOL     OW33805   2.780   2.066   2.348  0.2067  0.2093 -0.2323
 7390SOL    HW133806   2.867   2.066   2.307 -0.0372 -2.0696 -0.7164
 7390SOL    HW233807   2.755   2.158   2.353  1.9112  0.6519  0.3457
 7391SOL     OW33808   2.500   0.463   3.669  0.4182 -0.1258 -0.0101
 7391SOL    HW133809   2.465   0.375   3.687  1.8628  0.1441  4.1352
 7391SOL    HW233810   2.508   0.454   3.574  0.5367  1.7967 -0.1686
 7392SOL     OW33811   2.104   0.420   2.615 -0.2117  0.0491 -0.6628
 7392SOL    HW133812   2.151   0.375   2.685 -0.5994 -0.0121 -0.4374
 7392SOL    HW233813   2.171   0.413   2.547 -1.6616  0.9069 -2.2022
 7393SOL     OW33814   3.381   3.839   0.041 -0.2502  0.0050 -0.2175
 7393SOL    HW133815   3.404   3.828  17.693  0.2967 -0.6845 -0.0020
 7393SOL    HW233816   3.463   3.878   0.072 -0.8857  0.1623  1.2968
 7394SOL     OW33817   0.855   2.823   2.218  0.3430 -0.4713  0.0112
 7394SOL    HW133818   0.848   2.830   2.313 -0.7242  0.3260 -0.1272
 7394SOL    HW233819   0.847   2.729   2.202  0.3152 -0.0340 -2.5651
 7395SOL     OW33820   4.019   3.275   0.074  0.1287 -0.6582  0.2041
 7395SOL    HW133821   4.099   3.322   0.047 -0.4085  0.4401  0.5195
 7395SOL    HW233822   4.043   3.216   0.145  1.4399 -0.1844  0.1684
 7396SOL     OW33823   4.392   3.379   0.240  0.3752  0.2417  0.7664
 7396SOL    HW133824   4.369   3.452   0.182  0.6131  0.5169  1.0247
 7396SOL    HW233825   4.320   3.380   0.303  0.0288  0.1454  0.3787
 7397SOL     OW33826   3.221   1.393   7.527  0.6672 -0.1395  0.1867
 7397SOL    HW133827   3.171   1.338   7.587  1.4559 -0.1691  0.8062
 7397SOL    HW233828   3.299   1.402   7.581  0.4177 -1.4287  0.7690
 7398SOL     OW33829   0.221   1.897   3.570  0.3218  0.0261 -0.4740
 7398SOL    HW133830   0.211   1.806   3.597  1.9994 -0.0488 -0.0997
 7398SOL    HW233831   0.180   1.948   3.641  1.2729  1.4177 -0.9137
 7399SOL     OW33832   3.779   0.343   2.082 -0.3126 -0.6164 -0.5750
 7399SOL    HW133833   3.795   0.404   2.009 -1.4431 -3.0674 -2.8641
 7399SOL    HW233834   3.847   0.374   2.142 -1.9841  2.1570 -0.0965
 7400SOL     OW33835   4.531   0.742   6.118 -0.0036 -0.0920  0.2717
 7400SOL    HW133836   4.580   0.807   6.168 -2.0297  1.1303  0.6769
 7400SOL    HW233837   4.584   0.734   6.038  0.7862  0.9197  0.6929
 7401SOL     OW33838   3.388   0.245   3.741 -0.4157 -0.1612 -0.1659
 7401SOL    HW133839   3.434   0.327   3.762 -2.1500  0.5191  0.8982
 7401SOL    HW233840   3.464   0.190   3.722 -0.0720  0.5910 -1.0007
 7402SOL     OW33841   0.737   2.543  14.512 -0.1748 -0.3961 -0.4294
 7402SOL    HW133842   0.665   2.520  14.570 -0.0403  1.9721  0.6618
 7402SOL    HW233843   0.705   2.625  14.475 -0.3425  0.5304  1.7708
 7403SOL     OW33844   0.599   3.341   3.430 -0.3967  0.1761  0.5441
 7403SOL    HW133845   0.573   3.411   3.370 -2.0667 -0.4899  0.4897
 7403SOL    HW233846   0.687   3.336   3.394 -0.5513  0.8160  0.0796
 7404SOL     OW33847   3.536   4.627   6.639  0.4194  0.6675  0.3434
 7404SOL    HW133848   3.629   4.649   6.635  0.5869 -0.0989 -0.1366
 7404SOL    HW233849   3.543   4.532   6.642  1.4364  0.7401  0.3491
 7405SOL     OW33850   3.545   3.208   5.924  0.4652  0.6191  0.0318
 7405SOL    HW133851   3.480   3.252   5.869 -1.6949 -0.5069  1.6631
 7405SOL    HW233852   3.498   3.218   6.007  0.7149 -3.3753  0.6251
 7406SOL     OW33853   2.964   4.172   5.115 -0.1500 -0.4308  0.8844
 7406SOL    HW133854   2.946   4.095   5.061 -2.1214  0.1628  0.6874
 7406SOL    HW233855   2.923   4.239   5.061  1.1250 -1.0823 -0.9042
 7407SOL     OW33856   0.231   4.218   2.868 -0.2264 -0.3399  0.5726
 7407SOL    HW133857   0.161   4.252   2.813 -0.4765  1.6253  2.1084
 7407SOL    HW233858   0.307   4.235   2.813 -0.3610  1.3940  0.9387
 7408SOL     OW33859   1.079   0.835  13.691  1.0126  0.0903 -0.5569
 7408SOL    HW133860   1.006   0.843  13.628 -1.2102  1.8731  2.2604
 7408SOL    HW233861   1.142   0.894  13.649 -1.3710  2.5305 -0.6785
 7409SOL     OW33862   3.333   3.152  13.645 -0.2271  0.2520 -0.1103
 7409SOL    HW133863   3.367   3.211  13.577  0.1919 -0.0845 -0.1950
 7409SOL    HW233864   3.408   3.093  13.646 -0.8782 -0.6041 -1.6634
 7410SOL     OW33865   3.788   0.001  14.677  0.3537  0.5576 -0.9541
 7410SOL    HW133866   3.877   0.022  14.704 -0.3052 -0.7001  2.1240
 7410SOL    HW233867   3.735   0.060  14.730 -2.3384 -3.3858  0.7300
 7411SOL     OW33868   1.950   3.139   2.430  0.0493 -0.5291  0.2286
 7411SOL    HW133869   1.885   3.152   2.361 -0.1596 -0.8160  0.3741
 7411SOL    HW233870   1.906   3.205   2.483  1.3012 -0.5363  1.2747
 7412SOL     OW33871   2.900   2.132  12.740 -0.5458  0.3914 -0.0515
 7412SOL    HW133872   2.971   2.081  12.779  0.2242  0.9233 -0.7517
 7412SOL    HW233873   2.950   2.165  12.665 -3.0838  3.3520 -0.4719
 7413SOL     OW33874   2.732   2.372   5.595  0.1653  0.2043  0.4152
 7413SOL    HW133875   2.644   2.335   5.607  0.4264 -0.3115  0.7785
 7413SOL    HW233876   2.727   2.467   5.602 -1.7283  0.3000 -2.2841
 7414SOL     OW33877   4.498   2.899  15.015 -0.2074 -0.2360 -0.5283
 7414SOL    HW133878   4.491   2.866  14.926  0.4539  0.9948 -1.0313
 7414SOL    HW233879   4.424   2.959  15.017 -0.2323 -0.2561 -1.0491
 7415SOL     OW33880   4.712   0.505  16.226  0.1887 -0.6078  0.1151
 7415SOL    HW133881   4.704   0.416  16.192 -0.9076 -0.6077  0.3683
 7415SOL    HW233882   4.644   0.557  16.182  1.6215  0.9408 -0.2445
 7416SOL     OW33883   3.459   3.811   1.552 -0.0895 -0.7085  0.4492
 7416SOL    HW133884   3.426   3.837   1.466 -1.6245  1.5168  1.7145
 7416SOL    HW233885   3.478   3.892   1.600 -1.2450 -0.2722  0.1791
 7417SOL     OW33886   3.941   0.005   4.978  0.1504 -0.3217  0.0566
 7417SOL    HW133887   3.850   4.715   4.994  0.0134 -0.0165 -0.2205
 7417SOL    HW233888   3.971   4.735   5.068  0.5362 -0.4096 -0.0822
 7418SOL     OW33889   0.290   2.689   7.779  0.8176  0.0434  0.2890
 7418SOL    HW133890   0.226   2.706   7.710 -0.9033 -0.7130  1.7013
 7418SOL    HW233891   0.233   2.675   7.854 -0.6159  2.4064 -0.3626
 7419SOL     OW33892   1.627   2.433  13.453 -0.3422  0.5125  0.4741
 7419SOL    HW133893   1.608   2.358  13.396  1.7326  2.4655 -2.7581
 7419SOL    HW233894   1.706   2.459  13.407  0.0620 -2.7965 -0.6988
 7420SOL     OW33895   1.656   1.344  11.600 -0.3539  0.4366 -0.6214
 7420SOL    HW133896   1.596   1.295  11.657  1.5712 -0.5675  0.5496
 7420SOL    HW233897   1.742   1.334  11.640 -1.3529 -0.6106  1.2624
 7421SOL     OW33898   2.572   4.362   4.593 -0.0429  0.2984 -0.2290
 7421SOL    HW133899   2.541   4.319   4.514 -2.7526  0.4173  0.7581
 7421SOL    HW233900   2.623   4.433   4.555 -0.9299  2.1337  1.9716
 7422SOL     OW33901   4.601   2.192   6.000 -0.7906 -0.3791  0.1010
 7422SOL    HW133902   4.611   2.202   6.095  0.7113  0.7999 -0.1804
 7422SOL    HW233903   4.506   2.197   5.988 -0.8650  4.1204  2.7737
 7423SOL     OW33904   0.746   2.265   3.335 -0.2059 -0.1007  0.1363
 7423SOL    HW133905   0.735   2.223   3.250 -0.1601  0.0224  0.0684
 7423SOL    HW233906   0.739   2.186   3.387  0.8830  0.0477  0.5210
 7424SOL     OW33907   2.428   4.674  17.235 -0.7785  0.5047  0.2145
 7424SOL    HW133908   2.422   4.583  17.263 -3.7188  0.7033  0.2519
 7424SOL    HW233909   2.396   4.656  17.147 -0.9864  3.2950 -0.3003
 7425SOL     OW33910   4.498   4.719   5.777  0.0106  1.1433  0.2301
 7425SOL    HW133911   4.509   4.712   5.682  0.0520 -0.5143  0.3630
 7425SOL    HW233912   4.433   0.051   5.790 -2.1291 -0.7762 -0.4449
 7426SOL     OW33913   2.291   0.294   6.347  0.2909 -0.6802  0.4082
 7426SOL    HW133914   2.206   0.322   6.314  0.1954 -1.4057  0.0258
 7426SOL    HW233915   2.258   0.235   6.416 -0.8148 -0.8224 -0.2371
 7427SOL     OW33916   1.695   3.618   4.897 -0.2847  0.0103  0.5011
 7427SOL    HW133917   1.789   3.637   4.897 -0.6829  2.0117 -2.0513
 7427SOL    HW233918   1.647   3.683   4.846  0.5319  0.4879  0.3490
 7428SOL     OW33919   0.411   1.836   6.070  0.3630 -0.5272 -0.8487
 7428SOL    HW133920   0.371   1.906   6.018 -0.7058  0.4596  1.3142
 7428SOL    HW233921   0.339   1.792   6.114  0.7097  0.1860  0.4270
 7429SOL     OW33922   2.136   0.627   0.181 -0.2954  0.0774  0.3735
 7429SOL    HW133923   2.057   0.653   0.133  0.7259  1.0152 -0.7869
 7429SOL    HW233924   2.183   0.591   0.107  0.8559  4.1894 -0.9276
 7430SOL     OW33925   3.660   0.671   2.059 -0.1367 -0.5199 -0.0519
 7430SOL    HW133926   3.698   0.592   2.098  1.5628  1.1960  1.7316
 7430SOL    HW233927   3.715   0.741   2.093 -0.3407 -0.5148  0.2736
 7431SOL     OW33928   4.460   3.076   0.644 -0.1199  0.3301  0.1282
 7431SOL    HW133929   4.399   3.048   0.713 -0.4283  1.8357  0.4837
 7431SOL    HW233930   4.537   3.076   0.701 -0.1629 -0.6116  0.1854
 7432SOL     OW33931   4.579   4.497   7.607  0.5267  0.1907 -0.5780
 7432SOL    HW133932   4.515   4.432   7.580 -0.4375  1.1608 -0.6414
 7432SOL    HW233933   4.657   4.453   7.575  0.9472  1.9848 -2.0479
 7433SOL     OW33934   0.740   2.284  16.905  0.2777  0.1337  0.1470
 7433SOL    HW133935   0.690   2.306  16.983  0.6546  0.2801  0.3503
 7433SOL    HW233936   0.686   2.214  16.869 -0.0466  0.1631  0.5854
 7434SOL     OW33937   0.750   4.487  14.464  0.2795 -0.9556  0.1283
 7434SOL    HW133938   0.828   4.512  14.415  1.1261 -2.9113  0.5122
 7434SOL    HW233939   0.775   4.406  14.507  1.4333 -0.3011  0.6900
 7435SOL     OW33940   1.679   1.062   4.066  0.2362  0.0861 -0.1958
 7435SOL    HW133941   1.702   0.976   4.032 -0.8159 -0.3733  0.2521
 7435SOL    HW233942   1.726   1.113   4.000 -3.1700  3.1803 -0.2421
 7436SOL     OW33943   3.398   1.404   1.598 -0.0707  0.4609  0.5006
 7436SOL    HW133944   3.442   1.453   1.668 -0.1369 -0.6346  1.3122
 7436SOL    HW233945   3.347   1.350   1.659  0.2119  1.4577  1.6215
 7437SOL     OW33946   1.742   1.180   4.333  0.1006  0.2704  0.5607
 7437SOL    HW133947   1.717   1.142   4.249 -1.6337  1.7082  0.4187
 7437SOL    HW233948   1.831   1.148   4.349 -0.7346 -2.0300  0.6286
 7438SOL     OW33949   0.215   4.129   9.703  0.0223  0.0434  0.1888
 7438SOL    HW133950   0.207   4.224   9.706  1.0123  0.1019  1.3599
 7438SOL    HW233951   0.246   4.127   9.613  1.4362 -3.3095  0.7463
 7439SOL     OW33952   1.936   1.552   3.469  0.1229  0.1255  0.2295
 7439SOL    HW133953   2.018   1.503   3.464  0.0142  0.1107 -1.5333
 7439SOL    HW233954   1.883   1.512   3.400 -1.8691 -1.2617  2.5709
 7440SOL     OW33955   3.116   0.154   6.932  0.4229 -0.1094  0.3192
 7440SOL    HW133956   3.141   0.111   7.014  0.7494 -1.5899 -0.5425
 7440SOL    HW233957   3.175   0.229   6.924  1.8282 -1.1896  0.5715
 7441SOL     OW33958   2.186   0.794   6.215  0.5772 -0.2653 -0.0630
 7441SOL    HW133959   2.242   0.790   6.292  2.5042  1.6858 -1.3622
 7441SOL    HW233960   2.240   0.765   6.141  0.7520  0.8801 -0.3840
 7442SOL     OW33961   3.620   4.534   9.343 -0.6485  0.2841 -0.4418
 7442SOL    HW133962   3.696   4.490   9.306 -0.4805  0.6569 -0.5464
 7442SOL    HW233963   3.639   4.628   9.341 -0.8087  0.3425  0.8817
 7443SOL     OW33964   2.365   1.531   3.629 -0.4628 -0.3419  0.2235
 7443SOL    HW133965   2.439   1.584   3.602 -1.3405  1.5207  1.4929
 7443SOL    HW233966   2.409   1.460   3.677  0.6371 -0.6439 -1.2230
 7444SOL     OW33967   2.233   3.511   3.781 -0.0031  0.0168 -0.5269
 7444SOL    HW133968   2.146   3.547   3.801  0.3034 -0.3053  1.3549
 7444SOL    HW233969   2.274   3.508   3.867 -0.0585 -1.3331 -0.5574
 7445SOL     OW33970   3.554   4.180   6.871 -0.3725 -0.1751  0.1118
 7445SOL    HW133971   3.458   4.183   6.871 -0.3274  1.5339 -1.2886
 7445SOL    HW233972   3.579   4.132   6.949  0.9706 -1.1318 -0.9208
 7446SOL     OW33973   1.841   0.716   5.232  0.4682 -0.0652 -0.4095
 7446SOL    HW133974   1.830   0.801   5.189  1.8619  0.0346 -0.5718
 7446SOL    HW233975   1.766   0.662   5.208 -0.4698  0.1784  1.9353
 7447SOL     OW33976   3.670   0.844   2.428  0.1665  0.2292  0.9662
 7447SOL    HW133977   3.648   0.830   2.520  0.7907 -0.1715  1.0595
 7447SOL    HW233978   3.585   0.859   2.387 -0.0518 -0.9650  0.9775
 7448SOL     OW33979   0.593   3.092   3.127  0.2526 -0.2604  0.2091
 7448SOL    HW133980   0.548   3.115   3.046  0.5210 -0.1244  0.0986
 7448SOL    HW233981   0.676   3.064   3.087  0.9018  2.8878 -0.6137
 7449SOL     OW33982   0.944   3.201   3.796  0.2341  0.1441 -0.5094
 7449SOL    HW133983   0.901   3.263   3.737  1.1005  0.5946 -0.6601
 7449SOL    HW233984   0.876   3.135   3.807  1.2935 -0.6651  1.2131
 7450SOL     OW33985   0.374   3.193   0.743  0.2969  0.2683  0.4308
 7450SOL    HW133986   0.448   3.198   0.804  2.0126 -2.6867 -1.4190
 7450SOL    HW233987   0.427   3.184   0.664 -0.2270 -1.8621  0.3158
 7451SOL     OW33988   3.221   1.101   3.255 -0.0884  0.5436  0.1105
 7451SOL    HW133989   3.254   1.012   3.244  0.8495  0.9911 -0.7034
 7451SOL    HW233990   3.301   1.140   3.290 -1.3736  1.8729  1.5483
 7452SOL     OW33991   4.663   0.232   9.990 -0.4936 -0.2279 -0.1435
 7452SOL    HW133992   4.632   0.144  10.011 -2.7327  0.7271  0.5732
 7452SOL    HW233993   4.680   0.273  10.075 -1.7682  3.8938 -1.8873
 7453SOL     OW33994   4.401   4.680  12.065  0.7071 -0.1465 -0.7594
 7453SOL    HW133995   4.463   4.672  11.993  2.2681  3.4950  0.2017
 7453SOL    HW233996   4.412   4.594  12.108 -3.4242 -0.8354 -1.0921
 7454SOL     OW33997   0.341   1.551  16.215 -0.3549  0.0944  0.0662
 7454SOL    HW133998   0.416   1.492  16.221 -0.7786 -0.2785  1.8078
 7454SOL    HW233999   0.368   1.636  16.248 -0.8342 -0.2487  1.3565
 7455SOL     OW34000   4.048   0.618  13.522 -0.7457  0.1930  0.1256
 7455SOL    HW134001   4.049   0.705  13.482  0.0075 -0.3163 -0.9438
 7455SOL    HW234002   3.975   0.627  13.583 -1.5722 -2.3872 -0.4828
 7456SOL     OW34003   4.425   3.925  11.992  0.2656  0.2339 -0.4660
 7456SOL    HW134004   4.493   3.992  11.990  0.5964 -0.0992 -0.4379
 7456SOL    HW234005   4.397   3.929  12.083  1.1025 -0.1161 -0.1960
 7457SOL     OW34006   4.194   1.440   3.743 -0.4902 -0.2240  0.5158
 7457SOL    HW134007   4.209   1.490   3.824 -3.7470 -0.8003  1.4719
 7457SOL    HW234008   4.102   1.461   3.729 -0.0759  0.7242 -0.8276
 7458SOL     OW34009   1.124   2.707  14.907  0.5964  0.0003  0.1543
 7458SOL    HW134010   1.205   2.711  14.958  0.2538 -1.7575  0.8477
 7458SOL    HW234011   1.066   2.648  14.954 -0.6930 -0.1500 -1.6456
 7459SOL     OW34012   3.629   0.567   1.360 -0.3919 -0.0449  0.3464
 7459SOL    HW134013   3.647   0.599   1.271  2.0120  0.1136  0.8875
 7459SOL    HW234014   3.588   0.642   1.402 -0.2146 -0.4307  1.2130
 7460SOL     OW34015   3.293   1.761   6.037 -0.3819  0.5506 -0.5024
 7460SOL    HW134016   3.205   1.786   6.011 -0.8427  1.4442  1.9414
 7460SOL    HW234017   3.291   1.782   6.130  1.9261  0.3410 -0.4011
 7461SOL     OW34018   1.715   2.839   5.613  0.3662  0.7552 -0.1078
 7461SOL    HW134019   1.789   2.828   5.553  1.0565  1.4182  0.6198
 7461SOL    HW234020   1.647   2.865   5.551 -1.6498 -2.4526  0.7788
 7462SOL     OW34021   0.245   1.243   5.477  0.1226  0.0678 -0.3844
 7462SOL    HW134022   0.191   1.175   5.516  0.4243 -0.7841 -1.4609
 7462SOL    HW234023   0.197   1.263   5.397 -0.8444  0.6205  0.3264
 7463SOL     OW34024   0.459   3.615   1.001  0.4391 -0.3147 -0.1121
 7463SOL    HW134025   0.398   3.594   1.071  0.6492 -0.3762  0.0521
 7463SOL    HW234026   0.499   3.528   0.991 -0.5419 -0.8175  0.3251
 7464SOL     OW34027   3.435   4.617  16.813  0.3604  0.3077 -0.7026
 7464SOL    HW134028   3.513   4.637  16.761  1.6922  3.1766  2.3748
 7464SOL    HW234029   3.463   4.657  16.895 -2.7773 -1.2039  1.1002
 7465SOL     OW34030   1.800   4.239  10.949  0.1497  0.0899  0.3955
 7465SOL    HW134031   1.794   4.220  11.043 -0.6349 -1.7954 -0.0293
 7465SOL    HW234032   1.708   4.231  10.925  0.1512  0.2157  0.3487
 7466SOL     OW34033   2.656   1.143  14.329 -0.1442 -0.2534 -0.3070
 7466SOL    HW134034   2.694   1.062  14.297 -0.2503 -0.5546  0.3425
 7466SOL    HW234035   2.627   1.113  14.415  0.8022  0.4911  0.2717
 7467SOL     OW34036   0.384   3.695   2.789  0.3432  0.5098  0.5518
 7467SOL    HW134037   0.318   3.700   2.858 -0.4543  1.3868 -0.2678
 7467SOL    HW234038   0.434   3.776   2.803 -1.5595  1.8012 -0.0917
 7468SOL     OW34039   4.406   3.605  16.051  0.2948 -0.3231  0.2026
 7468SOL    HW134040   4.456   3.574  15.976 -1.3180 -0.3570 -0.8679
 7468SOL    HW234041   4.451   3.573  16.129 -0.2510 -0.1346  0.5995
 7469SOL     OW34042   0.575   3.646   2.593  0.3244 -0.4671 -0.2559
 7469SOL    HW134043   0.523   3.665   2.515 -1.0898 -2.2059  0.2778
 7469SOL    HW234044   0.497   3.645   2.649  0.4550  1.0020 -0.0381
 7470SOL     OW34045   3.694   0.351  17.249  0.1985  0.0184 -0.5545
 7470SOL    HW134046   3.613   0.377  17.293  1.2405  2.7467 -0.2321
 7470SOL    HW234047   3.756   0.418  17.278  0.0080 -0.3937  0.8328
 7471SOL     OW34048   4.646   2.311   0.888  0.3949 -0.0903 -0.0009
 7471SOL    HW134049   4.556   2.279   0.893 -0.3356  1.6430 -2.0824
 7471SOL    HW234050   4.691   2.227   0.887  0.1818 -0.1831 -1.3897
 7472SOL     OW34051   0.793   0.133   2.702 -0.2062 -0.0527  0.0256
 7472SOL    HW134052   0.698   0.131   2.696 -0.3385  1.3348  1.5864
 7472SOL    HW234053   0.805   0.222   2.668  1.1947 -0.3195 -0.1819
 7473SOL     OW34054   3.851   1.033   6.308 -0.2736 -0.0202  0.1662
 7473SOL    HW134055   3.932   1.052   6.354  0.6899 -1.1872 -1.0439
 7473SOL    HW234056   3.790   1.038   6.381 -0.7235  0.8147 -0.2617
 7474SOL     OW34057   1.944   1.816   7.443  0.2296 -0.0782 -0.0148
 7474SOL    HW134058   2.017   1.794   7.386 -0.9515 -3.0634 -0.3473
 7474SOL    HW234059   1.969   1.781   7.528  2.8363  2.2091  0.1640
 7475SOL     OW34060   4.733   2.656   5.645  0.3043  0.8322 -0.1802
 7475SOL    HW134061   0.078   2.680   5.689  0.2543  1.4230 -0.4153
 7475SOL    HW234062   0.009   2.689   5.557  0.4528  0.8127 -0.1657
 7476SOL     OW34063   3.058   4.590   4.655  0.2119 -0.3575 -0.6369
 7476SOL    HW134064   2.975   4.585   4.607 -0.4648 -4.3426  0.9639
 7476SOL    HW234065   3.027   4.611   4.742 -0.2996 -1.2486 -0.6074
 7477SOL     OW34066   0.739   4.287   1.728 -0.2207  0.1028  0.3838
 7477SOL    HW134067   0.808   4.343   1.764 -0.3096  1.4121 -1.4749
 7477SOL    HW234068   0.778   4.256   1.645 -1.0093 -0.6969  0.3090
 7478SOL     OW34069   0.819   2.049   9.428  0.2412 -0.1925 -0.5147
 7478SOL    HW134070   0.876   2.018   9.498 -2.0322  1.8290  2.2531
 7478SOL    HW234071   0.733   2.047   9.471  1.0496 -1.7368  1.0414
 7479SOL     OW34072   0.332   0.464   7.455  0.1844  0.3069  0.0161
 7479SOL    HW134073   0.354   0.515   7.532 -0.3198 -1.1434  1.1119
 7479SOL    HW234074   0.392   0.389   7.455 -0.3394 -0.1078  1.7918
 7480SOL     OW34075   2.909   3.153   5.643  0.4394 -0.2715  0.1018
 7480SOL    HW134076   2.879   3.110   5.563  0.1140  2.3259 -1.1408
 7480SOL    HW234077   2.970   3.084   5.671 -0.0872 -1.3073 -1.3004
 7481SOL     OW34078   2.038   2.168   3.356  0.3427  0.7513 -0.3325
 7481SOL    HW134079   2.121   2.122   3.370  0.1646  1.0926  1.8035
 7481SOL    HW234080   2.069   2.258   3.348  0.0351  0.7913 -1.0972
 7482SOL     OW34081   2.171   1.094   6.734  0.5241  0.4008 -0.0453
 7482SOL    HW134082   2.100   1.063   6.791  0.8904  1.6100  1.0767
 7482SOL    HW234083   2.138   1.065   6.649 -1.2874  1.5524  0.2581
 7483SOL     OW34084   4.666   3.694  17.022  0.1117 -0.4549  0.3455
 7483SOL    HW134085   0.003   3.677  17.081  0.0161  3.8707  1.7581
 7483SOL    HW234086   4.711   3.744  16.954 -0.4049  0.5409  0.7224
 7484SOL     OW34087   3.125   2.482  14.407 -0.4073 -0.2751  0.4965
 7484SOL    HW134088   3.036   2.458  14.381 -0.5313  2.4468 -1.6892
 7484SOL    HW234089   3.106   2.575  14.391  1.2497 -0.0040  0.1735
 7485SOL     OW34090   1.776   2.844   2.360  0.3349  0.4302  0.0101
 7485SOL    HW134091   1.792   2.909   2.291 -1.3220  0.5180 -0.3059
 7485SOL    HW234092   1.689   2.812   2.337  0.6739 -1.0172  0.7982
 7486SOL     OW34093   4.499   0.789   3.818 -0.2288 -0.7258 -0.1055
 7486SOL    HW134094   4.517   0.883   3.814 -0.1678 -0.6868  1.1033
 7486SOL    HW234095   4.541   0.755   3.897 -0.8933  0.1122  0.6095
 7487SOL     OW34096   1.781   1.453   8.497 -0.0282  0.3424  0.2649
 7487SOL    HW134097   1.800   1.437   8.404  1.2602  2.6374  0.1440
 7487SOL    HW234098   1.685   1.451   8.492  0.0428 -0.8543 -0.7392
 7488SOL     OW34099   1.963   0.905   6.301  0.0007 -0.0586  0.8091
 7488SOL    HW134100   2.011   0.935   6.378  0.7758 -0.0096  0.2996
 7488SOL    HW234101   2.034   0.864   6.253 -0.5078 -0.9832  0.8443
 7489SOL     OW34102   2.306   4.573   4.630 -0.2061  0.1601  0.0472
 7489SOL    HW134103   2.287   4.499   4.571 -1.6685 -0.2051  0.9739
 7489SOL    HW234104   2.229   4.630   4.623 -0.7981 -0.4732  1.4369
 7490SOL     OW34105   0.542   4.339  12.051 -0.0645  0.2006 -0.2324
 7490SOL    HW134106   0.625   4.308  12.015  0.9889  1.8061  0.8747
 7490SOL    HW234107   0.523   4.284  12.127  1.3678  0.0919  0.0288
 7491SOL     OW34108   2.348   2.896   4.713 -0.9017 -0.1620 -0.7702
 7491SOL    HW134109   2.389   2.813   4.690  1.4228  0.5479  0.8133
 7491SOL    HW234110   2.336   2.883   4.807  0.2236 -1.8542 -0.8593
 7492SOL     OW34111   4.430   3.409   5.851 -0.0115  0.3542  0.0776
 7492SOL    HW134112   4.472   3.350   5.914  2.9027  0.2609 -1.9627
 7492SOL    HW234113   4.480   3.392   5.771 -1.5831  0.1621 -0.8633
 7493SOL     OW34114   2.866   3.088  13.132 -0.0275  0.1089 -0.4928
 7493SOL    HW134115   2.892   3.007  13.175 -0.0074  0.9332  1.0620
 7493SOL    HW234116   2.940   3.149  13.125 -0.3103  0.8601  2.8409
 7494SOL     OW34117   3.321   3.180   4.272 -0.0198  0.0259  0.3236
 7494SOL    HW134118   3.262   3.236   4.321 -1.2373 -0.9785  0.0092
 7494SOL    HW234119   3.345   3.244   4.205 -0.4914  1.0246  1.1164
 7495SOL     OW34120   4.678   2.677  15.049  0.1169  0.1765 -0.0204
 7495SOL    HW134121   4.634   2.592  15.045  1.2433 -0.3217 -1.5876
 7495SOL    HW234122   4.600   2.730  15.034  0.6624  1.4016  1.4727
 7496SOL     OW34123   3.189   3.717   9.854  0.2287 -0.4726 -0.1016
 7496SOL    HW134124   3.265   3.775   9.847  1.5802 -1.9992  1.6827
 7496SOL    HW234125   3.117   3.753   9.803 -0.5832 -1.0795  0.6193
 7497SOL     OW34126   3.901   4.466  15.249  0.3772  0.0089  0.2112
 7497SOL    HW134127   3.829   4.447  15.189  1.8368 -1.5734 -1.0608
 7497SOL    HW234128   3.960   4.398  15.215  0.0509 -1.3346  2.3652
 7498SOL     OW34129   2.141   1.416   6.902 -0.2342 -0.0345  0.1787
 7498SOL    HW134130   2.202   1.433   6.973 -0.9875 -0.6307  0.9631
 7498SOL    HW234131   2.198   1.407   6.826  1.4980  0.2330  1.4551
 7499SOL     OW34132   2.961   3.728   4.746 -0.0933  0.2765 -0.7565
 7499SOL    HW134133   2.953   3.748   4.653  0.3825  2.1490 -0.3893
 7499SOL    HW234134   3.046   3.769   4.765  0.0242 -0.9249  1.3743
 7500SOL     OW34135   2.263   1.732   7.546  0.5144  0.0454  0.4879
 7500SOL    HW134136   2.202   1.683   7.600 -3.2516  2.5379 -1.4789
 7500SOL    HW234137   2.268   1.813   7.597  1.2556  0.9754 -1.0426
 7501SOL     OW34138   1.572   0.529   5.677 -0.4660  0.5619 -0.2303
 7501SOL    HW134139   1.638   0.582   5.721 -0.7717 -0.6605  1.7142
 7501SOL    HW234140   1.493   0.573   5.710 -1.1437 -0.5447 -0.3894
 7502SOL     OW34141   1.414   2.458   2.320 -0.0486 -0.3172  0.0940
 7502SOL    HW134142   1.342   2.482   2.379 -3.0751 -1.6830 -3.0381
 7502SOL    HW234143   1.469   2.423   2.390 -1.0729 -1.6289  0.2442
 7503SOL     OW34144   2.912   2.435   3.185 -0.0748 -0.6001 -0.4337
 7503SOL    HW134145   2.864   2.514   3.208  0.1643 -0.2166 -1.2397
 7503SOL    HW234146   2.844   2.367   3.183 -1.0478  0.3413  0.5018
 7504SOL     OW34147   1.322   3.549   5.760  0.0835 -0.5988  0.4675
 7504SOL    HW134148   1.388   3.507   5.815 -0.2036 -1.8487 -0.1536
 7504SOL    HW234149   1.284   3.475   5.714  0.0640  0.2533 -0.8801
 7505SOL     OW34150   2.321   4.056  16.964 -0.7550  0.6699  0.2500
 7505SOL    HW134151   2.417   4.056  16.970 -0.8243  0.0610  1.3164
 7505SOL    HW234152   2.306   3.965  16.987  1.2879  0.0613 -0.8549
 7506SOL     OW34153   3.387   3.739   4.159  0.3933  0.0688  0.2910
 7506SOL    HW134154   3.478   3.717   4.139 -0.2512  0.6733 -3.2777
 7506SOL    HW234155   3.334   3.733   4.079  1.0887 -0.1855 -0.1567
 7507SOL     OW34156   0.463   1.013   7.291  0.1317 -0.0486  0.0807
 7507SOL    HW134157   0.488   1.083   7.231  0.0252  0.5176  0.6933
 7507SOL    HW234158   0.543   0.962   7.300 -2.5224 -4.5763 -1.6416
 7508SOL     OW34159   3.002   1.007   4.551 -0.2540 -0.1061 -0.7549
 7508SOL    HW134160   2.928   1.039   4.602  0.3256 -1.1377  0.7375
 7508SOL    HW234161   2.948   0.965   4.484  0.5759 -0.6772 -1.0756
 7509SOL     OW34162   4.567   0.969  12.571  0.5198  0.0348 -0.0940
 7509SOL    HW134163   4.593   0.949  12.661  1.0211 -0.0537 -0.2589
 7509SOL    HW234164   4.480   0.929  12.570  0.5421 -0.0651  2.1282
 7510SOL     OW34165   3.101   0.365   3.373  0.4370  0.2965 -0.6632
 7510SOL    HW134166   3.180   0.322   3.338  1.2000  1.0657  0.1024
 7510SOL    HW234167   3.085   0.293   3.434  0.1805  0.5479 -0.4351
 7511SOL     OW34168   1.316   4.100   8.478 -0.0642  0.2340 -0.7677
 7511SOL    HW134169   1.260   4.161   8.526 -2.0021 -3.0046  1.0686
 7511SOL    HW234170   1.333   4.035   8.546 -0.7945  0.4272 -0.4073
 7512SOL     OW34171   3.753   2.520   2.249 -0.1735  0.0392 -0.3439
 7512SOL    HW134172   3.725   2.568   2.171  0.7139 -0.3632 -0.9153
 7512SOL    HW234173   3.744   2.578   2.324 -0.4325 -0.7414  0.2263
 7513SOL     OW34174   0.144   2.609   6.690 -0.0574 -0.4048  0.3751
 7513SOL    HW134175   0.157   2.628   6.783 -1.5964  1.3126  0.2428
 7513SOL    HW234176   0.167   2.517   6.679  2.6346  0.2804  0.3339
 7514SOL     OW34177   0.492   1.585   2.084  0.4530 -0.6925  0.3882
 7514SOL    HW134178   0.586   1.595   2.095  0.6371 -0.3629 -1.4361
 7514SOL    HW234179   0.462   1.632   2.161 -1.3485 -0.7397 -0.2713
 7515SOL     OW34180   4.518   2.640  14.687  0.0656 -0.0599  0.1031
 7515SOL    HW134181   4.545   2.693  14.612 -1.8113  0.8663  0.0886
 7515SOL    HW234182   4.588   2.574  14.687  1.2021  1.1614  3.1185
 7516SOL     OW34183   0.092   0.129  12.900 -0.7002 -0.6094  0.0788
 7516SOL    HW134184   0.154   0.197  12.876  0.1775 -1.6437 -0.5467
 7516SOL    HW234185   0.058   0.165  12.982 -1.1447 -0.6711 -0.0764
 7517SOL     OW34186   1.810   0.635  15.444 -0.0047 -0.0906 -0.2338
 7517SOL    HW134187   1.772   0.692  15.377 -0.8586  0.7560  0.9905
 7517SOL    HW234188   1.905   0.643  15.433  0.1774 -0.3042  1.2248
 7518SOL     OW34189   3.648   4.140   5.152  0.0598 -0.6554  0.3316
 7518SOL    HW134190   3.697   4.096   5.222 -1.4973 -1.2434  1.0493
 7518SOL    HW234191   3.576   4.175   5.203  0.0159 -0.5311  0.1845
 7519SOL     OW34192   0.315   1.014   5.949  0.7365  0.1355  0.0449
 7519SOL    HW134193   0.223   1.018   5.923  0.6656  0.0202  0.2749
 7519SOL    HW234194   0.338   0.921   5.951 -1.7478 -0.4641  0.7523
 7520SOL     OW34195   3.412   2.432   4.227  0.7659 -0.1058 -0.3233
 7520SOL    HW134196   3.443   2.400   4.142 -1.1715 -1.6053 -0.4495
 7520SOL    HW234197   3.405   2.528   4.224 -0.7119 -0.2084 -0.0329
 7521SOL     OW34198   1.109   1.680   9.662  0.9611  0.1383  0.7649
 7521SOL    HW134199   1.131   1.764   9.621 -3.6211  0.2089 -1.5140
 7521SOL    HW234200   1.016   1.690   9.642  1.1931  0.4683 -0.1665
 7522SOL     OW34201   1.332   2.898   8.788  0.2446  0.0801 -0.4221
 7522SOL    HW134202   1.350   2.815   8.831 -0.4023 -0.7132 -1.6943
 7522SOL    HW234203   1.254   2.881   8.736 -1.0435  5.9906 -0.4318
 7523SOL     OW34204   1.598   2.668   1.285 -0.0845  0.0588 -0.0951
 7523SOL    HW134205   1.658   2.596   1.264  1.5830  1.3766  0.1512
 7523SOL    HW234206   1.592   2.702   1.196  4.2475  0.2421 -0.3279
 7524SOL     OW34207   0.751   4.453   7.567 -0.2948 -0.3171  0.2288
 7524SOL    HW134208   0.826   4.505   7.598  0.6381 -2.3258  1.3621
 7524SOL    HW234209   0.780   4.363   7.583  2.0506  0.1682 -1.2939
 7525SOL     OW34210   3.726   0.167  12.610  0.1243  0.0002 -0.5876
 7525SOL    HW134211   3.768   0.146  12.693  0.9439  0.6052 -0.8499
 7525SOL    HW234212   3.680   0.084  12.597 -0.8008  0.9380 -3.2696
 7526SOL     OW34213   1.980   4.706  16.654  0.4251  0.3268  0.2431
 7526SOL    HW134214   1.979   0.049  16.601 -0.0408  0.9003  1.1215
 7526SOL    HW234215   2.025   4.735  16.733 -1.1208  0.7959  0.9420
 7527SOL     OW34216   4.692   1.585   3.633 -0.2609 -0.2230 -0.3818
 7527SOL    HW134217   4.675   1.640   3.557 -2.5059  0.4188  0.5794
 7527SOL    HW234218   0.049   1.601   3.629 -0.3439  0.5247  0.8853
 7528SOL     OW34219   0.416   2.482   7.364  0.1410  0.1149 -0.7274
 7528SOL    HW134220   0.504   2.484   7.400  0.3501  1.8420 -1.3206
 7528SOL    HW234221   0.366   2.453   7.440  0.8385 -0.2456 -0.4108
 7529SOL     OW34222   1.700   3.952   6.792  0.1204  0.2516 -0.2140
 7529SOL    HW134223   1.754   3.881   6.826 -2.0457 -1.3547 -0.1459
 7529SOL    HW234224   1.633   3.954   6.860  0.5898  1.2710  0.2345
 7530SOL     OW34225   1.512   0.800   5.249  0.2566  0.3432  0.6510
 7530SOL    HW134226   1.496   0.878   5.196 -0.2759 -0.1904  0.0199
 7530SOL    HW234227   1.573   0.748   5.196 -1.1183  0.6872 -1.2708
 7531SOL     OW34228   0.807   3.026   5.874 -0.0023 -0.8481  0.0823
 7531SOL    HW134229   0.785   3.085   5.803  0.1143  0.1311  0.8625
 7531SOL    HW234230   0.775   3.078   5.948 -2.6872  0.8633 -2.3012
 7532SOL     OW34231   0.635   0.593   8.120  0.0412 -0.6626 -0.5526
 7532SOL    HW134232   0.583   0.674   8.117 -0.5278 -0.9702  0.9389
 7532SOL    HW234233   0.588   0.552   8.192  2.4981 -0.4232  1.2136
 7533SOL     OW34234   0.299   2.639  10.155 -0.3850  0.0359 -0.3352
 7533SOL    HW134235   0.276   2.568  10.094  0.3823  0.8080 -1.5138
 7533SOL    HW234236   0.210   2.643  10.191 -1.3641 -0.2032 -2.6668
 7534SOL     OW34237   3.377   2.422   8.793 -0.1303  0.5231  1.0729
 7534SOL    HW134238   3.331   2.469   8.862 -2.3119 -3.6427  2.4232
 7534SOL    HW234239   3.332   2.338   8.795  0.5747  0.0185 -3.6838
 7535SOL     OW34240   0.424   1.009  15.013 -0.3347 -1.0590  0.0520
 7535SOL    HW134241   0.340   1.053  15.015  1.2089  1.9144 -1.2457
 7535SOL    HW234242   0.451   1.018  15.105  1.6513  0.6089 -0.6769
 7536SOL     OW34243   1.738   1.937   2.397 -0.5786  0.5511 -0.3007
 7536SOL    HW134244   1.673   1.990   2.352  1.5728  1.8402 -1.9084
 7536SOL    HW234245   1.723   1.944   2.492  4.2331  0.3375  0.4950
 7537SOL     OW34246   0.660   0.399  13.900  0.4542 -0.2074  0.0860
 7537SOL    HW134247   0.682   0.469  13.839 -0.0820 -0.9289 -0.9316
 7537SOL    HW234248   0.693   0.421  13.987  1.8162 -0.9025 -0.2550
 7538SOL     OW34249   2.829   0.324  15.459  0.2532 -0.5196  0.2093
 7538SOL    HW134250   2.771   0.305  15.533 -0.0164  2.4752  0.7344
 7538SOL    HW234251   2.825   0.237  15.419 -1.2619 -0.3159 -0.0790
 7539SOL     OW34252   3.469   1.562   8.586  0.0986 -1.0355  0.4331
 7539SOL    HW134253   3.474   1.642   8.639  0.4113 -2.3386  2.3492
 7539SOL    HW234254   3.512   1.600   8.509  1.4976  0.6476  2.0334
 7540SOL     OW34255   2.207   2.666   2.603  0.0835  0.0806 -0.0428
 7540SOL    HW134256   2.130   2.661   2.659  1.1111 -0.3013  1.3550
 7540SOL    HW234257   2.172   2.739   2.553 -2.0221 -1.1668 -0.3539
 7541SOL     OW34258   1.093   1.857   3.857 -0.3876  0.3894  0.2574
 7541SOL    HW134259   1.042   1.916   3.913 -2.2467 -0.2496 -0.7332
 7541SOL    HW234260   1.056   1.888   3.774  1.7573  0.9066 -0.5021
 7542SOL     OW34261   2.997   0.737  10.632 -0.2638 -0.0711 -0.4754
 7542SOL    HW134262   3.082   0.693  10.638  0.2388  1.1460  1.2915
 7542SOL    HW234263   2.951   0.654  10.615 -0.3564  0.3730 -2.3252
 7543SOL     OW34264   4.672   4.434   4.303  0.3017  0.2360 -0.4012
 7543SOL    HW134265   4.670   4.343   4.272  2.9099  0.6437 -1.6988
 7543SOL    HW234266   4.730   4.426   4.379  2.5387 -2.1460 -2.3540
 7544SOL     OW34267   0.291   0.877   6.601  0.4158  0.1604 -1.3398
 7544SOL    HW134268   0.244   0.794   6.606  2.1349 -0.8543 -2.0182
 7544SOL    HW234269   0.255   0.928   6.674  2.0070  0.0552 -0.4918
 7545SOL     OW34270   2.627   2.415  14.330 -0.5559 -0.0544  0.5110
 7545SOL    HW134271   2.531   2.418  14.325 -0.6287 -2.3814  0.4619
 7545SOL    HW234272   2.629   2.354  14.256  2.1000 -0.5341  1.0009
 7546SOL     OW34273   1.041   3.362  17.448 -0.3035 -0.1869  0.4550
 7546SOL    HW134274   1.016   3.270  17.460 -2.5574 -0.1543 -4.1020
 7546SOL    HW234275   0.979   3.403  17.508 -1.5665 -0.8979 -0.3741
 7547SOL     OW34276   3.869   3.510  14.507  0.9823 -0.3860  0.2805
 7547SOL    HW134277   3.931   3.565  14.459  0.1734  0.7154  0.4817
 7547SOL    HW234278   3.812   3.480  14.437  1.9110 -2.6037  0.4960
 7548SOL     OW34279   0.947   1.003   8.644  0.2213  0.4258 -0.2484
 7548SOL    HW134280   1.020   1.057   8.614 -0.2579  1.0950 -0.2137
 7548SOL    HW234281   0.951   0.936   8.575 -0.8312  3.0521 -2.8776
 7549SOL     OW34282   4.334   1.926   2.903 -0.3110  0.2398  0.2111
 7549SOL    HW134283   4.275   2.002   2.902  0.1132  0.5509 -1.1352
 7549SOL    HW234284   4.317   1.899   2.993  1.9325 -4.0396 -0.6730
 7550SOL     OW34285   1.367   0.219   8.242 -0.3157 -0.2919  0.0728
 7550SOL    HW134286   1.404   0.306   8.225  0.5723 -0.6599  0.1162
 7550SOL    HW234287   1.436   0.157   8.217  0.4872  0.0475  1.4470
 7551SOL     OW34288   2.326   2.392   8.211 -0.5497 -0.1098  0.4030
 7551SOL    HW134289   2.248   2.386   8.267  0.0076 -1.0103  1.0812
 7551SOL    HW234290   2.397   2.360   8.267 -0.0524  0.4731  0.1014
 7552SOL     OW34291   4.727   1.355   8.650 -0.1556  0.4511  0.2011
 7552SOL    HW134292   0.056   1.299   8.690 -2.0756 -0.4883  1.9967
 7552SOL    HW234293   4.650   1.301   8.668 -0.5435  0.4431 -1.4518
 7553SOL     OW34294   3.116   0.064   5.028 -0.1477 -0.2085  0.1279
 7553SOL    HW134295   3.191   0.009   5.053 -0.9243  0.8198  4.7371
 7553SOL    HW234296   3.151   0.108   4.951  1.8509  0.4544  1.3979
 7554SOL     OW34297   0.132   2.971   0.441 -0.0893  0.2456 -0.1419
 7554SOL    HW134298   0.039   2.949   0.437 -0.5342  1.6646  2.3245
 7554SOL    HW234299   0.168   2.901   0.387 -2.5021  0.2719 -1.7386
 7555SOL     OW34300   2.745   4.602   1.659 -0.6409  0.2437  0.9599
 7555SOL    HW134301   2.730   4.532   1.596  0.9583 -0.1950  1.0897
 7555SOL    HW234302   2.834   4.625   1.633 -0.9206  1.6114  1.1929
 7556SOL     OW34303   2.615   0.439   2.006 -0.0769  0.3540 -0.5339
 7556SOL    HW134304   2.592   0.378   2.076  1.9726  0.0981 -0.0991
 7556SOL    HW234305   2.706   0.429   1.979 -0.1507 -4.1165  0.8472
 7557SOL     OW34306   3.330   2.914   7.091  0.1694  0.0580 -0.2381
 7557SOL    HW134307   3.251   2.958   7.121 -0.4554  0.0699 -1.9218
 7557SOL    HW234308   3.292   2.842   7.041  0.7989 -1.0728  0.9073
 7558SOL     OW34309   2.041   0.177  14.110 -0.7924  0.5544  0.6363
 7558SOL    HW134310   1.996   0.098  14.080  0.4294 -0.7943  2.3783
 7558SOL    HW234311   2.001   0.198  14.194 -0.1274  0.8810  0.8785
 7559SOL     OW34312   1.742   2.592   2.609 -0.5198 -0.4319  0.2023
 7559SOL    HW134313   1.836   2.583   2.628 -0.6290 -0.2221  0.8288
 7559SOL    HW234314   1.751   2.524   2.542 -1.4435 -0.2036 -0.1436
 7560SOL     OW34315   3.641   2.419   8.811  0.5142  0.3559  0.0696
 7560SOL    HW134316   3.657   2.395   8.720 -1.9679  2.6105 -0.9447
 7560SOL    HW234317   3.546   2.428   8.816  0.3117 -1.8311  0.2995
 7561SOL     OW34318   2.183   2.249   2.931 -0.1683  0.1291 -0.4212
 7561SOL    HW134319   2.274   2.277   2.922 -0.0359 -0.2671 -0.3309
 7561SOL    HW234320   2.139   2.278   2.851  1.2813  0.6038 -1.0402
 7562SOL     OW34321   0.682   1.841   4.126  0.4055 -0.0518 -0.1962
 7562SOL    HW134322   0.647   1.930   4.132  2.6825  0.7579  1.1737
 7562SOL    HW234323   0.697   1.809   4.215  2.0394  0.5544 -0.2561
 7563SOL     OW34324   3.699   2.811   8.841  0.1397 -0.4327  0.3057
 7563SOL    HW134325   3.769   2.745   8.837 -0.3031 -0.9117  0.5260
 7563SOL    HW234326   3.699   2.823   8.936  0.5623 -1.9683  0.5070
 7564SOL     OW34327   3.750   0.489   6.236 -1.0913 -0.1647  0.8001
 7564SOL    HW134328   3.810   0.564   6.242 -1.5918  0.4990 -2.6519
 7564SOL    HW234329   3.720   0.473   6.325 -1.7964  0.9359  0.7698
 7565SOL     OW34330   1.067   1.715   2.145  0.0765 -0.1940 -0.6246
 7565SOL    HW134331   1.023   1.645   2.097 -3.0795  2.0290 -1.0386
 7565SOL    HW234332   1.132   1.740   2.079  0.9424 -2.1045 -0.4840
 7566SOL     OW34333   4.529   0.216  11.948  0.0497  0.3249 -0.2936
 7566SOL    HW134334   4.563   0.168  12.024 -1.1407  0.5309  0.3712
 7566SOL    HW234335   4.477   0.148  11.905 -0.3475  1.0222 -0.9168
 7567SOL     OW34336   3.874   3.694   4.033 -0.4660 -0.2061  0.7583
 7567SOL    HW134337   3.801   3.752   4.013  0.5291  1.0698  0.8134
 7567SOL    HW234338   3.840   3.634   4.099 -1.2444 -0.4080  0.1824
 7568SOL     OW34339   3.530   2.754   7.188 -0.7381  0.2037  0.1501
 7568SOL    HW134340   3.445   2.786   7.159  0.0328  0.4956 -1.7875
 7568SOL    HW234341   3.530   2.795   7.274  3.8510 -1.7975  1.1142
 7569SOL     OW34342   4.356   0.786   2.595 -0.1184 -0.2750 -0.0146
 7569SOL    HW134343   4.354   0.824   2.683  0.5949 -1.0763  0.3531
 7569SOL    HW234344   4.265   0.757   2.589  0.0653 -1.1843  1.5127
 7570SOL     OW34345   0.468   0.704   4.716  0.5369 -0.0671  0.7915
 7570SOL    HW134346   0.379   0.696   4.682  0.4199 -0.6200  1.2322
 7570SOL    HW234347   0.445   0.740   4.802 -1.3372  1.4078 -0.3360
 7571SOL     OW34348   4.106   3.038  11.789  0.7132 -0.3126 -0.8365
 7571SOL    HW134349   4.100   3.104  11.859 -1.9856 -1.2940 -0.1436
 7571SOL    HW234350   4.169   3.080  11.731  0.2361  3.2265  1.1514
 7572SOL     OW34351   0.349   0.968   5.432 -0.1634  0.1505 -0.4630
 7572SOL    HW134352   0.386   1.036   5.488 -0.2344  0.1645 -0.4334
 7572SOL    HW234353   0.313   0.918   5.504  0.7247 -1.0799 -0.8784
 7573SOL     OW34354   0.722   2.610   3.764 -0.3318  0.1992 -0.4984
 7573SOL    HW134355   0.803   2.559   3.755 -0.2175 -0.0895  2.1272
 7573SOL    HW234356   0.697   2.612   3.672  1.4636  0.0154 -0.9757
 7574SOL     OW34357   3.835   0.994   3.738  0.3620 -0.3445 -0.1352
 7574SOL    HW134358   3.840   0.925   3.804  0.7525 -0.9285 -0.7780
 7574SOL    HW234359   3.920   1.037   3.737 -0.1286  0.6643  1.9752
 7575SOL     OW34360   2.847   0.494  10.556 -0.3073 -0.2182  0.6838
 7575SOL    HW134361   2.878   0.420  10.609  1.3460 -0.7652 -1.0811
 7575SOL    HW234362   2.773   0.525  10.608 -0.1218  0.4574  0.5374
 7576SOL     OW34363   3.859   1.142   9.134  0.9113 -0.1675  0.1984
 7576SOL    HW134364   3.804   1.070   9.164 -0.2374 -0.0873 -1.7600
 7576SOL    HW234365   3.783   1.192   9.105  0.6325 -0.7314 -0.0361
 7577SOL     OW34366   0.457   1.083   5.645 -0.0193  0.7247  0.4099
 7577SOL    HW134367   0.541   1.109   5.683  0.0611 -0.8143  1.2812
 7577SOL    HW234368   0.409   1.062   5.726 -1.1986  0.5082 -0.3366
 7578SOL     OW34369   4.591   4.166   7.595  0.0323 -0.7313  0.5361
 7578SOL    HW134370   4.572   4.084   7.641 -2.3841  0.1843  1.1581
 7578SOL    HW234371   4.656   4.205   7.653 -2.7188 -0.2496  3.2992
 7579SOL     OW34372   3.754   3.553   2.896  0.2295  0.0021  0.2291
 7579SOL    HW134373   3.734   3.550   2.990  4.0289  2.2501  1.1318
 7579SOL    HW234374   3.759   3.460   2.875 -1.4710 -0.0204 -0.0581
 7580SOL     OW34375   1.097   3.693   5.774 -0.6230  0.4997 -0.1438
 7580SOL    HW134376   1.117   3.785   5.793  1.3630 -0.2089  1.2314
 7580SOL    HW234377   1.186   3.660   5.766 -1.2946 -1.3212 -0.1445
 7581SOL     OW34378   2.305   0.591   8.636  0.0484  0.1738  0.1429
 7581SOL    HW134379   2.323   0.667   8.579  1.2399  0.4838  0.9495
 7581SOL    HW234380   2.386   0.580   8.685  0.9400  0.0851 -1.3277
 7582SOL     OW34381   3.424   1.516   3.398  0.0496 -1.0130 -0.1953
 7582SOL    HW134382   3.500   1.569   3.420 -1.4269  0.6272  0.9702
 7582SOL    HW234383   3.373   1.569   3.337 -0.7969 -3.3723 -1.5479
 7583SOL     OW34384   4.384   2.976   2.402 -0.1149  0.3324 -0.0098
 7583SOL    HW134385   4.371   3.059   2.448  0.9497  0.0931  0.7383
 7583SOL    HW234386   4.443   2.936   2.466  1.3967  0.7838 -1.1081
 7584SOL     OW34387   0.505   1.703   0.687  0.0965 -0.1399  0.0709
 7584SOL    HW134388   0.516   1.692   0.592 -0.7607 -1.5160  0.1433
 7584SOL    HW234389   0.462   1.788   0.677 -0.8888 -0.4599  1.7012
 7585SOL     OW34390   2.928   0.034   1.923 -0.0259  0.1656 -0.1796
 7585SOL    HW134391   2.928   4.691   1.869  0.8928  0.3716 -0.4810
 7585SOL    HW234392   2.945   0.090   1.847  1.1721  0.5441  0.3743
 7586SOL     OW34393   3.342   4.595   3.812 -1.0525 -0.4806 -0.1597
 7586SOL    HW134394   3.414   4.547   3.772 -0.9467 -1.4972  1.2606
 7586SOL    HW234395   3.353   4.578   3.905 -0.4955  1.7990  0.2055
 7587SOL     OW34396   0.437   2.696   0.091 -0.4584  0.1344 -0.4214
 7587SOL    HW134397   0.366   2.637   0.116  1.5691 -1.7003  1.0522
 7587SOL    HW234398   0.404   2.774   0.136  1.9145  1.8415 -1.6233
 7588SOL     OW34399   4.109   4.150  10.681  0.2473  0.0906  0.2003
 7588SOL    HW134400   4.038   4.092  10.653  0.0962 -0.7528  2.3969
 7588SOL    HW234401   4.171   4.102  10.735 -0.9552 -1.2848  0.3478
 7589SOL     OW34402   1.744   4.711   2.895 -0.0331 -0.2583 -0.0736
 7589SOL    HW134403   1.781   4.624   2.885 -0.6820 -0.7268  1.6502
 7589SOL    HW234404   1.720   4.728   2.986  0.7483  0.7557 -0.0611
 7590SOL     OW34405   0.012   2.783   9.926 -0.1779 -1.0127  0.0527
 7590SOL    HW134406   0.080   2.825   9.978 -2.0192  0.0405  1.6285
 7590SOL    HW234407   4.667   2.798   9.975 -0.5018  0.6297 -0.9759
 7591SOL     OW34408   1.266   4.464  14.676 -0.3282 -0.4583 -0.3950
 7591SOL    HW134409   1.203   4.512  14.731  0.2014  1.3063 -1.3310
 7591SOL    HW234410   1.213   4.448  14.598 -2.0764  0.4389  0.5953
 7592SOL     OW34411   0.451   1.256   3.478 -0.2342  0.1394  0.1535
 7592SOL    HW134412   0.509   1.320   3.520 -1.2588  2.1387 -1.4433
 7592SOL    HW234413   0.382   1.243   3.544  0.2703 -0.0294  0.6443
 7593SOL     OW34414   3.845   0.540  17.345  0.4473  0.1640  0.5161
 7593SOL    HW134415   3.803   0.620  17.314  0.1685 -0.1595  0.0660
 7593SOL    HW234416   3.855   0.561  17.438 -0.8883  2.0153  0.2291
 7594SOL     OW34417   3.293   0.702   0.854 -0.5413  0.3195  0.7482
 7594SOL    HW134418   3.375   0.659   0.880  0.8299  0.3559 -3.5423
 7594SOL    HW234419   3.241   0.623   0.870  2.2861 -0.9753  3.6426
 7595SOL     OW34420   1.142   0.534   2.752 -0.3763 -0.2325  0.0830
 7595SOL    HW134421   1.071   0.588   2.786 -0.1297  0.2172 -0.1194
 7595SOL    HW234422   1.190   0.601   2.704 -0.7243 -0.6502 -0.8656
 7596SOL     OW34423   3.882   3.539  10.282  0.2091  1.1225  0.4798
 7596SOL    HW134424   3.887   3.528  10.377  0.2517 -0.4277  0.2833
 7596SOL    HW234425   3.965   3.585  10.269  0.3199  0.3716 -1.4026
 7597SOL     OW34426   4.407   1.746   3.543  0.5505  0.2960  0.0966
 7597SOL    HW134427   4.359   1.757   3.625  1.0466 -1.1462  0.5768
 7597SOL    HW234428   4.492   1.709   3.566 -0.6569 -1.2491  2.0849
 7598SOL     OW34429   1.076   4.425  14.484  0.2054  0.7322  0.2617
 7598SOL    HW134430   1.050   4.447  14.394  2.0319  1.8750  0.0217
 7598SOL    HW234431   1.070   4.329  14.476 -3.8624  0.9674  0.3128
 7599SOL     OW34432   1.651   2.044   4.449 -0.4975  0.4069  0.0549
 7599SOL    HW134433   1.697   2.003   4.376  0.9137  0.6784  0.7781
 7599SOL    HW234434   1.707   2.116   4.479  0.9571 -0.5643 -0.3010
 7600SOL     OW34435   0.651   2.335   8.441 -0.0868 -0.1669  0.1933
 7600SOL    HW134436   0.718   2.343   8.374  0.4526  0.5540  0.8067
 7600SOL    HW234437   0.709   2.299   8.509 -2.4829 -0.5827  2.0379
 7601SOL     OW34438   3.613   0.871   5.671  0.0928  0.1844 -0.1434
 7601SOL    HW134439   3.658   0.857   5.754 -0.7426 -0.3555  0.2256
 7601SOL    HW234440   3.656   0.950   5.639 -1.1631  0.7956 -0.3180
 7602SOL     OW34441   2.913   4.567   9.005  0.4934  0.4467 -0.4742
 7602SOL    HW134442   2.847   4.510   9.044  0.0747  1.3116  0.0814
 7602SOL    HW234443   2.993   4.525   9.038  0.3699  0.6639  0.0957
 7603SOL     OW34444   2.187   3.576   0.009 -0.0027 -0.6799 -0.0063
 7603SOL    HW134445   2.199   3.671   0.010 -1.1799 -0.5308 -0.8614
 7603SOL    HW234446   2.262   3.546  17.702 -0.3067  0.3408 -1.0405
 7604SOL     OW34447   4.099   0.390  14.129  0.1781 -0.1614 -0.3968
 7604SOL    HW134448   4.094   0.365  14.221 -1.0934 -0.8511 -0.6528
 7604SOL    HW234449   4.013   0.353  14.107  0.5040 -0.3111 -1.4167
 7605SOL     OW34450   1.689   1.339   5.861 -0.2159 -0.4468 -0.1076
 7605SOL    HW134451   1.698   1.244   5.859 -0.0837 -0.4008 -1.9268
 7605SOL    HW234452   1.674   1.347   5.767 -2.5804  0.8361  0.3980
 7606SOL     OW34453   2.626   1.117   3.221 -0.2343 -0.1626  0.2222
 7606SOL    HW134454   2.655   1.198   3.261 -3.0307  1.7144 -1.5410
 7606SOL    HW234455   2.575   1.159   3.152 -0.4706  0.4671  0.7895
 7607SOL     OW34456   3.592   1.264   3.663 -0.1762  0.3197  0.3263
 7607SOL    HW134457   3.658   1.316   3.709 -1.2697  0.7993  1.3516
 7607SOL    HW234458   3.647   1.215   3.602 -2.0907 -1.5690  0.1256
 7608SOL     OW34459   3.136   2.362   5.908 -1.3978  0.2741  0.0652
 7608SOL    HW134460   3.182   2.351   5.824  1.6955  0.2100  1.7768
 7608SOL    HW234461   3.153   2.274   5.941 -2.0877  0.3896  0.7192
 7609SOL     OW34462   3.660   0.716  14.633  0.4795  0.1158  0.0870
 7609SOL    HW134463   3.626   0.800  14.664  2.0607  0.3295  1.2217
 7609SOL    HW234464   3.577   0.672  14.654  1.3785 -2.2982 -1.3829
 7610SOL     OW34465   1.571   4.590   9.067 -0.1007  0.1120  0.0502
 7610SOL    HW134466   1.529   4.504   9.072 -1.5580  0.8656  0.5987
 7610SOL    HW234467   1.645   4.573   9.126 -0.7592  3.6364  1.8814
 7611SOL     OW34468   4.714   1.713   3.913  0.6071  0.2833  0.0992
 7611SOL    HW134469   4.681   1.771   3.982 -0.5337 -0.2843  0.0255
 7611SOL    HW234470   0.004   1.638   3.966  0.1200  0.2709  0.3200
 7612SOL     OW34471   2.233   0.513  15.235 -0.3267  0.3104  0.4904
 7612SOL    HW134472   2.322   0.531  15.204 -1.5765  1.7991 -2.1518
 7612SOL    HW234473   2.192   0.470  15.160 -0.1565  0.2134  0.4513
 7613SOL     OW34474   2.181   0.820   7.756 -0.0540  0.5314  0.6137
 7613SOL    HW134475   2.177   0.788   7.666 -1.4177  0.7519  0.5956
 7613SOL    HW234476   2.159   0.739   7.802 -3.5085  0.7955 -0.5509
 7614SOL     OW34477   0.451   4.722   2.857  0.2335  0.3361 -0.0862
 7614SOL    HW134478   0.376   4.664   2.840  0.9940 -0.4268 -0.8497
 7614SOL    HW234479   0.512   4.664   2.811  0.0339 -1.2542  1.6657
 7615SOL     OW34480   0.945   0.932   6.345  0.2340 -0.2877 -0.0820
 7615SOL    HW134481   0.980   0.936   6.256 -0.0385  1.2202 -0.1211
 7615SOL    HW234482   0.874   0.996   6.342  1.7378  1.3631  0.0080
 7616SOL     OW34483   1.756   0.592   0.178 -0.2676 -0.3010 -0.1477
 7616SOL    HW134484   1.784   0.617   0.090 -1.6673  0.7547 -0.2933
 7616SOL    HW234485   1.816   0.525   0.211 -1.5591 -1.5159 -0.2484
 7617SOL     OW34486   2.840   2.275   9.129 -0.1042 -0.0616 -0.2160
 7617SOL    HW134487   2.926   2.246   9.161 -0.3977 -0.2842  0.3532
 7617SOL    HW234488   2.779   2.227   9.186  0.4806 -0.4739  0.0679
 7618SOL     OW34489   1.628   3.973   7.826  0.4680  0.3387 -0.1573
 7618SOL    HW134490   1.554   3.931   7.782  0.3018  0.2648  0.1958
 7618SOL    HW234491   1.682   3.989   7.749 -1.2108 -0.7757 -1.5727
 7619SOL     OW34492   2.085   0.651  15.432 -0.2881 -0.1735  0.1605
 7619SOL    HW134493   2.135   0.711  15.487 -1.0502  1.7355 -1.2193
 7619SOL    HW234494   2.149   0.617  15.370  0.1556  0.1634  0.4308
 7620SOL     OW34495   2.033   4.580   5.173  0.0512  0.0495 -0.2050
 7620SOL    HW134496   1.999   4.604   5.087 -1.2680 -1.4509 -0.1095
 7620SOL    HW234497   2.054   4.663   5.217 -1.0657 -0.0194  0.4793
 7621SOL     OW34498   4.562   3.174  16.905  0.3055  0.5072 -1.0254
 7621SOL    HW134499   4.640   3.121  16.892 -0.0595 -0.3216  0.1943
 7621SOL    HW234500   4.486   3.122  16.878 -0.2041 -0.3697  2.1492
 7622SOL     OW34501   3.774   3.820   7.632  0.3417 -0.2952  0.2552
 7622SOL    HW134502   3.788   3.729   7.609 -1.6160 -0.2547 -1.1705
 7622SOL    HW234503   3.708   3.850   7.568 -0.1511 -0.7213  0.5615
 7623SOL     OW34504   0.488   2.073   7.494 -0.1865 -0.0191 -0.2076
 7623SOL    HW134505   0.398   2.085   7.463 -1.1419 -0.4220  2.3705
 7623SOL    HW234506   0.529   2.035   7.416  0.3206 -0.7755  0.4233
 7624SOL     OW34507   3.633   1.442   8.336 -0.3428 -0.7612  0.1371
 7624SOL    HW134508   3.664   1.467   8.249 -1.2423  1.9140  0.6103
 7624SOL    HW234509   3.715   1.437   8.386  1.0762  0.7068 -2.0712
 7625SOL     OW34510   3.896   4.459  17.460  0.1631  0.3449  0.2715
 7625SOL    HW134511   3.866   4.420  17.378  0.3723 -1.1399  0.8959
 7625SOL    HW234512   3.858   4.405  17.530 -1.3288 -1.1445 -1.6855
 7626SOL     OW34513   2.443   2.928  14.408 -0.3398 -0.2736 -0.2529
 7626SOL    HW134514   2.536   2.947  14.421 -1.1044  2.2209  1.5573
 7626SOL    HW234515   2.450   2.832  14.403  0.4862 -0.1823 -0.7647
 7627SOL     OW34516   2.501   3.578   3.710 -0.2777  0.0038 -0.2204
 7627SOL    HW134517   2.420   3.572   3.760 -0.3057 -3.6548 -0.6875
 7627SOL    HW234518   2.469   3.543   3.626 -0.1734  0.2803 -0.3768
 7628SOL     OW34519   0.436   3.791  16.130  0.4476  0.0402 -0.3908
 7628SOL    HW134520   0.427   3.886  16.142 -0.5705 -0.1474  0.2974
 7628SOL    HW234521   0.514   3.794  16.074  0.4358 -1.3366 -0.4692
 7629SOL     OW34522   1.744   0.600   9.627 -0.2681 -0.2662 -0.0146
 7629SOL    HW134523   1.694   0.535   9.578 -0.0139  0.1567 -0.8370
 7629SOL    HW234524   1.759   0.566   9.715  2.1510  0.9205  0.0317
 7630SOL     OW34525   1.257   1.611  15.990  0.3268 -0.5389  0.0182
 7630SOL    HW134526   1.205   1.533  15.966 -0.3632  0.2424 -1.0410
 7630SOL    HW234527   1.346   1.582  16.011  1.2553  2.4199  0.1547
 7631SOL     OW34528   0.526   2.989   1.930  0.1061 -0.4100  0.1592
 7631SOL    HW134529   0.621   3.004   1.924  0.2006 -1.1915 -0.2373
 7631SOL    HW234530   0.520   2.996   2.026  0.5502 -2.0948  0.3063
 7632SOL     OW34531   0.563   4.651   3.729 -0.1926  0.1377  0.2323
 7632SOL    HW134532   0.639   4.609   3.769 -0.5153 -1.4073 -0.7838
 7632SOL    HW234533   0.569   4.629   3.636 -0.9158  0.5054  0.1015
 7633SOL     OW34534   2.032   0.485   3.446  0.1200  0.4988  0.5580
 7633SOL    HW134535   1.956   0.429   3.438 -1.2588  2.6476 -1.2757
 7633SOL    HW234536   2.034   0.509   3.539  3.6486  0.4271  0.4978
 7634SOL     OW34537   3.687   2.247   1.720 -0.0308 -0.9520  0.3447
 7634SOL    HW134538   3.678   2.173   1.660  1.6596  0.0069 -1.0923
 7634SOL    HW234539   3.596   2.264   1.744 -0.1519 -3.4526  1.6594
 7635SOL     OW34540   2.157   4.157   5.107 -0.0970 -0.1020  0.0628
 7635SOL    HW134541   2.121   4.082   5.154 -0.0052 -0.0927  0.1494
 7635SOL    HW234542   2.246   4.132   5.081  0.8826  1.0016  2.3104
 7636SOL     OW34543   2.690   1.343  10.189 -0.6518  0.6617  1.0317
 7636SOL    HW134544   2.754   1.355  10.259  0.6293  1.0674 -0.2106
 7636SOL    HW234545   2.705   1.426  10.142  1.4269  0.3987  1.2297
 7637SOL     OW34546   2.558   2.477   9.071  0.0099 -0.2749 -0.1063
 7637SOL    HW134547   2.495   2.528   9.122 -1.9751 -1.4060 -1.3926
 7637SOL    HW234548   2.576   2.409   9.136  1.9796  0.1357 -0.2253
 7638SOL     OW34549   0.543   3.682   6.284 -0.1921 -0.1593  0.1875
 7638SOL    HW134550   0.464   3.628   6.277 -0.9992  1.3358 -2.1476
 7638SOL    HW234551   0.586   3.659   6.202 -0.3260  0.3556 -0.0268
 7639SOL     OW34552   1.042   2.832  15.675  0.2439  0.2257  0.3425
 7639SOL    HW134553   1.017   2.896  15.609 -0.8238 -0.9195 -0.3489
 7639SOL    HW234554   1.022   2.750  15.631 -0.8464  0.9845 -0.5752
 7640SOL     OW34555   3.731   3.874   4.373 -0.3614 -0.2706  0.5514
 7640SOL    HW134556   3.763   3.785   4.384 -1.4556 -0.8711 -1.0797
 7640SOL    HW234557   3.788   3.929   4.426  0.4188  0.5014 -1.0601
 7641SOL     OW34558   1.618   0.140   6.445  0.0073  0.3480  0.4756
 7641SOL    HW134559   1.689   0.154   6.381 -0.5867  1.2667  0.0178
 7641SOL    HW234560   1.635   0.049   6.469 -1.3938 -0.6613 -2.4146
 7642SOL     OW34561   4.092   0.773  10.876  0.4198 -0.2316  0.2224
 7642SOL    HW134562   4.029   0.730  10.819  2.8442 -2.6217 -0.6467
 7642SOL    HW234563   4.105   0.712  10.949 -2.1851  1.0109  1.7224
 7643SOL     OW34564   3.540   2.936   7.931  0.7307 -0.0421 -0.3873
 7643SOL    HW134565   3.508   2.909   8.017  0.5130  1.3748 -0.0296
 7643SOL    HW234566   3.545   2.852   7.885  0.9928  0.1535 -0.7109
 7644SOL     OW34567   3.542   3.715  17.586  0.4533  0.2145  0.5015
 7644SOL    HW134568   3.621   3.663  17.599  0.8780  0.8171  0.2762
 7644SOL    HW234569   3.575   3.804  17.597 -1.7189  1.2128 -1.0386
 7645SOL     OW34570   4.482   2.472   3.985 -0.9292  0.9806  0.0491
 7645SOL    HW134571   4.428   2.397   4.007  1.9826 -0.9058  0.7127
 7645SOL    HW234572   4.472   2.488   3.891  0.4382 -1.9016 -0.5638
 7646SOL     OW34573   0.036   1.725   3.099  0.2120  1.0331  0.1094
 7646SOL    HW134574   0.077   1.799   3.054 -3.0056  2.6001 -0.2591
 7646SOL    HW234575   0.037   1.658   3.031 -0.5165  0.8343  0.2899
 7647SOL     OW34576   0.483   1.810  16.869 -0.3700 -0.5410  0.0145
 7647SOL    HW134577   0.431   1.821  16.789 -1.8265  3.2497  1.4923
 7647SOL    HW234578   0.547   1.741  16.853 -1.3306 -1.4639  0.1219
 7648SOL     OW34579   0.303   1.873   0.553  0.1480  0.2385 -0.1820
 7648SOL    HW134580   0.296   1.967   0.535  0.7359  0.0825 -1.2160
 7648SOL    HW234581   0.370   1.851   0.489 -1.9264 -0.6344 -2.0400
 7649SOL     OW34582   3.266   3.989   8.099 -0.1013  0.3361  0.2649
 7649SOL    HW134583   3.298   3.901   8.077  0.5645  0.9393 -1.1605
 7649SOL    HW234584   3.298   3.994   8.189  1.9500  0.9872 -0.4966
 7650SOL     OW34585   2.244   4.453  11.380 -0.4407 -0.5203  0.0486
 7650SOL    HW134586   2.328   4.483  11.344 -0.0340 -0.2237  1.2456
 7650SOL    HW234587   2.183   4.474  11.309  0.0011  1.6730  0.3019
 7651SOL     OW34588   4.274   3.139  15.464  0.2550 -0.4486  0.4327
 7651SOL    HW134589   4.213   3.072  15.497 -0.6779  1.0036  1.6474
 7651SOL    HW234590   4.268   3.120  15.370  0.6035  3.1424 -0.2956
 7652SOL     OW34591   0.461   2.699   8.157  0.1654 -0.7243  0.3079
 7652SOL    HW134592   0.479   2.648   8.235 -0.3042 -0.3011  0.6997
 7652SOL    HW234593   0.399   2.640   8.113  2.4491 -1.2943 -2.1448
 7653SOL     OW34594   2.117   1.672   0.026 -0.0161  0.0640  0.4587
 7653SOL    HW134595   2.087   1.679   0.117 -1.7115 -1.7300  0.0446
 7653SOL    HW234596   2.179   1.745   0.016  1.2174 -1.1765 -0.8492
 7654SOL     OW34597   3.905   3.525   5.482  0.3549  0.4171 -0.5221
 7654SOL    HW134598   3.898   3.466   5.407 -0.7936 -0.1240  0.0185
 7654SOL    HW234599   3.997   3.514   5.506  0.2463 -0.7089 -0.6606
 7655SOL     OW34600   3.415   1.361   2.534 -0.2874 -0.4924 -0.2291
 7655SOL    HW134601   3.465   1.427   2.582 -1.3936 -1.2085  1.9438
 7655SOL    HW234602   3.330   1.399   2.556  1.0939  0.9896  2.6069
 7656SOL     OW34603   1.929   0.469   8.973 -0.5627 -0.7936  0.3454
 7656SOL    HW134604   1.953   0.557   8.944 -0.9729 -1.3055 -1.4878
 7656SOL    HW234605   2.015   0.428   8.983 -0.4075 -0.0430  2.2997
 7657SOL     OW34606   1.105   4.712   4.892 -0.0198  0.2311  0.3215
 7657SOL    HW134607   1.168   0.005   4.826  1.0727  0.6434  1.5342
 7657SOL    HW234608   1.144   4.631   4.925 -2.1274  0.0309  2.3040
 7658SOL     OW34609   1.418   0.695  17.690  0.3917 -0.3792 -0.0177
 7658SOL    HW134610   1.388   0.645  17.614  0.1382  1.4951 -1.1346
 7658SOL    HW234611   1.464   0.774  17.661 -0.6270  0.1325 -0.2445
 7659SOL     OW34612   1.399   0.850  15.149 -0.4381  0.0587  0.1841
 7659SOL    HW134613   1.318   0.898  15.130 -0.4278 -0.1453 -0.4038
 7659SOL    HW234614   1.367   0.797  15.222 -0.5768  2.0584  1.5740
 7660SOL     OW34615   2.443   2.142   4.671  0.1202  0.1964  0.2139
 7660SOL    HW134616   2.488   2.213   4.717 -1.6745  0.2248  1.9009
 7660SOL    HW234617   2.378   2.189   4.618 -1.5954 -1.0148  1.2699
 7661SOL     OW34618   1.954   4.330   7.207 -0.3663 -0.7570 -0.5506
 7661SOL    HW134619   1.923   4.337   7.297  1.9184  0.6797  0.1183
 7661SOL    HW234620   1.885   4.272   7.172  0.6480 -0.4536 -3.0706
 7662SOL     OW34621   4.244   2.211  14.549  0.4348  0.1962 -0.4395
 7662SOL    HW134622   4.151   2.195  14.537  0.1426  0.4003  1.4161
 7662SOL    HW234623   4.286   2.126  14.559 -1.8530 -0.8579  0.1360
 7663SOL     OW34624   0.718   3.106   7.386 -0.1039  0.2958  0.1173
 7663SOL    HW134625   0.720   3.042   7.457 -2.5885  0.3052  0.2009
 7663SOL    HW234626   0.754   3.181   7.432  2.5490 -1.3069  0.6638
 7664SOL     OW34627   3.530   0.254   4.243 -0.6139  0.3028  0.3591
 7664SOL    HW134628   3.451   0.206   4.218 -0.5859  0.3100  0.2585
 7664SOL    HW234629   3.512   0.334   4.195  0.4472 -0.2152 -0.8943
 7665SOL     OW34630   4.696   2.719   6.999 -0.2994 -0.0765 -0.1408
 7665SOL    HW134631   0.047   2.680   7.004 -1.0653 -1.6344  0.9778
 7665SOL    HW234632   4.672   2.678   6.916 -3.3003  0.4450  0.5027
 7666SOL     OW34633   1.899   0.813   3.438  0.2948  0.1647  0.0751
 7666SOL    HW134634   1.938   0.732   3.406 -1.6332  0.0734 -2.0598
 7666SOL    HW234635   1.815   0.778   3.467 -0.0277  1.0471  0.1987
 7667SOL     OW34636   4.724   0.956   8.760 -0.1591  0.0332  0.1709
 7667SOL    HW134637   4.653   0.892   8.751 -0.0245 -0.0268 -0.4079
 7667SOL    HW234638   4.710   0.999   8.676 -1.6533  0.4796  0.6401
 7668SOL     OW34639   0.795   4.229  11.968  0.3216  0.0858  0.0246
 7668SOL    HW134640   0.808   4.177  11.889 -1.5416  0.6287 -0.6587
 7668SOL    HW234641   0.885   4.236  11.998  0.5201  1.5691 -0.9047
 7669SOL     OW34642   4.456   4.038   8.933 -0.1480  0.8185  0.1207
 7669SOL    HW134643   4.452   4.032   9.028  0.1837 -1.5955 -0.0169
 7669SOL    HW234644   4.378   3.989   8.907  0.6650 -0.2598 -0.3065
 7670SOL     OW34645   1.320   1.449   2.446 -0.3274 -0.0188 -0.1076
 7670SOL    HW134646   1.393   1.481   2.498  0.0727  0.0968 -0.7413
 7670SOL    HW234647   1.250   1.512   2.463  0.5198  1.0578 -0.6805
 7671SOL     OW34648   3.541   0.882  13.563  0.2440  0.5076  0.5121
 7671SOL    HW134649   3.501   0.960  13.601 -0.4192 -0.8616  2.5957
 7671SOL    HW234650   3.551   0.915  13.474 -1.5947 -1.5262 -0.4651
 7672SOL     OW34651   1.832   2.806   6.497 -0.7887 -0.1668  0.3059
 7672SOL    HW134652   1.892   2.839   6.429 -1.3833  1.3656  0.5093
 7672SOL    HW234653   1.815   2.884   6.550 -1.2304 -0.3211  0.3860
 7673SOL     OW34654   3.329   0.916   2.835  0.1709 -0.4193 -0.2657
 7673SOL    HW134655   3.332   0.852   2.906  0.7955 -2.1817 -1.8796
 7673SOL    HW234656   3.234   0.931   2.828  0.5270  1.7000 -0.4742
 7674SOL     OW34657   3.277   2.718   6.900 -0.4664 -0.5149 -0.0313
 7674SOL    HW134658   3.275   2.772   6.821 -0.5140 -1.4619 -0.6824
 7674SOL    HW234659   3.199   2.663   6.891  0.4134 -1.1793 -3.5441
 7675SOL     OW34660   0.065   3.987  16.942  0.3138 -0.9065  0.1606
 7675SOL    HW134661   0.106   4.029  16.866  0.3716  0.1111  0.7555
 7675SOL    HW234662   0.142   3.992  16.999 -0.4414  1.1616  1.0117
 7676SOL     OW34663   0.321   1.464  13.273 -0.3145  0.0338  0.2455
 7676SOL    HW134664   0.309   1.558  13.264  0.2636 -0.0092 -0.9984
 7676SOL    HW234665   0.413   1.449  13.250  0.2699  2.9352  0.6298
 7677SOL     OW34666   2.346   3.806  11.690 -0.1059 -0.1474  0.7620
 7677SOL    HW134667   2.309   3.820  11.603  0.1805 -2.3203  0.2753
 7677SOL    HW234668   2.425   3.761  11.662 -0.2838  0.2780 -0.4265
 7678SOL     OW34669   2.514   0.393  13.983 -0.0650 -0.2004 -0.0992
 7678SOL    HW134670   2.424   0.379  14.011  0.0290 -0.6788 -0.0299
 7678SOL    HW234671   2.531   0.318  13.925  0.6610 -0.1657  0.0715
 7679SOL     OW34672   3.735   0.688   2.978 -0.1534  0.3172  0.5961
 7679SOL    HW134673   3.658   0.637   3.004  0.0922 -0.3255  0.0771
 7679SOL    HW234674   3.749   0.726   3.065 -1.3642 -0.3667  1.0869
 7680SOL     OW34675   0.640   1.062   1.430 -0.6647  1.0199 -0.1539
 7680SOL    HW134676   0.579   1.093   1.363  0.9703 -0.6947 -2.4355
 7680SOL    HW234677   0.707   1.131   1.421  1.6680 -1.3308 -0.9635
 7681SOL     OW34678   1.758   1.002   0.730 -0.0946  0.2022 -0.5808
 7681SOL    HW134679   1.697   0.986   0.658  0.3681  1.2023 -1.1910
 7681SOL    HW234680   1.709   1.061   0.788  1.4479  1.5939 -0.7185
 7682SOL     OW34681   0.019   1.612   8.155 -0.2113  0.0853 -0.2375
 7682SOL    HW134682   4.675   1.562   8.140 -2.4372  3.4049  0.7450
 7682SOL    HW234683   4.712   1.692   8.183 -0.1572  0.1229 -0.2597
 7683SOL     OW34684   1.125   1.201   2.515  0.3333 -0.4117  0.1622
 7683SOL    HW134685   1.175   1.197   2.596 -0.3338  0.0191  0.6054
 7683SOL    HW234686   1.201   1.207   2.458  1.2033 -2.5476  1.1283
 7684SOL     OW34687   0.342   0.799   3.093 -0.5428  0.1025  0.3013
 7684SOL    HW134688   0.350   0.868   3.026  1.1121  0.5433  0.9685
 7684SOL    HW234689   0.364   0.723   3.039 -0.6548 -0.6355  1.3150
 7685SOL     OW34690   4.526   1.909   0.561  0.1246 -0.1681 -0.0703
 7685SOL    HW134691   4.486   1.996   0.565  1.8376  0.7155 -2.5664
 7685SOL    HW234692   4.534   1.884   0.469 -0.2804 -0.2928 -0.0717
 7686SOL     OW34693   1.033   4.540   7.452 -0.3924  0.0749 -0.6319
 7686SOL    HW134694   1.042   4.634   7.436  1.5449 -0.4478 -2.6278
 7686SOL    HW234695   1.044   4.530   7.547 -5.2488  0.3160 -0.0372
 7687SOL     OW34696   2.667   3.894   3.406  0.2046 -0.0887 -0.2641
 7687SOL    HW134697   2.655   3.977   3.452  0.2244 -0.5271  0.5145
 7687SOL    HW234698   2.761   3.892   3.421  0.1870 -1.7632 -0.4197
 7688SOL     OW34699   0.809   1.909  15.336  0.0901  0.2167 -0.3044
 7688SOL    HW134700   0.791   1.922  15.243 -1.4814  1.4128  0.1899
 7688SOL    HW234701   0.724   1.879  15.368  0.0565  2.6288  1.7996
 7689SOL     OW34702   2.460   0.540   5.918 -0.5686  0.3459 -0.0286
 7689SOL    HW134703   2.516   0.478   5.872  0.3777  1.0918  0.0948
 7689SOL    HW234704   2.376   0.501   5.894 -1.3809  1.0665  1.6312
 7690SOL     OW34705   3.412   0.520   6.284  0.0748  0.3746  0.5559
 7690SOL    HW134706   3.447   0.592   6.233 -1.1883 -0.1774 -1.0967
 7690SOL    HW234707   3.443   0.545   6.371  0.2966  3.4171 -0.4231
 7691SOL     OW34708   0.647   1.219   5.774  0.1071  0.2939  0.5904
 7691SOL    HW134709   0.690   1.171   5.845 -2.1278 -1.0507  1.0435
 7691SOL    HW234710   0.718   1.275   5.742 -0.5121  0.8315  0.1527
 7692SOL     OW34711   2.764   3.191   6.106  0.1624 -0.3615  0.0962
 7692SOL    HW134712   2.833   3.254   6.129  0.3202 -0.5765  0.2147
 7692SOL    HW234713   2.687   3.220   6.156  0.0500  1.2853 -1.0096
 7693SOL     OW34714   2.863   3.993   4.753 -0.3481  0.2472  0.1788
 7693SOL    HW134715   2.910   3.947   4.823  2.7662 -1.1580 -2.8325
 7693SOL    HW234716   2.910   3.966   4.674  0.7536  2.9806 -0.1053
 7694SOL     OW34717   1.512   4.327   4.037 -0.1526  0.4243  0.3021
 7694SOL    HW134718   1.539   4.250   4.087  0.2708  0.6220  0.3798
 7694SOL    HW234719   1.434   4.359   4.084 -0.7253 -0.6683  0.0949
 7695SOL     OW34720   0.250   3.180  14.019  0.0969  0.2896  0.3925
 7695SOL    HW134721   0.282   3.188  13.929  0.3752 -0.0954  0.4584
 7695SOL    HW234722   0.234   3.274  14.032  4.4651  1.0181  0.5822
 7696SOL     OW34723   0.043   3.469   5.456  0.0830  0.5864  0.7879
 7696SOL    HW134724   0.085   3.471   5.542  0.7041 -2.6253  0.5304
 7696SOL    HW234725   0.041   3.376   5.435  0.0278  1.1573 -1.6824
 7697SOL     OW34726   1.921   1.293  11.755  0.2722 -0.1694 -0.0015
 7697SOL    HW134727   1.898   1.290  11.848 -1.7371  0.1089 -0.4946
 7697SOL    HW234728   1.970   1.211  11.753 -1.0720 -0.9159 -1.7073
 7698SOL     OW34729   1.366   4.401   7.029  0.3915 -0.3886 -0.2767
 7698SOL    HW134730   1.440   4.367   6.980  0.3957  0.1603 -0.6553
 7698SOL    HW234731   1.405   4.462   7.092  1.1587  0.1108 -1.2401
 7699SOL     OW34732   1.856   1.017   2.861  0.2125 -0.1658  0.0980
 7699SOL    HW134733   1.823   1.074   2.791 -1.0602 -0.3241  0.5675
 7699SOL    HW234734   1.948   1.032   2.842  0.4963 -0.6241  1.1149
 7700SOL     OW34735   1.828   3.220   4.315 -0.0390  0.5366 -0.4346
 7700SOL    HW134736   1.743   3.223   4.272 -0.6716 -0.2977  0.7401
 7700SOL    HW234737   1.810   3.161   4.388 -2.5447 -0.0249 -1.4927
 7701SOL     OW34738   0.512   2.969  16.291  0.2984 -0.1857  0.0284
 7701SOL    HW134739   0.506   3.064  16.280 -0.2415 -0.1370  0.7388
 7701SOL    HW234740   0.499   2.935  16.203  0.9600  1.7053 -0.7828
 7702SOL     OW34741   3.791   1.115   5.031 -0.4128 -0.4160 -0.3915
 7702SOL    HW134742   3.789   1.200   4.986 -0.4439 -0.1601  0.0808
 7702SOL    HW234743   3.795   1.153   5.119 -1.1658  2.3324 -1.5087
 7703SOL     OW34744   0.892   2.875   0.038 -0.2812 -0.1085  0.3291
 7703SOL    HW134745   0.973   2.919   0.013 -1.6260  2.6816  0.9029
 7703SOL    HW234746   0.867   2.815  17.712  0.9788 -0.2253 -0.0280
 7704SOL     OW34747   4.360   0.481  16.754  0.0968  0.5830  0.0341
 7704SOL    HW134748   4.365   0.576  16.764  2.4561  0.4379  0.1431
 7704SOL    HW234749   4.392   0.463  16.666  1.7691  1.9126  0.3724
 7705SOL     OW34750   4.455   0.382  12.420 -0.5305 -0.1524 -0.0878
 7705SOL    HW134751   4.461   0.458  12.363  0.8523 -1.3194 -1.5202
 7705SOL    HW234752   4.365   0.354  12.402 -0.5864  0.1108 -0.2138
 7706SOL     OW34753   0.002   3.730   3.131  0.0186  0.1282 -0.3527
 7706SOL    HW134754   4.671   3.798   3.135 -1.9163 -1.9110  1.5624
 7706SOL    HW234755   4.685   3.652   3.145 -0.5391  0.7009  0.6767
 7707SOL     OW34756   1.645   1.502  11.392 -0.3329  0.4155 -0.1773
 7707SOL    HW134757   1.706   1.570  11.422 -1.1772  1.0639  0.0566
 7707SOL    HW234758   1.640   1.459  11.478 -0.0242  1.6067  0.4396
 7708SOL     OW34759   4.229   0.613   5.968  0.0505  0.1675  0.1884
 7708SOL    HW134760   4.252   0.658   5.886  0.9508 -3.0845 -1.3266
 7708SOL    HW234761   4.192   0.679   6.027  0.0277  2.9225 -2.9121
 7709SOL     OW34762   3.020   3.420   3.546 -0.5906  0.1423  0.2505
 7709SOL    HW134763   3.041   3.352   3.609  0.7957 -0.9713 -1.4124
 7709SOL    HW234764   3.057   3.499   3.583 -0.1751 -1.2868  2.8722
 7710SOL     OW34765   2.890   2.668  11.803 -0.2273 -0.6720  0.6471
 7710SOL    HW134766   2.827   2.656  11.875 -0.1769  2.6829  1.2523
 7710SOL    HW234767   2.947   2.594  11.824  1.0863  0.5394  1.2754
 7711SOL     OW34768   4.490   0.724   2.331 -0.1095 -0.4039  0.0688
 7711SOL    HW134769   4.512   0.806   2.286  0.3834  0.0628  1.1744
 7711SOL    HW234770   4.500   0.752   2.422 -1.8487  0.9978 -0.1484
 7712SOL     OW34771   2.211   2.714  14.091  0.8052 -0.2192 -0.2588
 7712SOL    HW134772   2.120   2.744  14.084  1.3771  1.0104 -2.5408
 7712SOL    HW234773   2.199   2.622  14.113 -0.3507 -0.0545 -0.1568
 7713SOL     OW34774   2.529   1.708   3.470 -0.3365 -0.0913 -0.3555
 7713SOL    HW134775   2.533   1.701   3.374 -2.4599 -0.4041 -0.4195
 7713SOL    HW234776   2.442   1.748   3.478  0.1826  1.3342 -1.8100
 7714SOL     OW34777   3.685   2.302  15.923 -0.1493 -0.0328 -0.5596
 7714SOL    HW134778   3.651   2.218  15.891  0.7991 -1.5996  2.5480
 7714SOL    HW234779   3.644   2.306  16.009 -1.8172  0.5552 -1.3735
 7715SOL     OW34780   2.336   0.454   0.422  0.1541  0.6221 -0.0809
 7715SOL    HW134781   2.393   0.478   0.495 -1.3251 -1.1449  1.6560
 7715SOL    HW234782   2.290   0.538   0.415 -4.0821 -1.6759 -0.1494
 7716SOL     OW34783   2.566   0.868   1.972 -0.0082  0.0022 -0.1746
 7716SOL    HW134784   2.537   0.810   2.042  1.5731  0.3937  0.8176
 7716SOL    HW234785   2.606   0.804   1.914  0.5956  0.3031 -0.0917
 7717SOL     OW34786   3.393   2.417  17.542  0.3794  0.2593 -0.1379
 7717SOL    HW134787   3.344   2.365  17.606  0.2304  0.5604 -0.0079
 7717SOL    HW234788   3.427   2.346  17.489 -0.9009 -0.0805 -0.5132
 7718SOL     OW34789   3.060   3.595   0.684 -0.0827  0.5849 -0.3910
 7718SOL    HW134790   3.138   3.598   0.628  0.0691  0.3481 -0.1932
 7718SOL    HW234791   3.086   3.553   0.766  2.6911 -0.2195 -1.6672
 7719SOL     OW34792   0.246   4.115   8.003 -0.4620  0.0032 -0.2526
 7719SOL    HW134793   0.338   4.143   8.009 -0.2214 -0.8914  0.2844
 7719SOL    HW234794   0.212   4.191   8.051  1.2591 -0.0866  1.1183
 7720SOL     OW34795   2.159   4.601   6.410 -0.0624  0.7205 -0.0504
 7720SOL    HW134796   2.137   4.509   6.393 -0.5824  0.0643  4.0100
 7720SOL    HW234797   2.249   4.605   6.378  0.0489 -1.1593  0.0375
 7721SOL     OW34798   0.112   1.883   4.915 -0.1003  0.3413  0.2278
 7721SOL    HW134799   0.160   1.965   4.902 -0.3962  0.5174  0.2346
 7721SOL    HW234800   0.172   1.839   4.974  1.4153  0.4522 -1.2298
 7722SOL     OW34801   0.905   2.814   1.800 -0.4051 -0.0921  0.3518
 7722SOL    HW134802   0.970   2.783   1.864  0.3954 -2.3485 -1.5670
 7722SOL    HW234803   0.823   2.774   1.829 -0.8958 -0.0923 -1.0331
 7723SOL     OW34804   1.629   2.731   1.024  0.2053  0.1137  0.4555
 7723SOL    HW134805   1.642   2.672   0.950 -0.3090  1.7488 -0.9164
 7723SOL    HW234806   1.571   2.796   0.986  0.4281  0.2395  0.3291
 7724SOL     OW34807   2.674   1.579   4.976  0.0097  0.2330  0.2401
 7724SOL    HW134808   2.623   1.645   4.929  0.4132  0.3647 -0.0199
 7724SOL    HW234809   2.759   1.613   4.946  1.2955 -2.0670  1.3102
 7725SOL     OW34810   2.089   1.875   2.729 -0.2376 -1.0612  0.6367
 7725SOL    HW134811   2.079   1.815   2.802  1.0647  1.3965  2.8213
 7725SOL    HW234812   1.999   1.906   2.732  0.4812  1.3216 -1.9939
 7726SOL     OW34813   2.279   1.810   4.293 -0.8712 -0.0905  0.2958
 7726SOL    HW134814   2.362   1.815   4.341 -1.4891  3.1650  1.0610
 7726SOL    HW234815   2.300   1.734   4.239  1.0858  1.8976 -1.6861
 7727SOL     OW34816   3.145   2.129   2.953 -0.4850 -0.1897  0.0867
 7727SOL    HW134817   3.168   2.084   2.871  0.9659  1.1653 -0.2554
 7727SOL    HW234818   3.116   2.208   2.908 -2.3985 -0.9348  0.0300
 7728SOL     OW34819   4.203   3.145   5.052  0.6516  0.1548 -0.0081
 7728SOL    HW134820   4.116   3.183   5.067  0.1145 -0.2665 -1.9888
 7728SOL    HW234821   4.226   3.171   4.962 -2.3187 -0.2126 -0.9041
 7729SOL     OW34822   4.685   0.813   4.317 -0.4347  0.0288 -0.2449
 7729SOL    HW134823   4.609   0.762   4.346 -1.0374  0.5719 -0.8616
 7729SOL    HW234824   0.020   0.750   4.322 -0.6131 -0.0983  0.6962
 7730SOL     OW34825   0.670   3.914   1.576  0.7172 -0.1763 -0.5029
 7730SOL    HW134826   0.609   3.987   1.578  0.3617 -0.5497  1.8669
 7730SOL    HW234827   0.636   3.865   1.500 -2.3206 -0.4171  1.0230
 7731SOL     OW34828   1.858   4.412   9.037  0.1370  0.6778 -0.2720
 7731SOL    HW134829   1.881   4.412   9.130  0.3530 -3.1905 -0.3439
 7731SOL    HW234830   1.829   4.323   9.020 -0.6475  1.1992 -1.6760
 7732SOL     OW34831   4.080   0.848  10.385 -0.1959  0.0006 -0.1148
 7732SOL    HW134832   4.050   0.920  10.439  1.1862 -2.0706  3.4541
 7732SOL    HW234833   4.005   0.788  10.382  0.0453 -0.4328  3.2630
 7733SOL     OW34834   4.077   1.123   3.747 -0.0047 -0.6678 -0.3602
 7733SOL    HW134835   4.126   1.148   3.825  0.1087  2.6900 -1.5020
 7733SOL    HW234836   4.133   1.172   3.687 -0.4150 -2.2134 -2.0269
 7734SOL     OW34837   2.762   0.991   3.433  0.1674 -0.1182 -0.2020
 7734SOL    HW134838   2.716   1.016   3.513 -0.3651 -1.6102 -0.0355
 7734SOL    HW234839   2.700   1.028   3.371  0.9034  1.3104 -0.0706
 7735SOL     OW34840   3.585   2.192   0.475 -0.0600  0.2535  0.1218
 7735SOL    HW134841   3.491   2.205   0.462 -0.2656 -1.1455  0.1597
 7735SOL    HW234842   3.619   2.280   0.461  2.8253 -0.9190 -0.3801
 7736SOL     OW34843   0.600   2.963   8.399  0.2480 -0.7947 -0.1262
 7736SOL    HW134844   0.522   2.955   8.344  0.0272  0.8751 -0.0461
 7736SOL    HW234845   0.624   3.048   8.362 -0.8529 -0.0735  0.8174
 7737SOL     OW34846   3.840   1.010   2.840 -0.1918  0.7370  0.5964
 7737SOL    HW134847   3.822   1.086   2.896  0.6083  1.6594 -0.4035
 7737SOL    HW234848   3.752   0.998   2.806  0.0374 -1.7960  0.8895
 7738SOL     OW34849   0.637   0.606   9.329 -0.5148 -0.2267 -0.3634
 7738SOL    HW134850   0.651   0.548   9.255  4.9843  0.3713  0.2141
 7738SOL    HW234851   0.724   0.646   9.324 -1.1703  1.3248  0.3847
 7739SOL     OW34852   2.992   4.356  16.214  0.1309  0.1047 -0.0536
 7739SOL    HW134853   2.945   4.340  16.296 -0.5055 -0.1389 -0.4634
 7739SOL    HW234854   3.079   4.316  16.215 -0.2688 -0.7400  1.3831
 7740SOL     OW34855   1.083   4.188   8.092 -0.6238  0.1861 -0.4416
 7740SOL    HW134856   1.125   4.109   8.059  1.0973  0.3075  1.4597
 7740SOL    HW234857   1.153   4.228   8.144 -1.3457  1.9266 -0.8197
 7741SOL     OW34858   0.721   3.392   3.727  0.4215 -0.1558  0.2429
 7741SOL    HW134859   0.707   3.454   3.799 -0.3193 -1.1795  0.9857
 7741SOL    HW234860   0.701   3.447   3.651 -1.1386 -0.1160  0.6678
 7742SOL     OW34861   3.413   4.438   8.362 -0.0693 -0.1209  0.7467
 7742SOL    HW134862   3.492   4.389   8.383  1.1054  2.3526  2.0946
 7742SOL    HW234863   3.402   4.421   8.268  0.3113  0.6223  0.5644
 7743SOL     OW34864   2.603   3.945   8.932 -0.4002 -0.6043 -0.2055
 7743SOL    HW134865   2.519   3.907   8.906  0.6024 -2.4421 -0.8174
 7743SOL    HW234866   2.634   3.987   8.852 -0.6223 -1.0774 -0.5375
 7744SOL     OW34867   1.495   1.631   2.103  0.3319 -0.0643  0.0703
 7744SOL    HW134868   1.460   1.710   2.144 -1.4068 -1.5699  1.4641
 7744SOL    HW234869   1.504   1.657   2.012 -1.2349  0.6301  0.1249
 7745SOL     OW34870   4.061   2.637  13.812  0.6311 -0.0692 -0.4468
 7745SOL    HW134871   4.111   2.556  13.798  0.5967 -0.1158 -0.2937
 7745SOL    HW234872   4.061   2.654  13.906  1.4336  0.7360 -0.5892
 7746SOL     OW34873   1.973   4.143  16.123 -0.1390  0.1519 -0.1613
 7746SOL    HW134874   1.938   4.095  16.197  0.9446  1.4621  1.1978
 7746SOL    HW234875   1.952   4.234  16.142 -1.4063  0.4273 -2.8261
 7747SOL     OW34876   4.079   1.294  12.372 -0.6684  0.0711 -0.0195
 7747SOL    HW134877   4.108   1.359  12.308  0.3265 -1.3751 -1.0369
 7747SOL    HW234878   4.040   1.231  12.313 -0.9302  1.0666 -0.9004
 7748SOL     OW34879   3.670   2.059   4.097  0.4407 -0.0906  0.1653
 7748SOL    HW134880   3.583   2.084   4.127  0.3797 -0.1373  0.0312
 7748SOL    HW234881   3.646   1.972   4.064  0.7160 -0.2071  0.2710
 7749SOL     OW34882   3.615   0.195   3.599  0.2416 -0.1399 -0.1366
 7749SOL    HW134883   3.697   0.154   3.627  0.3387  1.8032  2.4573
 7749SOL    HW234884   3.603   0.169   3.508 -0.9584 -0.1133  0.0139
 7750SOL     OW34885   3.982   2.685   3.013 -0.1044 -0.2147 -0.1558
 7750SOL    HW134886   3.937   2.767   3.030  0.5825  0.4231 -1.4249
 7750SOL    HW234887   4.057   2.711   2.959  1.1575 -1.2130  1.1042
 7751SOL     OW34888   1.311   2.086  12.999  0.2292  0.5618 -0.3179
 7751SOL    HW134889   1.275   2.138  13.071 -1.1515  0.8990 -1.2480
 7751SOL    HW234890   1.294   2.146  12.926  1.1057  0.9264 -0.2199
 7752SOL     OW34891   2.721   2.555   4.783  0.2079  0.4826 -0.0322
 7752SOL    HW134892   2.779   2.554   4.859 -2.5089  2.0872  2.0850
 7752SOL    HW234893   2.779   2.516   4.719 -0.7662 -1.6499  0.3654
 7753SOL     OW34894   3.382   1.911   5.653 -0.0937  0.0740  0.2561
 7753SOL    HW134895   3.439   1.855   5.601 -0.5555  2.0333 -2.3322
 7753SOL    HW234896   3.438   1.988   5.661  0.5938 -0.2878 -1.1984
 7754SOL     OW34897   3.544   1.121   7.315 -0.1910 -0.1421  0.3570
 7754SOL    HW134898   3.624   1.172   7.327 -1.7118  2.5976 -1.1462
 7754SOL    HW234899   3.476   1.188   7.325  1.5332  1.9041 -1.4864
 7755SOL     OW34900   2.102   1.559   3.173  0.7796  0.2275 -0.5726
 7755SOL    HW134901   2.083   1.472   3.139 -0.6546  0.1046  0.5578
 7755SOL    HW234902   2.111   1.535   3.266 -0.1337 -2.1494 -1.1024
 7756SOL     OW34903   4.312   2.723   6.348  0.5671 -0.1727  0.2931
 7756SOL    HW134904   4.280   2.730   6.258 -0.0332  0.1931  0.5347
 7756SOL    HW234905   4.237   2.679   6.388  0.3510 -0.2389 -0.1827
 7757SOL     OW34906   4.644   0.747  14.641 -0.0121  0.3617  0.0565
 7757SOL    HW134907   4.631   0.815  14.575  2.7815  1.0319  0.1974
 7757SOL    HW234908   4.562   0.763  14.688  0.1415  3.1454 -0.5953
 7758SOL     OW34909   0.022   2.307  14.154 -0.1669 -0.2645  0.3450
 7758SOL    HW134910   0.106   2.306  14.109  0.3841 -0.0775  1.3650
 7758SOL    HW234911   4.711   2.239  14.107 -0.3522 -1.3633  2.1276
 7759SOL     OW34912   2.471   1.656  15.116  0.0234 -0.2002  0.9157
 7759SOL    HW134913   2.431   1.626  15.198 -0.8863  2.4520  1.4253
 7759SOL    HW234914   2.397   1.683  15.062 -0.3349 -1.0691  0.9787
 7760SOL     OW34915   4.591   3.606  16.720 -0.0742  0.6930 -0.4703
 7760SOL    HW134916   4.528   3.554  16.670 -0.3668  0.7027 -0.1171
 7760SOL    HW234917   4.601   3.548  16.796 -0.8397 -0.1597 -1.0161
 7761SOL     OW34918   3.198   2.716  10.454  0.6092  0.3951  0.0424
 7761SOL    HW134919   3.224   2.740  10.365 -2.4836  0.1052 -0.9332
 7761SOL    HW234920   3.131   2.650  10.439  0.0337  1.6628 -2.8159
 7762SOL     OW34921   0.328   2.881  14.887 -0.3037 -0.1978  0.1291
 7762SOL    HW134922   0.381   2.807  14.917  1.0747  1.1059  0.9143
 7762SOL    HW234923   0.318   2.880  14.792 -0.6273  0.1426  0.1621
 7763SOL     OW34924   3.909   2.032   1.808 -0.4356 -0.0267 -0.4848
 7763SOL    HW134925   3.923   2.118   1.768  1.2159 -0.3779 -0.6687
 7763SOL    HW234926   3.995   2.000   1.836 -0.1050  2.4410  1.3428
 7764SOL     OW34927   2.822   1.134   9.180  0.1955 -0.3437  0.5845
 7764SOL    HW134928   2.804   1.203   9.244 -2.1861 -0.3995 -0.0203
 7764SOL    HW234929   2.915   1.151   9.165  0.2067 -0.0954  0.9315
 7765SOL     OW34930   4.408   4.468   5.255 -0.3842 -0.4512  0.2301
 7765SOL    HW134931   4.468   4.406   5.214  0.7390  1.3942 -0.9042
 7765SOL    HW234932   4.405   4.438   5.346 -0.4141  0.0713  0.4021
 7766SOL     OW34933   1.959   0.963  10.236  0.4810 -0.0393  0.4952
 7766SOL    HW134934   1.893   1.031  10.222 -0.2454 -0.7229  0.6138
 7766SOL    HW234935   2.013   0.994  10.163 -2.3960 -0.6880 -1.9166
 7767SOL     OW34936   2.466   0.735  16.459 -0.5043 -0.4396  0.0412
 7767SOL    HW134937   2.524   0.733  16.384  0.9312  1.0129  1.1331
 7767SOL    HW234938   2.477   0.822  16.497  1.4882 -1.1201  1.0195
 7768SOL     OW34939   2.149   3.075   9.010 -0.5717 -0.1259  0.2292
 7768SOL    HW134940   2.141   3.167   8.985  0.2717 -0.6051 -1.8051
 7768SOL    HW234941   2.084   3.062   9.079  0.5223  2.0600  1.6740
 7769SOL     OW34942   3.155   2.001   6.172 -0.5217  0.5622 -0.2346
 7769SOL    HW134943   3.231   2.015   6.229 -1.0871 -0.5710  0.7884
 7769SOL    HW234944   3.083   2.028   6.228  0.1686  2.0463 -0.0677
 7770SOL     OW34945   2.929   3.335   4.480 -0.4034 -0.6140  0.6310
 7770SOL    HW134946   2.951   3.427   4.468 -0.6455 -1.0512 -3.1526
 7770SOL    HW234947   2.838   3.336   4.510 -0.7252  3.2257 -0.5338
 7771SOL     OW34948   0.026   1.522   6.649  0.3042  0.2461  0.2682
 7771SOL    HW134949   0.114   1.540   6.617 -0.5035  1.6596 -1.1776
 7771SOL    HW234950   0.007   1.609   6.682  0.9527  1.1869 -1.8264
 7772SOL     OW34951   2.071   2.494   3.053  0.9771  0.0570  0.4040
 7772SOL    HW134952   2.011   2.467   3.123  1.1219  1.3536  1.0297
 7772SOL    HW234953   2.127   2.418   3.036 -0.6198 -0.9296 -0.4818
 7773SOL     OW34954   0.010   2.468   2.403 -0.0610  0.4192 -0.4126
 7773SOL    HW134955   4.710   2.550   2.370 -0.9758  0.3927  0.5346
 7773SOL    HW234956   4.710   2.399   2.347 -0.2003  1.6659 -1.8505
 7774SOL     OW34957   3.359   0.371   7.746  0.3883 -0.1777  0.7003
 7774SOL    HW134958   3.271   0.347   7.777  0.1294 -0.3312 -0.1575
 7774SOL    HW234959   3.374   0.454   7.792  2.5446  0.1501 -0.6005
 7775SOL     OW34960   2.916   2.016   8.365 -0.2528  0.5004  0.0100
 7775SOL    HW134961   2.910   2.111   8.349 -2.6903  0.5381  1.2270
 7775SOL    HW234962   3.010   2.004   8.353 -0.0798  0.1581  1.6937
 7776SOL     OW34963   0.190   1.828   6.694  0.1275  0.2260  0.1665
 7776SOL    HW134964   0.202   1.787   6.779 -2.1999  1.2460  0.9804
 7776SOL    HW234965   0.276   1.871   6.691 -0.3116  1.0503 -0.5467
 7777SOL     OW34966   0.199   4.220   3.137 -0.0248 -0.3438 -0.1177
 7777SOL    HW134967   0.234   4.208   3.048  0.7369 -1.4283  0.3343
 7777SOL    HW234968   0.274   4.239   3.192 -0.8226  0.3353  0.7227
 7778SOL     OW34969   3.512   4.508   2.438  0.3439  0.5869 -0.0583
 7778SOL    HW134970   3.431   4.537   2.397  0.7216  1.7721  0.0519
 7778SOL    HW234971   3.570   4.584   2.441 -0.8611  1.5966 -2.9905
 7779SOL     OW34972   4.682   0.728   5.895  0.0759 -0.2673 -0.2269
 7779SOL    HW134973   4.719   0.641   5.907  0.0577 -0.1686  0.5561
 7779SOL    HW234974   4.697   0.740   5.801  0.0590  2.3070  0.0819
 7780SOL     OW34975   3.188   2.875   2.471 -0.2915  0.4164 -0.3188
 7780SOL    HW134976   3.121   2.865   2.404  0.8294 -1.3394 -1.2073
 7780SOL    HW234977   3.166   2.966   2.489  0.3755  0.5218 -0.0353
 7781SOL     OW34978   1.079   3.256  11.042 -0.1776 -0.5046  0.2426
 7781SOL    HW134979   1.145   3.196  11.078  4.0700  3.8080 -0.2567
 7781SOL    HW234980   1.131   3.315  10.988 -1.4629  0.7462  0.3697
 7782SOL     OW34981   0.489   2.577  10.375  0.1234  0.1182 -0.4570
 7782SOL    HW134982   0.446   2.572  10.461 -0.2372  0.2106 -0.6309
 7782SOL    HW234983   0.417   2.607  10.319  0.3006 -2.0799 -1.8632
 7783SOL     OW34984   4.659   3.392  17.374 -0.1883 -0.0072  0.3179
 7783SOL    HW134985   4.674   3.369  17.282 -1.7538 -0.0593  0.0823
 7783SOL    HW234986   4.618   3.479  17.370  0.0306  0.1630  1.7673
 7784SOL     OW34987   0.060   2.459  13.325  0.0589  0.5214 -0.1042
 7784SOL    HW134988   0.151   2.438  13.348  0.8182 -0.3679 -3.8903
 7784SOL    HW234989   0.039   2.480  13.416 -1.0535 -0.0870 -0.2190
 7785SOL     OW34990   0.251   1.578   0.457  0.1133 -0.1000  0.4361
 7785SOL    HW134991   0.331   1.629   0.469  0.4660 -1.4326  3.8602
 7785SOL    HW234992   0.228   1.556   0.548  3.5791  0.7548  1.5270
 7786SOL     OW34993   2.322   0.402   1.059  0.0017  0.4989 -0.0117
 7786SOL    HW134994   2.377   0.377   0.985  0.7208  1.9673  0.0245
 7786SOL    HW234995   2.371   0.359   1.130  0.6775  0.0177 -0.7722
 7787SOL     OW34996   1.838   1.627   1.250 -0.1350 -0.3400 -0.9498
 7787SOL    HW134997   1.795   1.630   1.336  2.3111 -0.4313  0.2959
 7787SOL    HW234998   1.931   1.643   1.267 -0.7912 -0.2945  2.5704
 7788SOL     OW34999   0.852   3.588  12.355  0.5541 -0.0081  0.3359
 7788SOL    HW135000   0.868   3.507  12.308 -0.0418  0.3782 -0.5199
 7788SOL    HW235001   0.860   3.555  12.445  1.5637 -1.9948 -0.4816
 7789SOL     OW35002   2.630   3.636   3.401  0.7683 -0.3893 -0.1810
 7789SOL    HW135003   2.647   3.731   3.403 -1.1873 -0.0147 -1.5001
 7789SOL    HW235004   2.566   3.623   3.471 -0.0485  0.3942 -0.7849
 7790SOL     OW35005   2.144   3.990   5.312 -0.2803 -0.0272 -0.2107
 7790SOL    HW135006   2.170   3.983   5.404  2.1157 -0.7427 -0.9373
 7790SOL    HW235007   2.207   3.937   5.265  0.1549 -1.6738  2.2558
 7791SOL     OW35008   2.140   1.281   1.707 -0.2905  0.6781 -0.0255
 7791SOL    HW135009   2.170   1.233   1.630  0.4516  0.2596  0.5216
 7791SOL    HW235010   2.221   1.319   1.742 -1.0283  0.3497  2.0048
 7792SOL     OW35011   0.716   3.681   2.278 -0.3947  0.2729  0.1614
 7792SOL    HW135012   0.672   3.767   2.276 -2.5544 -0.8915 -1.5530
 7792SOL    HW235013   0.683   3.643   2.197  0.2512  0.6463 -0.2754
 7793SOL     OW35014   4.531   2.601  16.399  0.1440 -0.4583  0.6245
 7793SOL    HW135015   4.582   2.680  16.382 -1.8722  0.2800 -2.0583
 7793SOL    HW235016   4.600   2.537  16.380 -0.9424 -0.8634 -2.0146
 7794SOL     OW35017   0.055   0.335  11.647  0.5830 -0.4885  0.9790
 7794SOL    HW135018   0.098   0.290  11.574  1.9119 -0.7077  1.8985
 7794SOL    HW235019   0.115   0.333  11.722  2.3159 -0.4205 -0.3884
 7795SOL     OW35020   2.175   1.858  10.738 -0.2797 -0.3337 -0.0860
 7795SOL    HW135021   2.211   1.875  10.651 -0.8967 -1.5462 -0.5745
 7795SOL    HW235022   2.082   1.850  10.717  0.0911 -1.8526 -1.1357
 7796SOL     OW35023   0.230   3.663   3.030  0.3641 -0.0920 -0.3889
 7796SOL    HW135024   0.246   3.576   3.068  4.4495  0.4454 -0.8704
 7796SOL    HW235025   0.149   3.684   3.077 -0.8401  0.3555 -2.6324
 7797SOL     OW35026   0.566   1.138   2.633  0.3339 -0.3546 -0.4441
 7797SOL    HW135027   0.624   1.183   2.571  1.3368  0.8059  1.3182
 7797SOL    HW235028   0.619   1.137   2.713 -0.3639 -1.7012  0.0060
 7798SOL     OW35029   0.190   0.011  12.161  0.6006  0.3169  0.1535
 7798SOL    HW135030   0.243   4.694  12.220  0.7373 -0.0787 -0.3363
 7798SOL    HW235031   0.247   0.011  12.084 -2.4456  1.3916 -2.1062
 7799SOL     OW35032   3.660   1.137   8.782 -0.8303 -0.2234  0.1137
 7799SOL    HW135033   3.748   1.175   8.788 -0.8917  0.1612 -1.2646
 7799SOL    HW235034   3.607   1.217   8.776 -1.2774 -0.4160  1.6712
 7800SOL     OW35035   3.093   0.754   8.139 -0.0383  0.1264  0.1733
 7800SOL    HW135036   3.118   0.691   8.206 -2.3355 -0.2914  0.6449
 7800SOL    HW235037   3.006   0.780   8.171  1.3771  1.8962  2.6493
 7801SOL     OW35038   2.716   3.334   4.734  0.0578  0.0607 -0.2180
 7801SOL    HW135039   2.638   3.388   4.747  0.5323  0.4055  1.1785
 7801SOL    HW235040   2.683   3.261   4.682  0.0095 -0.6615  0.8295
 7802SOL     OW35041   4.638   3.310   8.015  0.2935  0.4940  0.2905
 7802SOL    HW135042   4.620   3.239   8.076  0.4829  2.3108  2.4485
 7802SOL    HW235043   4.675   3.376   8.072  2.2427  0.7411 -1.2654
 7803SOL     OW35044   3.512   1.169   0.835 -0.5316  0.1275  0.0597
 7803SOL    HW135045   3.455   1.093   0.823 -1.2917  0.2471  2.9414
 7803SOL    HW235046   3.550   1.188   0.749  0.5393 -0.4746  0.4038
 7804SOL     OW35047   3.415   1.890   8.064  0.1675  0.0596 -0.4368
 7804SOL    HW135048   3.487   1.896   8.126 -0.9578 -0.6658  0.9295
 7804SOL    HW235049   3.445   1.803   8.039 -0.4350 -0.1750 -0.3431
 7805SOL     OW35050   2.703   3.678  15.160 -0.1620 -0.1509 -0.0804
 7805SOL    HW135051   2.773   3.740  15.143  0.2385  0.5422  4.1533
 7805SOL    HW235052   2.742   3.605  15.110  2.2882 -0.6583  2.5765
 7806SOL     OW35053   3.911   1.043   2.377  0.0010  0.1045 -0.2437
 7806SOL    HW135054   3.899   1.036   2.282  2.1179  1.1246 -0.5912
 7806SOL    HW235055   3.852   0.974   2.407 -0.6981  0.8540  0.0970
 7807SOL     OW35056   0.298   3.838  10.188  0.1639 -0.1186 -0.1554
 7807SOL    HW135057   0.285   3.912  10.128 -0.4927 -0.1699 -0.0785
 7807SOL    HW235058   0.318   3.884  10.270 -1.3125  2.3557 -1.1683
 7808SOL     OW35059   0.027   2.704   4.929 -0.4379 -0.0412  0.0262
 7808SOL    HW135060   0.092   2.738   4.867 -1.4602  0.1338 -0.9321
 7808SOL    HW235061   0.059   2.616   4.950  0.8173  0.6391  1.0235
 7809SOL     OW35062   1.282   4.355   7.496  0.0783  0.1632 -0.5794
 7809SOL    HW135063   1.188   4.370   7.488  0.0067 -0.7304 -1.5140
 7809SOL    HW235064   1.314   4.424   7.438 -0.4229  0.7681 -0.1306
 7810SOL     OW35065   3.793   4.114  14.327 -1.0541  0.5275 -0.1368
 7810SOL    HW135066   3.815   4.093  14.237 -0.6686 -0.8564  0.2744
 7810SOL    HW235067   3.716   4.170  14.316 -0.5390  1.3964  0.6672
 7811SOL     OW35068   0.684   3.062  11.430  0.0751 -0.3236 -0.1217
 7811SOL    HW135069   0.658   3.042  11.520  0.0629 -2.3816 -0.5742
 7811SOL    HW235070   0.603   3.096  11.392 -0.6198 -0.5176  1.1650
 7812SOL     OW35071   2.841   4.538   0.008  0.0427 -0.4032  0.5198
 7812SOL    HW135072   2.891   4.462   0.039  0.2414  0.4017  2.1531
 7812SOL    HW235073   2.884   4.559  17.669 -2.3551  3.2469  0.2163
 7813SOL     OW35074   1.954   1.285   8.052 -0.5687  0.3078  0.6286
 7813SOL    HW135075   2.006   1.237   8.117 -3.6001  1.0707  3.5924
 7813SOL    HW235076   1.919   1.210   8.005 -0.7565  0.6216  0.2658
 7814SOL     OW35077   1.993   2.019  12.251 -0.2457 -0.3556  0.5017
 7814SOL    HW135078   2.049   2.064  12.314  2.1736 -1.7404 -0.6185
 7814SOL    HW235079   1.918   2.076  12.265  0.4593  1.0819 -1.5121
 7815SOL     OW35080   0.071   1.413   3.831  0.1068  0.3951  0.1024
 7815SOL    HW135081   0.006   1.447   3.771 -0.5852 -0.0171  0.6164
 7815SOL    HW235082   0.027   1.336   3.868  0.9392  0.8537  2.0604
 7816SOL     OW35083   2.177   2.467  14.165  0.3351  0.0456  0.5296
 7816SOL    HW135084   2.246   2.425  14.215 -1.0105 -1.3126  1.2653
 7816SOL    HW235085   2.124   2.395  14.129  1.0659 -0.6583  0.8474
 7817SOL     OW35086   1.637   0.604   3.074 -0.0942 -0.3995 -0.2248
 7817SOL    HW135087   1.639   0.689   3.031 -0.9327 -0.9614 -1.3933
 7817SOL    HW235088   1.575   0.626   3.143  1.8299  2.9702  0.4114
 7818SOL     OW35089   3.646   2.133   6.227 -0.4218 -0.0025 -0.5066
 7818SOL    HW135090   3.657   2.044   6.259  0.4438  0.5115  0.6106
 7818SOL    HW235091   3.738   2.157   6.213  0.1883 -1.8000  0.4147
 7819SOL     OW35092   1.539   3.883   3.414 -0.1549 -0.0249 -0.3875
 7819SOL    HW135093   1.445   3.869   3.421 -0.3925  2.1796  0.7452
 7819SOL    HW235094   1.545   3.942   3.489  1.9741  0.2279 -0.7606
 7820SOL     OW35095   1.379   4.391   9.224  0.5224  0.3222 -0.1366
 7820SOL    HW135096   1.427   4.346   9.154  1.6434  1.5100 -0.1336
 7820SOL    HW235097   1.310   4.331   9.253 -0.0699  1.2331  0.3257
 7821SOL     OW35098   1.332   2.453   3.765  0.0200  0.4856  0.2710
 7821SOL    HW135099   1.265   2.511   3.730 -0.9319 -1.2497 -0.8055
 7821SOL    HW235100   1.409   2.476   3.713 -0.8776 -0.5146 -1.5021
 7822SOL     OW35101   4.134   4.606  17.472  0.1574 -0.1944  0.5835
 7822SOL    HW135102   4.160   4.557  17.393  0.2953 -0.5489  0.8507
 7822SOL    HW235103   4.051   4.562  17.488  0.1474 -0.2831  0.2961
 7823SOL     OW35104   4.470   2.599   6.530  0.4046 -0.3177  0.5385
 7823SOL    HW135105   4.553   2.603   6.483 -1.2954  0.3344 -2.3638
 7823SOL    HW235106   4.426   2.667   6.481  1.6354  0.0609 -0.0291
 7824SOL     OW35107   1.030   0.648   8.860  0.9685  0.3754 -0.2069
 7824SOL    HW135108   1.085   0.720   8.890  1.1608  0.4817 -0.7965
 7824SOL    HW235109   1.069   0.620   8.777  3.1909 -0.4717  1.1236
 7825SOL     OW35110   4.019   0.179   5.704  0.1280  0.3407  0.1896
 7825SOL    HW135111   3.931   0.168   5.741  2.0156  0.7683  4.7774
 7825SOL    HW235112   4.021   0.274   5.691 -0.1409  0.5445  1.6358
 7826SOL     OW35113   2.926   2.511   4.958 -0.6257 -0.2285 -0.2149
 7826SOL    HW135114   3.020   2.507   4.938 -0.4786 -2.3352  0.8554
 7826SOL    HW235115   2.900   2.425   4.991  0.4472 -0.3316  0.3639
 7827SOL     OW35116   1.209   0.814  10.766 -0.1113  0.1569  0.1525
 7827SOL    HW135117   1.137   0.876  10.779  1.0635  1.7619 -0.9734
 7827SOL    HW235118   1.241   0.802  10.855 -2.4523  0.5123  1.0393
 7828SOL     OW35119   3.281   0.157   4.828  0.1564 -0.2037 -0.1224
 7828SOL    HW135120   3.333   0.085   4.793  2.1434  1.7646 -1.1626
 7828SOL    HW235121   3.346   0.227   4.827  1.5419 -1.5258 -1.3697
 7829SOL     OW35122   2.102   0.582   3.714  0.1847  0.5446  0.0990
 7829SOL    HW135123   2.118   0.492   3.744  0.7528  0.5061 -0.3045
 7829SOL    HW235124   2.128   0.627   3.795 -1.6026 -1.2378  1.6632
 7830SOL     OW35125   1.912   2.834   5.426  0.1450 -0.1229  0.0738
 7830SOL    HW135126   1.903   2.795   5.338  1.9303  0.1467 -0.2310
 7830SOL    HW235127   1.889   2.921   5.394  2.1508  0.8471  1.2624
 7831SOL     OW35128   0.916   2.113   5.750 -0.3437  0.0231 -0.2286
 7831SOL    HW135129   0.859   2.186   5.727 -0.8777 -0.3461 -0.0627
 7831SOL    HW235130   0.993   2.159   5.785  0.9301 -0.4491 -2.4051
 7832SOL     OW35131   0.873   0.593  11.341 -0.1838  0.0376  0.0792
 7832SOL    HW135132   0.786   0.576  11.304 -0.5760 -0.0277  1.0313
 7832SOL    HW235133   0.924   0.533  11.287 -1.8677  0.4483 -1.9830
 7833SOL     OW35134   2.489   1.982  13.081 -0.0919  0.1367  0.2525
 7833SOL    HW135135   2.562   2.042  13.102  0.2137  0.4408 -1.6970
 7833SOL    HW235136   2.501   1.974  12.987 -4.1763 -0.3081 -0.2221
 7834SOL     OW35137   2.723   0.009   4.909  0.2974  0.5719 -0.2359
 7834SOL    HW135138   2.758   0.097   4.893  0.0085  0.7303 -0.0046
 7834SOL    HW235139   2.640   0.020   4.861 -0.9717 -0.9325  1.5940
 7835SOL     OW35140   2.365   0.542  10.092 -0.1985 -0.2698 -0.0195
 7835SOL    HW135141   2.278   0.520  10.124 -0.4487  0.1469 -0.4200
 7835SOL    HW235142   2.385   0.630  10.122 -2.4881  0.8910 -1.9093
 7836SOL     OW35143   4.248   1.827   3.141  0.6943 -0.6311  0.1610
 7836SOL    HW135144   4.237   1.735   3.161  1.2021 -0.9592 -1.0864
 7836SOL    HW235145   4.317   1.855   3.203  1.9557  0.5758 -1.7742
 7837SOL     OW35146   4.617   4.565   2.807 -0.0635  0.3248 -0.0610
 7837SOL    HW135147   4.578   4.550   2.721  0.6969 -1.1816 -0.1286
 7837SOL    HW235148   4.597   4.658   2.823 -2.0291 -0.2243  0.6472
 7838SOL     OW35149   0.579   0.486   6.893 -0.1393 -0.2162  0.0872
 7838SOL    HW135150   0.527   0.411   6.866 -1.5484  0.8122 -0.0911
 7838SOL    HW235151   0.517   0.558   6.881  1.1050  0.7447 -0.5548
 7839SOL     OW35152   1.786   0.605   2.418  0.3832  0.0126  0.0114
 7839SOL    HW135153   1.863   0.588   2.472  0.0371 -0.1808  0.4421
 7839SOL    HW235154   1.822   0.588   2.331 -0.8407 -1.6152 -0.1804
 7840SOL     OW35155   1.845   3.086   5.347  0.2937  0.0762  0.2565
 7840SOL    HW135156   1.775   3.139   5.384 -0.4102 -0.8858  0.2941
 7840SOL    HW235157   1.925   3.136   5.365  0.0160  1.1238 -1.4480
 7841SOL     OW35158   3.899   2.848   5.547  0.3262 -0.0171 -0.0674
 7841SOL    HW135159   3.891   2.928   5.599 -0.3604  1.2865 -2.2003
 7841SOL    HW235160   3.955   2.799   5.607  2.4976  1.6294 -0.7440
 7842SOL     OW35161   2.341   1.056  10.425  0.2351  0.3066 -0.0178
 7842SOL    HW135162   2.269   0.994  10.439  0.9473 -0.5047  0.0326
 7842SOL    HW235163   2.416   0.996  10.426  0.1955  0.2167 -2.2392
 7843SOL     OW35164   3.251   0.186   8.230 -0.1139 -0.0527  0.2379
 7843SOL    HW135165   3.171   0.166   8.278 -0.5032 -2.5639 -1.4503
 7843SOL    HW235166   3.235   0.278   8.208  0.0809  0.0757  0.6325
 7844SOL     OW35167   0.763   3.358   8.202  0.7297  0.4693  0.4357
 7844SOL    HW135168   0.808   3.389   8.124 -2.1853  1.2635 -0.9522
 7844SOL    HW235169   0.838   3.332   8.255  1.1230  4.0574  1.6317
 7845SOL     OW35170   4.486   2.814   4.546  0.1272 -0.2927  0.4767
 7845SOL    HW135171   4.517   2.724   4.538  2.3233  0.5731 -0.8941
 7845SOL    HW235172   4.419   2.800   4.612  0.8542  0.3625  1.3495
 7846SOL     OW35173   2.274   4.639  10.714  0.3032  0.0643  0.4120
 7846SOL    HW135174   2.325   4.567  10.677 -0.2095 -1.0306  1.8139
 7846SOL    HW235175   2.186   4.600  10.713 -0.0459  0.9252 -1.5913
 7847SOL     OW35176   2.187   4.267   2.977  0.3834  0.1483  0.7829
 7847SOL    HW135177   2.131   4.268   2.899  0.7102 -1.0388  0.5276
 7847SOL    HW235178   2.263   4.214   2.952  1.7567  1.8450  1.2907
 7848SOL     OW35179   1.560   0.084  12.735 -0.4495 -0.2983  0.2908
 7848SOL    HW135180   1.641   0.133  12.744 -1.6998  1.6485  1.0840
 7848SOL    HW235181   1.523   0.107  12.650  0.3965 -1.1555 -0.3049
 7849SOL     OW35182   0.203   2.558   2.786  0.1419  0.1416  0.2339
 7849SOL    HW135183   0.198   2.645   2.748 -1.6663 -0.7895 -1.6584
 7849SOL    HW235184   0.112   2.538   2.811  0.7839  0.7516  3.1185
 7850SOL     OW35185   1.934   2.678   3.901 -0.5623 -0.8659 -0.3971
 7850SOL    HW135186   1.911   2.620   3.829 -0.7837 -1.0477 -0.1789
 7850SOL    HW235187   1.894   2.626   3.971 -0.4014 -0.9385 -0.3601
 7851SOL     OW35188   1.001   2.552   6.165 -0.3298  1.1047  0.5482
 7851SOL    HW135189   0.961   2.481   6.115  2.3911 -1.2405  1.6576
 7851SOL    HW235190   1.026   2.498   6.241  0.3739  0.2111 -0.3117
 7852SOL     OW35191   4.195   1.858   4.760 -0.3960 -0.5201  0.5202
 7852SOL    HW135192   4.110   1.835   4.799  0.6926 -1.9519  2.0405
 7852SOL    HW235193   4.199   1.953   4.771  0.7268 -0.6752  1.3485
 7853SOL     OW35194   1.985   1.031   6.888  0.3569  0.1586 -0.1988
 7853SOL    HW135195   1.896   1.057   6.865  0.7523 -1.1554 -3.2588
 7853SOL    HW235196   1.984   0.935   6.892  0.8229  0.2105  1.0917
 7854SOL     OW35197   1.875   3.517   3.656  1.1789 -0.8549  0.4688
 7854SOL    HW135198   1.787   3.536   3.626  0.6297 -1.9186  1.4265
 7854SOL    HW235199   1.923   3.581   3.602 -0.4894  0.8563  1.0070
 7855SOL     OW35200   1.704   1.765   7.296 -0.1469  0.4190  0.4141
 7855SOL    HW135201   1.782   1.793   7.344 -1.1502 -0.5878  2.6398
 7855SOL    HW235202   1.694   1.831   7.228  0.0531  1.7808  1.7098
 7856SOL     OW35203   2.577   1.133   8.057  0.0903 -0.1792 -0.5739
 7856SOL    HW135204   2.663   1.151   8.095 -0.9762  1.1131  1.2221
 7856SOL    HW235205   2.593   1.159   7.967  0.8000 -3.0635 -1.2768
 7857SOL     OW35206   2.838   0.837  11.542 -0.4918 -0.3873  0.1510
 7857SOL    HW135207   2.910   0.781  11.570 -2.5720 -2.3523  1.5839
 7857SOL    HW235208   2.809   0.794  11.461  0.2477  1.3575 -1.0430
 7858SOL     OW35209   1.303   1.995   4.435  0.0021  0.0534 -0.3800
 7858SOL    HW135210   1.399   2.002   4.439 -0.1821  1.9087  1.0539
 7858SOL    HW235211   1.290   1.901   4.430 -0.0680  0.0121  0.5192
 7859SOL     OW35212   3.814   1.875  17.738 -0.0726 -0.2032  0.5115
 7859SOL    HW135213   3.860   1.791  17.731  1.3425  0.7143 -1.1754
 7859SOL    HW235214   3.889   1.931   0.015  2.2927 -2.7661 -1.0697
 7860SOL     OW35215   2.849   0.046   3.105 -0.0974  0.2113 -0.2712
 7860SOL    HW135216   2.860   0.140   3.090  0.8818  0.1807  0.2923
 7860SOL    HW235217   2.932   0.016   3.068 -0.7203 -1.2189 -0.5068
 7861SOL     OW35218   2.637   0.046  12.549 -0.1748  0.7988 -0.0104
 7861SOL    HW135219   2.666   0.128  12.589 -0.6838 -0.0540  2.1219
 7861SOL    HW235220   2.642   4.723  12.624 -1.9748 -0.9606 -1.2793
 7862SOL     OW35221   4.349   1.346   1.416 -0.3020 -0.0400 -0.1469
 7862SOL    HW135222   4.303   1.344   1.499 -0.6303 -0.4480 -0.3378
 7862SOL    HW235223   4.437   1.325   1.447 -1.0470  1.1546  2.7720
 7863SOL     OW35224   1.697   3.553  15.847 -0.9687 -0.4544 -0.1558
 7863SOL    HW135225   1.689   3.628  15.905  0.9450 -0.2964 -0.1109
 7863SOL    HW235226   1.776   3.516  15.886 -0.9947  0.8795  1.1603
 7864SOL     OW35227   4.532   2.461   5.762 -0.0686 -0.0754  0.1044
 7864SOL    HW135228   4.486   2.424   5.686 -2.3041  1.3579  0.7532
 7864SOL    HW235229   4.601   2.506   5.714  1.5254 -1.1993  1.3346
 7865SOL     OW35230   3.447   0.462   4.053  0.0749  0.4775 -0.5850
 7865SOL    HW135231   3.433   0.461   3.958  0.1281  0.0631 -0.5900
 7865SOL    HW235232   3.405   0.544   4.077  3.0652  1.4192  1.4505
 7866SOL     OW35233   3.636   1.680   6.916  0.0009 -1.0127  0.5225
 7866SOL    HW135234   3.661   1.710   6.828  0.8336 -2.3546  0.3014
 7866SOL    HW235235   3.614   1.755   6.971  0.7303 -1.1346  0.9647
 7867SOL     OW35236   2.165   1.445   2.044 -0.1557  0.3653  0.3945
 7867SOL    HW135237   2.109   1.368   2.044 -0.8513  0.8645  1.9263
 7867SOL    HW235238   2.243   1.414   1.998 -0.1575  1.9118 -0.6675
 7868SOL     OW35239   0.398   0.095   3.313 -0.3234  0.6703  0.5373
 7868SOL    HW135240   0.365   0.017   3.358  0.4439 -0.7076 -1.3261
 7868SOL    HW235241   0.421   0.156   3.383  0.9923 -0.7991  1.3811
 7869SOL     OW35242   4.077   2.365  11.243 -0.1961  0.0325 -0.6149
 7869SOL    HW135243   4.006   2.371  11.307  0.8334 -0.9344  0.6145
 7869SOL    HW235244   4.132   2.441  11.261  1.6238 -1.5295  0.3720
 7870SOL     OW35245   1.417   0.843   4.696 -0.1752 -0.1611 -0.2649
 7870SOL    HW135246   1.355   0.900   4.649  0.6790  0.0226 -1.1726
 7870SOL    HW235247   1.431   0.877   4.784  0.8417 -0.9067 -0.1440
 7871SOL     OW35248   0.295   3.890   5.450 -0.0054  0.2065 -0.5563
 7871SOL    HW135249   0.252   3.919   5.370 -0.9031  1.5785  0.4098
 7871SOL    HW235250   0.270   3.951   5.521  1.2588 -0.1397  0.1775
 7872SOL     OW35251   4.195   1.769  10.562  0.0541  0.2545  0.0298
 7872SOL    HW135252   4.270   1.719  10.532  0.2629  0.0087  0.9726
 7872SOL    HW235253   4.231   1.857  10.567 -2.2516  1.2940 -1.3113
 7873SOL     OW35254   3.088   4.532   6.445  0.3325 -0.7344 -0.2681
 7873SOL    HW135255   3.083   4.505   6.536 -0.8547 -1.6896 -0.6221
 7873SOL    HW235256   3.011   4.586   6.432  0.5373  0.0840  1.8853
 7874SOL     OW35257   1.342   4.683  16.045 -0.5068  0.0064  0.6067
 7874SOL    HW135258   1.327   4.635  16.126 -0.6764  0.5095  0.8789
 7874SOL    HW235259   1.263   0.001  16.043 -0.7059 -0.3260 -0.4561
 7875SOL     OW35260   2.318   1.053   5.692 -0.0439 -0.4727  0.6331
 7875SOL    HW135261   2.290   1.037   5.602 -1.4939  1.0870  0.8078
 7875SOL    HW235262   2.389   0.991   5.708  1.3669  0.4535 -2.2393
 7876SOL     OW35263   4.670   2.804  13.617 -0.3249  0.1949  0.5890
 7876SOL    HW135264   0.007   2.785  13.676  1.1091 -1.5413 -1.7936
 7876SOL    HW235265   4.604   2.742  13.650  2.0010 -2.6795 -0.2156
 7877SOL     OW35266   4.575   0.847   8.144  0.1511 -0.6997 -0.2632
 7877SOL    HW135267   4.591   0.771   8.088 -2.1935 -2.4403  1.4368
 7877SOL    HW235268   4.548   0.804   8.225  1.6050 -0.3734  0.4027
 7878SOL     OW35269   1.355   4.584   9.454  0.6708 -0.0506  0.3089
 7878SOL    HW135270   1.434   4.637   9.454  0.8354 -0.2978  0.6521
 7878SOL    HW235271   1.364   4.525   9.379  0.1303 -0.6060  0.6664
 7879SOL     OW35272   2.482   1.383   3.821 -0.0313  0.2668 -0.4204
 7879SOL    HW135273   2.545   1.422   3.882  0.8004 -1.3847 -0.2232
 7879SOL    HW235274   2.465   1.294   3.850 -0.3748  0.8818  1.2694
 7880SOL     OW35275   1.798   1.288   8.694  0.6100 -1.0190 -0.6621
 7880SOL    HW135276   1.774   1.353   8.627 -1.0730 -2.3334 -1.3182
 7880SOL    HW235277   1.769   1.330   8.775  1.6507 -0.0269 -0.7928
 7881SOL     OW35278   1.092   0.233   6.328 -0.1914 -0.1440 -0.1492
 7881SOL    HW135279   1.154   0.160   6.325  0.0471  0.0267  0.6793
 7881SOL    HW235280   1.149   0.304   6.356  1.0396 -0.8525 -0.8974
 7882SOL     OW35281   1.147   3.554   6.938  0.2193 -0.2893  0.2200
 7882SOL    HW135282   1.224   3.602   6.907 -0.1888  1.2857  1.6844
 7882SOL    HW235283   1.077   3.573   6.875  1.3316 -0.4502 -1.0624
 7883SOL     OW35284   2.652   2.010   1.110  0.4077 -0.4261  0.6557
 7883SOL    HW135285   2.700   1.973   1.184  1.3778 -0.1384  0.1675
 7883SOL    HW235286   2.600   2.077   1.155  1.8663  0.7191  0.6506
 7884SOL     OW35287   4.398   2.606   5.044 -0.3400  0.1885  0.1826
 7884SOL    HW135288   4.410   2.511   5.039 -2.2536 -0.0342 -0.2990
 7884SOL    HW235289   4.405   2.626   4.950  0.8303  0.2011  0.2724
 7885SOL     OW35290   2.747   0.911  14.242  0.0553  0.1098 -0.0932
 7885SOL    HW135291   2.828   0.864  14.262 -0.0894 -0.4318 -0.7703
 7885SOL    HW235292   2.684   0.859  14.292  1.4232 -0.6890  0.7877
 7886SOL     OW35293   2.124   0.439   8.258  0.5810  0.2103 -0.1356
 7886SOL    HW135294   2.129   0.532   8.237  1.8357  0.2795  0.4870
 7886SOL    HW235295   2.101   0.439   8.351  0.8814 -0.9483 -0.0591
 7887SOL     OW35296   3.627   3.710   0.268  0.1396  0.1957  0.0711
 7887SOL    HW135297   3.675   3.787   0.237 -1.7396  0.5394 -2.0128
 7887SOL    HW235298   3.693   3.660   0.316  0.0628 -2.0778 -2.1532
 7888SOL     OW35299   3.003   2.517   6.152 -0.0909  0.0370  0.4371
 7888SOL    HW135300   3.092   2.487   6.168 -0.4012  0.1285  2.3755
 7888SOL    HW235301   2.968   2.446   6.098 -2.2718 -0.0793  2.0112
 7889SOL     OW35302   3.000   4.360   0.109  0.0246  0.2275  0.6728
 7889SOL    HW135303   3.087   4.382   0.075  0.3751 -1.3159  0.5712
 7889SOL    HW235304   2.979   4.269   0.092 -1.3341  0.3421  1.7642
 7890SOL     OW35305   1.509   4.222   6.824 -0.2433 -0.7049  0.3345
 7890SOL    HW135306   1.559   4.225   6.742  0.0361 -0.7229  0.5032
 7890SOL    HW235307   1.452   4.146   6.817 -1.3715  0.3423 -2.0274
 7891SOL     OW35308   2.964   0.455   8.022 -0.1240 -0.1236  0.2687
 7891SOL    HW135309   3.012   0.436   7.942 -1.9785 -0.8325 -0.6722
 7891SOL    HW235310   3.039   0.493   8.068  0.9945 -0.7725 -1.0072
 7892SOL     OW35311   2.980   4.122  12.789 -0.0014 -0.3995 -0.5246
 7892SOL    HW135312   3.023   4.037  12.788  1.6116  0.4313 -2.6227
 7892SOL    HW235313   2.960   4.125  12.882  0.6405 -1.2127 -0.3632
 7893SOL     OW35314   3.107   2.208   7.103  0.4757 -0.2412 -0.5888
 7893SOL    HW135315   3.064   2.134   7.058 -1.6324  0.7111 -0.1373
 7893SOL    HW235316   3.179   2.230   7.044  2.4303  2.6059  2.9523
 7894SOL     OW35317   0.775   0.406   4.099  0.2284 -0.1057  0.1905
 7894SOL    HW135318   0.697   0.404   4.155 -0.1106  1.6452 -0.2390
 7894SOL    HW235319   0.763   0.345   4.026 -1.5293 -0.6845  0.9618
 7895SOL     OW35320   2.477   4.152   6.247  0.6603 -0.5202 -0.3839
 7895SOL    HW135321   2.545   4.215   6.226 -2.6304  2.3471 -2.3976
 7895SOL    HW235322   2.403   4.199   6.208  1.2026  0.2260 -0.5183
 7896SOL     OW35323   4.051   0.240   2.863  0.4579  0.2221  0.0188
 7896SOL    HW135324   3.998   0.176   2.911  1.3651 -0.0147  0.7158
 7896SOL    HW235325   4.009   0.325   2.875 -1.3329 -0.7652  0.8340
 7897SOL     OW35326   4.488   0.905  15.746  0.0290  0.2503  0.9076
 7897SOL    HW135327   4.536   0.950  15.677 -0.8653 -0.6007 -0.2617
 7897SOL    HW235328   4.553   0.839  15.771  2.2827  2.2594  0.3092
 7898SOL     OW35329   1.414   2.346   4.408  0.2317  0.2937  0.0096
 7898SOL    HW135330   1.477   2.394   4.462 -2.7155  3.4654  0.6397
 7898SOL    HW235331   1.469   2.339   4.330 -2.2132  1.6206 -1.8347
 7899SOL     OW35332   4.120   0.763   5.156 -0.0669 -0.2693 -0.0544
 7899SOL    HW135333   4.093   0.805   5.074 -0.5202 -2.1842 -0.8710
 7899SOL    HW235334   4.109   0.669   5.147  1.9245 -0.7493  2.6426
 7900SOL     OW35335   2.386   0.291   6.741  0.7986  0.1014 -0.4238
 7900SOL    HW135336   2.374   0.384   6.762  2.6701  0.5553 -1.3731
 7900SOL    HW235337   2.424   0.293   6.653 -0.0186 -2.9010 -0.8287
 7901SOL     OW35338   3.565   1.039  13.107 -0.2443 -0.4049  0.1944
 7901SOL    HW135339   3.599   1.022  13.019  0.7391  2.9224 -0.0721
 7901SOL    HW235340   3.475   1.008  13.109 -0.2431 -0.4449 -0.5444
 7902SOL     OW35341   1.696   0.926  13.691  0.3390 -0.7059 -0.5347
 7902SOL    HW135342   1.628   0.985  13.659  0.2443  0.4477  1.7676
 7902SOL    HW235343   1.774   0.958  13.647  0.2280 -0.4433 -0.5417
 7903SOL     OW35344   1.422   4.007  11.785 -0.0242  0.3944  0.4358
 7903SOL    HW135345   1.346   4.064  11.775 -0.1061  0.0706 -0.7557
 7903SOL    HW235346   1.461   4.020  11.699  1.5799 -0.5531  1.0201
 7904SOL     OW35347   2.647   0.496   5.547  0.6741  0.2482 -0.7810
 7904SOL    HW135348   2.558   0.521   5.519  0.6935  1.0967 -0.0865
 7904SOL    HW235349   2.662   0.546   5.627 -0.9192 -0.7813  0.1552
 7905SOL     OW35350   2.213   4.208  16.024  0.4163 -0.2445  0.8127
 7905SOL    HW135351   2.137   4.180  16.075  0.2225  2.0408  1.7663
 7905SOL    HW235352   2.236   4.120  15.994  0.9182 -0.7745  2.7456
 7906SOL     OW35353   2.545   0.828   7.579  0.2445  0.3585 -0.4291
 7906SOL    HW135354   2.483   0.815   7.650 -1.2895 -0.7204 -1.9843
 7906SOL    HW235355   2.490   0.789   7.511 -0.4844  1.3924 -0.4263
 7907SOL     OW35356   3.204   3.432   6.527  0.0617 -0.3017  0.0192
 7907SOL    HW135357   3.173   3.473   6.608  0.8011 -1.3807  0.8600
 7907SOL    HW235358   3.286   3.482   6.526 -0.4798  0.6574  3.6755
 7908SOL     OW35359   2.075   3.233   4.250  0.2553  0.1612  0.2742
 7908SOL    HW135360   2.107   3.145   4.228  1.6638  0.6576  0.3398
 7908SOL    HW235361   1.981   3.223   4.259  0.1365  0.3301 -0.7896
 7909SOL     OW35362   2.166   3.611   3.285  0.4796  0.0433 -0.7453
 7909SOL    HW135363   2.228   3.612   3.212  1.3145  1.4165  0.0135
 7909SOL    HW235364   2.106   3.547   3.246  1.2537 -0.1815 -1.5658
 7910SOL     OW35365   0.020   0.808   8.977  0.0790 -0.2168 -0.2899
 7910SOL    HW135366   4.722   0.736   8.924 -1.9824  1.5410 -1.3164
 7910SOL    HW235367   0.011   0.882   8.917  2.1922 -1.5944 -2.3374
 7911SOL     OW35368   0.594   2.581   8.870 -0.8772 -0.2003 -1.0736
 7911SOL    HW135369   0.504   2.570   8.901 -0.0242 -2.3723  0.6559
 7911SOL    HW235370   0.586   2.650   8.804  1.6407 -1.1756 -2.3642
 7912SOL     OW35371   3.826   1.524  15.172 -0.0865 -0.0579  0.0340
 7912SOL    HW135372   3.768   1.541  15.246 -0.2450 -0.2745 -0.0404
 7912SOL    HW235373   3.913   1.548  15.204  0.3149 -0.4164 -0.8111
 7913SOL     OW35374   2.048   4.487  16.019  0.5555  0.1100  0.1837
 7913SOL    HW135375   2.067   4.567  15.970  0.6138  0.4212  0.7215
 7913SOL    HW235376   2.026   4.430  15.945 -0.8356  0.8728 -0.0050
 7914SOL     OW35377   4.243   1.378   4.674 -0.3767 -0.6426 -0.0295
 7914SOL    HW135378   4.212   1.319   4.605 -1.4145  0.4925 -0.5293
 7914SOL    HW235379   4.204   1.465   4.661 -0.4468 -0.5530  0.7929
 7915SOL     OW35380   3.334   4.114   2.955 -0.4977 -0.2159  0.2882
 7915SOL    HW135381   3.356   4.207   2.947  1.4238 -0.8124 -1.2806
 7915SOL    HW235382   3.347   4.092   3.047  0.7924  1.9504  0.6331
 7916SOL     OW35383   2.914   3.711  14.890 -0.0735  0.0654  0.0712
 7916SOL    HW135384   2.973   3.669  14.828  1.1098  0.1746  1.1263
 7916SOL    HW235385   2.970   3.705  14.968  0.2795 -0.1176 -0.1958
 7917SOL     OW35386   0.261   3.320   9.770 -0.0900 -0.5579 -0.0258
 7917SOL    HW135387   0.295   3.362   9.849 -0.1329  1.0672 -0.8579
 7917SOL    HW235388   0.217   3.243   9.805  0.5345 -0.8397  0.1354
 7918SOL     OW35389   3.012   0.712   9.115  0.4083 -0.0108  0.2081
 7918SOL    HW135390   3.067   0.656   9.169  2.2226  2.2403  0.7282
 7918SOL    HW235391   2.996   0.649   9.045 -0.7916 -0.2454  0.6877
 7919SOL     OW35392   4.264   1.391   4.055 -0.1903 -0.1760 -0.7329
 7919SOL    HW135393   4.243   1.482   4.033  1.8243  0.6583  0.6972
 7919SOL    HW235394   4.336   1.408   4.116 -0.1200 -1.0061 -0.5870
 7920SOL     OW35395   2.183   2.700  14.440 -0.0113 -0.3133  0.2468
 7920SOL    HW135396   2.243   2.642  14.394  0.8325  0.9167 -0.2081
 7920SOL    HW235397   2.101   2.663  14.407 -0.5066  1.5185 -0.5992
 7921SOL     OW35398   3.830   2.486  10.033 -0.2908  0.0289  0.0232
 7921SOL    HW135399   3.740   2.484  10.065 -0.1534  0.7604  0.4488
 7921SOL    HW235400   3.831   2.581  10.029 -1.3347  0.0726  0.7513
 7922SOL     OW35401   4.469   2.087   5.689  0.2615 -0.6493  0.1527
 7922SOL    HW135402   4.527   2.086   5.613 -0.0050  2.5820 -0.1230
 7922SOL    HW235403   4.443   1.996   5.701 -2.3467 -0.0226 -0.6470
 7923SOL     OW35404   4.230   3.715   7.947  0.3519 -0.0014  0.1128
 7923SOL    HW135405   4.308   3.769   7.960 -0.3998  1.5378 -1.7201
 7923SOL    HW235406   4.226   3.711   7.851 -0.9669 -2.4107  0.2695
 7924SOL     OW35407   3.700   3.231  17.531 -0.2790  0.2480 -0.5968
 7924SOL    HW135408   3.748   3.172  17.473 -0.0326 -1.5158  1.4015
 7924SOL    HW235409   3.703   3.317  17.489 -1.9390  0.2773 -0.6448
 7925SOL     OW35410   2.737   0.558   2.817 -0.1459 -0.3354  0.5089
 7925SOL    HW135411   2.756   0.468   2.841 -4.1214 -1.7284 -1.4386
 7925SOL    HW235412   2.776   0.601   2.893  0.5780 -0.4808  0.2194
 7926SOL     OW35413   1.864   1.772   6.042  0.0335  0.4196  0.0732
 7926SOL    HW135414   1.843   1.685   6.008  1.5629  0.6501 -1.4357
 7926SOL    HW235415   1.801   1.778   6.114 -1.3746 -2.5579 -0.9568
 7927SOL     OW35416   3.750   0.756  17.175  0.4945 -0.9727  0.3766
 7927SOL    HW135417   3.679   0.694  17.162 -1.6081  1.3895  0.5124
 7927SOL    HW235418   3.805   0.719  17.106 -2.2485 -0.8749 -1.8556
 7928SOL     OW35419   4.204   1.875   5.881  0.1822 -0.0222 -0.0018
 7928SOL    HW135420   4.238   1.786   5.872  3.3719  1.1228  0.6223
 7928SOL    HW235421   4.114   1.853   5.857  0.2172 -2.6554  2.3048
 7929SOL     OW35422   1.756   3.297   0.879 -0.1416 -0.1274  0.0289
 7929SOL    HW135423   1.751   3.338   0.793 -0.7858  0.0480  0.1504
 7929SOL    HW235424   1.676   3.251   0.902  0.7778 -1.2814  0.9463
 7930SOL     OW35425   3.401   1.735   7.398 -0.0410  0.2771  0.2660
 7930SOL    HW135426   3.373   1.817   7.437 -1.6525 -1.6960  3.2295
 7930SOL    HW235427   3.383   1.677   7.472 -3.8544  0.1110 -0.8239
 7931SOL     OW35428   1.153   0.614  11.006 -0.0862  0.6124 -0.2040
 7931SOL    HW135429   1.092   0.576  11.069 -0.5563  0.0384 -0.9904
 7931SOL    HW235430   1.112   0.575  10.928 -1.3958  1.6933 -0.0569
 7932SOL     OW35431   0.525   2.492   6.652 -0.0330 -0.0505 -0.6122
 7932SOL    HW135432   0.520   2.439   6.731 -0.3582  0.6585 -0.1562
 7932SOL    HW235433   0.445   2.482   6.601 -0.2841  1.6975 -0.5450
 7933SOL     OW35434   4.201   3.665   4.357  0.6732  0.1462 -0.3807
 7933SOL    HW135435   4.241   3.750   4.377 -1.0950  1.0916 -0.8456
 7933SOL    HW235436   4.181   3.683   4.265 -1.3043  0.4809  0.1064
 7934SOL     OW35437   1.701   2.738   0.536  0.5047 -0.0013 -0.0028
 7934SOL    HW135438   1.741   2.780   0.460 -1.8865 -0.3487 -1.4379
 7934SOL    HW235439   1.655   2.810   0.579 -1.2339  0.3331 -2.4215
 7935SOL     OW35440   2.972   3.860   1.912 -0.0974 -0.2905 -0.2004
 7935SOL    HW135441   2.954   3.856   1.818  0.6894  0.9771 -0.3978
 7935SOL    HW235442   2.993   3.768   1.931  0.1896 -0.6089 -2.0645
 7936SOL     OW35443   0.741   1.976   7.048  0.5681  0.5495 -0.5874
 7936SOL    HW135444   0.811   2.041   7.043  1.7038 -0.6522 -0.5252
 7936SOL    HW235445   0.668   2.026   7.084  0.8831  0.7042 -0.1551
 7937SOL     OW35446   3.011   0.233   9.478  0.8411  0.5959 -0.2410
 7937SOL    HW135447   3.083   0.169   9.476  0.2440 -0.0903  0.0202
 7937SOL    HW235448   2.942   0.172   9.505  1.5458 -0.3320 -0.5133
 7938SOL     OW35449   4.341   0.927  15.981  0.0650 -0.0364  0.1663
 7938SOL    HW135450   4.400   0.908  16.054 -1.2172 -0.7593  1.0108
 7938SOL    HW235451   4.399   0.932  15.905 -0.5413  0.9282 -0.2313
 7939SOL     OW35452   2.806   2.437  12.872  0.5610  0.1297 -0.1747
 7939SOL    HW135453   2.728   2.490  12.856  0.4856  0.0638 -0.0228
 7939SOL    HW235454   2.853   2.488  12.939 -0.5580 -0.9289  1.4208
 7940SOL     OW35455   0.730   1.545  12.955 -0.0810 -0.2799 -0.5948
 7940SOL    HW135456   0.785   1.468  12.942 -0.6315 -1.1379  2.1246
 7940SOL    HW235457   0.795   1.604  12.994 -1.1272  0.8519 -0.5758
 7941SOL     OW35458   3.597   3.136   4.300  0.1861 -0.1742  0.1969
 7941SOL    HW135459   3.588   3.220   4.255  1.1597 -0.1121  0.1253
 7941SOL    HW235460   3.505   3.113   4.290 -0.6161  2.9156  0.5284
 7942SOL     OW35461   1.032   0.804  15.197  0.1957 -0.3476 -0.0228
 7942SOL    HW135462   1.066   0.890  15.171 -0.5372  0.0075  0.1975
 7942SOL    HW235463   0.953   0.831  15.243  0.8261  0.2653  0.6852
 7943SOL     OW35464   1.200   0.085   8.840 -0.1109  0.2591 -0.2684
 7943SOL    HW135465   1.192   0.013   8.903  0.7766  0.1293 -0.3143
 7943SOL    HW235466   1.282   0.127   8.865 -1.2712  1.8513  0.7905
 7944SOL     OW35467   3.866   3.060  17.373  0.2776 -0.6900  0.0435
 7944SOL    HW135468   3.882   2.971  17.342 -1.6846 -1.2149  0.5042
 7944SOL    HW235469   3.878   3.107  17.291  0.4209  0.9246  0.9782
 7945SOL     OW35470   0.923   4.142   6.738  0.4225  0.9173 -0.4634
 7945SOL    HW135471   0.885   4.161   6.652 -0.7323 -0.1937 -0.1823
 7945SOL    HW235472   0.944   4.049   6.733 -0.9920  0.4914  1.7807
 7946SOL     OW35473   0.299   3.757   3.556  0.0230 -0.1500  0.1126
 7946SOL    HW135474   0.230   3.712   3.507 -1.5127  1.3350  0.9130
 7946SOL    HW235475   0.359   3.768   3.482  2.7444 -1.5876  2.1127
 7947SOL     OW35476   2.464   3.569   6.712  0.4570  0.4858  0.1707
 7947SOL    HW135477   2.498   3.658   6.699  0.6382  0.1293 -1.7261
 7947SOL    HW235478   2.391   3.578   6.774  0.5419 -0.8109  0.4517
 7948SOL     OW35479   0.973   2.335   3.912  0.4544  0.7218  0.3882
 7948SOL    HW135480   0.997   2.270   3.978 -3.2371  0.7838  1.8198
 7948SOL    HW235481   0.929   2.401   3.966 -1.4658 -1.1866  1.1607
 7949SOL     OW35482   4.248   4.255   6.892 -1.1432 -0.1273  0.5086
 7949SOL    HW135483   4.266   4.349   6.885 -2.9225  0.1123 -0.9017
 7949SOL    HW235484   4.178   4.244   6.828  0.0480 -0.7609 -0.6874
 7950SOL     OW35485   2.200   0.877  15.547 -0.0501 -0.0454  0.3870
 7950SOL    HW135486   2.181   0.970  15.544  0.9159  0.0997 -1.6399
 7950SOL    HW235487   2.163   0.852  15.631 -3.4699 -1.2304 -1.4708
 7951SOL     OW35488   2.408   2.897   8.327 -0.3881 -0.6060  0.1474
 7951SOL    HW135489   2.480   2.837   8.308  1.0967  1.1678  0.2103
 7951SOL    HW235490   2.428   2.968   8.265  0.4944 -1.8293 -0.9757
 7952SOL     OW35491   4.570   0.727  12.729 -0.5009 -0.0293 -0.4889
 7952SOL    HW135492   4.576   0.679  12.646  0.1433 -0.9125  0.0716
 7952SOL    HW235493   4.615   0.658  12.778 -0.6382  0.0734 -0.2158
 7953SOL     OW35494   2.135   1.255  14.980 -0.5220  0.8798 -0.0927
 7953SOL    HW135495   2.084   1.192  14.929  0.3903 -1.0206  1.2891
 7953SOL    HW235496   2.209   1.276  14.924 -1.3235  0.5600 -1.2612
 7954SOL     OW35497   2.874   4.163   3.312  0.4150 -0.1830 -0.5728
 7954SOL    HW135498   2.790   4.205   3.330  0.9871  1.5098 -1.9024
 7954SOL    HW235499   2.944   4.219   3.346 -2.9816  0.7668  4.8704
 7955SOL     OW35500   4.586   3.723   9.151 -0.4622 -0.5028 -0.0337
 7955SOL    HW135501   4.637   3.691   9.226  0.3210  1.8604  0.4620
 7955SOL    HW235502   4.497   3.711   9.183  0.2785 -3.2923  0.9435
 7956SOL     OW35503   1.611   4.132   4.201  0.1960 -0.0728 -0.5934
 7956SOL    HW135504   1.596   4.042   4.230  2.6337  0.0426  1.0995
 7956SOL    HW235505   1.698   4.151   4.237 -0.0771  0.3173 -0.1348
 7957SOL     OW35506   4.126   0.429   3.194  0.6420  0.2177 -0.6209
 7957SOL    HW135507   4.132   0.507   3.138  2.6947 -0.6789 -1.6342
 7957SOL    HW235508   4.194   0.447   3.259 -0.1916  1.5707 -0.1198
 7958SOL     OW35509   2.754   3.926   6.540  0.5505 -0.7596 -0.3228
 7958SOL    HW135510   2.668   3.887   6.557 -0.0237 -0.2840 -2.1608
 7958SOL    HW235511   2.729   4.018   6.534  0.4742 -0.5454  3.2112
 7959SOL     OW35512   3.254   1.252   1.784  0.2971 -0.7009  0.3091
 7959SOL    HW135513   3.331   1.217   1.829  0.5290 -0.6610 -0.0566
 7959SOL    HW235514   3.183   1.253   1.847 -0.2971  2.2791 -0.4133
 7960SOL     OW35515   4.093   1.494   6.577 -0.2770  1.0805  0.6710
 7960SOL    HW135516   4.021   1.447   6.617  0.0081  0.3712  0.3559
 7960SOL    HW235517   4.146   1.430   6.529  0.4175  1.7047  0.5993
 7961SOL     OW35518   3.517   2.485   8.473  0.4130 -0.7055 -0.9061
 7961SOL    HW135519   3.554   2.398   8.489  0.8859 -0.5469 -1.1523
 7961SOL    HW235520   3.471   2.505   8.555  1.4257  0.7976 -0.6975
 7962SOL     OW35521   3.991   2.263   7.631 -0.4577  0.2575 -0.5685
 7962SOL    HW135522   3.897   2.269   7.648 -0.2462  0.7362  0.4544
 7962SOL    HW235523   3.999   2.334   7.568  0.6878  0.8154  0.2105
 7963SOL     OW35524   2.889   4.441  11.390 -0.0243 -0.1969 -0.2071
 7963SOL    HW135525   2.813   4.491  11.420 -0.5487  0.7184 -3.0177
 7963SOL    HW235526   2.861   4.355  11.421  1.0879 -0.4367  0.1264
 7964SOL     OW35527   1.328   1.518   5.218 -0.2991 -0.3032  0.0208
 7964SOL    HW135528   1.322   1.509   5.313  2.7578 -1.6735  0.0738
 7964SOL    HW235529   1.256   1.461   5.193  0.3655 -0.9076 -0.5146
 7965SOL     OW35530   0.150   4.256   1.544 -0.0462 -0.4460 -0.2689
 7965SOL    HW135531   0.177   4.291   1.629 -0.2402  0.1077 -0.4369
 7965SOL    HW235532   0.058   4.234   1.558 -0.3241  0.4765 -0.6495
 7966SOL     OW35533   4.505   1.951   7.281  0.5755 -0.6112  0.3795
 7966SOL    HW135534   4.550   2.003   7.348 -1.8423  2.3163 -0.2656
 7966SOL    HW235535   4.463   2.022   7.231  0.3770  0.1643  1.6594
 7967SOL     OW35536   2.100   4.720   4.755 -0.1000 -0.3337  0.5737
 7967SOL    HW135537   2.148   0.032   4.822  1.4240 -3.1122  1.4716
 7967SOL    HW235538   2.102   4.635   4.798  1.4430 -0.9508 -0.7308
 7968SOL     OW35539   2.105   2.914  13.066  0.2222  0.1013 -0.0223
 7968SOL    HW135540   2.080   2.982  13.128 -4.4317 -0.7499 -0.9658
 7968SOL    HW235541   2.189   2.956  13.045  0.7646 -0.4933  0.9397
 7969SOL     OW35542   0.467   1.309   4.710  0.4224  0.3620 -0.5267
 7969SOL    HW135543   0.467   1.249   4.786  2.7939 -1.1032 -1.6836
 7969SOL    HW235544   0.512   1.388   4.741 -0.0152  0.3948  0.0237
 7970SOL     OW35545   0.959   2.375   8.764 -0.3541  0.1642 -0.0211
 7970SOL    HW135546   0.907   2.388   8.844  0.1291  1.3120  0.1060
 7970SOL    HW235547   1.033   2.322   8.793  0.6916  1.6968  0.1550
 7971SOL     OW35548   1.480   1.101  10.311 -0.2084  0.7047  0.6795
 7971SOL    HW135549   1.496   1.022  10.363  0.3170  0.7731  0.6251
 7971SOL    HW235550   1.399   1.070  10.270 -0.0918 -0.8607  1.6356
 7972SOL     OW35551   1.509   2.317   7.886  0.8803 -0.1865  0.4198
 7972SOL    HW135552   1.504   2.403   7.926 -0.3064  0.0560 -0.2522
 7972SOL    HW235553   1.428   2.291   7.841  1.6046  0.0014 -0.9926
 7973SOL     OW35554   3.223   3.927   9.163  0.0578 -0.4132 -1.2693
 7973SOL    HW135555   3.240   3.938   9.257 -1.0735 -2.3050 -0.8533
 7973SOL    HW235556   3.304   3.941   9.114  0.4491  0.7714 -0.2867
 7974SOL     OW35557   1.792   4.218   6.835 -0.5297 -0.1476 -0.2836
 7974SOL    HW135558   1.731   4.275   6.882 -0.9363 -1.4376  0.7455
 7974SOL    HW235559   1.751   4.132   6.832  1.1472 -0.8626 -2.3335
 7975SOL     OW35560   2.231   0.656   9.003 -0.5839  0.4358  0.1382
 7975SOL    HW135561   2.309   0.689   8.959 -0.0977 -2.9308 -1.5320
 7975SOL    HW235562   2.163   0.689   8.944  0.4490  2.5191  0.1289
 7976SOL     OW35563   1.194   4.401   5.473 -0.0075 -0.5915  0.7996
 7976SOL    HW135564   1.258   4.418   5.542 -0.8072 -0.3898  1.4904
 7976SOL    HW235565   1.246   4.369   5.399  1.9293  0.0721  1.8758
 7977SOL     OW35566   3.737   4.209   6.101 -0.1333  0.4162  0.3501
 7977SOL    HW135567   3.772   4.294   6.128  0.0078  1.1606 -2.1671
 7977SOL    HW235568   3.649   4.243   6.085 -0.7300 -1.8871 -1.3335
 7978SOL     OW35569   3.574   2.647  15.612  0.2678 -0.5785 -0.2267
 7978SOL    HW135570   3.495   2.696  15.635  0.3520 -0.6471  0.2025
 7978SOL    HW235571   3.554   2.612  15.525 -1.4192  0.8541 -0.4033
 7979SOL     OW35572   0.499   1.008   8.731 -0.6498 -0.0211  0.6925
 7979SOL    HW135573   0.464   1.006   8.820 -1.0108 -0.3134  0.5398
 7979SOL    HW235574   0.496   0.917   8.704 -1.2238  0.1842  0.0650
 7980SOL     OW35575   3.860   2.409   8.401 -0.5400 -0.0578  0.1663
 7980SOL    HW135576   3.850   2.478   8.466  0.5425  1.2930 -1.1097
 7980SOL    HW235577   3.778   2.366   8.428 -0.6678  1.0378  1.4896
 7981SOL     OW35578   1.887   0.607   3.220 -0.7253  0.0425  0.4661
 7981SOL    HW135579   1.806   0.613   3.169 -0.3599 -0.2361 -0.1317
 7981SOL    HW235580   1.857   0.586   3.309  3.2908  1.3431  2.1081
 7982SOL     OW35581   0.398   0.787   3.918  0.2121  0.0913 -0.2927
 7982SOL    HW135582   0.349   0.869   3.922  0.2187 -0.0219  1.8187
 7982SOL    HW235583   0.484   0.804   3.880 -0.0109  1.7397 -0.0906
 7983SOL     OW35584   4.507   2.292   1.191  0.1452 -0.0294 -0.3927
 7983SOL    HW135585   4.493   2.262   1.101 -0.9132 -2.3936  0.5407
 7983SOL    HW235586   4.533   2.384   1.193  2.3631 -0.6801  0.9424
 7984SOL     OW35587   1.370   0.247   2.977  0.2071  0.2123 -0.1880
 7984SOL    HW135588   1.319   0.283   3.049 -0.3707 -2.7964  0.9060
 7984SOL    HW235589   1.392   0.333   2.942 -1.7574  0.1836 -1.4872
 7985SOL     OW35590   3.837   3.857   8.737  0.1240  0.1483  0.2620
 7985SOL    HW135591   3.933   3.850   8.730  0.0669  0.1340 -0.5175
 7985SOL    HW235592   3.815   3.854   8.644  0.5020  0.9576  0.1405
 7986SOL     OW35593   2.803   4.710   3.534  0.6850 -0.2113 -0.5219
 7986SOL    HW135594   2.780   4.679   3.446  0.6637  0.6979 -0.8376
 7986SOL    HW235595   2.769   0.062   3.547 -3.5697 -1.6740 -1.7432
 7987SOL     OW35596   2.406   4.239   8.932  0.2530  0.3767 -0.2660
 7987SOL    HW135597   2.477   4.187   8.896 -0.7296 -1.2939  0.2113
 7987SOL    HW235598   2.349   4.240   8.855 -0.9507 -0.3074  0.6112
 7988SOL     OW35599   1.580   3.920   6.456  0.0233 -0.5390 -0.2552
 7988SOL    HW135600   1.595   3.834   6.496 -0.6845  0.6634  2.5685
 7988SOL    HW235601   1.670   3.947   6.441 -0.0603  0.2739  0.7596
 7989SOL     OW35602   0.445   2.742   5.779  0.3037 -0.4205 -0.3551
 7989SOL    HW135603   0.415   2.813   5.836 -0.2414 -1.0395  0.1264
 7989SOL    HW235604   0.394   2.672   5.819  0.6006 -0.0212  0.7280
 7990SOL     OW35605   3.918   2.417   7.418  0.0665 -0.4649  0.0593
 7990SOL    HW135606   3.920   2.508   7.447 -1.4513 -0.3369 -0.2442
 7990SOL    HW235607   3.853   2.431   7.349  0.0951  3.1748  0.7726
 7991SOL     OW35608   2.105   4.227   9.168 -0.6017 -0.0763 -0.2335
 7991SOL    HW135609   2.083   4.143   9.127  0.6192 -0.2222 -0.6113
 7991SOL    HW235610   2.092   4.282   9.091 -0.6145 -0.0439 -0.2082
 7992SOL     OW35611   0.334   3.000   8.042  0.3451 -0.1133  0.4143
 7992SOL    HW135612   0.348   3.092   8.018  0.3997 -0.5541 -1.2413
 7992SOL    HW235613   0.368   2.962   7.961  0.2216 -0.5507  0.5685
 7993SOL     OW35614   3.616   3.321  10.152 -0.0734 -0.6200  0.7475
 7993SOL    HW135615   3.619   3.227  10.138 -2.4590 -1.3020  5.0698
 7993SOL    HW235616   3.695   3.334  10.099  0.2339  2.4299  1.9148
 7994SOL     OW35617   1.064   4.204   0.888 -0.1569  0.6928 -0.3524
 7994SOL    HW135618   0.977   4.194   0.926  0.4725  0.3765  1.0488
 7994SOL    HW235619   1.105   4.250   0.962 -1.9030 -1.0002  1.6887
 7995SOL     OW35620   0.374   3.717   9.177 -0.3240  0.5709 -0.0497
 7995SOL    HW135621   0.380   3.681   9.088 -1.8612 -0.7080  0.3653
 7995SOL    HW235622   0.443   3.667   9.222 -0.2318  1.6064  0.9698
 7996SOL     OW35623   2.734   1.035   3.984 -0.6435 -0.3707  0.1836
 7996SOL    HW135624   2.809   1.074   4.030 -0.8656 -0.6217  0.7610
 7996SOL    HW235625   2.759   0.943   3.992  1.4887 -0.0398 -2.7441
 7997SOL     OW35626   2.684   3.008  11.482  0.3598 -0.1194  0.3720
 7997SOL    HW135627   2.660   2.916  11.485  0.5691 -0.2433 -1.9589
 7997SOL    HW235628   2.691   3.017  11.387 -0.5231 -2.0802  0.1274
 7998SOL     OW35629   1.982   4.248   2.421  0.3058 -0.0981 -0.3008
 7998SOL    HW135630   1.964   4.154   2.416 -0.1585 -0.0815  0.9922
 7998SOL    HW235631   1.930   4.297   2.357 -0.9334 -0.6312  0.3037
 7999SOL     OW35632   2.059   2.736   9.197  0.1328  0.2958  0.2690
 7999SOL    HW135633   2.029   2.683   9.122 -2.0976  0.0925  1.3046
 7999SOL    HW235634   2.025   2.825   9.186 -2.6242 -0.5864  1.4945
 8000SOL     OW35635   4.055   3.549   2.109  0.4215 -0.0307  0.5639
 8000SOL    HW135636   4.121   3.597   2.159  0.4139  2.2981 -1.6372
 8000SOL    HW235637   4.061   3.461   2.146  0.5160 -0.8160 -1.3117
 8001SOL     OW35638   3.511   2.787   4.443  0.1243  0.5986 -0.7704
 8001SOL    HW135639   3.567   2.861   4.463 -0.8182  1.2768 -0.6466
 8001SOL    HW235640   3.513   2.790   4.348  0.4606  0.1007 -0.7843
 8002SOL     OW35641   3.556   4.197   4.333 -0.1442  0.3457 -0.5809
 8002SOL    HW135642   3.502   4.182   4.411 -1.6364  0.0282 -1.6645
 8002SOL    HW235643   3.547   4.293   4.331  1.9835  0.5343 -0.8156
 8003SOL     OW35644   3.741   1.313  12.868  0.7453 -0.2998  0.1295
 8003SOL    HW135645   3.713   1.225  12.845  2.1458 -0.3124 -1.5146
 8003SOL    HW235646   3.809   1.326  12.801  0.6655  0.4398  0.1862
 8004SOL     OW35647   2.833   3.504   0.932  0.2862  0.3927 -0.4817
 8004SOL    HW135648   2.926   3.485   0.916  0.1762  0.2106 -0.9221
 8004SOL    HW235649   2.785   3.430   0.895  0.4907 -0.7605  1.5394
 8005SOL     OW35650   4.139   1.849  15.753  0.0804  0.3032 -0.0345
 8005SOL    HW135651   4.120   1.807  15.669 -1.3005  0.8842 -0.0108
 8005SOL    HW235652   4.221   1.892  15.731 -0.3773  2.6455  2.8527
 8006SOL     OW35653   3.198   2.094   8.354  0.3991 -0.1868 -0.2210
 8006SOL    HW135654   3.245   2.121   8.275 -0.9992  2.6519 -0.1128
 8006SOL    HW235655   3.156   2.180   8.365  1.7973  0.2746  1.6101
 8007SOL     OW35656   2.893   1.494   3.214  0.0154 -0.1977 -0.3243
 8007SOL    HW135657   2.937   1.579   3.208 -1.7093  0.6113 -1.6643
 8007SOL    HW235658   2.841   1.493   3.134  0.3660 -0.2878 -0.5477
 8008SOL     OW35659   1.159   4.286   8.600 -0.3983 -0.1289 -0.2799
 8008SOL    HW135660   1.207   4.363   8.631  0.0408  0.3229 -2.1297
 8008SOL    HW235661   1.088   4.301   8.663  0.5265  2.2462  0.2242
 8009SOL     OW35662   3.927   3.933  10.301  0.3211  0.2906 -0.0157
 8009SOL    HW135663   3.837   3.946  10.273  1.0294 -0.7583 -2.7418
 8009SOL    HW235664   3.913   3.909  10.393 -2.8152 -1.4000 -0.9499
 8010SOL     OW35665   3.170   0.551   2.747  0.2697  0.4110  0.3890
 8010SOL    HW135666   3.103   0.483   2.743 -0.2820  0.7807  3.5445
 8010SOL    HW235667   3.137   0.622   2.692  3.0871  0.8589 -0.7323
 8011SOL     OW35668   2.939   2.277   4.399  0.6086  0.2155  0.6148
 8011SOL    HW135669   2.988   2.322   4.467  1.6056  1.2386 -0.7781
 8011SOL    HW235670   3.012   2.283   4.337  0.2519 -2.3643 -0.0829
 8012SOL     OW35671   0.561   3.162   3.691  1.2948 -0.4440  0.0466
 8012SOL    HW135672   0.602   3.134   3.609 -2.5047  0.7959 -2.2727
 8012SOL    HW235673   0.609   3.244   3.706  1.1152 -0.5302  1.0311
 8013SOL     OW35674   0.350   4.031   9.923  0.1875 -0.7066 -0.1333
 8013SOL    HW135675   0.325   4.065   9.838  1.5261 -1.9295 -1.0102
 8013SOL    HW235676   0.325   4.104   9.980 -3.4997 -2.0148 -0.1197
 8014SOL     OW35677   1.458   0.669  10.741 -0.8974 -0.0936 -0.0945
 8014SOL    HW135678   1.484   0.664  10.833  0.0608 -2.3269 -0.4834
 8014SOL    HW235679   1.387   0.733  10.738 -1.5031 -0.6758  1.4673
 8015SOL     OW35680   2.410   3.063   7.703  0.1773 -0.0992 -0.4542
 8015SOL    HW135681   2.418   3.089   7.612 -0.3101  0.4222 -0.3518
 8015SOL    HW235682   2.342   3.122   7.736  1.2292  1.1351 -0.5278
 8016SOL     OW35683   0.554   2.563   2.439  0.2676 -0.2269 -0.2070
 8016SOL    HW135684   0.508   2.633   2.394  2.7239  0.6161 -1.3955
 8016SOL    HW235685   0.486   2.498   2.459 -0.1702  0.4293  0.4370
 8017SOL     OW35686   3.037   4.531   8.270  0.1605 -0.0295  0.0717
 8017SOL    HW135687   3.104   4.592   8.301 -0.4979  0.9141 -0.3811
 8017SOL    HW235688   2.966   4.573   8.318  1.2542  0.1629  1.5190
 8018SOL     OW35689   4.732   1.171   7.124 -0.1870  0.3284  0.0586
 8018SOL    HW135690   4.685   1.156   7.042 -2.5745  0.4159  1.4343
 8018SOL    HW235691   4.726   1.266   7.125 -1.3241  0.2476  0.7222
 8019SOL     OW35692   2.483   3.759   2.248 -0.5890  0.5024 -0.1107
 8019SOL    HW135693   2.457   3.850   2.261 -1.5982  0.0462  1.0837
 8019SOL    HW235694   2.564   3.754   2.298 -0.8773 -3.3224 -0.0169
 8020SOL     OW35695   3.976   1.136  12.150  0.1046 -0.1476 -0.5656
 8020SOL    HW135696   3.905   1.142  12.086  0.3839 -0.6876 -0.9242
 8020SOL    HW235697   4.017   1.052  12.130 -0.0469 -0.3232 -0.1224
 8021SOL     OW35698   3.493   3.083   0.298 -0.9633 -0.7662 -0.2213
 8021SOL    HW135699   3.483   3.136   0.219 -1.1783 -1.2620 -0.5281
 8021SOL    HW235700   3.578   3.044   0.276 -1.0173  0.2558 -2.2342
 8022SOL     OW35701   0.958   0.427   9.041 -0.0326  0.1004  0.1201
 8022SOL    HW135702   0.977   0.493   8.975 -0.5611 -0.5081 -0.6336
 8022SOL    HW235703   1.030   0.454   9.098 -0.2198  0.0149  0.4011
 8023SOL     OW35704   0.895   0.477  12.005  0.5909 -0.0546 -0.0428
 8023SOL    HW135705   0.962   0.430  11.957  1.3062 -0.5970  1.4863
 8023SOL    HW235706   0.887   0.422  12.083 -3.3985 -2.0380 -1.8621
 8024SOL     OW35707   2.580   2.348   3.791 -0.1514 -0.2423 -0.6432
 8024SOL    HW135708   2.588   2.425   3.848 -0.5829 -1.7977  1.4995
 8024SOL    HW235709   2.657   2.296   3.814  0.3908  0.0344 -1.8530
 8025SOL     OW35710   3.976   2.681   7.512 -0.3272 -0.8057  0.7366
 8025SOL    HW135711   3.894   2.714   7.550 -2.3673 -1.8606 -2.7219
 8025SOL    HW235712   4.005   2.758   7.463 -1.8362 -0.4614  0.3741
 8026SOL     OW35713   2.885   0.523   9.903  0.0880  0.1228  0.1182
 8026SOL    HW135714   2.833   0.443   9.915 -0.6792  0.2842 -2.2049
 8026SOL    HW235715   2.954   0.498   9.841  1.9128 -0.5939  2.4184
 8027SOL     OW35716   1.071   3.945   4.553  0.2308 -0.2369  0.2707
 8027SOL    HW135717   1.074   4.039   4.571  1.8323  0.2208 -2.4283
 8027SOL    HW235718   1.117   3.946   4.469 -0.4854 -1.6597 -0.1374
 8028SOL     OW35719   1.406   4.509   2.931 -0.3474 -0.3027  0.3537
 8028SOL    HW135720   1.368   4.583   2.884  0.6136 -0.2865 -0.3972
 8028SOL    HW235721   1.393   4.543   3.019  0.3562  1.1309 -0.0988
 8029SOL     OW35722   4.622   3.889   8.749 -0.3885  0.6180 -0.0496
 8029SOL    HW135723   4.559   3.941   8.800 -1.4571 -0.1543 -0.5913
 8029SOL    HW235724   4.688   3.866   8.815 -0.8714 -2.2830 -0.5873
 8030SOL     OW35725   1.065   2.309   8.412 -0.4589 -0.5814  0.0006
 8030SOL    HW135726   1.137   2.332   8.353 -0.9822  1.3494  0.1234
 8030SOL    HW235727   1.015   2.391   8.408  2.8491  1.5536  1.9644
 8031SOL     OW35728   2.632   4.320   3.853 -0.1914 -0.5143  0.0822
 8031SOL    HW135729   2.591   4.258   3.913 -0.9988 -0.8453 -0.8134
 8031SOL    HW235730   2.665   4.258   3.788  0.7397 -0.7009  0.7313
 8032SOL     OW35731   0.443   1.744   7.260  0.0222  0.5371  0.0778
 8032SOL    HW135732   0.505   1.692   7.311  0.8131  1.1714 -0.2380
 8032SOL    HW235733   0.357   1.711   7.287  0.0097  0.1855 -0.3893
 8033SOL     OW35734   4.127   0.045   5.470 -0.0477  0.2578 -0.9064
 8033SOL    HW135735   4.069   0.076   5.540  1.7001 -1.7804  1.4339
 8033SOL    HW235736   4.157   0.134   5.453 -1.9989  0.8192 -1.4366
 8034SOL     OW35737   4.442   2.535   4.775  0.5542  0.5501  0.1095
 8034SOL    HW135738   4.388   2.458   4.759 -1.0295  1.1258  2.7072
 8034SOL    HW235739   4.383   2.608   4.759 -1.2346 -0.6021  1.3858
 8035SOL     OW35740   4.269   2.332   1.966 -0.6600 -0.0344 -0.0342
 8035SOL    HW135741   4.312   2.409   2.004  1.6885 -2.5630  2.3858
 8035SOL    HW235742   4.261   2.275   2.042  0.4393 -1.5552 -1.0753
 8036SOL     OW35743   4.267   0.387   7.476  0.1339 -0.6393 -0.0803
 8036SOL    HW135744   4.211   0.330   7.425 -0.4877 -0.1786  0.0942
 8036SOL    HW235745   4.342   0.415   7.424  0.0604  1.8077  1.1173
 8037SOL     OW35746   0.390   3.373   2.397 -0.2924 -0.0909  0.3132
 8037SOL    HW135747   0.311   3.406   2.353 -0.8374 -0.6709  0.8599
 8037SOL    HW235748   0.370   3.368   2.490 -0.6576  0.4410  0.2682
 8038SOL     OW35749   1.862   3.954   5.833 -0.7760 -0.6657  0.6948
 8038SOL    HW135750   1.827   3.896   5.900 -2.5092 -0.9002 -0.4325
 8038SOL    HW235751   1.781   3.995   5.801  0.5825  1.3443 -0.2091
 8039SOL     OW35752   4.187   1.179   5.537  0.1478  0.1826 -0.2039
 8039SOL    HW135753   4.149   1.134   5.461 -1.2559 -0.2084  0.7212
 8039SOL    HW235754   4.184   1.106   5.599  0.2723  1.3664  1.1917
 8040SOL     OW35755   2.096   0.390   6.654  0.5002 -0.4483  0.2146
 8040SOL    HW135756   2.147   0.310   6.669 -1.4272 -1.2203  2.6487
 8040SOL    HW235757   2.043   0.370   6.576 -0.5430  0.1364  0.7796
 8041SOL     OW35758   0.633   0.470   3.767 -0.2599 -0.1799  0.2301
 8041SOL    HW135759   0.542   0.491   3.743 -0.6835  0.2216  2.1792
 8041SOL    HW235760   0.631   0.390   3.819  0.1246  0.8000  1.7661
 8042SOL     OW35761   2.423   1.613  14.262 -0.2682  0.1406 -0.2260
 8042SOL    HW135762   2.399   1.522  14.242  2.5548 -0.1882 -2.1643
 8042SOL    HW235763   2.510   1.592  14.295 -0.5332 -1.1903 -0.3638
 8043SOL     OW35764   3.282   3.319   1.205 -0.2830  0.1729  0.2045
 8043SOL    HW135765   3.289   3.284   1.117 -1.6244 -1.1694  0.6329
 8043SOL    HW235766   3.313   3.408   1.186 -2.6414  1.4824  2.4158
 8044SOL     OW35767   3.706   0.743   6.348  0.2986  0.3271  0.3767
 8044SOL    HW135768   3.783   0.764   6.401  0.9875 -1.0951 -0.0697
 8044SOL    HW235769   3.640   0.798   6.391  1.1835  2.2237 -0.7337
 8045SOL     OW35770   1.881   2.949   6.009 -0.1483  0.1191 -0.2872
 8045SOL    HW135771   1.821   2.971   5.938 -3.6075 -1.6382  2.0396
 8045SOL    HW235772   1.951   3.013   5.998 -0.1457 -0.5073 -3.7653
 8046SOL     OW35773   0.090   0.126   8.297  0.1236 -0.1035 -0.2905
 8046SOL    HW135774   0.131   0.171   8.222 -0.2182 -0.5628 -0.7520
 8046SOL    HW235775   4.732   0.135   8.290 -0.2255 -1.9633  2.2098
 8047SOL     OW35776   3.305   3.663   2.076 -0.1031  0.0633 -0.0404
 8047SOL    HW135777   3.316   3.688   2.167 -1.4997  0.1367  0.0987
 8047SOL    HW235778   3.326   3.744   2.028  0.4266  0.3434  0.6701
 8048SOL     OW35779   3.079   1.261   8.947 -0.0629 -0.5241  0.2013
 8048SOL    HW135780   3.106   1.261   9.039 -0.5812  1.4493  0.3388
 8048SOL    HW235781   3.091   1.351   8.916 -0.6980 -0.3501  0.4778
 8049SOL     OW35782   1.493   4.124  12.176 -0.1923 -0.5501 -0.1830
 8049SOL    HW135783   1.413   4.107  12.224 -0.2548 -1.4863 -0.6150
 8049SOL    HW235784   1.479   4.075  12.095 -0.2745  0.9026 -1.0579
 8050SOL     OW35785   1.060   1.879   5.771  0.2839  0.3589  0.5467
 8050SOL    HW135786   1.037   1.963   5.730  2.3347  1.2573  1.2072
 8050SOL    HW235787   0.990   1.860   5.833 -0.0012  3.5655  1.2422
 8051SOL     OW35788   1.444   0.547   7.873 -0.1332  0.6829 -0.5197
 8051SOL    HW135789   1.350   0.529   7.862  0.2864 -1.0758 -1.1706
 8051SOL    HW235790   1.461   0.582   7.785 -1.7529 -0.0799 -1.1444
 8052SOL     OW35791   4.321   0.103   2.634 -0.0846 -0.2296  0.1849
 8052SOL    HW135792   4.395   0.101   2.695 -0.6619  1.2880  0.9377
 8052SOL    HW235793   4.313   0.192   2.599  1.4840 -1.2671 -2.7507
 8053SOL     OW35794   1.858   0.335   8.329  0.2256 -0.3356  0.1071
 8053SOL    HW135795   1.853   0.406   8.265 -1.0249 -0.2277  0.3188
 8053SOL    HW235796   1.836   0.380   8.411 -1.6121  0.6782 -0.9437
 8054SOL     OW35797   3.523   3.443   9.610  0.2528  0.4221 -0.0858
 8054SOL    HW135798   3.591   3.434   9.677 -0.2504 -2.0003  0.1052
 8054SOL    HW235799   3.482   3.529   9.619 -0.0330  0.1693  0.9835
 8055SOL     OW35800   0.492   0.265   2.880 -0.2616  0.2624 -0.3578
 8055SOL    HW135801   0.434   0.188   2.879  1.0288 -0.6998 -1.1614
 8055SOL    HW235802   0.452   0.322   2.946  0.8699  0.8165 -0.1516
 8056SOL     OW35803   3.616   3.967   9.501 -0.2212 -0.0849 -0.3552
 8056SOL    HW135804   3.585   3.943   9.413  2.6030 -3.2948 -0.4855
 8056SOL    HW235805   3.579   4.055   9.501 -1.8895 -0.7845  0.3013
 8057SOL     OW35806   2.791   4.627   4.513  0.0511 -0.0811  0.0556
 8057SOL    HW135807   2.752   4.712   4.533  2.4150  0.7901  1.0725
 8057SOL    HW235808   2.797   4.624   4.418 -0.4101 -1.6482  0.0815
 8058SOL     OW35809   3.958   2.928  12.857  0.5788  0.2040 -0.0832
 8058SOL    HW135810   3.924   3.016  12.874 -2.2579 -0.4596 -2.3577
 8058SOL    HW235811   4.052   2.937  12.839  0.7758  1.4751  1.6013
 8059SOL     OW35812   0.388   3.703   7.220 -0.9199  0.3701  0.1885
 8059SOL    HW135813   0.469   3.700   7.271 -0.4484  1.7957 -0.4855
 8059SOL    HW235814   0.405   3.751   7.140 -0.7320  0.2108  0.1317
 8060SOL     OW35815   3.577   3.515  11.615  0.0082  0.3482  0.2037
 8060SOL    HW135816   3.602   3.542  11.704  0.9524  0.3401 -0.0555
 8060SOL    HW235817   3.661   3.510  11.569  0.2695  3.9227  0.2480
 8061SOL     OW35818   2.190   1.031   2.365  0.0998  0.4544  0.5816
 8061SOL    HW135819   2.245   1.086   2.308  0.8817  1.0787  1.9326
 8061SOL    HW235820   2.203   0.939   2.342 -1.2161  0.7640 -1.3559
 8062SOL     OW35821   1.442   0.115   3.684  0.4155  1.0515  0.1409
 8062SOL    HW135822   1.374   0.086   3.623  2.2348  1.4867 -2.0980
 8062SOL    HW235823   1.407   0.094   3.771  1.2266  0.3989  0.3162
 8063SOL     OW35824   2.487   1.871  10.431 -0.0996 -0.0424  0.3282
 8063SOL    HW135825   2.551   1.867  10.502  1.4208  1.0109 -0.9992
 8063SOL    HW235826   2.549   1.909  10.370  1.6964 -3.5970 -0.0357
 8064SOL     OW35827   0.693   2.098  17.293 -0.0366  0.1995  0.0610
 8064SOL    HW135828   0.644   2.129  17.217  0.1884  0.7516  0.1435
 8064SOL    HW235829   0.694   2.004  17.275  0.6526  0.3292 -0.5730
 8065SOL     OW35830   2.784   0.744   8.611  0.1976 -0.5115 -0.1523
 8065SOL    HW135831   2.755   0.716   8.698 -1.1744  2.8572  0.4577
 8065SOL    HW235832   2.827   0.660   8.594  0.0070 -1.0371  1.8676
 8066SOL     OW35833   0.600   1.589  12.383 -0.3893 -0.0605  0.0427
 8066SOL    HW135834   0.680   1.570  12.432 -0.7076  0.8258  0.9230
 8066SOL    HW235835   0.546   1.601  12.462 -1.1255 -0.5306 -0.3873
 8067SOL     OW35836   2.143   0.083   5.302 -0.4405  0.4743 -0.4456
 8067SOL    HW135837   2.117   0.175   5.298  2.8643  1.2820 -3.2522
 8067SOL    HW235838   2.237   0.082   5.323 -0.3577 -0.5502 -0.8966
 8068SOL     OW35839   3.647   0.783  16.657  0.0849  0.3184  0.1990
 8068SOL    HW135840   3.593   0.859  16.637  1.3386  0.6905 -1.7531
 8068SOL    HW235841   3.610   0.725  16.590  1.1682 -1.0534  0.7777
 8069SOL     OW35842   3.597   0.479   3.579  0.5641  0.2631 -1.0930
 8069SOL    HW135843   3.617   0.387   3.595 -1.1025  0.2675  1.0244
 8069SOL    HW235844   3.522   0.460   3.521 -0.2289 -1.8889  0.6610
 8070SOL     OW35845   3.193   3.490   9.994  0.1005 -0.1903  0.2703
 8070SOL    HW135846   3.245   3.436   9.935  0.9342  1.9416 -0.9052
 8070SOL    HW235847   3.184   3.573   9.948 -0.2154 -0.5016 -0.2319
 8071SOL     OW35848   1.538   1.810   7.601 -0.5001 -0.1422  0.1245
 8071SOL    HW135849   1.603   1.878   7.585  0.3882 -0.7007  1.3640
 8071SOL    HW235850   1.587   1.747   7.654 -0.3953  0.5963  0.9083
 8072SOL     OW35851   2.697   3.370  11.353 -0.3246  0.4583 -0.3906
 8072SOL    HW135852   2.778   3.366  11.302 -0.0746  1.6040 -0.0892
 8072SOL    HW235853   2.641   3.338  11.282  0.4653 -3.7579  0.8570
 8073SOL     OW35854   4.670   3.825   4.560 -0.5146  0.2435 -0.6761
 8073SOL    HW135855   4.681   3.823   4.655 -1.5582 -0.1080 -0.5556
 8073SOL    HW235856   0.026   3.845   4.544 -0.5443 -0.9715 -2.3669
 8074SOL     OW35857   2.984   4.114   3.685  0.4809  0.0629  0.8736
 8074SOL    HW135858   3.056   4.061   3.720  0.2232 -1.0810 -0.3221
 8074SOL    HW235859   3.029   4.159   3.614 -2.8841  0.3733 -1.0436
 8075SOL     OW35860   3.084   1.774   3.660  0.2152  0.1492 -0.2299
 8075SOL    HW135861   3.030   1.725   3.598  0.2404  2.0879 -1.7893
 8075SOL    HW235862   3.040   1.859   3.662 -0.6047 -0.2883  0.1317
 8076SOL     OW35863   2.326   3.494   7.806  0.0380  0.3034  0.1467
 8076SOL    HW135864   2.402   3.457   7.850  0.9057  1.2304 -0.5773
 8076SOL    HW235865   2.336   3.447   7.724 -1.1162  0.0555  0.1479
 8077SOL     OW35866   3.428   3.959   7.623  0.2292  0.1109 -0.7408
 8077SOL    HW135867   3.347   3.966   7.572 -1.0937  3.1716  1.8142
 8077SOL    HW235868   3.483   3.918   7.555  0.1475 -0.8186 -0.2460
 8078SOL     OW35869   3.450   4.482   3.418  0.3248  0.2935  0.8436
 8078SOL    HW135870   3.478   4.573   3.427  1.1122  0.2938 -1.5232
 8078SOL    HW235871   3.441   4.461   3.511 -0.0263 -1.7010  0.3548
 8079SOL     OW35872   3.997   3.547   5.963  0.2854  0.1429 -0.2743
 8079SOL    HW135873   3.937   3.621   5.955  0.0581  0.0808  0.8552
 8079SOL    HW235874   3.933   3.476   5.965  0.2312  0.2434  1.8518
 8080SOL     OW35875   0.370   1.058   3.265  0.7971  0.3320  0.3757
 8080SOL    HW135876   0.395   1.117   3.335  0.1520 -0.1443  1.0041
 8080SOL    HW235877   0.275   1.054   3.264  0.9051 -2.0488 -1.3032
 8081SOL     OW35878   0.244   3.063   4.487 -0.7565  0.4940  0.5569
 8081SOL    HW135879   0.264   3.119   4.562  0.0201 -0.4681  1.0649
 8081SOL    HW235880   0.312   3.090   4.425 -0.7699  0.9620  0.7469
 8082SOL     OW35881   3.884   3.053   1.346 -0.0587 -0.4654  0.1313
 8082SOL    HW135882   3.845   2.990   1.286  1.6590 -1.9262  0.5425
 8082SOL    HW235883   3.929   2.990   1.403  0.5235 -1.0521 -0.9958
 8083SOL     OW35884   3.863   4.053   8.360  0.2714  0.2933  0.0711
 8083SOL    HW135885   3.884   4.128   8.416  0.2699 -1.1168  1.9456
 8083SOL    HW235886   3.913   4.082   8.284  0.8237 -0.1519  0.2638
 8084SOL     OW35887   1.314   2.853   4.905 -0.2165  0.2753  0.6081
 8084SOL    HW135888   1.256   2.915   4.861  0.5740  0.7585  0.2272
 8084SOL    HW235889   1.267   2.777   4.939  1.5383 -2.0291 -2.1122
 8085SOL     OW35890   3.347   1.804  17.285 -0.0928  0.3926 -0.3390
 8085SOL    HW135891   3.381   1.874  17.229 -1.2567  0.1763 -1.3067
 8085SOL    HW235892   3.292   1.756  17.224  2.1420 -2.1010 -0.3877
 8086SOL     OW35893   4.494   0.949  15.215  0.5783 -0.0283 -0.2529
 8086SOL    HW135894   4.433   0.937  15.287  1.8941  1.9396  1.1932
 8086SOL    HW235895   4.558   1.006  15.258  0.2399  1.1460 -1.3296
 8087SOL     OW35896   2.466   1.156   7.210 -0.4700  0.0198  0.0871
 8087SOL    HW135897   2.419   1.236   7.232 -0.4527  0.2537 -0.7155
 8087SOL    HW235898   2.394   1.093   7.206  0.0988 -0.5658 -0.7785
 8088SOL     OW35899   1.030   1.161  15.513  0.0339 -0.1301 -0.6212
 8088SOL    HW135900   1.114   1.119  15.494  0.8874  1.0019  0.6744
 8088SOL    HW235901   0.984   1.103  15.573  1.7741 -1.4368 -0.5722
 8089SOL     OW35902   0.521   2.842   7.020  0.4477  0.3192  0.1030
 8089SOL    HW135903   0.600   2.827   7.071  0.0264 -2.6345 -0.0774
 8089SOL    HW235904   0.504   2.936   7.021  1.5426  0.4921  1.2080
 8090SOL     OW35905   4.219   3.596   8.292  1.1844 -0.3334 -0.8170
 8090SOL    HW135906   4.173   3.535   8.234  0.6185 -0.2163 -0.4859
 8090SOL    HW235907   4.170   3.678   8.297 -1.0916 -1.7889  0.3722
 8091SOL     OW35908   0.683   1.619  14.496 -0.6273 -0.6226  0.1129
 8091SOL    HW135909   0.762   1.627  14.550 -0.8933  1.1579  0.2460
 8091SOL    HW235910   0.681   1.524  14.484  0.7872 -0.5499 -0.6735
 8092SOL     OW35911   2.209   3.788   3.725  0.5432  0.1434 -0.3521
 8092SOL    HW135912   2.162   3.774   3.642  0.8643 -1.1469 -0.3149
 8092SOL    HW235913   2.250   3.701   3.726 -4.6471 -2.3663 -0.2067
 8093SOL     OW35914   2.379   1.324   5.695 -0.5243 -0.4375  0.0461
 8093SOL    HW135915   2.366   1.230   5.702  0.3846 -0.5428  0.1935
 8093SOL    HW235916   2.337   1.346   5.612  1.3942  1.5678 -0.4009
 8094SOL     OW35917   3.156   4.532  11.452 -0.1924 -0.0538 -0.3298
 8094SOL    HW135918   3.073   4.485  11.439  0.1125 -0.4417 -0.8548
 8094SOL    HW235919   3.215   4.469  11.493 -2.2818 -2.4635 -1.0162
 8095SOL     OW35920   4.664   2.189   4.805 -0.5690  0.7934 -0.3539
 8095SOL    HW135921   4.716   2.228   4.875 -2.1081  0.9571  0.7068
 8095SOL    HW235922   4.580   2.178   4.850  0.9116 -0.1445  2.1728
 8096SOL     OW35923   2.112   3.862   8.255 -0.2066 -0.2457  0.4367
 8096SOL    HW135924   2.147   3.929   8.196  0.2107 -0.4828  0.4133
 8096SOL    HW235925   2.087   3.915   8.331 -0.7426  2.8922 -1.9133
 8097SOL     OW35926   4.548   2.163   3.436 -0.0455 -0.1258 -0.2328
 8097SOL    HW135927   4.546   2.171   3.532  0.8174 -4.2414  0.1219
 8097SOL    HW235928   4.641   2.179   3.426  0.1072 -0.9263 -0.0780
 8098SOL     OW35929   0.541   4.472   2.480 -0.4186 -0.2093  0.1023
 8098SOL    HW135930   0.571   4.512   2.398  0.1001  0.1093  0.4492
 8098SOL    HW235931   0.450   4.501   2.473 -0.5562 -0.4945  0.7753
 8099SOL     OW35932   3.945   4.231   5.167 -0.0796  0.6087  0.0267
 8099SOL    HW135933   3.888   4.163   5.203  1.9419 -0.3835  1.3948
 8099SOL    HW235934   3.916   4.218   5.077 -1.3181  3.7224 -0.0145
 8100SOL     OW35935   4.318   4.351   4.744 -0.3458  0.6248 -0.3430
 8100SOL    HW135936   4.399   4.397   4.721  1.9152 -2.6894  0.9995
 8100SOL    HW235937   4.291   4.340   4.653 -0.2077  0.5969 -0.3804
 8101SOL     OW35938   3.598   0.006  11.420 -0.1326  0.2454  0.0083
 8101SOL    HW135939   3.581   0.026  11.512  0.0416  0.2752  0.0343
 8101SOL    HW235940   3.647   4.661  11.415  1.7131  1.3657 -0.3069
 8102SOL     OW35941   1.358   1.361   4.272  0.3363 -0.0156 -0.0109
 8102SOL    HW135942   1.429   1.342   4.210  1.0107  1.2171  0.3834
 8102SOL    HW235943   1.402   1.346   4.356 -0.1071  2.8996  0.7584
 8103SOL     OW35944   3.033   3.781  10.191  0.0906  0.1886 -0.2598
 8103SOL    HW135945   3.015   3.875  10.191 -0.2545  0.1222 -0.2877
 8103SOL    HW235946   3.067   3.765  10.279  0.4575  0.1666 -0.4069
 8104SOL     OW35947   2.341   4.441   1.867  0.3315 -0.6287 -0.2550
 8104SOL    HW135948   2.361   4.348   1.881  0.8969 -0.4368  0.1875
 8104SOL    HW235949   2.431   4.463   1.891  0.9830 -0.3977 -2.8512
 8105SOL     OW35950   2.504   0.945  12.301 -0.0984 -0.3098 -0.1701
 8105SOL    HW135951   2.489   0.985  12.215  1.5511  0.4696 -0.0903
 8105SOL    HW235952   2.595   0.919  12.288 -0.3313 -0.3276 -1.8619
 8106SOL     OW35953   0.582   3.077   6.114  0.1309  0.1192 -0.3181
 8106SOL    HW135954   0.546   3.160   6.146 -0.0946 -0.8779  2.0130
 8106SOL    HW235955   0.575   3.032   6.198 -0.2283  2.1017  0.7261
 8107SOL     OW35956   1.444   0.886   4.980 -0.4811 -0.1168  0.8232
 8107SOL    HW135957   1.415   0.976   4.964  3.4083  1.2001  1.1858
 8107SOL    HW235958   1.371   0.827   5.000  0.8522 -2.0122  0.1927
 8108SOL     OW35959   0.198   0.941   6.885  0.2747  0.3766  0.7671
 8108SOL    HW135960   0.258   1.002   6.842  1.7064 -1.3953  0.2431
 8108SOL    HW235961   0.256   0.903   6.950  3.4505 -1.1665 -2.9594
 8109SOL     OW35962   0.434   1.348  15.597 -0.0978  0.0632  0.2061
 8109SOL    HW135963   0.426   1.275  15.535 -3.2207  1.6141 -1.2518
 8109SOL    HW235964   0.375   1.315  15.665  0.0177 -0.1521  0.2032
 8110SOL     OW35965   4.688   4.086   3.724 -0.0795  0.0825 -0.5257
 8110SOL    HW135966   4.662   4.148   3.656 -0.5586  2.0517  1.4450
 8110SOL    HW235967   0.030   4.043   3.690 -0.5667 -0.5174 -0.8978
 8111SOL     OW35968   0.899   3.589   6.780 -1.0257 -0.4233 -0.3604
 8111SOL    HW135969   0.829   3.570   6.843 -1.3692  1.2182 -0.2648
 8111SOL    HW235970   0.905   3.504   6.736  0.0403  0.5840 -2.1297
 8112SOL     OW35971   3.909   0.469   7.119 -0.1892  0.4199 -0.0033
 8112SOL    HW135972   3.892   0.561   7.096 -1.6041  0.7132  2.2341
 8112SOL    HW235973   3.824   0.425   7.122 -0.6693  1.2141 -1.5177
 8113SOL     OW35974   1.453   0.467   3.843 -0.3234 -0.1245  0.0262
 8113SOL    HW135975   1.407   0.533   3.791 -0.3516  0.5543  0.9253
 8113SOL    HW235976   1.456   0.516   3.924  1.1017  0.6133 -0.4853
 8114SOL     OW35977   4.594   3.740   2.743  0.3668 -0.7316  0.2830
 8114SOL    HW135978   4.555   3.822   2.713 -0.5051 -0.5244  1.9360
 8114SOL    HW235979   4.672   3.737   2.688 -1.2004 -1.7653 -1.8853
 8115SOL     OW35980   3.470   0.096   1.789  0.5223 -0.4927  0.4807
 8115SOL    HW135981   3.564   0.081   1.799  0.9700  2.1595  0.2739
 8115SOL    HW235982   3.468   0.191   1.777  2.9691 -0.6110 -0.7037
 8116SOL     OW35983   1.400   4.187  15.788  0.2095 -0.9333  0.1255
 8116SOL    HW135984   1.373   4.241  15.862  0.9192  0.2294 -0.4573
 8116SOL    HW235985   1.460   4.122  15.824  0.8867 -0.3462  0.0427
 8117SOL     OW35986   0.382   0.487  10.931  0.0225 -0.7843 -0.0890
 8117SOL    HW135987   0.313   0.451  10.876 -0.3720  0.6726 -0.5607
 8117SOL    HW235988   0.345   0.572  10.956 -2.6950 -1.3847 -2.0283
 8118SOL     OW35989   4.024   4.157   8.182  0.3658  0.1456 -0.1023
 8118SOL    HW135990   4.037   4.071   8.141 -1.9436  0.1793 -0.8867
 8118SOL    HW235991   4.030   4.212   8.104  0.7187 -0.0276 -0.1972
 8119SOL     OW35992   3.837   2.648   4.862  0.7801  0.2666 -0.0667
 8119SOL    HW135993   3.858   2.626   4.771  0.3561 -0.8337  0.1072
 8119SOL    HW235994   3.812   2.740   4.860 -1.8956 -0.4613  0.9250
 8120SOL     OW35995   0.487   4.008   8.938  0.0861 -0.3288 -0.3821
 8120SOL    HW135996   0.545   3.938   8.966  0.5446  0.5942  0.9605
 8120SOL    HW235997   0.545   4.059   8.882 -0.7598 -0.2647 -1.1980
 8121SOL     OW35998   3.528   3.365   2.778  0.4621 -0.1756 -0.0182
 8121SOL    HW135999   3.474   3.385   2.855  1.1081 -0.8324  0.6016
 8121SOL    HW236000   3.476   3.392   2.702  0.8805 -0.4446 -0.3969
 8122SOL     OW36001   1.691   4.315   5.836 -0.3044  0.6671  0.4520
 8122SOL    HW136002   1.786   4.303   5.831 -0.5222 -2.3198  3.5009
 8122SOL    HW236003   1.662   4.247   5.775 -1.0573  1.9916 -0.6852
 8123SOL     OW36004   3.036   3.328   8.846  0.1445 -0.8764 -0.2775
 8123SOL    HW136005   2.956   3.348   8.895  0.3671 -0.1981 -0.1944
 8123SOL    HW236006   3.047   3.415   8.807  1.3117 -0.5042  0.9235
 8124SOL     OW36007   4.596   4.114  12.019  0.1892  0.0566  0.1754
 8124SOL    HW136008   4.655   4.171  12.068  0.1328 -2.0491  2.6836
 8124SOL    HW236009   4.595   4.149  11.930 -0.4383 -3.1991 -1.1139
 8125SOL     OW36010   2.094   2.944   3.579 -0.2599  0.6884 -0.4859
 8125SOL    HW136011   2.100   2.953   3.484  2.1904  0.1435 -0.3857
 8125SOL    HW236012   2.144   3.019   3.612 -0.9184  1.5820 -1.5108
 8126SOL     OW36013   4.620   2.115  11.571  0.1874  0.4056 -0.3597
 8126SOL    HW136014   4.586   2.031  11.539 -0.9581  0.3165  1.0570
 8126SOL    HW236015   4.712   2.096  11.553  0.3289 -1.2372  2.1035
 8127SOL     OW36016   2.464   1.333  14.263 -1.1087 -0.1114  0.0491
 8127SOL    HW136017   2.524   1.259  14.270 -1.7422 -0.5553  0.8736
 8127SOL    HW236018   2.375   1.299  14.272 -1.8196  2.4213  2.6453
 8128SOL     OW36019   2.828   0.597  11.907 -0.5267 -0.6719  0.3402
 8128SOL    HW136020   2.748   0.546  11.918  0.0999 -1.6330  0.4014
 8128SOL    HW236021   2.889   0.540  11.953  1.0171  1.7695  1.2933
 8129SOL     OW36022   2.215   4.156   1.092  0.1761 -0.5188  0.1593
 8129SOL    HW136023   2.216   4.249   1.069  0.5323 -0.7674 -0.8332
 8129SOL    HW236024   2.282   4.118   1.034 -0.7027  0.4712 -1.4844
 8130SOL     OW36025   3.663   1.767   7.210  0.6945 -0.1514 -0.7964
 8130SOL    HW136026   3.579   1.761   7.256  1.3499  0.9216  0.5505
 8130SOL    HW236027   3.700   1.853   7.231  0.0576 -0.3422  1.1944
 8131SOL     OW36028   0.230   1.996  14.095 -0.1505  0.1044 -0.4145
 8131SOL    HW136029   0.196   1.910  14.069  0.9544  0.8055 -4.1873
 8131SOL    HW236030   0.321   1.964  14.090  0.1311  0.8161  0.2828
 8132SOL     OW36031   2.187   2.463   2.359 -0.2274  0.1834  0.2064
 8132SOL    HW136032   2.104   2.510   2.349 -0.0763  0.2691 -0.6169
 8132SOL    HW236033   2.231   2.483   2.277 -0.8905  3.4691  0.6250
 8133SOL     OW36034   0.988   3.840   3.395  0.1821 -0.0610 -0.1414
 8133SOL    HW136035   0.989   3.879   3.482 -0.7370  1.1438 -0.6654
 8133SOL    HW236036   1.068   3.867   3.351  0.3893  0.7560  0.7476
 8134SOL     OW36037   2.880   4.086   2.578 -0.4369  0.4943 -0.0784
 8134SOL    HW136038   2.947   4.085   2.646 -2.4861 -0.5341  1.9456
 8134SOL    HW236039   2.833   4.009   2.610 -1.0195  0.0336 -2.0665
 8135SOL     OW36040   4.312   2.068   2.443 -0.0433  0.4748  0.1071
 8135SOL    HW136041   4.330   2.063   2.349 -0.2299 -1.4710  0.1664
 8135SOL    HW236042   4.346   1.984   2.475  1.8635  0.7383 -1.2473
 8136SOL     OW36043   0.799   0.527  14.126  0.1740  0.0436  0.1849
 8136SOL    HW136044   0.888   0.509  14.155  0.1910 -0.7735 -0.3769
 8136SOL    HW236045   0.766   0.578  14.200  0.4632  1.1533 -0.4638
 8137SOL     OW36046   0.766   0.351   7.022 -0.2693  0.4290  0.1344
 8137SOL    HW136047   0.835   0.416   7.011  1.3327 -1.6758 -2.3508
 8137SOL    HW236048   0.704   0.400   6.968 -0.5452  1.9728  1.8705
 8138SOL     OW36049   3.051   3.098   2.541 -0.8535  0.1957 -0.0050
 8138SOL    HW136050   3.065   3.121   2.633 -2.4304 -1.3079  0.6123
 8138SOL    HW236051   3.079   3.177   2.495 -0.6486  0.0819 -0.0776
 8139SOL     OW36052   1.075   2.167   3.369  0.4750 -0.4413 -0.1777
 8139SOL    HW136053   0.981   2.166   3.385  0.0381  0.4597 -2.6420
 8139SOL    HW236054   1.103   2.076   3.370 -0.9420 -0.9038 -2.5543
 8140SOL     OW36055   0.976   4.330   7.129  0.5143  0.1764 -0.3589
 8140SOL    HW136056   1.012   4.419   7.127  0.1779  0.3458  1.1110
 8140SOL    HW236057   0.969   4.320   7.034 -1.0872 -2.0968 -0.0087
 8141SOL     OW36058   0.027   3.022  15.611  0.3084  0.0880 -0.0894
 8141SOL    HW136059   4.727   2.999  15.697  0.0508  3.1328  0.6427
 8141SOL    HW236060   4.695   2.986  15.556  0.7199 -0.6176 -0.1319
 8142SOL     OW36061   3.419   1.165  12.868 -0.2695 -0.3978 -0.1056
 8142SOL    HW136062   3.427   1.254  12.904 -0.4876 -0.6351  0.5269
 8142SOL    HW236063   3.503   1.134  12.834  0.8271 -0.2074  2.3893
 8143SOL     OW36064   4.362   0.842  12.833  0.1141  0.2478  0.6193
 8143SOL    HW136065   4.327   0.835  12.744 -0.3318 -1.1728  0.9026
 8143SOL    HW236066   4.452   0.817  12.811 -0.1277 -1.0556  1.1229
 8144SOL     OW36067   3.106   4.483   5.414  0.2861  0.4920  0.1221
 8144SOL    HW136068   3.191   4.513   5.444 -0.5916  3.7761 -0.6982
 8144SOL    HW236069   3.056   4.545   5.361 -1.1106 -0.4915  0.2781
 8145SOL     OW36070   2.640   3.704   1.785 -0.1341  0.6721  0.2564
 8145SOL    HW136071   2.583   3.660   1.848  0.6702 -2.1699 -0.9778
 8145SOL    HW236072   2.634   3.631   1.723  1.1123  0.0321  0.8765
 8146SOL     OW36073   4.391   4.203   1.927 -0.2100  0.8941  0.0352
 8146SOL    HW136074   4.408   4.293   1.954  0.3030  0.2263  1.9090
 8146SOL    HW236075   4.296   4.213   1.920 -0.5372 -1.5673  0.7565
 8147SOL     OW36076   1.640   1.571   0.903  0.1698  0.5164  0.3082
 8147SOL    HW136077   1.618   1.493   0.851  0.1229  1.4213 -1.0332
 8147SOL    HW236078   1.697   1.537   0.972  1.5195 -2.7038 -2.3886
 8148SOL     OW36079   3.611   2.581  14.271  0.0314  0.1017  0.5428
 8148SOL    HW136080   3.645   2.642  14.337 -0.5246  1.3040 -0.2768
 8148SOL    HW236081   3.544   2.533  14.320  1.1782 -0.3249  1.7041
 8149SOL     OW36082   4.715   3.705   7.174 -0.1762  0.1113  0.0708
 8149SOL    HW136083   4.660   3.783   7.170 -0.8197 -0.2456  2.0534
 8149SOL    HW236084   4.653   3.632   7.182 -0.2000  0.0201 -0.8689
 8150SOL     OW36085   1.867   2.112   7.174 -0.3450 -0.4466 -0.3848
 8150SOL    HW136086   1.847   2.037   7.118 -1.1886  0.5850 -1.4591
 8150SOL    HW236087   1.905   2.174   7.112 -0.6384 -0.2058 -0.3218
 8151SOL     OW36088   1.378   3.042   5.751 -0.3926  0.0577  0.0393
 8151SOL    HW136089   1.390   2.948   5.741 -2.6548 -0.2297  0.1230
 8151SOL    HW236090   1.317   3.050   5.824 -0.9293 -0.6545 -0.3389
 8152SOL     OW36091   2.171   4.058  11.334  0.0010  0.1744 -0.4965
 8152SOL    HW136092   2.176   3.963  11.346  0.2108  0.3419  0.7523
 8152SOL    HW236093   2.144   4.084  11.423 -0.0437 -1.7172  0.0398
 8153SOL     OW36094   3.205   0.219  15.860  0.0442 -0.2496  0.0055
 8153SOL    HW136095   3.129   0.278  15.860  1.2367  1.2855  1.9223
 8153SOL    HW236096   3.211   0.188  15.770 -1.2628 -0.4160 -0.0277
 8154SOL     OW36097   2.266   0.018   0.106 -0.9115 -0.1742 -0.0840
 8154SOL    HW136098   2.308   0.099   0.135 -0.2409 -0.4173 -0.3757
 8154SOL    HW236099   2.253   0.027   0.012  0.3381  0.4823 -0.1851
 8155SOL     OW36100   0.236   4.362   0.344 -0.1103  0.3340  0.6864
 8155SOL    HW136101   0.284   4.360   0.261  0.6410  0.4693  1.1203
 8155SOL    HW236102   0.145   4.362   0.315  0.2884  0.0393 -0.5542
 8156SOL     OW36103   4.269   2.062   3.984  0.1589 -0.3795  0.1216
 8156SOL    HW136104   4.181   2.092   4.005  0.9083  1.4171  0.6521
 8156SOL    HW236105   4.324   2.128   4.026 -1.3787 -0.7292  2.6481
 8157SOL     OW36106   3.225   0.879  10.160  0.3767  0.0037 -0.3630
 8157SOL    HW136107   3.305   0.826  10.162 -0.9383 -1.9990 -0.2977
 8157SOL    HW236108   3.178   0.840  10.085 -0.5868 -1.2339  0.8836
 8158SOL     OW36109   1.059   1.055   5.057  0.8190 -0.7771 -0.1666
 8158SOL    HW136110   1.012   0.983   5.098  3.3849 -1.6593  1.1989
 8158SOL    HW236111   0.994   1.090   4.995  0.8099 -0.5099 -0.0055
 8159SOL     OW36112   2.492   0.547   7.828  0.4571 -0.8209  0.2977
 8159SOL    HW136113   2.494   0.640   7.853  1.9385 -0.4173 -1.3222
 8159SOL    HW236114   2.579   0.528   7.862  0.6893  0.0757  0.2068
 8160SOL     OW36115   3.175   3.063   4.919 -0.0879 -0.0554 -0.0773
 8160SOL    HW136116   3.223   3.078   4.837  1.5701  1.9345  1.2614
 8160SOL    HW236117   3.093   3.103   4.892  0.3687  0.6272 -0.4667
 8161SOL     OW36118   0.473   1.539   7.668  0.0579  0.1016 -0.0812
 8161SOL    HW136119   0.454   1.629   7.693  0.2453 -0.2592  1.3439
 8161SOL    HW236120   0.453   1.497   7.751 -0.2525  0.3000 -0.0590
 8162SOL     OW36121   3.285   0.277  10.623  0.0223 -0.3811  0.5781
 8162SOL    HW136122   3.346   0.271  10.696 -1.8266  1.4944  2.2694
 8162SOL    HW236123   3.265   0.369  10.635  1.2505  0.1341 -1.2915
 8163SOL     OW36124   3.321   2.876  17.645 -0.0294  0.0521  0.5040
 8163SOL    HW136125   3.298   2.935  17.717 -0.0156 -0.2516  0.7549
 8163SOL    HW236126   3.383   2.936  17.602 -0.1742  0.5742  1.0297
 8164SOL     OW36127   2.065   2.520   9.419 -0.1758 -0.2378  0.3625
 8164SOL    HW136128   2.060   2.575   9.497  1.6105  1.1743 -0.5158
 8164SOL    HW236129   2.105   2.580   9.356  0.8292  0.3662  1.5734
 8165SOL     OW36130   0.731   1.237   7.489  0.7686  0.2782 -0.1218
 8165SOL    HW136131   0.663   1.262   7.427  1.3609 -1.4171 -1.4407
 8165SOL    HW236132   0.670   1.234   7.564  1.7691  3.5241  0.8104
 8166SOL     OW36133   1.739   0.920  15.507  0.7061 -0.5270  0.4583
 8166SOL    HW136134   1.777   0.841  15.545  2.6196 -0.5808 -1.5589
 8166SOL    HW236135   1.806   0.985  15.527 -0.7956  1.6975 -1.6270
 8167SOL     OW36136   4.002   2.970  10.962  0.5270 -0.5259 -0.2552
 8167SOL    HW136137   4.028   3.062  10.966 -0.6427 -0.2069  0.1018
 8167SOL    HW236138   3.993   2.948  11.055  0.2421 -2.5837 -0.7647
 8168SOL     OW36139   4.071   2.592  16.420  0.3744  0.0394  0.2146
 8168SOL    HW136140   4.145   2.532  16.410 -0.6008 -1.4562  2.0267
 8168SOL    HW236141   4.026   2.596  16.336  1.3654 -0.8044 -0.3538
 8169SOL     OW36142   3.734   2.099  12.027  0.0490  0.1947  0.0540
 8169SOL    HW136143   3.703   2.057  11.946  0.0131  1.0184 -0.3649
 8169SOL    HW236144   3.731   2.022  12.084  0.7331  1.0727  1.2608
 8170SOL     OW36145   2.072   3.426  16.569  0.4784 -0.7617  0.9295
 8170SOL    HW136146   1.979   3.442  16.584 -0.1711 -4.1996  0.6744
 8170SOL    HW236147   2.077   3.466  16.483 -1.1248  0.0672  1.2261
 8171SOL     OW36148   0.936   0.065   6.143  0.1267  0.5416  0.1909
 8171SOL    HW136149   0.977   4.715   6.150  0.7212  0.9246  1.3665
 8171SOL    HW236150   0.983   0.122   6.204  0.3604 -0.2318  0.7347
 8172SOL     OW36151   4.196   0.430   2.376 -0.2140  0.1107  0.0020
 8172SOL    HW136152   4.141   0.382   2.439 -0.4503 -0.3859 -0.5875
 8172SOL    HW236153   4.279   0.383   2.389  0.6717  1.4849 -0.7025
 8173SOL     OW36154   3.716   1.354   2.702 -1.0376 -0.0547  0.2929
 8173SOL    HW136155   3.680   1.279   2.748 -1.8755 -0.4316 -0.9595
 8173SOL    HW236156   3.650   1.416   2.735  0.2122  1.0323  0.7390
 8174SOL     OW36157   2.489   2.749   7.484  0.4288  0.0105 -0.4319
 8174SOL    HW136158   2.465   2.837   7.514  0.7487 -0.3523  0.8785
 8174SOL    HW236159   2.472   2.746   7.390 -0.6882 -1.8100 -0.1799
 8175SOL     OW36160   4.026   1.689  17.716  0.3000 -0.7264 -0.1068
 8175SOL    HW136161   4.063   1.634  17.647  2.5643 -0.0132  0.5434
 8175SOL    HW236162   4.079   1.661   0.047 -1.0324  2.6166  2.0917
 8176SOL     OW36163   4.008   2.190   4.084 -0.7989  0.2272  0.4680
 8176SOL    HW136164   3.998   2.221   4.174  0.5835 -0.1615  0.7575
 8176SOL    HW236165   4.033   2.273   4.044  1.6741  0.1205  1.7527
 8177SOL     OW36166   4.295   1.943  14.433 -0.4113 -0.4160 -1.0407
 8177SOL    HW136167   4.313   1.866  14.379  2.1512  1.4346 -2.8725
 8177SOL    HW236168   4.380   1.987  14.429 -0.8518  0.6747  1.6580
 8178SOL     OW36169   1.983   3.587   3.889 -0.0246  0.6317 -0.2537
 8178SOL    HW136170   1.979   3.515   3.953 -1.0785  2.0953  1.3357
 8178SOL    HW236171   1.950   3.539   3.813 -1.9394  0.3876  0.7270
 8179SOL     OW36172   2.286   0.735  10.473  0.0739 -0.1591 -0.1256
 8179SOL    HW136173   2.302   0.728  10.567 -1.4492  1.5415  0.2669
 8179SOL    HW236174   2.207   0.789  10.472 -0.9312 -1.6003  1.4303
 8180SOL     OW36175   2.714   0.096   4.002  0.2951 -0.1108 -0.6271
 8180SOL    HW136176   2.800   0.131   3.978  0.2290 -0.1483 -0.9172
 8180SOL    HW236177   2.702   0.028   3.937  0.6510 -0.6435 -0.1381
 8181SOL     OW36178   0.497   0.401   0.408  0.1102  0.8334  0.1396
 8181SOL    HW136179   0.502   0.362   0.320  0.6888  1.3199 -0.0451
 8181SOL    HW236180   0.585   0.430   0.434  0.7312  0.8437 -1.9492
 8182SOL     OW36181   2.140   1.229   2.543  0.1601  0.7333  0.0387
 8182SOL    HW136182   2.168   1.143   2.514 -2.4305 -0.4180  0.9638
 8182SOL    HW236183   2.115   1.267   2.459 -3.5878 -1.4656  0.2011
 8183SOL     OW36184   2.629   3.691   8.449 -0.4333  0.2748  0.4999
 8183SOL    HW136185   2.708   3.699   8.397 -0.4930 -1.1454  0.1988
 8183SOL    HW236186   2.557   3.680   8.387  1.6059  1.7343 -2.1212
 8184SOL     OW36187   2.561   1.180   5.435 -0.3439 -0.1536  0.4511
 8184SOL    HW136188   2.566   1.191   5.530 -1.4669  1.1143  0.3714
 8184SOL    HW236189   2.520   1.264   5.412 -0.3370 -0.3772 -0.3944
 8185SOL     OW36190   3.153   1.459   3.712 -0.5207 -0.2699 -0.0500
 8185SOL    HW136191   3.125   1.461   3.620  0.8828  1.8965 -0.4296
 8185SOL    HW236192   3.071   1.462   3.761  0.1661  0.0763  1.0647
 8186SOL     OW36193   0.501   3.495  14.585 -0.0846 -0.7618  0.3099
 8186SOL    HW136194   0.406   3.506  14.581  0.0088 -0.1518 -0.2200
 8186SOL    HW236195   0.506   3.508  14.680  2.2141  0.8264 -0.0267
 8187SOL     OW36196   0.085   2.658   8.467 -0.6216  0.9206  0.2777
 8187SOL    HW136197   0.017   2.634   8.531 -0.8481  3.0589  0.8498
 8187SOL    HW236198   0.040   2.676   8.384  1.5737  3.7500 -0.3140
 8188SOL     OW36199   1.960   0.785   1.799  0.2547 -0.0148 -0.1478
 8188SOL    HW136200   1.869   0.755   1.792  0.1274  0.9082 -2.6194
 8188SOL    HW236201   2.018   0.709   1.797  0.9056  0.4266  2.0131
 8189SOL     OW36202   4.505   2.450   7.935 -0.3981 -0.8467 -0.0868
 8189SOL    HW136203   4.485   2.527   7.989  0.7474 -0.4887 -0.1659
 8189SOL    HW236204   4.463   2.384   7.991 -0.3327  1.8803  3.2108
 8190SOL     OW36205   2.215   1.263   1.449 -0.4018 -0.3651  0.2727
 8190SOL    HW136206   2.197   1.336   1.390 -3.2939 -0.5666  0.8666
 8190SOL    HW236207   2.199   1.178   1.407  0.3428 -1.3190  1.9331
 8191SOL     OW36208   0.272   2.266   3.893  0.1315 -0.0747 -0.6984
 8191SOL    HW136209   0.234   2.306   3.815 -2.7760  0.2966  0.9039
 8191SOL    HW236210   0.323   2.337   3.931 -0.3926  0.2788 -0.6470
 8192SOL     OW36211   0.883   3.679   8.048 -0.2695 -0.2466  0.6722
 8192SOL    HW136212   0.934   3.757   8.024 -0.5488 -0.1896  0.2763
 8192SOL    HW236213   0.907   3.623   7.974  2.4936  0.6636  0.8571
 8193SOL     OW36214   2.768   4.080   1.795  0.0314 -0.0843  0.6521
 8193SOL    HW136215   2.841   4.086   1.856  1.1893  1.7378 -0.9073
 8193SOL    HW236216   2.807   4.038   1.718 -0.4390 -0.7282  0.7685
 8194SOL     OW36217   2.221   0.174   6.958 -0.1030  0.3604  0.2555
 8194SOL    HW136218   2.155   0.244   6.965 -0.8422 -0.1896 -1.1883
 8194SOL    HW236219   2.286   0.223   6.908 -0.1579  1.5347  1.3166
 8195SOL     OW36220   2.021   0.151  12.571  0.0678  0.1060  0.2623
 8195SOL    HW136221   1.962   0.216  12.532 -0.4570 -0.0244  0.8407
 8195SOL    HW236222   2.105   0.167  12.529 -0.0505  1.8862  0.6978
 8196SOL     OW36223   2.211   0.682   0.438  0.1455  0.0034 -0.1822
 8196SOL    HW136224   2.170   0.665   0.353 -3.3696 -0.5711  1.6228
 8196SOL    HW236225   2.215   0.777   0.431  2.3896 -0.2069 -1.8825
 8197SOL     OW36226   3.359   1.773   6.302 -0.4344 -0.2977  0.0714
 8197SOL    HW136227   3.445   1.734   6.320 -0.3513  0.2869  0.9478
 8197SOL    HW236228   3.298   1.752   6.372 -0.8424  2.8627  0.6652
 8198SOL     OW36229   1.316   4.244   7.762 -0.2837 -0.3090  0.3441
 8198SOL    HW136230   1.246   4.181   7.745  0.0556 -0.8248  0.8685
 8198SOL    HW236231   1.312   4.294   7.680  0.2431  1.8077  1.6101
 8199SOL     OW36232   2.902   2.439   7.067  0.7174  0.3398 -0.3125
 8199SOL    HW136233   2.961   2.367   7.090 -0.2343 -0.9108 -1.7564
 8199SOL    HW236234   2.814   2.403   7.080  0.3375  0.8651 -1.4377
 8200SOL     OW36235   2.217   2.350   1.529 -0.0108  0.0125  0.0440
 8200SOL    HW136236   2.159   2.360   1.454  1.3810 -0.9065 -1.1553
 8200SOL    HW236237   2.166   2.302   1.594  0.2170  0.1903  0.3489
 8201SOL     OW36238   3.183   0.136   6.612  0.2276 -0.1123  0.4394
 8201SOL    HW136239   3.166   0.194   6.686  1.5623 -1.2576  1.6474
 8201SOL    HW236240   3.111   0.073   6.624  1.3395 -0.9493  2.6767
 8202SOL     OW36241   3.930   1.471   7.344 -0.0941 -0.8099  0.7616
 8202SOL    HW136242   3.890   1.552   7.377 -0.0765  0.1944 -1.7053
 8202SOL    HW236243   3.997   1.505   7.285 -1.1786  1.9532  1.1358
 8203SOL     OW36244   2.439   1.623   6.764  0.1046  0.4269  0.2004
 8203SOL    HW136245   2.519   1.668   6.788  0.4399  0.3335 -0.7492
 8203SOL    HW236246   2.374   1.667   6.818  1.5108  1.5280  0.9650
 8204SOL     OW36247   2.653   0.069   4.254  0.4322 -0.2806  0.3139
 8204SOL    HW136248   2.721   0.002   4.259 -0.1912 -1.0027 -0.9117
 8204SOL    HW236249   2.629   0.062   4.162  0.0272  0.5073  0.3602
 8205SOL     OW36250   1.107   4.204  13.375 -0.1059  0.0621  0.2698
 8205SOL    HW136251   1.145   4.137  13.433 -0.5656  0.6261  1.2243
 8205SOL    HW236252   1.080   4.276  13.432  2.2239  1.2490 -0.1277
 8206SOL     OW36253   1.694   0.489  11.859 -0.3048  0.2744  0.1097
 8206SOL    HW136254   1.743   0.565  11.891 -2.1862  0.4959  2.3988
 8206SOL    HW236255   1.654   0.455  11.939 -0.6611  0.3147 -0.0515
 8207SOL     OW36256   1.521   4.425   3.309 -0.2568 -0.1926 -0.0057
 8207SOL    HW136257   1.525   4.411   3.403 -0.1641  1.7768  0.2839
 8207SOL    HW236258   1.533   4.337   3.272 -1.3988 -1.4078  2.4873
 8208SOL     OW36259   1.947   2.998   9.181  0.2993  0.2128  0.1853
 8208SOL    HW136260   1.865   2.985   9.133  0.8154 -0.5918 -0.4810
 8208SOL    HW236261   1.913   3.053   9.251  2.1963  1.4903  0.0869
 8209SOL     OW36262   2.479   1.377  11.812  0.4389  0.1189  0.5261
 8209SOL    HW136263   2.507   1.436  11.882  1.7757  0.9568 -0.7061
 8209SOL    HW236264   2.552   1.315  11.803  0.9693  0.9003 -0.7204
 8210SOL     OW36265   2.886   2.728  17.356 -0.4832 -0.3109  0.5954
 8210SOL    HW136266   2.894   2.818  17.325 -3.9028  0.3496  1.6203
 8210SOL    HW236267   2.931   2.738  17.440  1.2232  1.2235 -0.5033
 8211SOL     OW36268   0.023   3.231   2.824 -0.5098 -0.2992 -0.4477
 8211SOL    HW136269   0.050   3.169   2.755  0.7062 -0.2225 -0.0343
 8211SOL    HW236270   4.675   3.189   2.836  0.2990 -1.5324  0.9277
 8212SOL     OW36271   0.252   2.854  14.600 -0.3953 -0.5551 -0.5600
 8212SOL    HW136272   0.280   2.885  14.514 -0.7752  0.3721 -0.3516
 8212SOL    HW236273   0.284   2.765  14.587  1.7029  0.2364 -0.7592
 8213SOL     OW36274   3.919   2.434  11.463 -0.9212  0.4882  0.3780
 8213SOL    HW136275   3.891   2.517  11.502 -1.6572 -0.8452  2.6867
 8213SOL    HW236276   3.946   2.376  11.534  1.8771  0.0441 -1.0776
 8214SOL     OW36277   0.357   1.779   8.087  0.6874  0.0811  0.1578
 8214SOL    HW136278   0.308   1.824   8.156  2.0147 -1.7301  2.2629
 8214SOL    HW236279   0.362   1.687   8.112 -1.3611  0.1382  0.7964
 8215SOL     OW36280   3.513   2.083  13.440 -0.2489 -0.4515 -0.1308
 8215SOL    HW136281   3.559   2.095  13.522  0.5069  0.0135 -0.6252
 8215SOL    HW236282   3.422   2.075  13.471  1.1033 -0.7566  3.6956
 8216SOL     OW36283   1.312   1.766   7.788 -0.4754 -0.7005 -1.0058
 8216SOL    HW136284   1.389   1.776   7.732  0.4393 -0.1840  0.3324
 8216SOL    HW236285   1.239   1.772   7.727 -1.5262  0.6382  0.3953
 8217SOL     OW36286   3.060   0.189  13.591  0.2023 -0.3130 -0.0675
 8217SOL    HW136287   3.141   0.219  13.633  0.1782  0.0835 -0.2994
 8217SOL    HW236288   3.107   0.147  13.519 -0.8058 -1.4495 -0.0555
 8218SOL     OW36289   2.987   3.279  15.039  0.0546  0.4196 -0.1095
 8218SOL    HW136290   2.951   3.303  15.125 -3.0175  0.5400 -1.4347
 8218SOL    HW236291   3.080   3.264  15.054 -0.1421 -0.1007  0.6322
 8219SOL     OW36292   1.839   2.782   5.165 -0.3788  0.7990  0.2956
 8219SOL    HW136293   1.771   2.848   5.150  0.4617  1.5717 -0.0854
 8219SOL    HW236294   1.863   2.771   5.073  1.1507 -1.0948  0.9205
 8220SOL     OW36295   1.945   1.720   5.617 -0.2043  0.1501  0.8342
 8220SOL    HW136296   1.966   1.767   5.697  0.2317  0.9217  0.2625
 8220SOL    HW236297   1.849   1.715   5.613 -0.2771  1.8792  0.4480
 8221SOL     OW36298   4.517   4.256   3.302 -0.5076 -0.5005 -0.5598
 8221SOL    HW136299   4.527   4.209   3.385  0.9118  1.7929  0.5638
 8221SOL    HW236300   4.431   4.295   3.312  0.0635  0.7382 -0.4176
 8222SOL     OW36301   3.044   2.249   0.695 -0.5114  0.0561 -0.3600
 8222SOL    HW136302   3.105   2.209   0.756 -1.5561 -0.0624  0.6176
 8222SOL    HW236303   2.964   2.206   0.726 -0.2723  1.1671  1.8025
 8223SOL     OW36304   1.445   2.255   8.540 -0.2938 -0.1970  0.2322
 8223SOL    HW136305   1.530   2.222   8.569 -0.7336 -0.4791  1.1693
 8223SOL    HW236306   1.477   2.263   8.450 -1.4825  1.5000 -0.0521
 8224SOL     OW36307   0.248   1.499   8.142 -0.0595 -0.3659 -0.2176
 8224SOL    HW136308   0.160   1.534   8.131  0.2332  0.6780  0.7662
 8224SOL    HW236309   0.234   1.427   8.203 -1.2350 -0.6904 -0.8628
 8225SOL     OW36310   4.349   2.575  17.025  0.8818 -0.3712 -0.2353
 8225SOL    HW136311   4.256   2.596  17.023  0.8849 -0.5523 -1.6703
 8225SOL    HW236312   4.348   2.505  17.091  0.5390  0.7693  0.9754
 8226SOL     OW36313   0.009   2.968   3.665 -0.5114  0.1506 -0.1867
 8226SOL    HW136314   0.097   3.002   3.648 -0.2761 -0.0330  0.6691
 8226SOL    HW236315   4.682   3.040   3.665 -0.1799  0.4490 -1.4846
 8227SOL     OW36316   2.846   3.106  11.833  0.6653  0.3511  0.6598
 8227SOL    HW136317   2.929   3.099  11.786  1.8973 -1.0224  2.9851
 8227SOL    HW236318   2.817   3.175  11.775 -1.5384 -1.1802 -0.0536
 8228SOL     OW36319   3.428   4.673   2.022  0.1142 -0.2746  0.4759
 8228SOL    HW136320   3.442   0.002   1.954  0.8154 -0.8669  0.0411
 8228SOL    HW236321   3.336   4.683   2.044  0.6623 -0.1596  2.7158
 8229SOL     OW36322   0.208   1.110   4.650 -0.3707 -0.1484  0.3773
 8229SOL    HW136323   0.297   1.122   4.618 -0.1570 -1.4032  0.5073
 8229SOL    HW236324   0.201   1.016   4.667  0.3036 -0.6565 -2.1563
 8230SOL     OW36325   2.976   3.675   0.409  0.3377  0.0397 -0.0101
 8230SOL    HW136326   2.955   3.765   0.384  2.1892  0.0422 -1.5331
 8230SOL    HW236327   2.978   3.664   0.504 -0.6735  0.5249  0.0642
 8231SOL     OW36328   2.614   0.105  15.204  0.2461 -0.1285 -0.7173
 8231SOL    HW136329   2.638   0.018  15.172 -0.6608 -0.5966 -0.1459
 8231SOL    HW236330   2.552   0.131  15.137 -0.4376 -0.6330 -0.2790
 8232SOL     OW36331   2.765   3.543   0.270  0.3831  0.5155  0.5496
 8232SOL    HW136332   2.711   3.476   0.311  0.5616  0.6647  1.0357
 8232SOL    HW236333   2.824   3.566   0.342  0.1998  2.1881  0.1589
 8233SOL     OW36334   2.820   0.298   1.249  0.0013  0.0962 -0.5455
 8233SOL    HW136335   2.750   0.232   1.259  0.5368 -0.4560 -0.4128
 8233SOL    HW236336   2.840   0.287   1.156  1.1096 -0.4133 -0.2424
 8234SOL     OW36337   1.277   4.055   3.280 -0.3391 -0.1993 -0.6704
 8234SOL    HW136338   1.277   3.988   3.348 -3.0426 -1.0200 -1.4923
 8234SOL    HW236339   1.368   4.056   3.249 -0.4251 -4.1518 -1.1507
 8235SOL     OW36340   1.065   0.096   7.395  0.0760 -0.1155  0.5860
 8235SOL    HW136341   1.050   0.141   7.478 -0.4664 -1.8450  1.4283
 8235SOL    HW236342   0.994   0.126   7.338 -1.3847 -4.0306  0.2752
 8236SOL     OW36343   0.850   2.682   6.406  0.1834 -0.5226 -0.4392
 8236SOL    HW136344   0.894   2.636   6.335  1.3434  0.4553 -0.3677
 8236SOL    HW236345   0.924   2.713   6.459 -1.4691 -1.5694  2.4776
 8237SOL     OW36346   2.602   1.826   4.116 -0.0588 -0.1390 -0.9837
 8237SOL    HW136347   2.606   1.789   4.028 -0.1534 -0.6684 -0.7671
 8237SOL    HW236348   2.509   1.814   4.132  0.0617  0.5064  0.1933
 8238SOL     OW36349   3.232   0.350   6.393  0.0958 -0.7077  0.3792
 8238SOL    HW136350   3.281   0.273   6.363  0.2123 -0.3209 -0.4129
 8238SOL    HW236351   3.284   0.420   6.353  1.3702 -0.8640  1.7641
 8239SOL     OW36352   2.479   2.460   0.470  0.4406  0.7272  0.1633
 8239SOL    HW136353   2.500   2.545   0.508 -0.8437  1.7831 -1.5205
 8239SOL    HW236354   2.388   2.442   0.494  0.1313  0.7953 -1.0084
 8240SOL     OW36355   0.944   1.663  10.291  0.0026  0.2287  0.2663
 8240SOL    HW136356   1.010   1.604  10.254  1.3964  0.8648  1.7277
 8240SOL    HW236357   0.964   1.645  10.383 -0.5513 -1.1203  0.1184
 8241SOL     OW36358   0.453   0.443  10.646 -0.6106 -0.4801 -0.1884
 8241SOL    HW136359   0.477   0.508  10.712  0.6798  0.5592 -1.6652
 8241SOL    HW236360   0.527   0.455  10.586 -0.0715 -2.3554  0.0864
 8242SOL     OW36361   2.386   0.080  15.399 -0.6701  0.3882 -0.4408
 8242SOL    HW136362   2.355   0.147  15.338  1.0590 -0.2177 -1.9769
 8242SOL    HW236363   2.481   0.089  15.404 -0.8550  2.2643 -0.3868
 8243SOL     OW36364   1.706   2.944   6.890 -0.2903 -0.2597  0.3723
 8243SOL    HW136365   1.699   3.039   6.891 -0.2253 -0.2481 -0.8163
 8243SOL    HW236366   1.791   2.927   6.848 -0.0532 -1.2264  1.2287
 8244SOL     OW36367   1.833   1.701  15.191  0.3758  0.3728  0.1182
 8244SOL    HW136368   1.787   1.739  15.116  0.4050 -1.0273 -0.6049
 8244SOL    HW236369   1.858   1.618  15.152 -0.3776  0.3957 -0.4224
 8245SOL     OW36370   3.531   1.221  12.202 -0.4128  0.1153 -0.5066
 8245SOL    HW136371   3.598   1.288  12.214 -0.3737 -0.2424  1.2938
 8245SOL    HW236372   3.461   1.253  12.260 -1.0123 -1.5234 -0.3239
 8246SOL     OW36373   2.034   4.580   5.608 -0.2397 -0.5427 -0.4514
 8246SOL    HW136374   2.057   4.525   5.533 -1.1013  0.5722 -1.5360
 8246SOL    HW236375   1.982   4.643   5.557 -0.3360 -0.0295  0.2940
 8247SOL     OW36376   3.514   2.304   5.452  0.2552 -0.1620  0.4103
 8247SOL    HW136377   3.562   2.366   5.396  1.2170 -2.3773 -1.1975
 8247SOL    HW236378   3.427   2.320   5.416  1.1038 -1.7546 -2.3639
 8248SOL     OW36379   1.941   4.484   8.340  0.6745 -0.2279  0.2841
 8248SOL    HW136380   1.995   4.521   8.270  0.3884 -2.5719 -1.2048
 8248SOL    HW236381   1.858   4.454   8.304 -1.0718  2.4978  2.0523
 8249SOL     OW36382   2.234   2.579   1.935  0.3097 -0.2853  0.2407
 8249SOL    HW136383   2.313   2.631   1.945  1.2660 -1.6847  0.0344
 8249SOL    HW236384   2.185   2.607   2.012 -1.2441  1.5799 -1.4306
 8250SOL     OW36385   0.889   0.409   6.228  0.2778 -0.3404 -0.4217
 8250SOL    HW136386   0.875   0.350   6.154  1.7268 -1.6319  0.3287
 8250SOL    HW236387   0.979   0.383   6.250 -0.1368  0.6489  2.4282
 8251SOL     OW36388   3.724   2.238   7.700 -0.4178  0.0513 -0.4511
 8251SOL    HW136389   3.710   2.322   7.743  0.1662  0.3940 -0.9210
 8251SOL    HW236390   3.650   2.185   7.730  0.5242 -0.8297  0.3046
 8252SOL     OW36391   2.257   2.595   5.907  0.5455  0.0888 -0.1143
 8252SOL    HW136392   2.212   2.679   5.896 -1.7539 -1.3624 -1.8580
 8252SOL    HW236393   2.318   2.627   5.973  0.4083  0.6564 -0.2604
 8253SOL     OW36394   0.213   4.010  11.808 -0.2332 -0.1591  0.1523
 8253SOL    HW136395   0.255   4.004  11.722 -1.0395 -1.5372 -0.1409
 8253SOL    HW236396   0.280   3.989  11.873 -0.8357 -1.3072  0.4060
 8254SOL     OW36397   4.604   1.353   3.483 -0.0363 -0.0282 -0.1624
 8254SOL    HW136398   4.509   1.345   3.474  0.0014 -0.7265  0.0745
 8254SOL    HW236399   4.627   1.424   3.543  0.8442 -1.7680  1.5377
 8255SOL     OW36400   3.006   2.789   7.594  0.4710 -0.5096  0.1286
 8255SOL    HW136401   2.977   2.828   7.677 -1.0186  0.1674 -0.6986
 8255SOL    HW236402   2.943   2.833   7.537  0.1881 -1.7498 -0.5125
 8256SOL     OW36403   1.372   0.731  11.978 -0.1655 -0.2397 -0.1004
 8256SOL    HW136404   1.327   0.802  11.933 -0.8738  0.1095  1.1566
 8256SOL    HW236405   1.298   0.674  11.997 -0.8088  0.2070 -1.2921
 8257SOL     OW36406   3.421   0.573   5.091  0.3774 -0.0039  0.1338
 8257SOL    HW136407   3.362   0.612   5.026  1.8656  0.7442 -0.7593
 8257SOL    HW236408   3.478   0.649   5.098 -0.2661  0.4299  0.6653
 8258SOL     OW36409   1.987   1.298   3.115  0.1530 -0.3819 -0.1216
 8258SOL    HW136410   1.961   1.243   3.188 -2.6542  0.9057 -0.1283
 8258SOL    HW236411   1.905   1.292   3.066  1.2060  0.8049 -2.0504
 8259SOL     OW36412   3.978   0.767  15.468 -0.6683 -0.1783 -0.2279
 8259SOL    HW136413   4.062   0.812  15.464 -0.9532  0.3641 -0.1135
 8259SOL    HW236414   3.929   0.826  15.527  0.3509 -0.7970  1.2371
 8260SOL     OW36415   3.658   2.273   8.563  0.6364 -0.2435  0.3605
 8260SOL    HW136416   3.604   2.202   8.528 -0.7359  0.7828  0.4178
 8260SOL    HW236417   3.716   2.219   8.617  1.4724  0.7333  0.4318
 8261SOL     OW36418   0.277   2.475   3.703  0.3119 -0.3321  0.0173
 8261SOL    HW136419   0.218   2.514   3.639 -0.5731 -0.4559  0.7586
 8261SOL    HW236420   0.317   2.560   3.725 -2.3768  0.5670  1.3320
 8262SOL     OW36421   0.138   1.020   1.927  0.0095  0.1333 -0.3130
 8262SOL    HW136422   0.044   1.015   1.945 -0.3625 -1.5883 -2.7840
 8262SOL    HW236423   0.170   0.969   2.001 -2.0915  0.3174  0.7281
 8263SOL     OW36424   3.479   0.623   9.690 -0.1176  0.0765  0.1812
 8263SOL    HW136425   3.395   0.596   9.729 -0.8581 -0.0051 -1.4901
 8263SOL    HW236426   3.501   0.697   9.747 -0.2787  0.6892 -0.5572
 8264SOL     OW36427   3.026   3.898  11.188  0.2300 -0.8040 -0.0954
 8264SOL    HW136428   2.968   3.859  11.122  0.9599 -4.1441  1.1932
 8264SOL    HW236429   3.103   3.843  11.177  0.5945 -0.1661 -0.7228
 8265SOL     OW36430   3.448   2.714   5.470 -0.3832 -0.0243 -0.2420
 8265SOL    HW136431   3.393   2.692   5.546  1.2989  0.4590  1.1072
 8265SOL    HW236432   3.524   2.658   5.485 -0.5554  0.1678  1.3633
 8266SOL     OW36433   2.003   2.367   6.544  0.2880 -0.1467  0.2421
 8266SOL    HW136434   1.953   2.442   6.577  1.5235  1.1992 -0.9191
 8266SOL    HW236435   2.018   2.394   6.454 -0.2170  1.7553  0.7096
 8267SOL     OW36436   0.117   2.726   6.202 -0.0721 -0.5890 -0.0247
 8267SOL    HW136437   0.101   2.775   6.122  2.3665  0.2500 -0.0042
 8267SOL    HW236438   0.212   2.721   6.193 -0.0388  2.4404 -1.3306
 8268SOL     OW36439   3.787   3.083   7.371  0.0076  0.4056 -0.3762
 8268SOL    HW136440   3.786   3.114   7.281  0.6255  0.6576 -0.3034
 8268SOL    HW236441   3.699   3.046   7.377 -0.0647  0.5836 -0.3359
 8269SOL     OW36442   1.167   0.604   8.330 -0.5836 -0.2331  0.2312
 8269SOL    HW136443   1.186   0.657   8.252  0.0807 -2.1218 -0.8902
 8269SOL    HW236444   1.084   0.568   8.299 -2.5108  3.5320  0.9993
 8270SOL     OW36445   3.824   1.104   4.265  0.2766 -0.1693  0.6083
 8270SOL    HW136446   3.872   1.146   4.193 -1.1473  1.8280  0.8139
 8270SOL    HW236447   3.881   1.033   4.295 -0.5329 -1.1895 -0.2592
 8271SOL     OW36448   0.082   2.625  10.313 -0.7005 -0.1832  0.7159
 8271SOL    HW136449   0.030   2.704  10.298  2.2249  1.3069 -1.5634
 8271SOL    HW236450   0.055   2.606  10.403 -2.4178 -3.1128 -0.4377
 8272SOL     OW36451   0.652   1.292  10.392 -0.7167 -0.3268 -0.8509
 8272SOL    HW136452   0.703   1.289  10.473 -0.4814  0.5861 -0.9638
 8272SOL    HW236453   0.660   1.384  10.367 -0.9965  0.4474  1.8913
 8273SOL     OW36454   2.793   0.221   2.123 -0.2677 -0.2595  0.1158
 8273SOL    HW136455   2.861   0.191   2.062 -0.9362  0.3670 -0.9326
 8273SOL    HW236456   2.740   0.144   2.145  1.3235 -0.9666  1.4817
 8274SOL     OW36457   3.748   3.685   8.114 -0.1403 -0.3883  0.2535
 8274SOL    HW136458   3.696   3.766   8.112 -0.7555 -0.8227 -0.8181
 8274SOL    HW236459   3.798   3.683   8.032 -0.2965 -1.5127  0.1934
 8275SOL     OW36460   2.686   3.720  16.333 -1.0995  0.3746 -0.1783
 8275SOL    HW136461   2.744   3.659  16.378  0.0768  1.4207 -0.2760
 8275SOL    HW236462   2.729   3.722  16.248 -0.1267 -0.3220  0.2997
 8276SOL     OW36463   1.721   0.303  11.391 -0.0386  0.1801  0.0252
 8276SOL    HW136464   1.815   0.320  11.392  0.2291 -1.5676  3.7417
 8276SOL    HW236465   1.713   0.310  11.486  1.9196 -2.4144  0.3889
 8277SOL     OW36466   3.313   0.943   5.901 -0.1235  0.7125 -0.0892
 8277SOL    HW136467   3.308   1.031   5.866 -0.8304  0.4107 -0.7385
 8277SOL    HW236468   3.337   0.967   5.991 -2.6425  1.0199  0.5136
 8278SOL     OW36469   0.671   2.710  12.392  0.0899 -0.0754  0.0521
 8278SOL    HW136470   0.760   2.674  12.382  0.1075  0.2815 -1.1138
 8278SOL    HW236471   0.628   2.634  12.432  1.6255 -0.9929 -0.0294
 8279SOL     OW36472   4.496   2.776   2.046 -0.9616  0.1466 -0.3131
 8279SOL    HW136473   4.464   2.865   2.060  0.5568  1.2900 -4.3278
 8279SOL    HW236474   4.543   2.781   1.963 -1.2091  1.8914 -0.3526
 8280SOL     OW36475   0.117   2.858   4.651 -0.1406  0.5543 -0.4755
 8280SOL    HW136476   0.139   2.828   4.563 -0.8003  3.7416 -1.7134
 8280SOL    HW236477   0.202   2.884   4.685  0.8188  0.4714 -2.8078
 8281SOL     OW36478   0.884   3.502  17.645 -0.0782 -0.1909 -0.0689
 8281SOL    HW136479   0.814   3.450  17.603  1.2314 -1.0556 -1.1824
 8281SOL    HW236480   0.858   3.594  17.640 -1.3937 -0.5285  0.3319
 8282SOL     OW36481   2.648   1.524   7.965  0.3353 -0.1208 -0.8058
 8282SOL    HW136482   2.588   1.450   7.973  0.3706  0.0879  1.5931
 8282SOL    HW236483   2.732   1.478   7.959  1.1431  0.7398  3.4346
 8283SOL     OW36484   2.652   4.366   1.432 -0.2511 -0.3190  0.3273
 8283SOL    HW136485   2.631   4.341   1.522 -0.5983 -0.3690  0.2321
 8283SOL    HW236486   2.739   4.399   1.453  0.0737 -0.8279 -0.1955
 8284SOL     OW36487   3.488   0.540   3.040 -0.5507 -0.0036 -0.0028
 8284SOL    HW136488   3.465   0.450   3.065 -3.1553  0.2607 -1.3434
 8284SOL    HW236489   3.395   0.565   3.044 -0.8475 -1.3508  1.3116
 8285SOL     OW36490   2.202   4.301   3.754 -0.8494  0.4408 -0.6063
 8285SOL    HW136491   2.114   4.282   3.787 -0.3420 -0.0556  0.4605
 8285SOL    HW236492   2.228   4.209   3.750 -0.2415  0.6253 -0.9735
 8286SOL     OW36493   0.247   1.434   8.912  0.0488  0.2751  0.2523
 8286SOL    HW136494   0.193   1.363   8.879 -1.8299  2.2643 -0.9646
 8286SOL    HW236495   0.314   1.421   8.845  0.0123  0.3774  0.1950
 8287SOL     OW36496   0.448   1.143   1.618 -0.1973  0.1826 -0.2514
 8287SOL    HW136497   0.533   1.128   1.578 -0.0839 -2.1619  0.9233
 8287SOL    HW236498   0.432   1.053   1.646  0.8070 -0.0891 -0.5550
 8288SOL     OW36499   0.696   1.133  16.132  0.1529  0.0350 -0.2773
 8288SOL    HW136500   0.611   1.091  16.145  0.0619  0.9019  1.8272
 8288SOL    HW236501   0.677   1.186  16.054 -2.3050  1.2914  1.1797
 8289SOL     OW36502   1.196   3.042  10.660 -0.0824  0.1089 -0.0199
 8289SOL    HW136503   1.145   3.123  10.658 -0.0850  0.0377 -2.9324
 8289SOL    HW236504   1.131   2.975  10.638 -0.3716 -0.0396  1.3398
 8290SOL     OW36505   0.120   1.599  12.340 -0.2474  0.1467  0.8109
 8290SOL    HW136506   0.123   1.695  12.340  2.1956  0.0749  0.0099
 8290SOL    HW236507   0.038   1.592  12.389 -0.0643  0.1258  1.1092
 8291SOL     OW36508   4.039   4.042   4.811 -0.0983  0.2932  0.0572
 8291SOL    HW136509   4.003   4.130   4.810  4.1361  2.0562  0.0042
 8291SOL    HW236510   4.112   4.058   4.872 -0.1291  0.3988  0.0654
 8292SOL     OW36511   3.281   0.703   7.557  0.2000  0.1932  0.1323
 8292SOL    HW136512   3.374   0.723   7.571  0.7144 -1.5563 -0.8607
 8292SOL    HW236513   3.244   0.789   7.535 -1.9441 -1.0498 -1.0689
 8293SOL     OW36514   2.542   4.365   4.274  0.4508 -0.5139 -0.1311
 8293SOL    HW136515   2.525   4.440   4.216  0.9443  0.0643  0.4808
 8293SOL    HW236516   2.627   4.341   4.237  0.2949 -2.1338  0.5767
 8294SOL     OW36517   3.826   2.097   8.684  0.0228 -0.5454  0.1669
 8294SOL    HW136518   3.766   2.062   8.750 -1.7865  2.1865  0.0005
 8294SOL    HW236519   3.906   2.060   8.721 -0.4097  1.4993  3.2066
 8295SOL     OW36520   4.629   1.161   4.936 -0.2927 -0.7238 -0.3060
 8295SOL    HW136521   4.705   1.167   4.879  0.8156 -2.0117  1.0484
 8295SOL    HW236522   4.606   1.068   4.928 -3.2702 -0.1058  0.8535
 8296SOL     OW36523   0.424   2.154   5.538  0.4379  0.0686 -0.6077
 8296SOL    HW136524   0.493   2.124   5.597  0.8629  0.9447 -0.6580
 8296SOL    HW236525   0.353   2.095   5.564 -0.1878  0.9621 -0.2852
 8297SOL     OW36526   1.603   0.390   7.543  0.0708  0.2815 -0.6024
 8297SOL    HW136527   1.646   0.338   7.611 -0.1356  0.5911 -0.2307
 8297SOL    HW236528   1.582   0.470   7.591  0.4920  0.3547 -0.5429
 8298SOL     OW36529   3.427   4.258   5.591  0.3923  0.5770 -0.1504
 8298SOL    HW136530   3.390   4.190   5.648  1.3207 -0.4344 -0.7449
 8298SOL    HW236531   3.396   4.337   5.635 -1.5884 -1.0186  1.3175
 8299SOL     OW36532   4.600   3.765   1.673  0.0173  0.5243 -0.7142
 8299SOL    HW136533   4.605   3.789   1.766  1.3200  2.0495 -1.1821
 8299SOL    HW236534   4.685   3.725   1.653  0.8586  1.3761  1.1142
 8300SOL     OW36535   3.142   2.556   7.182  0.2360  0.7078  0.1195
 8300SOL    HW136536   3.051   2.545   7.155 -0.7393  2.3585  2.7826
 8300SOL    HW236537   3.172   2.616   7.114  0.2555  1.2602  0.6201
 8301SOL     OW36538   3.230   2.556   3.982 -0.2930 -0.1855  0.1058
 8301SOL    HW136539   3.176   2.564   3.904 -0.8827  2.4079  0.7686
 8301SOL    HW236540   3.283   2.480   3.957  2.5021  2.1051 -0.9528
 8302SOL     OW36541   0.983   0.328   5.499  0.3499 -0.0911 -0.0803
 8302SOL    HW136542   0.897   0.365   5.520  0.3729 -0.1897  0.1900
 8302SOL    HW236543   0.974   0.253   5.558  3.2047 -0.8818 -0.6699
 8303SOL     OW36544   3.278   2.501   2.691 -0.4531 -0.4670  0.5356
 8303SOL    HW136545   3.326   2.440   2.746 -2.5403 -1.6440  1.0507
 8303SOL    HW236546   3.190   2.483   2.725 -0.4625 -1.5740 -0.0792
 8304SOL     OW36547   0.951   0.952   0.615 -0.2398 -0.1238  0.4545
 8304SOL    HW136548   0.982   1.041   0.599  0.2877 -0.4417 -0.2930
 8304SOL    HW236549   0.867   0.949   0.569 -0.9556 -0.2454  1.7718
 8305SOL     OW36550   2.141   3.318   8.884  0.1472 -0.1759 -0.2694
 8305SOL    HW136551   2.205   3.382   8.916 -2.6709  2.4570  0.1386
 8305SOL    HW236552   2.109   3.360   8.804 -1.4879  0.8509  0.9134
 8306SOL     OW36553   1.746   4.481   4.028  0.3401 -0.5139 -0.4359
 8306SOL    HW136554   1.752   4.537   4.105 -0.2041 -1.6218  0.4162
 8306SOL    HW236555   1.663   4.435   4.044 -0.9822  2.0783  0.1260
 8307SOL     OW36556   3.438   2.010   2.308 -0.0659 -0.2927 -0.0137
 8307SOL    HW136557   3.525   2.045   2.289 -0.0448  0.1500  0.9025
 8307SOL    HW236558   3.397   2.072   2.369 -1.0587 -2.1881  1.2694
 8308SOL     OW36559   0.566   4.393   7.378  0.0114  0.2436  0.5093
 8308SOL    HW136560   0.618   4.412   7.456  1.9432 -3.5331  0.1451
 8308SOL    HW236561   0.641   4.349   7.337  0.8912 -0.4672  2.8449
 8309SOL     OW36562   3.475   0.666   9.428 -0.1831 -0.3356  0.2622
 8309SOL    HW136563   3.484   0.715   9.510 -1.8892  0.9845 -0.3471
 8309SOL    HW236564   3.508   0.584   9.465  2.6423  1.4201  1.6524
 8310SOL     OW36565   2.505   3.429   6.481  0.5051  0.1152  0.8445
 8310SOL    HW136566   2.459   3.507   6.449 -0.1545  0.0885  1.7284
 8310SOL    HW236567   2.493   3.438   6.576 -0.0416 -0.2956  0.8103
 8311SOL     OW36568   4.413   2.238   2.631  0.4877  0.1973  0.6454
 8311SOL    HW136569   4.340   2.229   2.692 -0.5756 -1.3822 -0.8390
 8311SOL    HW236570   4.371   2.185   2.563 -0.7949  1.1308  0.7122
 8312SOL     OW36571   1.167   0.884   2.435  0.2843  0.1258 -0.1890
 8312SOL    HW136572   1.127   0.916   2.516  1.0348  2.7511 -0.8706
 8312SOL    HW236573   1.243   0.938   2.414  1.1827 -1.8324 -1.9402
 8313SOL     OW36574   2.327   3.551   4.694 -0.4335  0.6848  0.1732
 8313SOL    HW136575   2.290   3.545   4.606 -0.7726 -1.7354  0.4697
 8313SOL    HW236576   2.403   3.607   4.683  2.2342 -3.5528 -2.9706
 8314SOL     OW36577   4.435   2.670  13.659 -0.5530  0.0875  0.4293
 8314SOL    HW136578   4.385   2.668  13.577 -2.0399  1.8093  1.2903
 8314SOL    HW236579   4.411   2.584  13.694 -0.5960  0.5346  1.4800
 8315SOL     OW36580   1.072   3.621  16.326  0.0150 -0.2136  0.6892
 8315SOL    HW136581   1.038   3.650  16.411 -1.2035 -0.7161  0.3845
 8315SOL    HW236582   1.157   3.590  16.356  0.8902  0.6095 -0.9585
 8316SOL     OW36583   1.223   3.981   7.988  0.1742 -0.1270 -0.0888
 8316SOL    HW136584   1.308   4.025   7.991 -0.3237  0.8589 -0.6190
 8316SOL    HW236585   1.248   3.890   8.003 -1.3114 -0.4963  0.1364
 8317SOL     OW36586   0.746   2.682   5.339  0.0935  0.4063 -0.1268
 8317SOL    HW136587   0.805   2.663   5.412 -1.9435 -2.7866  0.6781
 8317SOL    HW236588   0.699   2.600   5.327 -1.0688  1.4081 -2.3902
 8318SOL     OW36589   2.325   1.345   9.479 -0.5532  0.5335  0.6891
 8318SOL    HW136590   2.343   1.281   9.411 -2.5089  1.6569 -0.8980
 8318SOL    HW236591   2.323   1.428   9.432  0.7970  1.0715  1.5762
 8319SOL     OW36592   0.667   3.757   7.166  0.2231 -0.0085 -0.1642
 8319SOL    HW136593   0.757   3.745   7.136  0.2186  0.9837 -0.5742
 8319SOL    HW236594   0.635   3.667   7.158  0.8904 -0.1260 -1.5002
 8320SOL     OW36595   1.559   0.090   3.086 -0.2968  0.5029 -0.3044
 8320SOL    HW136596   1.501   0.031   3.133  0.2968 -0.9091 -1.3428
 8320SOL    HW236597   1.494   0.150   3.049  0.9740 -0.0507 -3.4160
 8321SOL     OW36598   3.572   2.308   6.450  0.1638 -0.4278 -0.0225
 8321SOL    HW136599   3.569   2.372   6.379  0.6012 -0.7561 -0.3328
 8321SOL    HW236600   3.662   2.277   6.447  0.7849  1.4829 -1.8448
 8322SOL     OW36601   0.943   3.405   1.739 -0.0850 -0.2971 -0.8241
 8322SOL    HW136602   0.979   3.327   1.781 -0.1242 -0.3407 -0.8714
 8322SOL    HW236603   0.967   3.474   1.800 -1.7413 -1.1983  0.8535
 8323SOL     OW36604   0.992   0.509   1.991  0.0532 -0.0648 -0.1846
 8323SOL    HW136605   0.963   0.583   1.937 -0.8819 -0.5311 -0.3277
 8323SOL    HW236606   1.087   0.517   1.986  0.0202 -1.7107 -3.4348
 8324SOL     OW36607   2.937   3.884   8.532  0.2281  0.5653  0.1600
 8324SOL    HW136608   2.906   3.804   8.489  0.5399 -1.0645  2.9294
 8324SOL    HW236609   2.964   3.935   8.456  1.2588 -0.0702  0.1092
 8325SOL     OW36610   2.958   0.882   6.491  0.0538 -0.2347  0.0869
 8325SOL    HW136611   2.992   0.793   6.493 -1.7057 -0.9109  0.2955
 8325SOL    HW236612   2.865   0.862   6.484 -0.7575  3.7773 -0.9058
 8326SOL     OW36613   0.258   2.716   4.008 -0.3828 -0.6867  0.5219
 8326SOL    HW136614   0.221   2.795   4.047 -2.0397 -1.7225  1.0428
 8326SOL    HW236615   0.175   2.678   3.981 -0.4173 -1.5059  1.7410
 8327SOL     OW36616   2.074   0.866   9.499 -0.1371 -0.1573 -0.3510
 8327SOL    HW136617   2.106   0.875   9.409 -0.4562  3.2145 -0.1455
 8327SOL    HW236618   2.141   0.921   9.541 -0.7329 -0.1236  0.5600
 8328SOL     OW36619   2.125   0.570   5.523  0.0007 -0.1010  0.0888
 8328SOL    HW136620   2.039   0.536   5.544 -0.5318  0.4920 -1.1205
 8328SOL    HW236621   2.104   0.662   5.538 -0.6115 -0.1473 -0.4838
 8329SOL     OW36622   3.931   2.999   2.706  0.4274 -0.6929 -0.3753
 8329SOL    HW136623   3.854   3.037   2.748  0.3006  2.2137 -3.2534
 8329SOL    HW236624   4.000   3.062   2.723 -0.7237  0.1545  1.1445
 8330SOL     OW36625   2.967   0.957   2.401  0.0876  0.0929 -0.2105
 8330SOL    HW136626   3.051   1.002   2.394  0.1960 -0.0418  0.2037
 8330SOL    HW236627   2.928   0.972   2.315  1.3608 -0.5883 -0.9056
 8331SOL     OW36628   2.199   3.522  15.836  0.8959 -0.4771  0.0078
 8331SOL    HW136629   2.166   3.433  15.847 -0.5858  0.0751  0.1112
 8331SOL    HW236630   2.210   3.531  15.742  0.4297 -1.3417 -0.1320
 8332SOL     OW36631   0.828   2.254   5.432 -0.7002 -0.3757 -0.3778
 8332SOL    HW136632   0.816   2.160   5.447 -1.3389 -0.1101  0.7275
 8332SOL    HW236633   0.752   2.276   5.378 -0.8428 -4.1926 -1.7084
 8333SOL     OW36634   1.556   4.397   1.702 -0.1434 -0.1976 -0.5836
 8333SOL    HW136635   1.547   4.443   1.618  1.6181  1.2784  0.0328
 8333SOL    HW236636   1.641   4.357   1.684  0.2930 -0.4328  1.9934
 8334SOL     OW36637   3.453   3.651   6.260  0.1845 -0.1205 -0.0726
 8334SOL    HW136638   3.372   3.694   6.232  0.0286 -0.1305  0.3707
 8334SOL    HW236639   3.512   3.649   6.184  1.0043  0.9264  0.5451
 8335SOL     OW36640   3.186   4.575  16.147 -0.0357  0.1839 -0.5036
 8335SOL    HW136641   3.182   4.484  16.117 -0.8578 -0.3993  1.3669
 8335SOL    HW236642   3.143   4.625  16.078  0.0720  1.4770  0.3623
 8336SOL     OW36643   3.709   2.072   1.078  0.1784  0.5419 -0.2018
 8336SOL    HW136644   3.684   2.140   1.016  0.7750  0.3947 -0.6056
 8336SOL    HW236645   3.795   2.106   1.104 -0.0963 -0.0827  1.5601
 8337SOL     OW36646   2.009   1.743   7.732 -0.3591 -0.2545  0.3947
 8337SOL    HW136647   2.047   1.692   7.804  1.2269  1.9233  1.1009
 8337SOL    HW236648   1.969   1.809   7.789 -0.4500  0.0747 -0.0446
 8338SOL     OW36649   4.359   0.674  14.718 -0.0917  0.1293 -0.3882
 8338SOL    HW136650   4.369   0.582  14.741 -4.5225 -0.5321 -1.0842
 8338SOL    HW236651   4.280   0.673  14.663 -0.5947 -1.4737  0.3682
 8339SOL     OW36652   1.769   4.353   1.548  0.1640  0.0928  0.4334
 8339SOL    HW136653   1.855   4.312   1.553  0.7854  1.1677 -1.1973
 8339SOL    HW236654   1.727   4.283   1.499 -0.3366  0.2222  0.6759
 8340SOL     OW36655   2.303   3.748   1.610  0.3022  0.2946 -0.0075
 8340SOL    HW136656   2.221   3.722   1.569  0.2026  0.2414  0.2311
 8340SOL    HW236657   2.339   3.801   1.538 -2.5915 -0.8800 -2.3054
 8341SOL     OW36658   1.675   0.176   2.287  0.2279  0.3704 -0.2772
 8341SOL    HW136659   1.706   0.216   2.206 -1.2670  1.2258 -0.4141
 8341SOL    HW236660   1.643   0.098   2.242  0.5924  0.1096 -0.0871
 8342SOL     OW36661   1.379   4.466   5.659  0.5452  0.6556  0.5018
 8342SOL    HW136662   1.327   4.519   5.720 -2.0709  1.3676 -2.3579
 8342SOL    HW236663   1.416   4.541   5.613  0.3232  0.3648 -0.1437
 8343SOL     OW36664   0.069   3.158  16.118 -0.1930  0.3154  0.1843
 8343SOL    HW136665   0.128   3.167  16.043  0.1470 -0.4329  0.3595
 8343SOL    HW236666   0.023   3.241  16.105 -2.3309 -0.8139  0.5466
 8344SOL     OW36667   2.741   1.666   5.239 -0.3440  0.1246 -0.1456
 8344SOL    HW136668   2.783   1.739   5.194  0.3635  0.3289  0.8537
 8344SOL    HW236669   2.698   1.636   5.159  2.3149 -0.3782 -1.3866
 8345SOL     OW36670   3.979   0.452   7.967  0.8757  0.2433  0.7717
 8345SOL    HW136671   3.910   0.386   7.963  0.4729  0.7369 -0.3467
 8345SOL    HW236672   4.028   0.434   7.886 -3.1204  0.0299 -1.5968
 8346SOL     OW36673   2.503   2.941   5.944 -0.1629 -0.0880  0.0738
 8346SOL    HW136674   2.517   3.006   5.875  2.5182  0.2656  0.9830
 8346SOL    HW236675   2.557   2.868   5.914 -0.8756 -0.5384 -0.1140
 8347SOL     OW36676   0.235   2.641  15.141 -0.7463 -0.2471 -0.7356
 8347SOL    HW136677   0.217   2.705  15.210  2.1461 -0.3767  0.1630
 8347SOL    HW236678   0.155   2.649  15.090 -2.7124 -0.7574  2.2541
 8348SOL     OW36679   3.185   4.239   5.291 -0.0539 -0.4903  0.9365
 8348SOL    HW136680   3.156   4.318   5.336 -0.6225 -0.4728  0.5378
 8348SOL    HW236681   3.108   4.220   5.237  1.0025  0.2048 -0.8354
 8349SOL     OW36682   0.308   0.121   2.087  0.1130 -0.1289  0.1370
 8349SOL    HW136683   0.222   0.093   2.056 -0.4551  0.3738  1.2595
 8349SOL    HW236684   0.293   0.159   2.173 -0.6827 -0.2082  0.0253
 8350SOL     OW36685   3.898   3.100   3.241 -0.4136 -0.2916 -0.4213
 8350SOL    HW136686   3.946   3.080   3.322  0.2564 -0.7156 -0.9182
 8350SOL    HW236687   3.909   3.024   3.184 -2.3220  0.1083 -1.3273
 8351SOL     OW36688   4.544   3.015   2.883  0.0719  1.1630  0.1600
 8351SOL    HW136689   4.521   2.924   2.861  0.4588  0.8924  0.8977
 8351SOL    HW236690   4.597   3.000   2.961 -0.8850  0.0249  0.5993
 8352SOL     OW36691   2.456   2.326  12.794 -0.4230 -0.1952  0.0448
 8352SOL    HW136692   2.480   2.405  12.841 -1.2346  0.3238 -0.4168
 8352SOL    HW236693   2.515   2.262  12.834  0.9182  0.9035 -0.2127
 8353SOL     OW36694   1.104   2.545   6.560  0.2508  0.0512  0.2505
 8353SOL    HW136695   1.049   2.623   6.554 -1.0095 -0.6955  2.2884
 8353SOL    HW236696   1.127   2.546   6.653 -2.7173 -3.7533  1.0332
 8354SOL     OW36697   0.930   3.768  11.756 -0.4319  0.5567 -0.2194
 8354SOL    HW136698   0.941   3.743  11.664  0.4801 -1.9973  0.5659
 8354SOL    HW236699   1.018   3.755  11.791 -0.4448  0.8457 -0.0776
 8355SOL     OW36700   4.696   1.281   7.952 -0.0300 -0.3399  0.7499
 8355SOL    HW136701   4.610   1.286   7.910  0.4953 -2.1141 -0.5234
 8355SOL    HW236702   4.688   1.350   8.018 -0.1751 -0.2869  0.6770
 8356SOL     OW36703   1.586   4.186   3.198  0.3369 -0.0768 -1.0194
 8356SOL    HW136704   1.581   4.173   3.103  0.4617 -0.6023 -0.9537
 8356SOL    HW236705   1.680   4.199   3.210 -0.0122  0.5491  1.0118
 8357SOL     OW36706   1.488   0.942   0.758  0.0183 -0.0388 -0.4435
 8357SOL    HW136707   1.493   0.856   0.719  0.5804 -0.2010 -0.0084
 8357SOL    HW236708   1.492   0.924   0.852  0.1979  1.6002 -0.1363
 8358SOL     OW36709   0.676   3.156   5.482 -0.1857  0.5328 -0.2218
 8358SOL    HW136710   0.607   3.092   5.495 -2.9080  3.7239  1.0814
 8358SOL    HW236711   0.731   3.116   5.415  0.9199 -0.4766  1.3025
 8359SOL     OW36712   1.471   3.670   1.898 -0.2887 -0.3638  0.3880
 8359SOL    HW136713   1.512   3.604   1.842 -0.1228  0.2311 -0.2010
 8359SOL    HW236714   1.432   3.615   1.965 -1.0469  0.7629  0.8724
 8360SOL     OW36715   2.567   0.408   4.482 -0.4482  0.5836  0.5231
 8360SOL    HW136716   2.603   0.329   4.523  1.2719 -0.6416 -3.3616
 8360SOL    HW236717   2.614   0.420   4.400 -0.3045 -0.4808  0.4482
 8361SOL     OW36718   3.108   4.391   3.110 -0.0463  0.0915 -0.2890
 8361SOL    HW136719   3.176   4.368   3.173  0.3386 -0.3143 -0.8514
 8361SOL    HW236720   3.100   4.302   3.076 -0.7293  0.2495 -0.5300
 8362SOL     OW36721   1.170   2.764   2.789 -0.0097 -0.1893 -0.0172
 8362SOL    HW136722   1.200   2.717   2.866 -0.0008 -2.9920 -1.7229
 8362SOL    HW236723   1.078   2.744   2.803  0.0542  0.5857  1.4914
 8363SOL     OW36724   2.822   3.859  10.416  0.1803 -0.1537 -0.2464
 8363SOL    HW136725   2.794   3.768  10.403 -0.1576 -0.0581 -0.2107
 8363SOL    HW236726   2.909   3.844  10.452 -0.1116 -1.2538  0.0095
 8364SOL     OW36727   0.390   2.731   3.778 -0.2733  0.3616  0.5379
 8364SOL    HW136728   0.378   2.703   3.869  1.4329 -0.0515  0.6490
 8364SOL    HW236729   0.429   2.817   3.795  1.9792 -0.4352 -0.5913
 8365SOL     OW36730   0.048   3.632   4.175  0.0483  0.4586 -0.2265
 8365SOL    HW136731   0.073   3.600   4.262  0.7313  0.0690 -0.5651
 8365SOL    HW236732   0.119   3.610   4.115 -0.5133  0.8383 -1.0307
 8366SOL     OW36733   2.385   3.612   5.731  0.1870 -0.4523  0.4661
 8366SOL    HW136734   2.476   3.639   5.745  0.8806 -1.2205 -2.5320
 8366SOL    HW236735   2.395   3.519   5.750 -0.4796 -0.7526 -0.7092
 8367SOL     OW36736   3.541   2.456   3.494  0.3602  0.2189  0.3579
 8367SOL    HW136737   3.625   2.415   3.473  0.8844  1.1515  0.6197
 8367SOL    HW236738   3.550   2.542   3.452 -3.0665  0.4220  0.0326
 8368SOL     OW36739   4.103   2.230   6.461 -0.1712  0.3586 -0.1882
 8368SOL    HW136740   4.108   2.229   6.556  4.6021 -0.7636 -0.4702
 8368SOL    HW236741   4.011   2.252   6.448  0.0313  0.8517 -0.8073
 8369SOL     OW36742   2.925   3.133   4.813 -0.9407  0.0823 -0.1368
 8369SOL    HW136743   2.894   3.217   4.848  0.8089  0.8966 -0.5425
 8369SOL    HW236744   2.935   3.146   4.719 -3.9793 -2.3086 -0.7751
 8370SOL     OW36745   0.154   4.153   5.489  0.1920  0.1737  0.3589
 8370SOL    HW136746   0.149   4.140   5.584  0.9483  0.3066  0.4162
 8370SOL    HW236747   0.076   4.103   5.465 -0.8434  2.0777 -0.2167
 8371SOL     OW36748   3.881   2.275   8.917 -0.2753  0.6776 -0.5136
 8371SOL    HW136749   3.791   2.304   8.903 -0.5789 -0.2159 -0.4046
 8371SOL    HW236750   3.851   2.195   8.960  0.6794  0.5732 -0.0385
 8372SOL     OW36751   4.441   0.046   3.735  0.2277 -0.2057  0.2281
 8372SOL    HW136752   4.401   0.131   3.720  0.2408 -0.4380 -1.0651
 8372SOL    HW236753   4.531   0.061   3.764  0.9222 -0.1726 -1.9230
 8373SOL     OW36754   3.299   1.192  15.931  0.0334  0.0373  0.5705
 8373SOL    HW136755   3.321   1.110  15.888 -1.7700 -0.4262  0.5700
 8373SOL    HW236756   3.232   1.238  15.881  0.1189  0.5500  0.9160
 8374SOL     OW36757   2.096   4.673  12.334 -0.7761  0.0241 -0.2787
 8374SOL    HW136758   2.009   4.709  12.353 -0.7270  0.2991 -0.5584
 8374SOL    HW236759   2.133   4.732  12.268 -1.7155  0.6415 -0.2535
 8375SOL     OW36760   2.655   4.654   7.003  0.3967 -0.1419 -0.3505
 8375SOL    HW136761   2.726   4.686   6.948  1.8345  0.0379  1.5725
 8375SOL    HW236762   2.698   4.652   7.089  0.2602  1.4949 -0.2480
 8376SOL     OW36763   1.106   1.918  12.862 -0.1928  0.1203  0.4274
 8376SOL    HW136764   1.185   1.913  12.916  0.2759  1.1541 -0.1596
 8376SOL    HW236765   1.135   1.879  12.780 -0.2057  0.7502  0.1231
 8377SOL     OW36766   4.016   1.922   3.249 -0.7586 -0.2867 -0.5994
 8377SOL    HW136767   3.982   1.841   3.287  0.1738 -0.5740 -0.3721
 8377SOL    HW236768   4.096   1.897   3.203 -1.4467  0.3405 -2.1352
 8378SOL     OW36769   3.246   4.551   0.840  0.3436  0.0231  0.1236
 8378SOL    HW136770   3.219   4.567   0.750  1.5050 -3.2313 -0.8146
 8378SOL    HW236771   3.326   4.604   0.847  0.0447  0.0367  3.2970
 8379SOL     OW36772   0.177   4.029   3.547  0.4730 -0.1451 -0.4834
 8379SOL    HW136773   0.154   4.000   3.458  0.2616  2.9995 -1.4470
 8379SOL    HW236774   0.243   3.964   3.571 -0.2823 -0.5399  0.5522
 8380SOL     OW36775   1.005   2.610   8.628 -0.1087 -0.7263 -0.4231
 8380SOL    HW136776   0.945   2.662   8.682  2.5065  2.7447 -0.8789
 8380SOL    HW236777   1.011   2.526   8.675  1.7391 -0.5182 -0.2947
 8381SOL     OW36778   1.262   4.081   7.050  0.6564  0.1444 -0.3095
 8381SOL    HW136779   1.263   4.174   7.074 -0.4443  0.7859 -2.7166
 8381SOL    HW236780   1.309   4.050   7.127 -1.8655  1.7117  1.8700
 8382SOL     OW36781   4.358   3.473   7.567 -0.2548 -0.6200 -0.4028
 8382SOL    HW136782   4.379   3.413   7.638 -1.7013 -0.1116  0.4742
 8382SOL    HW236783   4.395   3.557   7.595 -2.8704 -0.2998  2.1066
 8383SOL     OW36784   1.458   0.200   7.181  0.2978  0.7997 -0.4912
 8383SOL    HW136785   1.365   0.221   7.188  0.4600  1.5549 -0.6604
 8383SOL    HW236786   1.497   0.287   7.181  0.4318  0.7443  4.3327
 8384SOL     OW36787   4.033   3.558   9.002  0.2148  0.1200 -0.1626
 8384SOL    HW136788   3.943   3.568   8.970  0.2688  2.5603  0.4562
 8384SOL    HW236789   4.074   3.531   8.920 -2.2067 -2.6381 -0.4701
 8385SOL     OW36790   1.585   1.119   8.383  0.1278  0.0709  0.2032
 8385SOL    HW136791   1.606   1.198   8.433  0.2786 -0.4222  0.9234
 8385SOL    HW236792   1.491   1.114   8.403  0.1170  1.0937  0.3890
 8386SOL     OW36793   3.170   1.654  11.465  0.0589  0.0156 -0.3927
 8386SOL    HW136794   3.132   1.682  11.382  0.2689 -0.0835 -0.5232
 8386SOL    HW236795   3.205   1.738  11.495 -0.0193 -0.6429  1.5083
 8387SOL     OW36796   1.075   1.352  12.147  0.7163 -0.6854 -0.0245
 8387SOL    HW136797   1.118   1.386  12.225 -0.5853  1.5721 -0.2716
 8387SOL    HW236798   0.993   1.402  12.149 -0.7809 -3.2696  2.6875
 8388SOL     OW36799   2.119   4.736   6.794 -0.1915 -0.0183  0.5259
 8388SOL    HW136800   2.140   0.066   6.860 -1.2245  2.1624 -1.3590
 8388SOL    HW236801   2.038   4.698   6.829  0.7699 -0.7340  2.0044
 8389SOL     OW36802   0.618   4.698   2.300  0.3295 -0.1194  0.0250
 8389SOL    HW136803   0.580   0.046   2.322  0.3002 -0.0749 -0.1935
 8389SOL    HW236804   0.691   4.734   2.249 -1.0480  0.2748 -1.6769
 8390SOL     OW36805   1.524   0.048   4.577 -0.8006 -0.0034  0.3918
 8390SOL    HW136806   1.591   0.085   4.519 -0.3397 -1.0257  0.2714
 8390SOL    HW236807   1.580   0.008   4.643  0.9487  2.4265  0.3933
 8391SOL     OW36808   0.360   0.550   3.783 -0.0631 -0.3683 -0.0612
 8391SOL    HW136809   0.396   0.634   3.812  0.4903 -0.2140 -1.1772
 8391SOL    HW236810   0.277   0.554   3.830  0.9874  0.7566  1.6563
 8392SOL     OW36811   2.065   2.719   7.444 -0.0872  0.2340 -0.0475
 8392SOL    HW136812   2.095   2.780   7.512  0.5967 -0.2284  0.0641
 8392SOL    HW236813   2.082   2.643   7.499 -0.2448 -0.8496 -1.5193
 8393SOL     OW36814   2.114   2.175   1.733 -0.5225  0.0280 -0.6611
 8393SOL    HW136815   2.155   2.088   1.729  2.4318  1.3414  0.9390
 8393SOL    HW236816   2.022   2.162   1.712 -0.4685 -0.3242 -0.6770
 8394SOL     OW36817   2.515   3.875  12.328 -0.4585  0.5625  0.5863
 8394SOL    HW136818   2.582   3.855  12.394 -1.7128 -3.8699  0.5331
 8394SOL    HW236819   2.566   3.939  12.279  0.0359 -0.7519 -0.6046
 8395SOL     OW36820   2.987   0.293   5.875 -0.8298 -0.1943 -0.3879
 8395SOL    HW136821   2.925   0.221   5.859  0.0516 -2.1357  4.8619
 8395SOL    HW236822   3.040   0.307   5.796  0.5640 -1.3357  0.3490
 8396SOL     OW36823   1.427   0.134   2.089  0.1117 -0.7678 -0.1418
 8396SOL    HW136824   1.434   0.104   1.998 -2.1065 -2.3197  0.2115
 8396SOL    HW236825   1.473   0.062   2.131 -1.0904 -1.4409  0.0241
 8397SOL     OW36826   1.468   1.730   3.992  1.3012  0.4705 -0.3262
 8397SOL    HW136827   1.442   1.649   3.948  0.1360  1.0003 -0.6107
 8397SOL    HW236828   1.440   1.798   3.931 -1.8528 -0.4568  0.0582
 8398SOL     OW36829   1.814   3.847   3.789  0.1884  0.6263 -0.2936
 8398SOL    HW136830   1.813   3.764   3.837  3.1996  0.3318 -0.7523
 8398SOL    HW236831   1.727   3.842   3.748  0.5387 -0.1933 -0.9452
 8399SOL     OW36832   3.350   3.712  13.079  0.4815 -0.3381 -1.1963
 8399SOL    HW136833   3.294   3.692  13.004 -1.1894 -1.1552  0.2870
 8399SOL    HW236834   3.300   3.788  13.107  1.4466 -0.9759  2.2359
 8400SOL     OW36835   0.399   4.253   3.328  0.9019 -0.1404 -0.3279
 8400SOL    HW136836   0.473   4.312   3.315  0.5632  0.1738 -0.8269
 8400SOL    HW236837   0.359   4.297   3.403  0.8323 -1.3063  0.3300
 8401SOL     OW36838   2.815   1.042   5.399  0.6243 -0.0339 -0.3218
 8401SOL    HW136839   2.725   1.071   5.414  0.8220  0.2189  0.3618
 8401SOL    HW236840   2.812   0.950   5.425 -2.2588 -0.8522 -3.5184
 8402SOL     OW36841   2.663   1.931   7.756 -0.1477  0.4331 -0.4022
 8402SOL    HW136842   2.714   2.000   7.797 -1.3027  1.1873 -0.2250
 8402SOL    HW236843   2.640   1.973   7.673  0.6147 -0.7448 -1.2044
 8403SOL     OW36844   2.448   4.403   3.577 -0.3532 -0.1052 -0.0594
 8403SOL    HW136845   2.415   4.314   3.560  0.5376 -0.5655  0.6405
 8403SOL    HW236846   2.371   4.458   3.586 -1.0550 -1.0301 -0.3701
 8404SOL     OW36847   2.227   4.045   8.090  0.6239 -1.0178 -0.3128
 8404SOL    HW136848   2.220   4.010   8.001 -2.2232  0.8478 -0.8400
 8404SOL    HW236849   2.317   4.019   8.109  1.0464 -0.0089 -0.9253
 8405SOL     OW36850   1.423   3.880  12.017 -0.0427  0.1133  0.7258
 8405SOL    HW136851   1.424   3.907  11.926  0.8469  1.3314  1.1005
 8405SOL    HW236852   1.329   3.877  12.033 -0.4672  0.0042 -1.8058
 8406SOL     OW36853   4.233   2.750   6.096  0.0772  0.5088  0.1368
 8406SOL    HW136854   4.228   2.812   6.023  0.4280  1.8254  1.2268
 8406SOL    HW236855   4.254   2.665   6.057 -0.4048  1.2816 -1.8544
 8407SOL     OW36856   2.414   3.645   1.119 -0.5979  0.4173  0.3636
 8407SOL    HW136857   2.460   3.643   1.035 -0.2828 -0.7954  0.5505
 8407SOL    HW236858   2.427   3.735   1.147 -0.7240  1.3341 -2.5147
 8408SOL     OW36859   1.529   1.268   2.872 -0.0136 -0.4030 -0.7699
 8408SOL    HW136860   1.472   1.327   2.821  2.0411  1.5909 -0.7765
 8408SOL    HW236861   1.484   1.185   2.858 -1.4516  0.6213 -2.3353
 8409SOL     OW36862   0.012   0.876   7.877 -0.3076 -0.4577 -0.3027
 8409SOL    HW136863   0.057   0.828   7.807 -0.3235 -0.3730 -0.3716
 8409SOL    HW236864   4.735   0.962   7.837 -1.1019  0.5356  2.1023
 8410SOL     OW36865   2.300   4.708  16.705  0.0424 -0.1493 -0.5141
 8410SOL    HW136866   2.270   4.676  16.620  1.1885 -1.5022 -0.4008
 8410SOL    HW236867   2.249   0.051  16.724 -2.2176 -0.8893 -3.3738
 8411SOL     OW36868   3.795   3.763   4.995  0.2709 -0.1009 -0.0018
 8411SOL    HW136869   3.784   3.848   4.952 -0.1541 -0.1753 -0.0371
 8411SOL    HW236870   3.877   3.785   5.039  1.2008  0.3413 -1.9493
 8412SOL     OW36871   0.830   0.330   9.402 -0.8200  0.4988  0.5200
 8412SOL    HW136872   0.888   0.281   9.343  0.3989 -0.8969  2.8673
 8412SOL    HW236873   0.775   0.366   9.333 -1.2211 -2.5402 -0.7265
 8413SOL     OW36874   3.672   1.863   6.269 -0.3224  0.5869 -0.0646
 8413SOL    HW136875   3.633   1.780   6.298  2.4220 -1.1236 -1.2932
 8413SOL    HW236876   3.646   1.857   6.177 -1.8594  0.4790  0.3742
 8414SOL     OW36877   4.075   4.505   6.729  0.0529 -0.1969  0.3007
 8414SOL    HW136878   4.150   4.530   6.781  1.2457  0.8540 -1.9205
 8414SOL    HW236879   4.089   4.546   6.643 -0.1116  3.7811  2.1720
 8415SOL     OW36880   0.034   4.349   6.108  0.2723 -0.0873 -0.0757
 8415SOL    HW136881   0.043   4.422   6.169 -0.1533  0.2947 -0.4692
 8415SOL    HW236882   0.069   4.273   6.154  0.2567  0.7973  1.4162
 8416SOL     OW36883   1.931   0.158   1.762  0.2443 -0.4801  0.2188
 8416SOL    HW136884   1.892   0.095   1.702  1.7596 -1.4646  0.2563
 8416SOL    HW236885   1.939   0.103   1.840 -3.4887 -2.2962 -0.7215
 8417SOL     OW36886   0.047   1.315   5.306 -0.0432  0.3391 -0.1068
 8417SOL    HW136887   0.030   1.355   5.221  2.0623  1.8670  0.1721
 8417SOL    HW236888   0.023   1.386   5.366 -0.0945  0.5422 -0.3688
 8418SOL     OW36889   2.418   2.480   2.661  0.0433  0.0019 -0.5117
 8418SOL    HW136890   2.434   2.431   2.580 -0.2239  0.4341 -0.8207
 8418SOL    HW236891   2.345   2.537   2.637 -1.1593 -2.1098 -1.8889
 8419SOL     OW36892   1.614   0.241   9.760 -0.0945 -0.0820 -0.3288
 8419SOL    HW136893   1.596   0.286   9.678  2.1665  0.9142 -0.2687
 8419SOL    HW236894   1.680   0.297   9.801  1.2553 -0.6738 -1.6817
 8420SOL     OW36895   3.051   2.394   2.364 -0.2773 -0.2289 -0.2309
 8420SOL    HW136896   3.062   2.469   2.306 -0.3433 -0.8806 -1.0976
 8420SOL    HW236897   2.985   2.426   2.426 -0.4249 -1.1058  0.0636
 8421SOL     OW36898   4.246   3.448   4.626 -0.3838  0.5235 -0.0156
 8421SOL    HW136899   4.317   3.499   4.665  1.4158 -0.8190 -1.5791
 8421SOL    HW236900   4.188   3.511   4.583  0.6883  1.6340  0.1712
 8422SOL     OW36901   4.707   0.002  10.522  0.4537 -0.3838  0.3495
 8422SOL    HW136902   4.631   0.050  10.555  1.7140  1.9668 -0.0989
 8422SOL    HW236903   4.692   4.654  10.564 -3.2328  0.3480  0.4865
 8423SOL     OW36904   0.048   1.736   8.728  0.1039  0.2083  0.5092
 8423SOL    HW136905   0.100   1.751   8.807 -2.7338 -2.2230  2.8508
 8423SOL    HW236906   0.111   1.760   8.660  1.5333 -1.2705  1.2858
 8424SOL     OW36907   3.982   0.783  12.580  0.7573  0.1440  0.6249
 8424SOL    HW136908   3.973   0.692  12.609  1.2679 -0.4225 -1.0094
 8424SOL    HW236909   3.893   0.814  12.591  0.2587 -0.8918 -0.5041
 8425SOL     OW36910   3.693   4.110   5.567 -0.5253 -0.5547  0.2964
 8425SOL    HW136911   3.734   4.093   5.652 -0.0921 -0.2213  0.1547
 8425SOL    HW236912   3.616   4.161   5.592 -1.1132 -0.3861 -1.9014
 8426SOL     OW36913   0.247   0.252   9.343 -0.1430 -0.2829  0.0429
 8426SOL    HW136914   0.213   0.174   9.387 -1.1319 -0.7161 -1.5210
 8426SOL    HW236915   0.333   0.216   9.321 -0.1139  0.2413 -0.6743
 8427SOL     OW36916   2.647   3.848  13.172  0.1117  0.1999 -0.3692
 8427SOL    HW136917   2.672   3.772  13.226 -0.7019  0.5030  0.4494
 8427SOL    HW236918   2.556   3.853  13.202  0.9986 -0.3881  2.4960
 8428SOL     OW36919   4.221   3.133  14.125  0.0994 -0.2250  0.8432
 8428SOL    HW136920   4.263   3.173  14.201  0.1102  1.5142 -0.1044
 8428SOL    HW236921   4.131   3.138  14.156 -0.8199 -3.4638 -1.2039
 8429SOL     OW36922   4.644   3.035   4.737 -0.7866 -0.5283  0.2502
 8429SOL    HW136923   4.721   3.052   4.791  0.3434  0.0570 -1.5703
 8429SOL    HW236924   4.666   2.952   4.694  2.4622 -0.8348  2.4886
 8430SOL     OW36925   1.918   4.103   2.066  0.0765 -0.5896 -0.4653
 8430SOL    HW136926   1.955   4.051   1.995  0.2301  1.2753 -1.7490
 8430SOL    HW236927   1.962   4.069   2.143 -1.1736 -1.5910 -0.1979
 8431SOL     OW36928   2.126   4.565   2.505  0.1726 -0.2536  0.0321
 8431SOL    HW136929   2.047   4.544   2.554 -0.2092 -2.3521 -1.5103
 8431SOL    HW236930   2.165   4.479   2.492 -1.9939 -1.2390  0.0434
 8432SOL     OW36931   2.307   1.371  11.600  0.2052  0.2495  0.6774
 8432SOL    HW136932   2.272   1.457  11.627  1.9010  1.1632 -0.0665
 8432SOL    HW236933   2.376   1.351  11.663  0.6154  1.0013  0.4689
 8433SOL     OW36934   2.074   3.023  14.253 -0.0947 -0.6083 -0.4551
 8433SOL    HW136935   2.157   3.012  14.206 -0.3359 -2.1859 -0.5316
 8433SOL    HW236936   2.027   2.964  14.194  0.8592 -1.4454 -0.3822
 8434SOL     OW36937   3.462   4.118  13.702  0.3984 -0.3198 -0.1763
 8434SOL    HW136938   3.443   4.024  13.694 -2.0888 -0.0313  2.2835
 8434SOL    HW236939   3.492   4.115  13.793 -2.1397 -0.3599  0.6575
 8435SOL     OW36940   3.151   0.206   3.599  0.0150 -0.2804  0.4618
 8435SOL    HW136941   3.246   0.198   3.612 -0.4220 -0.4941  3.3293
 8435SOL    HW236942   3.113   0.142   3.659 -2.0029  2.1874  1.8026
 8436SOL     OW36943   1.152   3.275   7.663 -0.1563 -0.5369  0.0344
 8436SOL    HW136944   1.165   3.302   7.572 -2.2922  0.8555  0.1378
 8436SOL    HW236945   1.212   3.335   7.708 -2.2738  0.4633  1.5286
 8437SOL     OW36946   2.471   2.561   6.096 -0.1014 -0.1459  0.1580
 8437SOL    HW136947   2.475   2.514   6.179 -0.3959  2.0377  1.4001
 8437SOL    HW236948   2.531   2.512   6.039 -0.6291  0.4375 -0.9047
 8438SOL     OW36949   2.810   1.949   8.849  0.4160 -0.3497  0.0810
 8438SOL    HW136950   2.738   2.011   8.863  0.2362 -0.4257 -0.5227
 8438SOL    HW236951   2.812   1.944   8.753 -0.0962  0.2746  0.0377
 8439SOL     OW36952   0.142   2.313   6.347  0.2817  0.4591  0.0293
 8439SOL    HW136953   0.209   2.381   6.354  1.9115 -1.1079 -0.3662
 8439SOL    HW236954   0.127   2.303   6.441 -0.4435 -1.9985 -0.3370
 8440SOL     OW36955   1.220   3.408  15.498  0.5058 -0.2832  0.2894
 8440SOL    HW136956   1.150   3.354  15.535  0.9250 -1.4880 -0.6694
 8440SOL    HW236957   1.231   3.474  15.566 -2.0126 -2.6668  3.0485
 8441SOL     OW36958   0.351   2.518   6.346 -0.5416 -0.1607 -0.1471
 8441SOL    HW136959   0.368   2.485   6.258  0.5843 -1.0372  0.3995
 8441SOL    HW236960   0.436   2.561   6.359 -1.8945  2.0106  1.5606
 8442SOL     OW36961   0.221   3.005  11.422 -0.2143  0.4821  0.2199
 8442SOL    HW136962   0.215   2.985  11.515 -0.8310 -1.8059 -0.3160
 8442SOL    HW236963   0.244   2.918  11.388  1.9944  1.0046  0.3471
 8443SOL     OW36964   2.941   3.670   3.116  0.0855  0.6725 -0.1292
 8443SOL    HW136965   2.912   3.625   3.196  0.3555 -1.3973 -1.1804
 8443SOL    HW236966   3.007   3.610   3.082 -1.0056 -0.7632  0.2446
 8444SOL     OW36967   2.913   4.052   7.680 -0.0824 -0.5598 -0.4740
 8444SOL    HW136968   2.978   4.092   7.622  1.9755 -0.2627  2.0704
 8444SOL    HW236969   2.878   3.989   7.617  2.0357 -2.0276 -0.1755
 8445SOL     OW36970   1.774   2.570   9.515 -0.3340  0.2914  1.3037
 8445SOL    HW136971   1.713   2.623   9.464 -0.9252 -0.3540  1.3336
 8445SOL    HW236972   1.831   2.539   9.445  1.0513  0.7867  2.2177
 8446SOL     OW36973   4.432   0.002  12.703 -0.1392 -0.0544 -0.2357
 8446SOL    HW136974   4.505   4.678  12.691  1.0547  1.3066  0.2956
 8446SOL    HW236975   4.401   0.007  12.613 -2.9885  1.3131  0.7949
 8447SOL     OW36976   3.405   3.244   2.400 -0.2621  0.0914  0.4918
 8447SOL    HW136977   3.455   3.304   2.345 -0.3977  0.2480  0.5381
 8447SOL    HW236978   3.315   3.266   2.373 -0.3728 -0.9112  0.0498
 8448SOL     OW36979   0.666   2.502   7.467  0.2051 -0.1818  0.0478
 8448SOL    HW136980   0.702   2.516   7.555 -2.3889 -2.8390  1.5771
 8448SOL    HW236981   0.742   2.468   7.421  1.8004  1.7270  1.2667
 8449SOL     OW36982   4.161   2.230   2.228 -0.0922  0.8156  0.0746
 8449SOL    HW136983   4.124   2.169   2.294 -0.6582  0.2561 -0.7585
 8449SOL    HW236984   4.078   2.262   2.194  0.6999  0.8155 -1.8079
 8450SOL     OW36985   3.698   1.232   2.451  0.0452 -0.7073  0.2034
 8450SOL    HW136986   3.724   1.284   2.527  1.3012 -0.2203 -0.5345
 8450SOL    HW236987   3.774   1.175   2.442  0.8648  0.1184  1.9022
 8451SOL     OW36988   2.026   4.115   5.972  0.4992  0.1240  0.1837
 8451SOL    HW136989   2.059   4.142   5.886  1.2340 -0.8297  0.1679
 8451SOL    HW236990   1.966   4.049   5.938  2.0073 -1.3888  0.4630
 8452SOL     OW36991   0.069   3.708   2.552 -0.3174 -0.3543 -0.6899
 8452SOL    HW136992   0.128   3.774   2.589 -2.2720  0.5646  0.7799
 8452SOL    HW236993   0.098   3.630   2.599 -0.4555  0.1676  0.2640
 8453SOL     OW36994   1.241   0.735   1.862  0.0493  0.7646 -0.1317
 8453SOL    HW136995   1.183   0.797   1.907 -1.4343 -0.6350 -0.0969
 8453SOL    HW236996   1.244   0.673   1.935  0.4309  1.6878  0.6440
 8454SOL     OW36997   2.623   3.378   7.148  0.3157 -0.3448  0.0190
 8454SOL    HW136998   2.643   3.306   7.206 -0.3730 -2.4570 -2.3635
 8454SOL    HW236999   2.527   3.375   7.154  0.1964  1.6533 -0.5819
 8455SOL     OW37000   1.808   2.830   2.887 -0.1604 -0.6497 -0.1710
 8455SOL    HW137001   1.753   2.908   2.899 -0.2421 -0.8059  0.4854
 8455SOL    HW237002   1.835   2.840   2.796  0.9863  0.3446  0.2842
 8456SOL     OW37003   2.623   1.138   1.584 -0.1132 -0.3702 -0.4083
 8456SOL    HW137004   2.564   1.079   1.535  1.0711 -1.5892 -0.3814
 8456SOL    HW237005   2.679   1.069   1.619  0.4661  0.5565  0.4703
 8457SOL     OW37006   1.751   1.036   8.986 -0.3740  0.3912  0.0644
 8457SOL    HW137007   1.759   1.113   9.043 -0.3020 -0.0913  0.7045
 8457SOL    HW237008   1.837   0.995   8.990 -0.2124  0.6528 -0.6464
 8458SOL     OW37009   2.600   1.351   7.062 -0.4240  0.3529  0.6323
 8458SOL    HW137010   2.654   1.329   6.986  2.1546  0.1909  2.5346
 8458SOL    HW237011   2.595   1.266   7.105 -0.1896 -0.5132 -1.0425
 8459SOL     OW37012   1.756   3.432   3.333 -0.6165  0.6769 -0.5289
 8459SOL    HW137013   1.727   3.497   3.397 -0.4616 -0.2517  0.4814
 8459SOL    HW237014   1.689   3.364   3.336 -1.5455  1.5782 -0.5371
 8460SOL     OW37015   3.814   2.650  11.612 -0.0702  0.0696  0.0306
 8460SOL    HW137016   3.826   2.744  11.599 -1.3280  0.2223 -0.0693
 8460SOL    HW237017   3.848   2.635  11.700  1.3906  0.4300 -0.4705
 8461SOL     OW37018   3.235   2.345   3.727  0.3701 -0.0184  0.1331
 8461SOL    HW137019   3.252   2.355   3.633 -0.1470 -0.1134  0.0296
 8461SOL    HW237020   3.194   2.430   3.742  5.2946  2.4866 -0.6353
 8462SOL     OW37021   0.020   3.779  10.620 -0.6079 -0.3543  0.6069
 8462SOL    HW137022   0.061   3.770  10.706  0.9159 -0.9660 -0.1873
 8462SOL    HW237023   0.073   3.850  10.583  0.6334 -2.0735 -0.8963
 8463SOL     OW37024   0.535   3.600   8.419 -0.3075  0.0474  0.2025
 8463SOL    HW137025   0.460   3.645   8.458  1.6240  2.8115  0.7310
 8463SOL    HW237026   0.535   3.630   8.328  0.6370  3.5316  1.3391
 8464SOL     OW37027   4.160   3.465   8.059  1.2399  0.0403 -0.1378
 8464SOL    HW137028   4.194   3.554   8.049  0.8539  0.3026  0.8574
 8464SOL    HW237029   4.084   3.468   8.001  0.7664 -0.0689  0.4763
 8465SOL     OW37030   2.979   0.978  14.071 -0.0527 -0.3401 -0.0950
 8465SOL    HW137031   2.968   1.073  14.073 -0.8904 -0.3889 -1.6854
 8465SOL    HW237032   2.956   0.953  14.160  0.3941  3.2646  1.0154
 8466SOL     OW37033   3.865   3.446   3.882  0.4087  0.9791 -0.1255
 8466SOL    HW137034   3.778   3.475   3.910 -0.8381 -2.4944 -0.4005
 8466SOL    HW237035   3.923   3.505   3.930 -0.0916  0.5552  0.9994
 8467SOL     OW37036   2.573   0.039   8.925  0.4125  1.0703 -0.3805
 8467SOL    HW137037   2.494   4.727   8.901 -1.1102  3.5468 -0.3030
 8467SOL    HW237038   2.550   0.074   9.011 -1.8553 -0.7343 -0.2683
 8468SOL     OW37039   1.625   1.875   9.314 -0.2117  0.4575 -0.2323
 8468SOL    HW137040   1.692   1.830   9.365  0.0865 -1.3707 -2.2315
 8468SOL    HW237041   1.667   1.959   9.297 -3.0121  1.7737 -0.7715
 8469SOL     OW37042   1.272   1.749   1.936  0.4876  0.1415 -0.5491
 8469SOL    HW137043   1.341   1.753   1.870  0.7966  2.0059 -0.1146
 8469SOL    HW237044   1.324   1.767   2.014  0.0821 -0.1846 -0.1988
 8470SOL     OW37045   3.666   1.152   7.656  0.2551  0.7346 -0.1345
 8470SOL    HW137046   3.585   1.136   7.704  0.0719  0.9724 -0.3640
 8470SOL    HW237047   3.698   1.233   7.697 -1.3200  0.4879  1.5956
 8471SOL     OW37048   3.100   4.170   7.273 -0.0062  0.2224  0.0863
 8471SOL    HW137049   3.033   4.174   7.205  0.4401  1.1136 -0.2981
 8471SOL    HW237050   3.049   4.129   7.342  0.3607 -0.2175  0.0937
 8472SOL     OW37051   2.528   3.196   5.109 -0.5058 -0.4284 -0.2534
 8472SOL    HW137052   2.538   3.103   5.087  0.6502  0.0141 -1.5492
 8472SOL    HW237053   2.597   3.241   5.061 -1.1412  0.6482 -0.1575
 8473SOL     OW37054   2.076   1.194   7.479 -0.4860 -0.3930 -0.1024
 8473SOL    HW137055   1.983   1.202   7.457 -0.0187  0.6087 -1.7043
 8473SOL    HW237056   2.073   1.099   7.484  3.0785 -0.5572 -0.6380
 8474SOL     OW37057   0.650   0.038   7.389 -0.3794  0.6659 -0.0692
 8474SOL    HW137058   0.739   0.010   7.369 -0.6154 -0.1634  0.0422
 8474SOL    HW237059   0.625   0.073   7.303  0.8756 -0.4239 -0.8699
 8475SOL     OW37060   1.462   1.707   2.578 -0.2711 -0.3703 -0.2652
 8475SOL    HW137061   1.555   1.699   2.556  0.1851  0.1682  1.4945
 8475SOL    HW237062   1.451   1.793   2.537 -0.4404 -0.3927 -0.2651
 8476SOL     OW37063   0.026   4.592   6.703 -0.2239  0.2056 -0.6362
 8476SOL    HW137064   0.080   4.564   6.777 -1.0456  1.9497  0.6339
 8476SOL    HW237065   4.709   4.513   6.691 -0.7068  0.5679 -0.8649
 8477SOL     OW37066   0.207   0.366  10.451 -0.4342  0.2138  0.6501
 8477SOL    HW137067   0.190   0.283  10.405  2.9095 -0.9808  1.5600
 8477SOL    HW237068   0.118   0.400  10.445 -0.7793 -0.7249  0.4538
 8478SOL     OW37069   0.417   1.956   0.196 -0.2925 -0.2956  0.0867
 8478SOL    HW137070   0.334   1.909   0.202 -0.3686 -0.2408 -0.6440
 8478SOL    HW237071   0.476   1.884   0.176  0.3177 -0.0465  0.9560
 8479SOL     OW37072   0.225   2.924   5.237  0.3951 -0.2988  0.2865
 8479SOL    HW137073   0.231   2.931   5.332  0.1412 -1.3504  0.3749
 8479SOL    HW237074   0.272   2.842   5.224  0.6662  0.0565 -1.0122
 8480SOL     OW37075   0.168   0.811   4.687  0.1400 -0.1854  0.1830
 8480SOL    HW137076   0.085   0.802   4.639 -0.1197 -1.4641  0.8637
 8480SOL    HW237077   0.171   0.729   4.737  1.8744  0.2053  0.7131
 8481SOL     OW37078   1.720   2.171   2.609  0.3806 -0.3171 -0.0953
 8481SOL    HW137079   1.698   2.078   2.619  0.6066 -0.0839  2.6485
 8481SOL    HW237080   1.756   2.189   2.696  1.8899 -1.1730 -0.5389
 8482SOL     OW37081   3.609   1.928  10.263  0.1447  0.0838 -0.1653
 8482SOL    HW137082   3.610   1.833  10.254 -0.5879 -0.0236  1.0590
 8482SOL    HW237083   3.660   1.945  10.183 -0.0752 -1.9945 -0.7474
 8483SOL     OW37084   4.095   4.679   2.636  0.6988 -0.4650  0.2845
 8483SOL    HW137085   4.178   4.726   2.631  1.3119 -1.5713  0.0932
 8483SOL    HW237086   4.081   4.677   2.731  4.2466 -2.0542  0.7558
 8484SOL     OW37087   4.009   2.459  14.783 -0.1906  0.0105 -0.1080
 8484SOL    HW137088   3.971   2.487  14.700  1.2226 -0.1973 -0.8380
 8484SOL    HW237089   3.964   2.518  14.843 -0.1725 -1.7629  1.6726
 8485SOL     OW37090   0.284   0.536   7.198  0.0392  0.0334  0.0971
 8485SOL    HW137091   0.236   0.461   7.163  2.2123 -1.0591 -0.5571
 8485SOL    HW237092   0.309   0.506   7.285  0.8278 -3.2279 -1.2339
 8486SOL     OW37093   0.630   2.308   3.948  0.1306  0.3957 -0.7170
 8486SOL    HW137094   0.723   2.326   3.959 -0.1002  1.1191  0.0766
 8486SOL    HW237095   0.597   2.396   3.969  0.8235  0.6322 -0.6319
 8487SOL     OW37096   2.351   4.487   8.431 -0.3739  0.3467 -0.1061
 8487SOL    HW137097   2.284   4.481   8.362 -0.0427 -0.6997 -0.3365
 8487SOL    HW237098   2.406   4.550   8.383 -1.6516  2.2258  0.8987
 8488SOL     OW37099   1.995   4.357   0.779  0.3655  0.5407  1.2358
 8488SOL    HW137100   1.935   4.384   0.709 -1.7599 -2.1745  2.0207
 8488SOL    HW237101   2.005   4.265   0.756  0.9293  0.6422  1.0776
 8489SOL     OW37102   2.076   3.129   4.563 -0.2348 -0.3129 -0.4786
 8489SOL    HW137103   2.151   3.184   4.540 -1.1597  1.2388  0.2812
 8489SOL    HW237104   2.083   3.112   4.657  0.2589 -1.8540 -0.7783
 8490SOL     OW37105   0.138   3.754   5.786  0.2747 -0.6735 -0.3116
 8490SOL    HW137106   0.186   3.825   5.743  1.5544 -1.4560 -0.1976
 8490SOL    HW237107   0.092   3.792   5.860 -2.0318 -0.1003 -2.0429
 8491SOL     OW37108   4.290   0.643   8.018 -0.7055 -0.7816 -0.8585
 8491SOL    HW137109   4.314   0.559   7.979  1.5122 -1.0916  1.1197
 8491SOL    HW237110   4.314   0.711   7.955 -2.5808  1.9277  1.3574
 8492SOL     OW37111   1.957   2.607   6.646 -0.2229  0.0970  0.1258
 8492SOL    HW137112   1.910   2.667   6.587 -0.0654  0.5117  0.4175
 8492SOL    HW237113   2.041   2.648   6.667 -0.4097  0.1171  0.8683
 8493SOL     OW37114   1.244   2.487   8.249  0.8420 -0.0382  0.1206
 8493SOL    HW137115   1.191   2.567   8.244 -0.4766 -0.8355  1.2274
 8493SOL    HW237116   1.309   2.514   8.313  2.2974  0.0727 -1.4204
 8494SOL     OW37117   3.337   3.288   8.817  0.3810 -0.6624  0.1339
 8494SOL    HW137118   3.336   3.370   8.867 -0.2853 -0.7617  0.2779
 8494SOL    HW237119   3.245   3.262   8.812 -0.1878  1.5776 -1.1585
 8495SOL     OW37120   4.727   4.313   6.528 -0.3323  0.2391 -0.4673
 8495SOL    HW137121   4.683   4.259   6.593  0.1727 -0.5724 -0.8026
 8495SOL    HW237122   0.080   4.308   6.561 -0.3634 -0.9713 -0.5555
 8496SOL     OW37123   1.782   3.234   6.326 -0.4843  0.0636  0.0337
 8496SOL    HW137124   1.876   3.237   6.311 -0.9982 -1.6434 -3.5953
 8496SOL    HW237125   1.742   3.219   6.240 -1.4773 -0.1564  0.5251
 8497SOL     OW37126   0.903   0.668  16.361 -0.3290  0.3307 -0.1634
 8497SOL    HW137127   0.856   0.749  16.379 -0.3401  0.3872 -0.4352
 8497SOL    HW237128   0.918   0.681  16.267 -3.1158  0.1153 -0.6508
 8498SOL     OW37129   4.066   2.997  15.488  0.1533 -0.5658 -0.1893
 8498SOL    HW137130   3.999   3.029  15.427  0.1641 -0.1071  0.0366
 8498SOL    HW237131   4.038   2.905  15.485 -1.2404 -0.2069  1.5665
 8499SOL     OW37132   3.299   0.406   4.623  0.1554 -0.0602 -0.3413
 8499SOL    HW137133   3.371   0.376   4.679 -0.9795 -0.4947  0.8600
 8499SOL    HW237134   3.344   0.481   4.584  1.0281  0.1260  1.0350
 8500SOL     OW37135   2.030   0.084   9.051 -0.5729  0.3625 -0.1787
 8500SOL    HW137136   2.077   0.002   9.068 -0.0060  0.3614 -1.7087
 8500SOL    HW237137   1.957   0.043   9.004 -0.1627 -0.0634 -0.4450
 8501SOL     OW37138   1.607   0.014  15.823 -0.5523  0.1134 -0.1399
 8501SOL    HW137139   1.650   4.712  15.899 -1.0830 -1.3107 -0.5683
 8501SOL    HW237140   1.603   4.681  15.757 -0.9932 -0.8004  0.8615
 8502SOL     OW37141   3.920   3.911   3.708  0.1732 -0.3213  0.3504
 8502SOL    HW137142   3.923   3.819   3.680  0.0822 -0.2630  0.1536
 8502SOL    HW237143   4.001   3.955   3.685  0.8906 -1.7406  0.1806
 8503SOL     OW37144   2.640   3.069   0.434  0.0891 -0.0800  0.1230
 8503SOL    HW137145   2.678   3.071   0.346  0.5940 -0.8202  0.3194
 8503SOL    HW237146   2.693   2.997   0.470 -1.7701 -2.3944 -1.7995
 8504SOL     OW37147   1.255   4.104  13.932  0.1245  0.0954  0.5228
 8504SOL    HW137148   1.221   4.172  13.873  2.1563  1.4775  0.9726
 8504SOL    HW237149   1.178   4.057  13.964  0.5981 -0.3104  1.0499
 8505SOL     OW37150   0.595   3.382   9.095 -0.6881 -0.1307  0.1741
 8505SOL    HW137151   0.554   3.417   9.016 -0.0356 -0.4357 -0.3060
 8505SOL    HW237152   0.565   3.431   9.172 -0.2333  1.4484 -0.6698
 8506SOL     OW37153   1.930   1.119   3.315 -0.2109 -0.3427 -0.6112
 8506SOL    HW137154   2.007   1.096   3.368  1.0079 -1.7709 -2.9858
 8506SOL    HW237155   1.898   1.029   3.313 -0.4540 -0.2995  0.7901
 8507SOL     OW37156   0.820   2.192   2.701 -0.0540 -0.9347  0.3890
 8507SOL    HW137157   0.783   2.134   2.634  2.1086 -1.3974 -0.4242
 8507SOL    HW237158   0.749   2.194   2.765 -0.0530 -2.9105  0.4390
 8508SOL     OW37159   1.401   4.654   4.357  0.3023 -0.7359 -1.1588
 8508SOL    HW137160   1.422   4.697   4.440  0.9595 -1.4622 -0.9454
 8508SOL    HW237161   1.321   4.705   4.347  1.7854  1.2697 -2.8567
 8509SOL     OW37162   3.862   0.618   9.498 -0.4956  0.7313  0.0418
 8509SOL    HW137163   3.854   0.590   9.589 -1.7381  1.8759  0.2689
 8509SOL    HW237164   3.952   0.650   9.504 -0.3128  0.2182  0.0558
 8510SOL     OW37165   0.617   1.680   3.923  0.4716  0.6384 -0.1768
 8510SOL    HW137166   0.665   1.611   3.968 -1.8339 -0.8782 -0.0563
 8510SOL    HW237167   0.599   1.736   3.998 -0.4679 -1.4626  1.1625
 8511SOL     OW37168   2.541   3.040   2.410 -0.3708 -0.1887 -0.0929
 8511SOL    HW137169   2.623   3.055   2.457 -1.5025  0.8777  1.5021
 8511SOL    HW237170   2.489   3.117   2.433 -1.7840 -0.4591 -2.3855
 8512SOL     OW37171   4.136   3.273  14.334 -0.2222 -0.3902 -0.2253
 8512SOL    HW137172   4.209   3.335  14.330 -1.3357  0.8568 -1.4178
 8512SOL    HW237173   4.086   3.310  14.261  0.8723  1.1297 -0.1969
 8513SOL     OW37174   4.399   0.983   5.881 -1.2660 -0.0166  0.2218
 8513SOL    HW137175   4.450   0.932   5.818  0.0939  0.8648  0.6183
 8513SOL    HW237176   4.411   1.072   5.847  0.4361 -0.7444 -1.0913
 8514SOL     OW37177   3.023   0.643   5.667 -0.3680  0.3579 -0.0231
 8514SOL    HW137178   3.085   0.677   5.731  0.9945  0.3262 -1.3439
 8514SOL    HW237179   3.040   0.550   5.678  0.4856  0.5381  0.1352
 8515SOL     OW37180   0.123   2.550   5.267  0.4174 -0.6337 -0.0563
 8515SOL    HW137181   0.047   2.493   5.269 -0.1693  0.1305 -0.3883
 8515SOL    HW237182   0.093   2.621   5.324 -1.0078 -2.7965  1.8435
 8516SOL     OW37183   3.143   0.045   4.438 -0.0123 -0.5103 -0.3779
 8516SOL    HW137184   3.075   0.104   4.471 -1.0290 -1.2164 -1.2291
 8516SOL    HW237185   3.142   4.709   4.501  0.0349 -0.3838 -0.2323
 8517SOL     OW37186   0.750   4.004   3.058  0.0027 -0.0276  0.0779
 8517SOL    HW137187   0.659   4.017   3.033 -0.5876 -2.9922  0.6497
 8517SOL    HW237188   0.750   3.910   3.078  1.4046 -0.2597 -0.9661
 8518SOL     OW37189   2.756   3.714   6.039 -0.3648  0.1426  0.0189
 8518SOL    HW137190   2.684   3.750   6.092  0.3182  0.3325  0.8067
 8518SOL    HW237191   2.708   3.650   5.986  0.7517  0.5194 -1.4585
 8519SOL     OW37192   4.475   1.877  10.410 -0.4637 -0.1794 -0.3294
 8519SOL    HW137193   4.530   1.893  10.333 -0.9635 -0.1245 -0.6753
 8519SOL    HW237194   4.475   1.966  10.446 -2.0666 -0.7989  1.2106
 8520SOL     OW37195   1.803   2.893   3.527  0.5453  0.2019  0.1168
 8520SOL    HW137196   1.897   2.910   3.522  0.7177 -1.2171 -1.2242
 8520SOL    HW237197   1.798   2.798   3.517  0.3206  0.2250  0.0220
 8521SOL     OW37198   0.698   4.557  15.597 -0.2924  0.6974 -0.2847
 8521SOL    HW137199   0.721   4.570  15.504  0.3822 -1.5987 -0.4541
 8521SOL    HW237200   0.768   4.610  15.636  2.0137 -1.8588 -0.9311
 8522SOL     OW37201   2.546   3.058  14.716 -0.0653  0.4322  0.1767
 8522SOL    HW137202   2.595   3.018  14.644 -0.9086  1.1138 -0.7760
 8522SOL    HW237203   2.563   2.995  14.786  2.9372 -0.7920 -1.6634
 8523SOL     OW37204   1.983   4.035   3.654  0.2336  0.4788  0.1808
 8523SOL    HW137205   1.895   4.063   3.681  0.1151  1.4457 -1.2198
 8523SOL    HW237206   1.982   3.947   3.692  0.9037  0.6753  0.6515
 8524SOL     OW37207   0.116   1.976   4.184 -0.2198  0.5496 -0.0489
 8524SOL    HW137208   0.195   1.924   4.166 -0.4409 -0.0373  0.6792
 8524SOL    HW237209   0.145   2.002   4.271 -0.6099  0.1899  0.1882
 8525SOL     OW37210   1.812   3.185   3.169  0.1056 -0.4468  0.4086
 8525SOL    HW137211   1.803   3.146   3.257 -0.7801  2.8301  1.7765
 8525SOL    HW237212   1.809   3.279   3.188 -2.0162 -1.0937  3.3988
 8526SOL     OW37213   2.085   1.615   7.286 -0.0840 -0.2684 -0.0647
 8526SOL    HW137214   2.136   1.541   7.318  0.0711 -1.2525 -2.5565
 8526SOL    HW237215   1.993   1.591   7.297  0.1495 -0.5798  1.1850
 8527SOL     OW37216   0.662   4.690   5.820  0.1429  0.0199 -0.1495
 8527SOL    HW137217   0.570   4.678   5.797  0.4371 -0.9423 -0.8206
 8527SOL    HW237218   0.699   4.616   5.771 -3.1489 -1.6680 -0.0589
 8528SOL     OW37219   4.471   0.466   5.753 -0.4098  0.2762  0.2909
 8528SOL    HW137220   4.460   0.372   5.741  0.6840  0.1674  0.1321
 8528SOL    HW237221   4.493   0.475   5.845  1.8197 -0.0197 -0.2022
 8529SOL     OW37222   1.773   0.883   7.317  0.3680 -0.0948 -0.4302
 8529SOL    HW137223   1.748   0.858   7.406  2.1978 -1.9583 -0.4363
 8529SOL    HW237224   1.747   0.806   7.267 -0.1171  0.6554 -1.3282
 8530SOL     OW37225   1.815   2.501   1.154 -0.1961 -0.1818  0.4062
 8530SOL    HW137226   1.831   2.583   1.108  0.1332 -0.4012  0.1336
 8530SOL    HW237227   1.885   2.491   1.218  1.3003 -1.0099 -1.3669
 8531SOL     OW37228   4.708   2.430  11.307 -0.0562 -0.0617 -0.4851
 8531SOL    HW137229   4.614   2.429  11.325  0.0545  0.3341  0.1096
 8531SOL    HW237230   4.727   2.524  11.306  0.4520 -0.1654 -0.6818
 8532SOL     OW37231   0.553   3.924   2.775 -0.4742  0.5357  0.5600
 8532SOL    HW137232   0.645   3.904   2.793 -0.3168 -2.0628 -2.8548
 8532SOL    HW237233   0.562   3.941   2.681 -0.9063  1.0353  0.6071
 8533SOL     OW37234   4.167   2.231   2.755 -0.5401  0.4219  0.5712
 8533SOL    HW137235   4.122   2.253   2.673  0.3860  2.0098  0.4866
 8533SOL    HW237236   4.098   2.188   2.806 -0.0232 -0.3576  0.6145
 8534SOL     OW37237   1.678   2.632   4.915 -0.3393 -0.2862  0.4107
 8534SOL    HW137238   1.754   2.684   4.887 -0.7968 -0.1116 -0.4911
 8534SOL    HW237239   1.607   2.693   4.934 -0.2436  0.4205 -1.4642
 8535SOL     OW37240   2.730   4.520   2.621 -0.3649 -0.2536  0.1810
 8535SOL    HW137241   2.685   4.597   2.656  0.6438  0.1014  0.6690
 8535SOL    HW237242   2.767   4.489   2.704  0.7614  0.8260  0.0813
 8536SOL     OW37243   3.805   0.238   7.994 -0.1831  0.3175 -0.0522
 8536SOL    HW137244   3.729   0.244   8.052 -0.6586  0.6591 -0.7107
 8536SOL    HW237245   3.750   0.223   7.917 -1.8083 -0.6594  1.2872
 8537SOL     OW37246   2.784   1.890   1.598  0.5505  0.4760 -0.0210
 8537SOL    HW137247   2.769   1.929   1.512 -0.2618 -0.4330 -0.2945
 8537SOL    HW237248   2.775   1.958   1.665 -1.6618 -1.2599  1.4491
 8538SOL     OW37249   3.842   0.975  17.314  0.5294 -0.3001 -0.1713
 8538SOL    HW137250   3.864   0.893  17.271  1.1478  0.9907 -2.3517
 8538SOL    HW237251   3.756   0.996  17.276  0.3919 -1.0257 -0.2618
 8539SOL     OW37252   2.727   3.732   2.381 -0.1190  0.4201 -0.2995
 8539SOL    HW137253   2.697   3.693   2.463  0.2732  0.0139 -0.3544
 8539SOL    HW237254   2.822   3.730   2.388 -0.2536 -0.3971  1.3200
 8540SOL     OW37255   2.824   1.965   2.040 -0.1263 -0.2554 -0.2056
 8540SOL    HW137256   2.803   2.053   2.072  1.3188  0.7673 -2.0646
 8540SOL    HW237257   2.887   1.991   1.972  0.9394  2.6807  1.9271
 8541SOL     OW37258   1.059   3.422  12.551  0.0803  0.0148  0.1398
 8541SOL    HW137259   1.045   3.421  12.645 -0.8295 -1.1787  0.0061
 8541SOL    HW237260   1.098   3.335  12.542 -1.5342 -0.5894 -1.0981
 8542SOL     OW37261   2.181   2.380   5.340  0.1418 -0.0754 -0.5508
 8542SOL    HW137262   2.153   2.293   5.368 -2.7232  1.1864  0.4285
 8542SOL    HW237263   2.119   2.427   5.395  0.2586 -1.5011  0.7871
 8543SOL     OW37264   3.029   2.130   2.300 -0.2895  0.2864 -0.1061
 8543SOL    HW137265   3.049   2.218   2.332  0.4905  0.4769 -1.1214
 8543SOL    HW237266   3.051   2.125   2.207 -0.5708 -2.0698 -0.0329
 8544SOL     OW37267   1.075   4.596   8.022  0.0245 -0.3573 -0.1537
 8544SOL    HW137268   1.104   4.677   8.065 -1.7728  0.8631 -1.2189
 8544SOL    HW237269   1.155   4.544   8.031  0.2978  0.3549  1.6093
 8545SOL     OW37270   2.587   3.438  17.187  0.2363  0.3152 -0.1004
 8545SOL    HW137271   2.520   3.484  17.136 -1.3288 -3.1274 -1.1625
 8545SOL    HW237272   2.641   3.408  17.114 -0.1609 -0.5897 -0.0193
 8546SOL     OW37273   0.786   4.080   4.862 -0.7506  0.0533 -0.3602
 8546SOL    HW137274   0.800   4.048   4.772 -1.0358  3.2853 -1.5600
 8546SOL    HW237275   0.785   4.173   4.840  0.1482 -0.2482 -1.6718
 8547SOL     OW37276   1.276   0.865  10.091  0.2934  0.2405  0.2217
 8547SOL    HW137277   1.320   0.847  10.008 -1.2325 -0.1709 -0.4830
 8547SOL    HW237278   1.258   0.958  10.077  0.2663  0.4415  1.5411
 8548SOL     OW37279   3.404   3.251   2.005 -0.1393  0.2882 -0.4885
 8548SOL    HW137280   3.409   3.313   2.078 -0.2547 -1.5740  1.0851
 8548SOL    HW237281   3.324   3.209   2.034 -0.9324 -0.7603 -4.1664
 8549SOL     OW37282   4.481   2.420   8.350 -0.4518 -0.4099  0.4150
 8549SOL    HW137283   4.397   2.409   8.306 -2.1461  2.6364  2.8588
 8549SOL    HW237284   4.484   2.515   8.365  2.6323 -0.5517  0.5723
 8550SOL     OW37285   2.383   0.790  10.206 -0.4789 -0.2973 -0.1468
 8550SOL    HW137286   2.337   0.782  10.289 -0.6683 -0.1757 -0.2393
 8550SOL    HW237287   2.458   0.841  10.235  1.5350 -2.8811 -0.8691
 8551SOL     OW37288   0.021   4.197  17.738  0.3215  0.2435  0.6108
 8551SOL    HW137289   0.013   4.259   0.067 -0.2407  2.7199 -1.5556
 8551SOL    HW237290   4.671   4.157  17.736  0.7912 -0.8486  1.8361
 8552SOL     OW37291   1.564   0.521   0.331 -0.0255  0.1153  0.0482
 8552SOL    HW137292   1.625   0.572   0.278  0.4617  1.6103  2.0375
 8552SOL    HW237293   1.584   0.434   0.296 -0.8626  0.7668 -2.0414
 8553SOL     OW37294   4.400   1.812   5.644  0.2158 -0.0879 -0.0928
 8553SOL    HW137295   4.472   1.753   5.663  0.9509  0.1922 -1.9414
 8553SOL    HW237296   4.322   1.770   5.680  0.1008  1.3304  1.3106
 8554SOL     OW37297   2.159   3.963  15.893  0.5095 -0.4740 -0.3188
 8554SOL    HW137298   2.164   3.997  15.804 -0.3364 -0.7666 -0.4829
 8554SOL    HW237299   2.230   3.899  15.894  2.7629  2.0655  0.3046
 8555SOL     OW37300   1.838   1.877   7.021 -0.0439  0.1546 -0.0371
 8555SOL    HW137301   1.886   1.794   7.031  1.1009  0.5929 -1.8244
 8555SOL    HW237302   1.843   1.884   6.926 -0.6401 -1.0760 -0.1593
 8556SOL     OW37303   4.015   1.096   7.374 -0.0209 -0.2324  0.0737
 8556SOL    HW137304   4.043   1.152   7.302  0.1249  1.0443  1.1064
 8556SOL    HW237305   3.934   1.145   7.392 -0.7731 -2.4305  2.7335
 8557SOL     OW37306   1.358   1.203   3.477 -0.3889 -0.8081 -0.6321
 8557SOL    HW137307   1.327   1.142   3.543 -1.7413 -1.2220 -1.6454
 8557SOL    HW237308   1.452   1.183   3.485  0.0197  1.1966 -0.4181
 8558SOL     OW37309   0.995   3.995   5.215 -0.3442  0.3265  0.7065
 8558SOL    HW137310   0.993   3.973   5.122 -0.3310  2.8872  0.1080
 8558SOL    HW237311   1.055   4.069   5.203 -2.3380  1.6935 -0.7529
 8559SOL     OW37312   2.376   3.716  13.184  0.6202 -0.4656 -0.3303
 8559SOL    HW137313   2.323   3.746  13.110  1.3780  0.8761 -0.3150
 8559SOL    HW237314   2.435   3.659  13.134  1.1221  0.3401 -0.6403
 8560SOL     OW37315   3.648   0.379   0.762 -0.1772 -0.0616  0.2277
 8560SOL    HW137316   3.642   0.364   0.856 -1.0775 -3.4795 -0.3909
 8560SOL    HW237317   3.563   0.347   0.731  1.0305 -0.9282 -2.2109
 8561SOL     OW37318   4.360   3.416  15.527 -0.3323  0.5858  0.2554
 8561SOL    HW137319   4.328   3.325  15.528 -0.6528  0.6982 -0.1133
 8561SOL    HW237320   4.439   3.407  15.473  0.5234  1.8997  1.2991
 8562SOL     OW37321   1.429   2.085   6.601 -0.8443 -0.1232  0.5380
 8562SOL    HW137322   1.355   2.056   6.548 -1.6857 -1.7012  2.5530
 8562SOL    HW237323   1.475   2.145   6.542 -0.6789  0.4472  1.2448
 8563SOL     OW37324   3.236   1.986  17.630  0.1965 -0.1724  0.1124
 8563SOL    HW137325   3.144   1.966  17.610  0.3136 -0.2521 -0.3538
 8563SOL    HW237326   3.248   1.921  17.699 -0.2154 -0.3810 -0.0136
 8564SOL     OW37327   2.980   0.434  12.080  0.0325 -0.0720 -0.0704
 8564SOL    HW137328   2.949   0.371  12.145 -1.4695 -1.0175 -1.7014
 8564SOL    HW237329   3.074   0.434  12.097  0.0790 -1.5857 -0.3116
 8565SOL     OW37330   1.863   0.505   2.194  0.2930  0.4883 -0.2323
 8565SOL    HW137331   1.956   0.486   2.196  0.3231  0.7256  0.3590
 8565SOL    HW237332   1.819   0.441   2.137 -0.2307 -0.7005  1.5244
 8566SOL     OW37333   2.406   4.098   5.053 -0.2486  0.0122  0.0973
 8566SOL    HW137334   2.453   4.077   4.973 -0.0732 -0.5741  0.3529
 8566SOL    HW237335   2.480   4.096   5.114 -0.1242 -0.2465 -0.0630
 8567SOL     OW37336   4.346   1.984   3.399 -0.4704  0.3594  0.9419
 8567SOL    HW137337   4.425   2.037   3.407  0.4863 -0.8583 -0.4123
 8567SOL    HW237338   4.367   1.894   3.426  0.6350 -0.1276 -1.5094
 8568SOL     OW37339   1.674   1.702  15.420  0.0762  0.1413 -0.0188
 8568SOL    HW137340   1.715   1.777  15.464  2.5405 -0.5930 -1.0568
 8568SOL    HW237341   1.712   1.714  15.333  0.2278  2.0182  0.3014
 8569SOL     OW37342   2.232   0.108   8.731  0.0248 -0.1870  0.3524
 8569SOL    HW137343   2.285   0.186   8.747  1.4726 -0.6623 -2.1531
 8569SOL    HW237344   2.197   0.124   8.644 -2.6114  0.8681  1.6175
 8570SOL     OW37345   2.119   4.231   2.718 -0.2211 -0.2643  0.4205
 8570SOL    HW137346   2.068   4.240   2.637  0.2448 -2.1681 -0.0954
 8570SOL    HW237347   2.103   4.139   2.741 -2.5341  0.2732  1.0064
 8571SOL     OW37348   4.249   0.398   4.186 -0.1549  0.3253  0.0291
 8571SOL    HW137349   4.154   0.403   4.195 -0.0734  0.9877  0.5232
 8571SOL    HW237350   4.271   0.308   4.209  1.5937  1.5146  2.9638
 8572SOL     OW37351   1.396   2.579  16.707  0.2119  0.5098  0.0416
 8572SOL    HW137352   1.421   2.558  16.797  0.7798 -1.9494 -0.7069
 8572SOL    HW237353   1.301   2.590  16.711  0.1090  0.1944 -1.9057
 8573SOL     OW37354   2.762   0.399   3.389 -0.0958 -0.0484  0.5677
 8573SOL    HW137355   2.668   0.411   3.377  0.2147  0.5528 -1.1843
 8573SOL    HW237356   2.784   0.492   3.392  4.2123 -1.0766  0.6233
 8574SOL     OW37357   3.259   0.309  11.664 -0.0797 -0.3162 -0.0245
 8574SOL    HW137358   3.182   0.255  11.648 -1.8301  2.2789 -0.4596
 8574SOL    HW237359   3.226   0.391  11.701  0.4139  1.3682 -3.2743
 8575SOL     OW37360   1.298   2.240   7.730  0.0428  0.4451  0.0267
 8575SOL    HW137361   1.204   2.220   7.724 -0.0249  0.9830 -0.8017
 8575SOL    HW237362   1.329   2.197   7.650  0.3977 -0.5063  0.6941
 8576SOL     OW37363   2.108   0.882  13.344 -0.0443  0.3635  0.1747
 8576SOL    HW137364   2.090   0.835  13.263 -0.6582  1.6149 -0.4204
 8576SOL    HW237365   2.199   0.855  13.352 -0.0463 -0.9573 -4.0979
 8577SOL     OW37366   2.095   0.735   4.724  0.2617  0.2788  0.6616
 8577SOL    HW137367   2.000   0.727   4.732  0.5415 -4.4860 -0.7687
 8577SOL    HW237368   2.113   0.798   4.794 -0.7522  0.0741  1.1054
 8578SOL     OW37369   3.534   3.917   8.676 -0.3903  0.6908 -0.2837
 8578SOL    HW137370   3.557   3.984   8.612 -1.3476  1.6976  0.4180
 8578SOL    HW237371   3.617   3.874   8.695  0.2868  1.8728 -0.5548
 8579SOL     OW37372   2.565   4.356   2.136  0.5762 -0.0249  0.0700
 8579SOL    HW137373   2.618   4.337   2.213  1.7079  0.1336 -0.6658
 8579SOL    HW237374   2.633   4.369   2.070  0.5653  3.3865  0.7242
 8580SOL     OW37375   1.736   3.171   3.566 -0.0383  0.3213  0.2717
 8580SOL    HW137376   1.702   3.162   3.655  2.4963  1.0127  1.3046
 8580SOL    HW237377   1.769   3.083   3.551  0.2682  1.0341 -3.2191
 8581SOL     OW37378   2.996   0.787  12.913  0.1040 -0.0603 -0.1179
 8581SOL    HW137379   3.005   0.839  12.833  1.2443  1.4223  0.9667
 8581SOL    HW237380   2.932   0.822  12.975  0.5361 -0.8943  0.7953
 8582SOL     OW37381   3.112   1.242   2.000 -0.2707  0.0213 -0.5395
 8582SOL    HW137382   3.176   1.211   2.064  0.7184 -1.7020 -2.3679
 8582SOL    HW237383   3.067   1.298   2.064 -0.1969  1.3616 -1.6683
 8583SOL     OW37384   2.155   1.979   2.065 -0.2059  0.5968  0.8648
 8583SOL    HW137385   2.077   1.971   2.120 -1.3132  1.6856 -0.5139
 8583SOL    HW237386   2.228   2.000   2.123  1.0340  0.4020 -0.6371
 8584SOL     OW37387   2.412   0.222   1.695  0.0509  0.0518  0.3248
 8584SOL    HW137388   2.339   0.283   1.702 -2.2085 -2.5131 -0.7277
 8584SOL    HW237389   2.364   0.139   1.690 -1.7804  1.0620  1.2619
 8585SOL     OW37390   2.472   3.727  14.810 -0.5571  0.3166  0.0899
 8585SOL    HW137391   2.560   3.687  14.809 -1.3566 -1.3564 -1.7878
 8585SOL    HW237392   2.479   3.820  14.788  1.2961  0.5946  1.8476
 8586SOL     OW37393   2.816   2.551   2.747  0.3551 -0.0798 -0.1693
 8586SOL    HW137394   2.845   2.639   2.772  1.0748 -0.5792  0.7419
 8586SOL    HW237395   2.806   2.561   2.652  0.5715 -1.2698 -0.3187
 8587SOL     OW37396   1.109   4.369  12.660 -0.3220  0.4915  0.0722
 8587SOL    HW137397   1.163   4.299  12.623  0.0522 -0.1235  1.7672
 8587SOL    HW237398   1.029   4.327  12.692  0.3632  0.5187  1.8440
 8588SOL     OW37399   2.689   2.031  10.323  0.2132  0.3714  0.1606
 8588SOL    HW137400   2.653   2.117  10.342 -0.7129 -0.2843  1.3218
 8588SOL    HW237401   2.782   2.034  10.346  0.3663  0.2126 -0.4259
 8589SOL     OW37402   4.225   3.985   5.504  0.1340  0.0848  0.6185
 8589SOL    HW137403   4.143   3.945   5.474 -0.4781 -0.1368  2.5890
 8589SOL    HW237404   4.180   4.058   5.547  0.7034 -0.4200  2.0618
 8590SOL     OW37405   0.817   3.443   2.055  0.4232  0.5156  0.5532
 8590SOL    HW137406   0.845   3.462   2.145 -0.0147  2.8528  0.2054
 8590SOL    HW237407   0.889   3.481   2.006  0.4458  0.5378  0.6039
 8591SOL     OW37408   1.317   4.108   5.305 -0.1957  0.0802  0.4312
 8591SOL    HW137409   1.344   4.019   5.285 -0.2007  0.0354  0.6207
 8591SOL    HW237410   1.268   4.098   5.387 -1.3024 -0.1763 -0.2543
 8592SOL     OW37411   3.095   3.480   0.203  0.9701 -0.2609  0.3285
 8592SOL    HW137412   3.051   3.533   0.269 -1.2435  0.7681 -1.9215
 8592SOL    HW237413   3.117   3.543   0.134 -0.8328  0.6349  0.5735
 8593SOL     OW37414   1.393   1.442   8.923 -0.2498 -0.7057 -0.1081
 8593SOL    HW137415   1.362   1.517   8.975 -0.0354 -0.2209 -0.6781
 8593SOL    HW237416   1.306   1.413   8.897 -0.9186  0.2596  1.0297
 8594SOL     OW37417   2.809   4.309  10.969 -0.0212  0.0761  0.1629
 8594SOL    HW137418   2.811   4.393  10.924 -2.4997 -0.6685 -1.3398
 8594SOL    HW237419   2.858   4.322  11.050  1.0859 -2.0861 -0.1467
 8595SOL     OW37420   3.868   1.760   3.427 -0.4427  0.2968 -0.6551
 8595SOL    HW137421   3.880   1.837   3.483 -1.4469 -2.4367  3.3119
 8595SOL    HW237422   3.940   1.701   3.450 -1.4987 -1.1827 -1.1193
 8596SOL     OW37423   2.874   3.912   0.285 -0.3509 -0.3169 -0.0270
 8596SOL    HW137424   2.819   3.989   0.300  1.5444  1.0960 -0.3539
 8596SOL    HW237425   2.813   3.855   0.239  0.7385 -3.2635  2.1702
 8597SOL     OW37426   3.559   3.301   0.475  0.0472 -0.1575  0.2242
 8597SOL    HW137427   3.645   3.326   0.440 -1.1710  0.0954 -2.5970
 8597SOL    HW237428   3.533   3.247   0.400  1.2380  0.2336 -0.4785
 8598SOL     OW37429   2.765   4.046  10.929  0.1835 -0.3307  0.0245
 8598SOL    HW137430   2.678   4.021  10.959 -0.4755  0.9441 -0.8182
 8598SOL    HW237431   2.771   4.133  10.968 -0.5995 -0.2217 -0.0972
 8599SOL     OW37432   1.991   1.106   4.619  0.4301 -0.3479  0.4625
 8599SOL    HW137433   1.972   1.164   4.693  0.5407  0.4661 -0.1486
 8599SOL    HW237434   2.059   1.154   4.572  0.1788 -0.4541 -0.0124
 8600SOL     OW37435   0.791   0.272  10.749 -0.0221 -0.4552  0.1890
 8600SOL    HW137436   0.776   0.298  10.658 -0.2818 -1.8087 -0.1563
 8600SOL    HW237437   0.727   0.323  10.800  2.2056 -0.7200  3.2108
 8601SOL     OW37438   0.413   0.079  17.065 -0.4500 -0.0841  0.5682
 8601SOL    HW137439   0.403   0.083  17.160  2.1624  1.9869  0.7638
 8601SOL    HW237440   0.402   0.172  17.042 -0.9744  0.1592  1.8012
 8602SOL     OW37441   1.249   1.459   5.460 -0.3253  0.1573  0.1352
 8602SOL    HW137442   1.180   1.504   5.508  0.0941  2.8906 -1.8810
 8602SOL    HW237443   1.301   1.430   5.535  1.7308  1.0910 -0.9431
 8603SOL     OW37444   4.261   4.465   7.221  0.3667 -0.1002 -0.2674
 8603SOL    HW137445   4.217   4.543   7.187 -0.7642 -0.6269  0.0042
 8603SOL    HW237446   4.352   4.495   7.216  0.2398  0.8089  3.3379
 8604SOL     OW37447   2.771   1.945   7.130  0.3386 -0.1886 -0.0967
 8604SOL    HW137448   2.718   1.867   7.143  0.6368 -0.2502  0.7623
 8604SOL    HW237449   2.757   2.000   7.207 -0.5943 -0.0591 -0.3645
 8605SOL     OW37450   4.201   3.660   6.842 -0.1845 -0.0952  0.1426
 8605SOL    HW137451   4.259   3.608   6.899  1.2417  0.9280 -0.3651
 8605SOL    HW237452   4.217   3.751   6.867 -1.3380 -0.1380  1.0036
 8606SOL     OW37453   1.194   3.680   7.893  0.1196  0.2530 -0.1132
 8606SOL    HW137454   1.274   3.697   7.943  0.4537 -0.1727 -0.5071
 8606SOL    HW237455   1.158   3.601   7.934  1.1333  0.3809  1.0292
 8607SOL     OW37456   3.303   3.458   0.387 -0.8840 -0.0985  0.0106
 8607SOL    HW137457   3.257   3.416   0.315 -1.4373  2.1441 -0.9409
 8607SOL    HW237458   3.390   3.419   0.389 -0.8422  0.0299  0.7507
 8608SOL     OW37459   0.189   2.292   3.283 -0.0943  0.6046  0.2458
 8608SOL    HW137460   0.265   2.344   3.257 -0.8432  0.5542 -2.0561
 8608SOL    HW237461   0.231   2.209   3.304 -0.1454  0.7227  0.8076
 8609SOL     OW37462   3.588   3.146   7.794 -0.5326  0.4530  0.5496
 8609SOL    HW137463   3.652   3.111   7.732 -1.2709  1.0680 -0.5516
 8609SOL    HW237464   3.581   3.070   7.852 -1.0587 -0.7150 -1.0809
 8610SOL     OW37465   3.757   0.209  11.321  0.1742 -0.6146 -0.2228
 8610SOL    HW137466   3.824   0.172  11.378 -0.4003 -2.3676 -0.6697
 8610SOL    HW237467   3.687   0.146  11.339  0.0617 -0.9152 -1.7653
 8611SOL     OW37468   1.953   3.453   4.496  0.6476 -0.3218 -0.1603
 8611SOL    HW137469   1.960   3.375   4.442 -0.7706  0.1580 -1.0327
 8611SOL    HW237470   1.885   3.508   4.456  1.4025 -0.8258 -2.1006
 8612SOL     OW37471   0.789   1.988   3.292  0.2826 -0.1599  0.3238
 8612SOL    HW137472   0.754   1.903   3.264  5.3874 -3.1299  3.0489
 8612SOL    HW237473   0.746   2.005   3.376 -0.8529  0.7167 -0.4332
 8613SOL     OW37474   3.397   2.848  11.558  0.3513 -0.5270 -0.2003
 8613SOL    HW137475   3.430   2.832  11.646  1.3872  0.3143 -0.4368
 8613SOL    HW237476   3.318   2.897  11.579  0.0311 -0.3598 -1.8185
 8614SOL     OW37477   3.340   1.796   9.658  0.4021  0.2715 -0.2206
 8614SOL    HW137478   3.268   1.740   9.689  1.1470 -1.7401 -2.0920
 8614SOL    HW237479   3.285   1.873   9.645  1.0369  0.8244  0.4031
 8615SOL     OW37480   3.797   1.707   5.157  0.0821  0.2841 -0.3615
 8615SOL    HW137481   3.756   1.768   5.095 -1.4783 -1.9830 -1.5493
 8615SOL    HW237482   3.722   1.688   5.213 -0.7952 -0.8538 -1.9359
 8616SOL     OW37483   3.365   0.456   2.605  0.4736  0.0378 -0.4654
 8616SOL    HW137484   3.286   0.491   2.647  1.8238 -0.0478  2.1163
 8616SOL    HW237485   3.342   0.470   2.513 -0.3347  1.1520 -0.0888
 8617SOL     OW37486   1.561   2.403  11.791  0.2058 -0.0998 -0.0947
 8617SOL    HW137487   1.542   2.425  11.700  2.0810 -1.4110 -0.8032
 8617SOL    HW237488   1.522   2.484  11.826  3.2088  1.2375  0.2050
 8618SOL     OW37489   0.354   2.571  14.883  0.1203 -0.0090 -0.3298
 8618SOL    HW137490   0.327   2.577  14.975 -0.4515  0.4290 -0.5272
 8618SOL    HW237491   0.274   2.533  14.845  0.5168  0.6427 -1.8004
 8619SOL     OW37492   2.669   4.668   3.289 -0.2029  0.1029 -0.5188
 8619SOL    HW137493   2.665   4.606   3.216  0.7192  0.1183 -0.5829
 8619SOL    HW237494   2.739   4.723   3.255 -0.0774 -0.3372 -0.9705
 8620SOL     OW37495   2.562   4.445  17.541  0.1346  0.1958 -0.5281
 8620SOL    HW137496   2.621   4.468  17.613  0.9582 -0.6985 -0.9255
 8620SOL    HW237497   2.611   4.431  17.461  1.0410  0.0098  0.0651
 8621SOL     OW37498   2.430   4.670   6.291  0.1346 -0.5308  0.4004
 8621SOL    HW137499   2.460   4.610   6.359 -0.5642 -0.0788  1.1087
 8621SOL    HW237500   2.470   0.013   6.325 -0.6366 -0.0004  0.0760
 8622SOL     OW37501   2.762   2.804   0.512  0.2534  0.4431  0.4383
 8622SOL    HW137502   2.693   2.741   0.491  0.0015  2.0203 -3.4526
 8622SOL    HW237503   2.818   2.734   0.547 -0.6092 -1.1796 -1.4347
 8623SOL     OW37504   1.170   3.754   8.632  0.5373  0.2695 -0.8169
 8623SOL    HW137505   1.193   3.674   8.586 -0.4885  0.4408 -1.6379
 8623SOL    HW237506   1.137   3.815   8.566 -0.5783 -3.1160 -3.4033
 8624SOL     OW37507   1.733   2.187   9.102 -0.0325 -0.9376  0.7533
 8624SOL    HW137508   1.748   2.150   9.189  2.5221 -0.1455  0.6321
 8624SOL    HW237509   1.748   2.115   9.041  1.0145 -0.3637  0.3447
 8625SOL     OW37510   2.834   0.570   4.303 -0.5202  0.3070 -0.4043
 8625SOL    HW137511   2.808   0.488   4.260 -1.7241  0.0346  0.8283
 8625SOL    HW237512   2.922   0.543   4.329 -0.5866 -0.1031 -0.5984
 8626SOL     OW37513   3.454   3.632   7.259  0.4200 -0.2380  0.2545
 8626SOL    HW137514   3.390   3.686   7.212  1.5440  2.8562  2.2190
 8626SOL    HW237515   3.402   3.555   7.283 -1.1924  1.0705  0.9929
 8627SOL     OW37516   2.341   3.342   7.153  0.2499 -0.8782 -0.2746
 8627SOL    HW137517   2.301   3.411   7.206  1.5115  1.2265 -2.0747
 8627SOL    HW237518   2.266   3.284   7.145 -1.5500  1.4323 -0.2891
 8628SOL     OW37519   4.692   0.117  17.457 -0.5475  0.3842 -0.0502
 8628SOL    HW137520   4.650   0.083  17.379  0.2389 -0.0725 -0.2703
 8628SOL    HW237521   4.619   0.100  17.517  0.2475 -1.4814  0.3683
 8629SOL     OW37522   4.594   2.468   5.300 -0.1405  0.3847 -0.4024
 8629SOL    HW137523   4.535   2.429   5.236  0.5009 -1.2465 -0.0061
 8629SOL    HW237524   4.528   2.529   5.331  0.4293 -0.4539  2.3959
 8630SOL     OW37525   0.107   0.368   7.720  0.4216 -0.0521 -0.3847
 8630SOL    HW137526   0.198   0.396   7.706  0.8369 -2.3500 -2.2158
 8630SOL    HW237527   0.121   0.274   7.724  0.4446 -0.0672 -0.8068
 8631SOL     OW37528   1.199   2.049   2.118 -0.0395 -0.0039 -0.0808
 8631SOL    HW137529   1.155   2.099   2.186 -1.1356  2.3825 -2.5783
 8631SOL    HW237530   1.255   2.112   2.074  1.8044 -1.4635  0.1495
 8632SOL     OW37531   1.777   4.140   1.161  0.1052 -0.3236 -0.3281
 8632SOL    HW137532   1.838   4.067   1.173  0.3700 -0.1088 -0.3839
 8632SOL    HW237533   1.720   4.114   1.088 -0.3470 -0.2076 -0.0098
 8633SOL     OW37534   4.431   4.273   2.980  0.2925  0.0478  0.1475
 8633SOL    HW137535   4.500   4.240   3.038 -0.1683 -1.2976 -0.0712
 8633SOL    HW237536   4.438   4.365   3.004 -0.2411 -0.2346  1.4097
 8634SOL     OW37537   1.646   0.980   9.972  0.2588 -0.0036  0.0044
 8634SOL    HW137538   1.587   0.990   9.897  1.5171 -0.8717 -1.0853
 8634SOL    HW237539   1.633   0.890  10.001  0.0918  0.1618  0.4423
 8635SOL     OW37540   1.916   0.688  16.959 -0.0187 -0.3929 -0.0024
 8635SOL    HW137541   1.996   0.637  16.946  1.1153  1.9695 -2.1893
 8635SOL    HW237542   1.921   0.743  16.881 -0.4359  0.9845  0.9315
 8636SOL     OW37543   4.665   3.249   2.413  0.2664  0.2656 -0.1513
 8636SOL    HW137544   4.723   3.311   2.456 -2.4845  2.7387  0.0458
 8636SOL    HW237545   4.582   3.250   2.462  0.7125 -2.1775  0.6743
 8637SOL     OW37546   3.272   3.478   6.044  0.1577  0.0884  0.0034
 8637SOL    HW137547   3.260   3.549   6.107 -1.6483 -0.0391 -0.1900
 8637SOL    HW237548   3.318   3.535   5.982  0.0840  0.7013  0.5049
 8638SOL     OW37549   3.504   1.581   4.982 -0.3762 -0.5073 -0.1067
 8638SOL    HW137550   3.508   1.486   4.981  0.6402 -0.4674 -0.4201
 8638SOL    HW237551   3.434   1.606   5.042  1.8864  0.4084  2.1737
 8639SOL     OW37552   1.337   4.389   4.220 -0.0713  0.0999 -0.5035
 8639SOL    HW137553   1.340   4.458   4.287  1.7513 -0.0591 -0.4280
 8639SOL    HW237554   1.247   4.393   4.187 -0.4661  1.2812  0.7093
 8640SOL     OW37555   2.513   1.435  12.560 -0.1802  0.1994 -0.2831
 8640SOL    HW137556   2.603   1.415  12.586 -0.4458  0.7310  1.0598
 8640SOL    HW237557   2.466   1.418  12.642  3.5081  0.5501  1.9077
 8641SOL     OW37558   3.188   1.114   9.526  0.1150  0.2588 -0.2168
 8641SOL    HW137559   3.175   1.052   9.454 -1.6331  0.4967 -0.1014
 8641SOL    HW237560   3.106   1.162   9.531 -1.1246 -1.7256 -1.1792
 8642SOL     OW37561   1.627   0.653  11.255  0.1244 -0.1780  0.4436
 8642SOL    HW137562   1.640   0.716  11.326 -0.1783  1.5963 -1.0636
 8642SOL    HW237563   1.532   0.649  11.246  0.1566  0.2787 -0.0876
 8643SOL     OW37564   0.426   2.428   2.701 -0.5587 -0.0296  0.0263
 8643SOL    HW137565   0.371   2.475   2.764 -1.4383 -2.1284  0.8122
 8643SOL    HW237566   0.386   2.450   2.617 -0.3144 -2.4048 -0.6978
 8644SOL     OW37567   3.734   0.855  12.606 -0.0591  0.3711 -0.7091
 8644SOL    HW137568   3.708   0.772  12.645  0.1895  0.0229 -1.2779
 8644SOL    HW237569   3.694   0.855  12.519  1.7104  0.2323 -1.5396
 8645SOL     OW37570   0.790   2.581   8.124  0.2354  0.2086  0.4439
 8645SOL    HW137571   0.841   2.560   8.203  0.4536  0.4225  0.3581
 8645SOL    HW237572   0.730   2.651   8.150 -1.0181 -0.6507 -0.0944
 8646SOL     OW37573   0.237   3.239   6.768  0.1969 -0.0160  0.0747
 8646SOL    HW137574   0.150   3.280   6.766 -0.7953 -2.1105 -0.1961
 8646SOL    HW237575   0.268   3.279   6.850 -2.5618 -0.9872  1.5949
 8647SOL     OW37576   1.041   0.458  13.600  0.3872  0.0069 -0.2881
 8647SOL    HW137577   0.982   0.508  13.656 -0.8741 -0.8258 -0.8848
 8647SOL    HW237578   1.114   0.439  13.659  2.0901  0.0451 -2.4004
 8648SOL     OW37579   3.222   0.996   8.013 -0.0300 -0.3388  0.0571
 8648SOL    HW137580   3.209   0.925   8.076  1.1952  0.2131  0.9345
 8648SOL    HW237581   3.278   0.952   7.949  2.2030  0.0821  1.7376
 8649SOL     OW37582   4.564   2.098   7.979 -0.0251  0.0814  0.3451
 8649SOL    HW137583   4.480   2.115   8.023 -1.0943  0.3116 -1.8122
 8649SOL    HW237584   4.538   2.072   7.891  3.0267  0.1193 -0.5715
 8650SOL     OW37585   2.619   3.192  16.787 -0.5651 -0.2931  0.0611
 8650SOL    HW137586   2.542   3.249  16.792  1.6131  2.3791  3.3318
 8650SOL    HW237587   2.658   3.220  16.704  2.3227 -0.4903  1.3707
 8651SOL     OW37588   2.231   1.377   2.951 -0.0018  0.7503  0.2468
 8651SOL    HW137589   2.156   1.341   3.000 -0.2749 -1.5155 -1.8276
 8651SOL    HW237590   2.181   1.414   2.878 -0.7508  0.6047  0.6814
 8652SOL     OW37591   2.037   2.081   8.494 -0.1118 -0.1243 -0.2160
 8652SOL    HW137592   2.021   2.015   8.562  0.7160 -1.8277 -1.7045
 8652SOL    HW237593   2.091   2.048   8.423  2.3439 -0.4394  1.8254
 8653SOL     OW37594   1.877   3.770   6.907  0.2595  0.0754  0.5469
 8653SOL    HW137595   1.931   3.828   6.959 -0.1458  0.5246  0.4720
 8653SOL    HW237596   1.818   3.734   6.973 -1.3427  1.4184 -0.1435
 8654SOL     OW37597   2.277   2.989   1.899 -0.8280  0.5523  0.0761
 8654SOL    HW137598   2.360   3.030   1.872  0.9562 -1.9142  1.7736
 8654SOL    HW237599   2.222   3.009   1.823 -1.9649 -1.5583  0.3605
 8655SOL     OW37600   4.212   2.887   3.449 -0.6293  0.3515 -0.3924
 8655SOL    HW137601   4.129   2.932   3.467 -0.9050  0.1084 -1.0611
 8655SOL    HW237602   4.243   2.940   3.376  1.7968 -0.6042 -0.0644
 8656SOL     OW37603   1.441   4.455  13.964  0.3385  0.6997 -0.3312
 8656SOL    HW137604   1.352   4.469  13.996  0.6930  2.1381  0.0530
 8656SOL    HW237605   1.461   4.368  13.998 -0.7701  0.6064  0.0725
 8657SOL     OW37606   1.691   3.549   2.255 -0.6598 -0.7615 -0.1904
 8657SOL    HW137607   1.715   3.467   2.300  0.8222 -0.2631 -0.0718
 8657SOL    HW237608   1.762   3.563   2.192 -1.1278 -0.4494 -0.6461
 8658SOL     OW37609   3.018   1.492   6.518  0.0139  0.4734  0.2946
 8658SOL    HW137610   3.082   1.449   6.574  0.1058 -2.4302 -2.0700
 8658SOL    HW237611   2.948   1.432   6.543  0.4429 -0.0558  0.2126
 8659SOL     OW37612   3.338   4.514  11.921  0.6023  0.1000 -0.2121
 8659SOL    HW137613   3.418   4.562  11.943 -0.1601  1.5530 -0.5730
 8659SOL    HW237614   3.320   4.561  11.840  0.3413  1.8097  0.8259
 8660SOL     OW37615   4.667   2.082  14.044 -0.1303 -0.0108  0.0147
 8660SOL    HW137616   4.721   2.058  13.969  0.7701  2.3318 -0.0926
 8660SOL    HW237617   4.627   1.998  14.069 -1.4938  1.0619  1.4447
 8661SOL     OW37618   3.454   2.870   3.829  0.0714 -0.2165  1.1414
 8661SOL    HW137619   3.468   2.803   3.896 -0.2156  1.8813  3.3137
 8661SOL    HW237620   3.540   2.881   3.790 -0.1460 -1.8352  0.1874
 8662SOL     OW37621   1.508   0.770  16.043 -0.1206  0.0843 -0.2168
 8662SOL    HW137622   1.575   0.833  16.016 -0.2253  0.8442  1.2912
 8662SOL    HW237623   1.554   0.719  16.110 -2.2279 -0.5799  0.7005
 8663SOL     OW37624   1.315   2.972  13.259 -0.0058  0.1173  0.0535
 8663SOL    HW137625   1.392   3.011  13.218  0.7748 -0.6964  0.7706
 8663SOL    HW237626   1.315   3.024  13.340  0.6416 -0.5185  0.4643
 8664SOL     OW37627   0.396   3.101   3.319  0.3457 -0.0630  0.5094
 8664SOL    HW137628   0.445   3.079   3.239  1.4564 -2.1964  1.7614
 8664SOL    HW237629   0.361   3.184   3.289  2.2782  0.2365 -0.9585
 8665SOL     OW37630   1.824   0.576   6.932  0.3112  0.1438  0.5692
 8665SOL    HW137631   1.817   0.601   6.839 -0.1560  0.6881  0.7513
 8665SOL    HW237632   1.767   0.499   6.926 -2.6961  2.2309  2.0691
 8666SOL     OW37633   1.493   4.436   9.650 -0.2944 -0.2368 -0.4097
 8666SOL    HW137634   1.462   4.345   9.644  0.3749 -0.4845 -0.1638
 8666SOL    HW237635   1.433   4.487   9.596 -2.3364 -1.3398  0.8209
 8667SOL     OW37636   0.359   2.708   6.107 -0.0924  0.1084  0.2024
 8667SOL    HW137637   0.451   2.682   6.096  0.2125  2.3214 -2.3808
 8667SOL    HW237638   0.357   2.774   6.038  0.7292  0.4957  0.5435
 8668SOL     OW37639   3.795   3.048   3.974  0.2915 -0.2682  0.3532
 8668SOL    HW137640   3.871   3.102   3.994 -1.3625  1.1973  2.7108
 8668SOL    HW237641   3.829   2.968   3.935  3.0300  1.0219  0.1221
 8669SOL     OW37642   2.892   1.515   3.767 -0.2171  0.3640 -0.3883
 8669SOL    HW137643   2.872   1.570   3.691  3.0559  1.2928 -0.5898
 8669SOL    HW237644   2.856   1.431   3.738  1.5983 -1.4708  2.6841
 8670SOL     OW37645   0.012   3.806  16.584 -0.8737 -0.2006  0.0384
 8670SOL    HW137646   0.029   3.770  16.498  0.1582 -1.6637  0.8522
 8670SOL    HW237647   4.705   3.732  16.626 -1.4909 -0.4451 -1.0497
 8671SOL     OW37648   3.348   0.147   7.109 -0.4117  0.3735 -0.3284
 8671SOL    HW137649   3.398   0.123   7.031  0.5951  0.1172  0.3967
 8671SOL    HW237650   3.341   0.239   7.082 -0.0253  0.8300  1.1392
 8672SOL     OW37651   3.770   2.077   3.256  0.2205 -0.4820  0.4165
 8672SOL    HW137652   3.850   2.027   3.242  0.8521  1.2814 -2.3788
 8672SOL    HW237653   3.707   2.008   3.236  0.6420 -0.7509  0.0309
 8673SOL     OW37654   0.778   1.636   7.263  0.2011 -0.0400  0.5880
 8673SOL    HW137655   0.849   1.591   7.309  1.6809  0.0161 -1.6454
 8673SOL    HW237656   0.711   1.602   7.322  1.2779 -1.2597  1.0942
 8674SOL     OW37657   1.867   2.043   6.769  0.2239 -0.0432 -0.2399
 8674SOL    HW137658   1.783   1.996   6.767  0.9760 -1.3535 -0.9726
 8674SOL    HW237659   1.830   2.115   6.718  2.0236 -0.0682 -1.5662
 8675SOL     OW37660   3.688   0.095   1.627  0.6359 -0.1874  0.0636
 8675SOL    HW137661   3.652   0.048   1.552  1.1515 -1.6730  0.7477
 8675SOL    HW237662   3.729   0.172   1.588  2.7025 -1.9799 -1.3481
 8676SOL     OW37663   4.160   3.348  10.667  0.1758 -0.1512 -0.6048
 8676SOL    HW137664   4.245   3.392  10.668  0.8352 -1.4082 -1.6420
 8676SOL    HW237665   4.152   3.342  10.572  0.8469  0.7751 -0.7215
 8677SOL     OW37666   2.131   1.486   5.107 -0.2187  0.5625  0.1178
 8677SOL    HW137667   2.171   1.558   5.155  3.1196 -0.6665 -0.8309
 8677SOL    HW237668   2.214   1.441   5.095 -0.8776  0.0826 -2.7354
 8678SOL     OW37669   2.890   2.399  12.203 -0.2472 -0.3102  0.3665
 8678SOL    HW137670   2.858   2.425  12.289 -1.1300 -1.0942  0.2810
 8678SOL    HW237671   2.949   2.471  12.181 -0.5848  0.4795  2.0678
 8679SOL     OW37672   1.810   0.829  15.795  0.0689  0.7619  0.0837
 8679SOL    HW137673   1.739   0.893  15.803 -1.0563 -0.6876  1.7389
 8679SOL    HW237674   1.767   0.743  15.796  1.4823  0.0565  0.1699
 8680SOL     OW37675   3.981   4.467   3.183  0.1613 -0.7281  0.2479
 8680SOL    HW137676   3.901   4.443   3.136  0.9132  0.8411 -1.8424
 8680SOL    HW237677   4.038   4.397   3.150 -1.0217 -1.6042  0.0572
 8681SOL     OW37678   4.458   3.963   2.650  0.1674  0.0078 -0.4426
 8681SOL    HW137679   4.375   4.007   2.633 -1.1492 -3.3790 -2.7814
 8681SOL    HW237680   4.510   4.043   2.662  0.8017 -0.5670  0.6651
 8682SOL     OW37681   3.177   0.157   0.747 -0.5061 -0.7032  0.1669
 8682SOL    HW137682   3.106   0.214   0.717 -0.0773 -0.9287 -1.2999
 8682SOL    HW237683   3.179   0.179   0.840  0.0629  0.0850 -0.0292
 8683SOL     OW37684   1.457   2.772   4.170  0.2119  0.1603  0.7423
 8683SOL    HW137685   1.414   2.687   4.174  2.1681 -0.9406 -1.4109
 8683SOL    HW237686   1.526   2.752   4.233  0.5729  1.2894  0.7129
 8684SOL     OW37687   1.071   2.160   2.801  0.2088 -0.6755 -0.4713
 8684SOL    HW137688   1.057   2.065   2.811  1.5697 -0.6077  2.0920
 8684SOL    HW237689   0.987   2.184   2.762  0.4057  0.0996 -0.4006
 8685SOL     OW37690   0.498   4.190   4.767  0.1761  0.3442  0.4708
 8685SOL    HW137691   0.512   4.214   4.675  0.5126 -0.1126  0.3983
 8685SOL    HW237692   0.583   4.205   4.807  1.0003 -2.1631 -0.2826
 8686SOL     OW37693   3.052   3.933   2.176  0.1044 -0.1660 -0.2051
 8686SOL    HW137694   3.033   3.936   2.083 -1.2540 -1.4191  0.0233
 8686SOL    HW237695   2.962   3.937   2.208  0.7399  0.5247  1.5066
 8687SOL     OW37696   1.952   0.984  13.550 -0.0509  0.1405  0.0482
 8687SOL    HW137697   2.006   0.957  13.624 -0.6538 -0.0400  0.4231
 8687SOL    HW237698   1.995   0.946  13.474 -2.5182  1.0232 -1.7748
 8688SOL     OW37699   2.811   1.988   3.343  0.0984  0.4246 -0.1428
 8688SOL    HW137700   2.729   2.009   3.388  0.0369  0.4566 -0.2667
 8688SOL    HW237701   2.850   2.067   3.306  0.2413  0.4843  0.1372
 8689SOL     OW37702   1.733   2.167   1.979  0.5072 -0.0985  0.3726
 8689SOL    HW137703   1.778   2.090   2.014  1.8679  0.9648  0.9929
 8689SOL    HW237704   1.749   2.156   1.885  0.4369  2.6565  0.0570
 8690SOL     OW37705   0.014   4.692   3.193  0.0025 -0.3630 -0.0873
 8690SOL    HW137706   0.035   0.038   3.149 -1.2518  1.1653  2.1668
 8690SOL    HW237707   0.088   4.636   3.172  0.3027  0.0769 -0.2005
 8691SOL     OW37708   2.164   0.524   9.221  0.5315 -0.3135  0.3779
 8691SOL    HW137709   2.174   0.596   9.159  0.0472 -0.5305  0.0378
 8691SOL    HW237710   2.176   0.461   9.150  1.4613 -0.9875  1.1354
 8692SOL     OW37711   2.547   1.841   0.073 -0.0781 -0.2668  0.0018
 8692SOL    HW137712   2.555   1.844   0.168  1.0745  0.2712 -0.1157
 8692SOL    HW237713   2.627   1.797   0.045 -0.0671  0.1234 -0.5812
 8693SOL     OW37714   2.755   2.170   7.527  0.2318 -0.6418 -0.6393
 8693SOL    HW137715   2.675   2.176   7.580  0.4499  2.3019 -0.6330
 8693SOL    HW237716   2.718   2.169   7.439 -1.1163  0.3781 -0.0959
 8694SOL     OW37717   1.662   2.473  10.399 -0.3232 -0.5612  0.2018
 8694SOL    HW137718   1.572   2.481  10.366 -0.1211  2.0169  0.2230
 8694SOL    HW237719   1.711   2.518  10.331 -2.4231  1.3077 -0.0586
 8695SOL     OW37720   4.185   4.152   6.270 -0.2971 -0.4338  0.5320
 8695SOL    HW137721   4.266   4.109   6.240  0.1379 -0.0371  1.1505
 8695SOL    HW237722   4.137   4.139   6.188 -0.1460 -0.9526  0.5279
 8696SOL     OW37723   3.284   4.020  15.125  0.0881  0.2686 -0.1319
 8696SOL    HW137724   3.310   3.950  15.065 -0.4333  1.0864 -1.3172
 8696SOL    HW237725   3.211   3.978  15.171  0.2360  0.4125  0.2307
 8697SOL     OW37726   0.891   0.041   4.742  0.2431  0.4631 -0.6147
 8697SOL    HW137727   0.956   0.010   4.806 -0.0858 -1.1988 -1.0865
 8697SOL    HW237728   0.820   4.720   4.770 -0.8586  1.2985 -1.7183
 8698SOL     OW37729   0.014   0.648   3.601  0.2018  0.2169 -0.2825
 8698SOL    HW137730   0.058   0.573   3.560  1.3139  1.3393 -1.1119
 8698SOL    HW237731   4.698   0.601   3.667 -1.1854  3.1540  0.6978
 8699SOL     OW37732   2.682   3.585   2.590 -0.0230  0.0893  0.3828
 8699SOL    HW137733   2.694   3.504   2.542  1.1044  1.3385 -1.4455
 8699SOL    HW237734   2.681   3.552   2.680 -2.0307  2.0635  1.0939
 8700SOL     OW37735   2.384   4.313   9.197 -0.0537  0.0514 -0.2937
 8700SOL    HW137736   2.402   4.283   9.108 -0.7922  1.1508 -0.8087
 8700SOL    HW237737   2.289   4.300   9.199 -0.0536  0.1362  0.1647
 8701SOL     OW37738   3.959   3.753   6.327  0.3007  0.1031 -0.4850
 8701SOL    HW137739   3.925   3.665   6.337  0.6625 -0.0368 -0.4884
 8701SOL    HW237740   3.936   3.785   6.414 -2.0128 -1.9112 -0.3608
 8702SOL     OW37741   3.734   3.121  12.690  0.5168 -0.0170 -0.4110
 8702SOL    HW137742   3.719   3.077  12.774 -0.8773  1.2712  0.0305
 8702SOL    HW237743   3.815   3.078  12.664  0.7941  0.6633 -0.6783
 8703SOL     OW37744   2.144   3.116   6.117  0.2783  0.2930 -0.0514
 8703SOL    HW137745   2.113   3.147   6.202  1.4652 -1.9900  1.2222
 8703SOL    HW237746   2.118   3.192   6.066 -0.3438 -1.4076 -2.3114
 8704SOL     OW37747   2.050   1.861  15.252 -0.0023  0.2129  0.0692
 8704SOL    HW137748   1.958   1.839  15.236  0.3783 -1.0429 -0.3805
 8704SOL    HW237749   2.086   1.793  15.196  0.9823 -0.3761  1.4297
 8705SOL     OW37750   4.536   1.661  12.237  0.2630 -0.7483 -0.5069
 8705SOL    HW137751   4.532   1.611  12.319  1.9505  0.3613  0.2442
 8705SOL    HW237752   4.630   1.666  12.222  0.3317 -1.7107 -0.3648
 8706SOL     OW37753   2.988   0.604   6.439  0.7264 -0.3766 -0.1673
 8706SOL    HW137754   3.028   0.580   6.356 -0.0960  1.8032 -1.2036
 8706SOL    HW237755   2.899   0.604   6.403  0.0394  1.2235  1.4988
 8707SOL     OW37756   2.283   0.177  15.160  0.5106  0.1711 -0.2963
 8707SOL    HW137757   2.348   0.201  15.094 -1.1726  1.2439 -1.5733
 8707SOL    HW237758   2.229   0.256  15.155 -0.7984 -0.7542 -0.8309
 8708SOL     OW37759   1.956   0.534  12.832 -0.0254  0.0457 -0.0686
 8708SOL    HW137760   2.012   0.468  12.872 -0.3026  0.6533  1.3094
 8708SOL    HW237761   2.021   0.577  12.777 -0.0168 -1.9726 -1.6665
 8709SOL     OW37762   0.729   3.881   8.602  0.2041 -0.3203  0.1102
 8709SOL    HW137763   0.689   3.796   8.620  0.6612 -0.3140  1.1530
 8709SOL    HW237764   0.736   3.893   8.507  1.7697 -1.2930  0.0964
 8710SOL     OW37765   1.586   0.696   7.181 -0.2343 -0.5091  0.3894
 8710SOL    HW137766   1.490   0.701   7.186 -0.2503  0.5093 -0.9580
 8710SOL    HW237767   1.592   0.762   7.111  1.3178  1.6857  2.5879
 8711SOL     OW37768   0.720   0.096   6.568  0.1221 -0.3218 -0.3451
 8711SOL    HW137769   0.803   0.049   6.568  0.4566  0.2743 -0.4787
 8711SOL    HW237770   0.746   0.177   6.614 -1.2418 -1.2094  2.0188
 8712SOL     OW37771   3.504   3.916   3.698 -0.6215  0.8163  0.1265
 8712SOL    HW137772   3.473   3.878   3.616 -2.9969  1.5560  0.6813
 8712SOL    HW237773   3.560   3.986   3.665  0.2961  0.2430  0.4814
 8713SOL     OW37774   2.768   3.538   6.750 -0.4384  0.2158  0.4456
 8713SOL    HW137775   2.676   3.564   6.743 -0.5767 -0.7591 -1.3126
 8713SOL    HW237776   2.782   3.499   6.664 -0.1203  0.7502  0.2602
 8714SOL     OW37777   2.352   4.549   4.985 -0.0474 -0.5423  0.7477
 8714SOL    HW137778   2.285   4.577   4.923  0.0460 -0.4032  0.7097
 8714SOL    HW237779   2.400   4.479   4.939  1.5639 -1.2903  3.5800
 8715SOL     OW37780   1.922   1.629   8.909 -0.8752 -0.4042  0.6323
 8715SOL    HW137781   1.985   1.690   8.947 -1.3998  0.8470 -0.5337
 8715SOL    HW237782   1.843   1.682   8.909 -0.7634 -0.2381 -2.1196
 8716SOL     OW37783   1.735   0.523   8.512  0.5088 -0.3355  0.1999
 8716SOL    HW137784   1.707   0.486   8.596 -0.4290  1.0327  0.4768
 8716SOL    HW237785   1.659   0.565   8.472 -0.3752 -0.9389  1.2309
 8717SOL     OW37786   2.291   2.007   6.808 -0.0936 -0.5702  0.1648
 8717SOL    HW137787   2.223   1.988   6.743  0.3803  1.4185 -0.8963
 8717SOL    HW237788   2.356   2.040   6.745 -0.8898 -0.0993 -0.4125
 8718SOL     OW37789   1.555   0.372  17.659 -0.2497 -0.1447  0.5376
 8718SOL    HW137790   1.619   0.417  17.604 -0.1839 -0.7604  0.1081
 8718SOL    HW237791   1.475   0.413  17.626 -0.8754 -0.6821  1.3732
 8719SOL     OW37792   4.344   3.547   2.976  0.0814  0.0537 -0.3169
 8719SOL    HW137793   4.403   3.473   2.959 -0.9759 -0.5126 -1.4815
 8719SOL    HW237794   4.299   3.549   2.892  0.4751 -1.7180 -0.5804
 8720SOL     OW37795   4.567   1.081   6.478 -0.0159  0.5347 -0.8447
 8720SOL    HW137796   4.538   1.170   6.454  1.6620  1.4030  0.3605
 8720SOL    HW237797   4.584   1.078   6.572  2.2962 -0.5084 -1.3212
 8721SOL     OW37798   0.453   3.095   4.279 -0.3339 -0.0844 -0.1423
 8721SOL    HW137799   0.416   3.063   4.196  1.1572 -2.0238 -0.0698
 8721SOL    HW237800   0.536   3.134   4.253 -1.2388  1.2866 -0.9959
 8722SOL     OW37801   2.861   2.911  14.837  0.1529 -0.0085  0.3099
 8722SOL    HW137802   2.821   2.881  14.918  1.0880  2.0798  1.5409
 8722SOL    HW237803   2.806   2.863  14.776  2.5435 -0.7842 -1.2591
 8723SOL     OW37804   0.206   4.666  17.543 -0.0533 -0.1221 -0.3505
 8723SOL    HW137805   0.150   4.615  17.484 -1.8574  1.4755 -0.0336
 8723SOL    HW237806   0.238   4.727  17.477  0.6097  0.3329  0.3910
 8724SOL     OW37807   4.289   1.546   1.974 -0.5684 -0.4763  0.1020
 8724SOL    HW137808   4.207   1.595   1.984 -0.1131  0.2849  0.0755
 8724SOL    HW237809   4.331   1.579   1.895 -1.4041  0.3603 -0.0044
 8725SOL     OW37810   3.333   2.082   5.319  0.2671 -0.0782  0.1526
 8725SOL    HW137811   3.319   2.177   5.320 -1.1126 -0.2921  0.0254
 8725SOL    HW237812   3.427   2.084   5.302  0.5721 -0.1640  1.8191
 8726SOL     OW37813   4.534   0.211   0.885  0.1476  0.0528 -0.3307
 8726SOL    HW137814   4.507   0.120   0.872 -1.5822  0.6670 -1.0322
 8726SOL    HW237815   4.452   0.254   0.859  0.0571  0.4623  0.6323
 8727SOL     OW37816   2.618   0.697  14.682 -0.0714  0.1237  0.0789
 8727SOL    HW137817   2.658   0.612  14.700 -2.5070 -1.4237 -1.8071
 8727SOL    HW237818   2.531   0.676  14.647  0.2856 -0.5851 -0.3635
 8728SOL     OW37819   2.665   2.162   8.024  0.9651 -0.4177  0.4530
 8728SOL    HW137820   2.745   2.140   8.073 -0.3980 -1.1682  2.3417
 8728SOL    HW237821   2.685   2.249   7.990 -0.2951 -0.4130 -0.2604
 8729SOL     OW37822   1.609   2.120   1.426 -0.2363 -0.0182  0.5004
 8729SOL    HW137823   1.590   2.055   1.359 -2.0232  0.1344  0.8506
 8729SOL    HW237824   1.626   2.201   1.377 -1.3451  0.4561  0.8881
 8730SOL     OW37825   3.352   3.909   1.301 -0.8644 -0.0672  0.2294
 8730SOL    HW137826   3.342   3.861   1.219  2.3170 -0.7032  0.2090
 8730SOL    HW237827   3.353   4.001   1.274 -3.3446 -0.1945 -0.2935
 8731SOL     OW37828   0.035   4.434   5.371 -0.2974 -0.4810 -0.8323
 8731SOL    HW137829   0.039   4.387   5.454 -0.6231 -1.7719 -1.5358
 8731SOL    HW237830   0.056   4.522   5.402  1.4843 -1.3656  0.4650
 8732SOL     OW37831   0.189   0.244   8.009 -0.5394  0.4229  0.0345
 8732SOL    HW137832   0.188   0.338   7.989  0.2440  0.3828 -0.1748
 8732SOL    HW237833   0.260   0.247   8.073 -0.3181  0.7781 -0.2298
 8733SOL     OW37834   2.717   1.485   5.954 -0.2525  0.9353 -0.0632
 8733SOL    HW137835   2.717   1.390   5.943 -0.0050  0.8599  0.5603
 8733SOL    HW237836   2.691   1.502   6.045  1.8703  3.0387  0.1434
 8734SOL     OW37837   0.833   4.083   3.986 -0.0384 -0.1875 -0.3826
 8734SOL    HW137838   0.812   4.015   4.049  1.7414 -1.7593 -1.4598
 8734SOL    HW237839   0.782   4.156   4.018  0.6361  0.8447 -1.6362
 8735SOL     OW37840   2.095   4.047   1.510 -0.0887  0.2549  0.3747
 8735SOL    HW137841   2.180   4.003   1.503 -0.9166 -1.3535  0.4724
 8735SOL    HW237842   2.072   4.027   1.419  0.2625  0.3306  0.2710
 8736SOL     OW37843   1.563   1.988   8.292  0.5182  0.4850 -0.1621
 8736SOL    HW137844   1.637   1.987   8.231 -1.1073 -2.7012 -2.0388
 8736SOL    HW237845   1.558   2.083   8.307  0.6530  0.6111 -0.8884
 8737SOL     OW37846   0.929   1.496   7.020 -0.2726 -0.2349  0.5255
 8737SOL    HW137847   0.964   1.408   7.016 -0.3373 -0.2038 -0.7755
 8737SOL    HW237848   0.928   1.516   7.114 -1.3718 -1.7239  0.8252
 8738SOL     OW37849   3.643   1.286   6.295  0.1446  0.0316 -0.2604
 8738SOL    HW137850   3.735   1.313   6.295  0.5530 -1.3373 -0.9962
 8738SOL    HW237851   3.629   1.265   6.202 -0.1070 -0.4151 -0.1236
 8739SOL     OW37852   1.717   1.470   4.315 -0.0333 -0.4095 -0.2978
 8739SOL    HW137853   1.703   1.376   4.301  1.4091 -0.9258  1.7442
 8739SOL    HW237854   1.706   1.509   4.228  2.6351 -0.0826 -0.4961
 8740SOL     OW37855   4.096   2.640   2.372  0.0256 -0.1770  0.7115
 8740SOL    HW137856   4.011   2.604   2.400 -0.2638  0.7211  0.9998
 8740SOL    HW237857   4.088   2.646   2.277  0.9381 -0.3645  0.6286
 8741SOL     OW37858   0.015   4.523  12.259 -1.0409 -0.3603  0.1228
 8741SOL    HW137859   0.096   4.549  12.302  0.2904 -0.4645 -2.3891
 8741SOL    HW237860   4.724   4.614  12.246  2.6017  0.7605  0.3357
 8742SOL     OW37861   3.644   3.901  12.057 -0.2255 -0.3606  0.1541
 8742SOL    HW137862   3.592   3.947  12.123 -2.0382 -2.2711  0.0911
 8742SOL    HW237863   3.735   3.919  12.078 -0.6389  2.2060 -0.2727
 8743SOL     OW37864   3.286   3.099   5.593  0.2977 -0.4285 -0.4263
 8743SOL    HW137865   3.327   3.108   5.507  1.9953  0.2770  0.4610
 8743SOL    HW237866   3.346   3.040   5.637  0.7247  1.2271  1.2300
 8744SOL     OW37867   0.199   1.568   3.302  0.1822  0.0245  0.2307
 8744SOL    HW137868   0.164   1.479   3.307 -0.4318  0.3070  0.8982
 8744SOL    HW237869   0.144   1.623   3.246  2.0529 -0.8737 -2.4852
 8745SOL     OW37870   3.331   2.136   3.921  0.0908  0.0384 -0.4869
 8745SOL    HW137871   3.312   2.190   3.844  0.1853  0.1505 -0.4331
 8745SOL    HW237872   3.348   2.049   3.886 -0.7278 -0.2735 -0.1003
 8746SOL     OW37873   4.085   0.709   6.179 -0.1580  0.1070 -0.4066
 8746SOL    HW137874   4.083   0.646   6.251 -2.5398 -0.5927 -1.1000
 8746SOL    HW237875   4.156   0.762   6.216  1.4708 -1.5578 -1.1592
 8747SOL     OW37876   2.788   3.368   3.084  0.3005  0.4673 -0.2189
 8747SOL    HW137877   2.876   3.340   3.056  0.9771  2.2617  0.1199
 8747SOL    HW237878   2.810   3.401   3.171  1.1027  0.1422 -0.2974
 8748SOL     OW37879   3.083   4.287   3.466  0.6534  0.2172 -0.1403
 8748SOL    HW137880   3.167   4.289   3.419  1.4240  0.6208  1.2485
 8748SOL    HW237881   3.078   4.378   3.493 -0.5488 -0.3577  1.5654
 8749SOL     OW37882   3.709   2.504   0.659 -0.4305 -0.9590 -0.4712
 8749SOL    HW137883   3.685   2.474   0.571  3.2802  1.9982 -2.4904
 8749SOL    HW237884   3.780   2.445   0.685  0.1046 -0.8776 -1.7564
 8750SOL     OW37885   0.740   4.277   7.224  0.2223 -0.0968  0.0614
 8750SOL    HW137886   0.827   4.298   7.190  0.6786  0.5167  1.6350
 8750SOL    HW237887   0.739   4.181   7.230  1.1584 -0.2572 -2.0596
 8751SOL     OW37888   3.407   2.805   8.357 -0.1450 -0.0123  0.1068
 8751SOL    HW137889   3.332   2.827   8.413  0.4194  2.2441 -0.0098
 8751SOL    HW237890   3.474   2.862   8.395  1.4084 -1.6936 -0.1566
 8752SOL     OW37891   0.043   1.455   5.082 -0.0611  0.2955 -0.0719
 8752SOL    HW137892   0.020   1.382   5.025  2.6774  0.1345 -0.9361
 8752SOL    HW237893   0.111   1.490   5.025  1.1828  0.2955  1.4016
 8753SOL     OW37894   3.751   1.769   1.594 -0.0628  0.0774  0.1295
 8753SOL    HW137895   3.656   1.776   1.594  0.0154  1.2327 -2.8300
 8753SOL    HW237896   3.773   1.781   1.687 -1.5875  0.8624  0.3941
 8754SOL     OW37897   1.700   3.914   2.181 -0.0478  0.3943  0.1488
 8754SOL    HW137898   1.741   3.893   2.097 -0.2648  1.4668 -0.2348
 8754SOL    HW237899   1.621   3.860   2.178  1.2947 -1.5244 -0.0698
 8755SOL     OW37900   2.461   1.912  10.009  0.7644 -0.1750 -0.0310
 8755SOL    HW137901   2.437   1.827  10.044 -1.0585  0.0228 -0.7717
 8755SOL    HW237902   2.392   1.964  10.051  0.2376 -0.6563 -0.2897
 8756SOL     OW37903   1.130   1.086  12.073 -0.2920 -0.0589  0.2449
 8756SOL    HW137904   1.129   1.153  12.142 -1.5479  1.5053 -1.2877
 8756SOL    HW237905   1.071   1.121  12.006  0.1763  0.4379  0.0904
 8757SOL     OW37906   4.388   2.348  17.649  0.1781  0.2705 -0.4404
 8757SOL    HW137907   4.385   2.421  17.587 -3.1257  1.1389  0.7701
 8757SOL    HW237908   4.466   2.378  17.695 -0.3099  0.8073  0.0434
 8758SOL     OW37909   3.839   4.175   6.897 -0.2772 -0.0095  0.3757
 8758SOL    HW137910   3.873   4.192   6.809  0.8217  0.1360  0.8309
 8758SOL    HW237911   3.745   4.187   6.879 -0.5608 -0.8554  1.3399
 8759SOL     OW37912   3.363   3.113   5.342 -0.0143  0.4104 -0.0325
 8759SOL    HW137913   3.372   3.203   5.312  0.4659  0.0739 -0.9274
 8759SOL    HW237914   3.294   3.077   5.287  0.8366  0.4808 -1.1469
 8760SOL     OW37915   0.098   3.507   4.447 -0.2540 -0.0689  0.3733
 8760SOL    HW137916   0.059   3.521   4.534 -0.4896  0.4086  0.1938
 8760SOL    HW237917   0.187   3.493   4.479 -0.3090 -0.5129  0.3238
 8761SOL     OW37918   3.841   0.351   3.370  0.3895  0.2711  0.3395
 8761SOL    HW137919   3.930   0.360   3.337  0.1142  1.0556 -0.1930
 8761SOL    HW237920   3.844   0.256   3.384  0.3474 -0.1284 -2.3103
 8762SOL     OW37921   3.277   1.194   4.633  0.2038 -0.3981  0.2581
 8762SOL    HW137922   3.254   1.222   4.722 -1.1332  2.6439 -1.0692
 8762SOL    HW237923   3.191   1.163   4.605  0.0587 -0.5501  0.8733
 8763SOL     OW37924   1.993   1.959  10.427  0.1059 -0.1745  0.0935
 8763SOL    HW137925   2.056   1.899  10.387  2.4339  0.6409  2.5342
 8763SOL    HW237926   1.938   1.898  10.476  0.0040 -2.4249 -2.8400
 8764SOL     OW37927   3.771   4.066   6.322 -0.3062  0.9026 -0.4321
 8764SOL    HW137928   3.750   3.973   6.312 -1.8103  1.1572  0.3517
 8764SOL    HW237929   3.771   4.090   6.229  0.1787  2.7757  0.0607
 8765SOL     OW37930   4.632   0.996  12.884  0.2355  0.0161  0.6978
 8765SOL    HW137931   4.659   0.924  12.941  1.1355 -0.5268 -0.4150
 8765SOL    HW237932   4.567   1.030  12.946  0.5756  1.6351  0.1618
 8766SOL     OW37933   1.910   2.736  16.246  0.1686  0.1611  0.2021
 8766SOL    HW137934   1.821   2.749  16.212 -0.2713 -0.0119  1.2933
 8766SOL    HW237935   1.897   2.738  16.341 -0.8734  0.3064  0.0617
 8767SOL     OW37936   0.931   4.526   0.532 -0.0982  0.2712  0.8180
 8767SOL    HW137937   0.838   4.508   0.545  0.1113  0.0524  2.0236
 8767SOL    HW237938   0.947   4.614   0.568  1.3200  0.7946 -1.0707
 8768SOL     OW37939   3.651   3.457   3.187 -0.1859 -0.6203 -0.2024
 8768SOL    HW137940   3.720   3.405   3.228 -2.2490 -3.3504 -0.1644
 8768SOL    HW237941   3.588   3.487   3.254 -0.4764  2.2652 -1.7730
 8769SOL     OW37942   2.514   2.829   2.259  0.1191 -0.7450 -0.2938
 8769SOL    HW137943   2.516   2.911   2.309  2.6878 -0.7542 -0.3931
 8769SOL    HW237944   2.519   2.765   2.330 -0.5971  0.0755  0.4981
 8770SOL     OW37945   1.819   4.690   9.312 -0.1016  0.0375 -0.3707
 8770SOL    HW137946   1.907   4.726   9.324 -0.7451  1.2686  0.6641
 8770SOL    HW237947   1.850   4.600   9.325  1.7995  1.2277  3.2840
 8771SOL     OW37948   2.583   1.721   7.133  0.1946 -0.0171 -0.1456
 8771SOL    HW137949   2.493   1.721   7.167  0.8658  3.9404  1.5978
 8771SOL    HW237950   2.626   1.643   7.168 -1.1912 -1.1819 -1.0503
 8772SOL     OW37951   2.692   4.414   9.084  0.5856 -0.4056  0.1602
 8772SOL    HW137952   2.706   4.344   9.148 -2.3072  0.2868  1.5319
 8772SOL    HW237953   2.611   4.449   9.120 -0.5050  2.0801 -4.7594
 8773SOL     OW37954   1.420   2.593  13.459 -0.0750  0.4761  0.3480
 8773SOL    HW137955   1.506   2.551  13.456 -0.6772 -0.6488 -1.1481
 8773SOL    HW237956   1.434   2.637  13.375  3.2113  2.2107  1.7925
 8774SOL     OW37957   0.232   2.740   1.458  0.4835  0.1926  0.5421
 8774SOL    HW137958   0.252   2.829   1.487  1.2028 -0.3920  1.8245
 8774SOL    HW237959   0.136   2.743   1.464  0.4376 -0.0833 -0.0723
 8775SOL     OW37960   0.380   0.517   3.491  0.2082  0.2732 -0.6915
 8775SOL    HW137961   0.429   0.587   3.447  0.8632 -0.6922 -1.5055
 8775SOL    HW237962   0.380   0.521   3.586  2.0290  1.9924 -0.7507
 8776SOL     OW37963   1.543   0.875  10.490  0.0056 -0.8814 -0.0449
 8776SOL    HW137964   1.626   0.849  10.449 -0.5257  0.2357 -1.8490
 8776SOL    HW237965   1.496   0.799  10.457 -0.8792  0.7257 -2.5018
 8777SOL     OW37966   2.945   1.023   1.869 -0.3986 -0.3548  0.1058
 8777SOL    HW137967   2.933   0.970   1.947  0.6352  1.6044  1.5995
 8777SOL    HW237968   3.002   1.090   1.908  0.1645  0.0765 -1.4167
 8778SOL     OW37969   1.474   0.478   5.329 -0.2360  0.0655 -1.0165
 8778SOL    HW137970   1.484   0.566   5.365  1.2104 -0.8298  0.7531
 8778SOL    HW237971   1.398   0.489   5.272 -0.2656 -0.3872 -1.0680
 8779SOL     OW37972   4.725   2.252   3.910 -0.4379  0.3986  0.1047
 8779SOL    HW137973   0.002   2.220   3.821 -1.9796  0.9391 -0.3304
 8779SOL    HW237974   0.076   2.226   3.939 -0.4179  0.0644 -0.2612
 8780SOL     OW37975   1.248   0.464   3.413  0.0022  0.3081 -0.5280
 8780SOL    HW137976   1.171   0.519   3.424 -1.0658 -1.4673  0.8461
 8780SOL    HW237977   1.260   0.422   3.499  0.0800 -2.4986 -1.9058
 8781SOL     OW37978   2.764   3.602  10.403 -0.2143 -0.1118  0.4583
 8781SOL    HW137979   2.800   3.518  10.374 -2.8005 -0.8952 -0.4493
 8781SOL    HW237980   2.674   3.579  10.383 -0.5124 -1.6420  3.4707
 8782SOL     OW37981   0.858   0.255  13.530 -0.0368 -0.0585  0.3189
 8782SOL    HW137982   0.885   0.345  13.548  0.5788  0.1114 -1.4300
 8782SOL    HW237983   0.773   0.266  13.486 -0.6149  1.1990  1.7362
 8783SOL     OW37984   2.276   2.670   3.106  0.6284 -0.7384 -0.1465
 8783SOL    HW137985   2.306   2.666   3.015  1.5846  2.7481  0.0121
 8783SOL    HW237986   2.207   2.604   3.104  0.4570 -0.5302 -1.4246
 8784SOL     OW37987   1.969   0.865   9.832  0.5231  0.1830  0.3268
 8784SOL    HW137988   2.042   0.897   9.884  0.9728 -1.6982  0.8308
 8784SOL    HW237989   1.948   0.782   9.874  0.4610 -0.9300 -1.8866
 8785SOL     OW37990   2.804   1.005   0.221  0.4907 -0.1981  0.3858
 8785SOL    HW137991   2.820   0.920   0.179  2.1294  0.7933 -1.0297
 8785SOL    HW237992   2.851   1.059   0.157  0.1239  0.0892  0.3617
 8786SOL     OW37993   0.284   2.434   2.437 -0.8378 -0.1025 -0.0725
 8786SOL    HW137994   0.261   2.342   2.426 -0.0565 -0.3975  0.7503
 8786SOL    HW237995   0.197   2.469   2.420 -1.0729  0.3698  2.1085
 8787SOL     OW37996   0.423   4.547   6.937 -0.2265 -0.1276  0.6534
 8787SOL    HW137997   0.435   4.561   6.843 -2.4618  0.9306  0.5415
 8787SOL    HW237998   0.501   4.496   6.960  0.8743  0.6153 -1.4305
 8788SOL     OW37999   4.279   2.934   7.718  0.3439  0.3528  0.0418
 8788SOL    HW138000   4.274   3.028   7.739 -1.8077 -0.3071  2.5385
 8788SOL    HW238001   4.357   2.909   7.766 -0.1270  0.7756  1.0200
 8789SOL     OW38002   1.571   0.158   2.768 -0.8450  0.3065  0.3056
 8789SOL    HW138003   1.607   0.100   2.834 -0.5087  0.6527  0.4292
 8789SOL    HW238004   1.550   0.233   2.823 -1.4933  0.5250 -0.2358
 8790SOL     OW38005   2.644   3.662  11.075 -0.3574 -0.0962  0.1740
 8790SOL    HW138006   2.675   3.591  11.019  1.8345  1.4911 -0.6111
 8790SOL    HW238007   2.710   3.724  11.045 -1.8759  1.4083 -0.0428
 8791SOL     OW38008   4.560   3.476   8.944 -0.0334 -0.1074  0.0618
 8791SOL    HW138009   4.612   3.540   8.992  1.8815 -2.3437  0.9631
 8791SOL    HW238010   4.492   3.538   8.918 -1.2319 -1.5356 -0.2126
 8792SOL     OW38011   0.269   0.113   8.509  0.0045 -0.0566 -0.5231
 8792SOL    HW138012   0.207   0.132   8.438  0.9281  0.7533 -1.1005
 8792SOL    HW238013   0.310   0.030   8.486  1.0627  0.3021  0.0521
 8793SOL     OW38014   0.527   3.720   6.890  0.3041  0.4609 -0.4396
 8793SOL    HW138015   0.554   3.629   6.903  1.6054  0.6925 -1.4970
 8793SOL    HW238016   0.586   3.760   6.955  0.1833 -0.8200  0.4531
 8794SOL     OW38017   2.173   3.522   6.566  0.4235 -0.0119  0.4892
 8794SOL    HW138018   2.228   3.446   6.583 -1.6714 -1.2254  1.9036
 8794SOL    HW238019   2.088   3.498   6.604  0.3519 -0.7376 -0.1191
 8795SOL     OW38020   4.003   1.490  16.745  0.7139 -0.8613  0.4412
 8795SOL    HW138021   3.913   1.509  16.772  1.3704 -0.1672  2.1861
 8795SOL    HW238022   4.044   1.543  16.814 -1.0331  0.7394  0.2408
 8796SOL     OW38023   3.178   0.450   0.964 -0.1441 -0.2006  0.4596
 8796SOL    HW138024   3.159   0.504   1.041 -2.5810 -1.5200  0.7761
 8796SOL    HW238025   3.259   0.404   0.985  0.3396  0.4192 -0.0284
 8797SOL     OW38026   4.408   1.367   2.116 -0.9022 -0.0405  0.4041
 8797SOL    HW138027   4.453   1.337   2.037 -0.4327  0.8300  0.3401
 8797SOL    HW238028   4.355   1.434   2.073 -0.4810 -0.2551 -0.4510
 8798SOL     OW38029   3.489   3.137   5.075  0.6297  0.5883  0.3365
 8798SOL    HW138030   3.430   3.123   5.002  0.2803 -1.6968  1.0534
 8798SOL    HW238031   3.509   3.046   5.099 -1.5328  0.1547  0.5133
 8799SOL     OW38032   4.296   4.466   7.516  0.4948 -0.0382  0.0988
 8799SOL    HW138033   4.297   4.447   7.422 -2.5072  0.0207  0.0787
 8799SOL    HW238034   4.235   4.539   7.524 -0.0926 -0.3469 -1.6826
 8800SOL     OW38035   3.692   0.137   4.708  0.8215 -0.0327  0.1320
 8800SOL    HW138036   3.667   0.214   4.655  0.8689 -0.2532 -0.2104
 8800SOL    HW238037   3.612   0.084   4.712  1.3646 -0.7557  1.3929
 8801SOL     OW38038   2.354   3.789   9.245  0.3901 -0.0107 -0.0328
 8801SOL    HW138039   2.429   3.732   9.230 -1.2854 -2.3106  0.4466
 8801SOL    HW238040   2.336   3.806   9.152  0.8811 -0.1501 -0.1528
 8802SOL     OW38041   4.205   0.166   3.330  0.6510 -0.0385 -0.4424
 8802SOL    HW138042   4.168   0.253   3.312 -1.2085 -1.2831 -2.6615
 8802SOL    HW238043   4.293   0.200   3.345  0.3867  1.5928 -2.5835
 8803SOL     OW38044   4.503   4.183  14.709 -0.5425 -0.4692 -0.7964
 8803SOL    HW138045   4.575   4.198  14.648 -0.2785  0.0983 -0.3456
 8803SOL    HW238046   4.458   4.265  14.690  0.1245  0.3901  1.2539
 8804SOL     OW38047   2.119   4.567   8.592  0.0084 -0.6270 -0.3498
 8804SOL    HW138048   2.161   4.624   8.657 -0.4752 -0.1872 -0.4297
 8804SOL    HW238049   2.194   4.513   8.565  0.7930 -0.2693  1.0640
 8805SOL     OW38050   0.404   3.824  15.781 -0.3047  0.1736 -0.1912
 8805SOL    HW138051   0.412   3.860  15.693 -3.1841  2.6214  0.5350
 8805SOL    HW238052   0.369   3.906  15.817  1.0658  0.9664 -0.6493
 8806SOL     OW38053   3.899   1.082   2.082  0.9957  0.1154 -0.0391
 8806SOL    HW138054   3.843   1.143   2.034 -0.7142 -1.4095  0.0151
 8806SOL    HW238055   3.984   1.125   2.092  0.8206  0.4411  0.0483
 8807SOL     OW38056   0.808   0.851   8.328 -0.5460  0.2624 -0.2370
 8807SOL    HW138057   0.776   0.762   8.344  0.4758  0.1156  1.0448
 8807SOL    HW238058   0.762   0.864   8.246  1.9162  0.3720 -1.5984
 8808SOL     OW38059   0.733   0.781   5.664  0.2832  0.2147 -0.0420
 8808SOL    HW138060   0.803   0.725   5.631 -0.5392 -2.3985  2.6271
 8808SOL    HW238061   0.665   0.719   5.690 -0.5852  1.6106  1.0512
 8809SOL     OW38062   0.883   0.429   2.636  0.0592 -0.8005  0.0971
 8809SOL    HW138063   0.954   0.447   2.698  1.0102 -2.1519 -0.6155
 8809SOL    HW238064   0.899   0.491   2.565  0.5803 -0.2020  0.7295
 8810SOL     OW38065   3.570   1.754   8.424 -0.3811  0.3814  0.1389
 8810SOL    HW138066   3.504   1.733   8.357 -0.3201 -0.7303  0.4338
 8810SOL    HW238067   3.628   1.801   8.364  0.2489  2.5791  2.4890
 8811SOL     OW38068   4.410   2.676   8.119  0.0707 -0.4819  0.2222
 8811SOL    HW138069   4.352   2.654   8.192  0.2635 -1.5400  0.0588
 8811SOL    HW238070   4.358   2.744   8.076 -1.1993 -1.7516 -0.2364
 8812SOL     OW38071   2.933   4.457   6.844 -0.3461  0.2461 -0.5513
 8812SOL    HW138072   2.914   4.550   6.834 -0.2201  0.3980  0.5808
 8812SOL    HW238073   3.004   4.446   6.782  0.6980  1.3622  0.4408
 8813SOL     OW38074   3.259   2.312   2.028 -0.1800  0.0076 -0.5094
 8813SOL    HW138075   3.327   2.285   1.965 -0.4115  1.1825 -1.2679
 8813SOL    HW238076   3.314   2.334   2.103  2.2156 -0.1248 -2.2395
 8814SOL     OW38077   3.763   2.321  10.231 -0.1456  0.4601 -0.2439
 8814SOL    HW138078   3.674   2.348  10.206  0.3240  2.7508  0.5645
 8814SOL    HW238079   3.814   2.370  10.167  0.6444  0.3933  0.3296
 8815SOL     OW38080   3.889   2.828   4.411  0.4811  0.6373  0.5212
 8815SOL    HW138081   3.800   2.859   4.427 -0.0109 -0.5496  0.1148
 8815SOL    HW238082   3.900   2.872   4.326 -0.4720  1.0180  0.5980
 8816SOL     OW38083   4.634   0.941   6.258 -0.0895 -0.1816  0.4554
 8816SOL    HW138084   4.727   0.964   6.262  0.0974 -0.7780 -0.3894
 8816SOL    HW238085   4.603   0.982   6.338  0.6359 -1.8118  1.5713
 8817SOL     OW38086   0.121   2.978  15.080 -0.5189 -0.4011 -0.1222
 8817SOL    HW138087   0.163   2.935  15.006  0.1115  0.3634 -0.2088
 8817SOL    HW238088   0.090   2.907  15.137 -1.6110 -1.1395 -1.6344
 8818SOL     OW38089   1.005   4.039  13.078  0.3874  0.4173  0.0831
 8818SOL    HW138090   1.065   3.966  13.093  0.0659  0.7007  2.6376
 8818SOL    HW238091   0.927   4.014  13.127 -0.1784 -1.8635 -1.9660
 8819SOL     OW38092   2.298   4.005   7.346 -0.0073 -0.2872  0.3318
 8819SOL    HW138093   2.299   4.082   7.288  1.9698 -0.2745  0.3760
 8819SOL    HW238094   2.305   4.050   7.430  2.4288  0.3823 -0.2137
 8820SOL     OW38095   0.022   2.693  15.606 -0.2928 -0.0375  0.7788
 8820SOL    HW138096   4.680   2.718  15.654 -1.9916 -0.1321 -1.9289
 8820SOL    HW238097   0.042   2.616  15.660 -1.2739 -0.8460 -0.0062
 8821SOL     OW38098   1.860   4.409   3.529 -0.3485  0.3423  0.2830
 8821SOL    HW138099   1.765   4.408   3.525 -0.1933 -0.5943 -2.9290
 8821SOL    HW238100   1.879   4.387   3.620 -1.6640 -0.1571  0.4333
 8822SOL     OW38101   1.975   3.336  13.508 -0.1391  0.0044 -0.6438
 8822SOL    HW138102   2.051   3.362  13.560 -0.4147  0.0998 -0.2850
 8822SOL    HW238103   1.914   3.350  13.581 -0.0010  1.7519 -0.8602
 8823SOL     OW38104   4.274   3.453  12.616  0.1261 -0.2149  0.9276
 8823SOL    HW138105   4.337   3.444  12.687  2.0836 -0.1802 -0.7929
 8823SOL    HW238106   4.219   3.527  12.642 -0.4990  0.2968 -1.8497
 8824SOL     OW38107   3.054   1.698   4.573  0.0498  0.4100  0.4841
 8824SOL    HW138108   2.992   1.654   4.515  2.3483  0.3352 -1.8972
 8824SOL    HW238109   3.092   1.636   4.635 -0.3784 -1.4327 -1.1327
 8825SOL     OW38110   2.969   1.555  10.548  0.0035  0.0636 -0.8292
 8825SOL    HW138111   2.954   1.638  10.502  1.3975 -0.0318 -1.4787
 8825SOL    HW238112   3.053   1.566  10.592  0.0316 -2.5886 -0.2191
 8826SOL     OW38113   1.986   3.242   6.877 -0.2691 -0.4705 -0.2861
 8826SOL    HW138114   1.983   3.286   6.792 -1.6572 -1.0904 -0.5566
 8826SOL    HW238115   1.976   3.148   6.862 -1.3706 -0.4305  0.1677
 8827SOL     OW38116   0.056   3.674   3.418  1.2387  0.5038 -0.0550
 8827SOL    HW138117   0.033   3.742   3.355 -1.4320 -0.1611  0.1844
 8827SOL    HW238118   0.120   3.625   3.366  0.5509  0.2962 -0.7040
 8828SOL     OW38119   3.040   2.321   8.364 -0.2189 -0.4928 -0.0523
 8828SOL    HW138120   3.089   2.393   8.323 -1.5110  1.0337  1.0662
 8828SOL    HW238121   3.006   2.361   8.444  1.3096  0.4362  0.1305
 8829SOL     OW38122   4.721   2.347   8.289  0.2911 -0.0049 -0.0671
 8829SOL    HW138123   0.002   2.439   8.268 -2.1534  0.5049  0.1495
 8829SOL    HW238124   4.627   2.363   8.300  0.6359  1.5471  0.6678
 8830SOL     OW38125   4.587   2.286   2.060  0.5728 -0.1812  0.3680
 8830SOL    HW138126   4.558   2.337   2.136  0.2603  0.3509 -0.1033
 8830SOL    HW238127   4.661   2.340   2.031 -0.5189 -0.3313 -2.7183
 8831SOL     OW38128   2.830   0.414   9.338 -0.2306 -0.0358 -0.0927
 8831SOL    HW138129   2.924   0.416   9.354 -0.3837  0.3415  0.7305
 8831SOL    HW238130   2.781   0.350   9.389 -0.1206 -0.0423  0.0048
 8832SOL     OW38131   2.884   3.787   5.545  0.0084 -0.0768 -0.2625
 8832SOL    HW138132   2.906   3.877   5.519 -3.1022 -0.1546 -3.0895
 8832SOL    HW238133   2.809   3.809   5.601  0.8568 -1.4212  1.4197
 8833SOL     OW38134   1.991   3.087   4.832  0.2714  0.2056 -0.1876
 8833SOL    HW138135   2.046   3.077   4.910 -1.0618  0.2097  0.7662
 8833SOL    HW238136   1.952   3.170   4.858 -1.0606 -0.0999 -1.2177
 8834SOL     OW38137   0.609   3.113   6.644 -0.4017 -0.3420  0.3693
 8834SOL    HW138138   0.688   3.097   6.592  0.3968 -1.2334  1.8586
 8834SOL    HW238139   0.566   3.192   6.611  0.7440  0.1077 -0.0632
 8835SOL     OW38140   4.676   3.859  13.330 -0.1485 -0.0293 -0.2822
 8835SOL    HW138141   4.690   3.948  13.298  0.1464 -0.5210 -1.5422
 8835SOL    HW238142   4.672   3.874  13.424  0.5548 -1.6042  0.0083
 8836SOL     OW38143   1.572   0.771   6.072  0.4072 -0.0608  0.0092
 8836SOL    HW138144   1.550   0.766   6.165  0.7975  4.0430  0.3566
 8836SOL    HW238145   1.655   0.722   6.072  0.5062  0.1042  3.9364
 8837SOL     OW38146   3.315   3.593   1.144 -0.0849  0.5935  0.2690
 8837SOL    HW138147   3.344   3.666   1.090  0.3983  0.4180  0.2946
 8837SOL    HW238148   3.296   3.639   1.226  1.7869  1.8482 -0.0265
 8838SOL     OW38149   0.921   0.180  13.145 -0.5282 -0.3331  0.8375
 8838SOL    HW138150   0.964   0.122  13.081  2.7059 -0.3027  2.9656
 8838SOL    HW238151   0.962   0.266  13.136 -0.6989 -0.4050 -0.6820
 8839SOL     OW38152   2.606   1.959  16.579  0.2227  0.5139  0.4083
 8839SOL    HW138153   2.620   1.907  16.658 -0.3611  3.3431  2.4130
 8839SOL    HW238154   2.518   1.991  16.603  0.2891  1.3562 -0.4655
 8840SOL     OW38155   2.763   0.443   7.589  0.3359  0.4422 -0.3210
 8840SOL    HW138156   2.822   0.369   7.578 -0.2524  0.1570 -1.6182
 8840SOL    HW238157   2.825   0.516   7.592  1.3530 -0.4075 -0.8598
 8841SOL     OW38158   1.354   1.389   2.192 -0.1653 -0.2947 -0.1150
 8841SOL    HW138159   1.329   1.380   2.284 -0.4738  2.2296  0.0671
 8841SOL    HW238160   1.374   1.482   2.181 -1.5363 -0.2055 -1.9378
 8842SOL     OW38161   3.485   3.010   1.875  0.2665  0.5235  0.4475
 8842SOL    HW138162   3.461   3.099   1.901 -1.0227  0.2189  0.2961
 8842SOL    HW238163   3.423   2.987   1.807  1.8338 -1.0927 -0.4373
 8843SOL     OW38164   1.147   3.917  12.025 -0.2788 -0.0259  0.2271
 8843SOL    HW138165   1.082   3.892  12.091 -1.4940  0.7920 -0.6624
 8843SOL    HW238166   1.129   3.846  11.964 -1.1544  2.3031 -2.1965
 8844SOL     OW38167   4.601   3.214  17.562 -0.4901  0.2784  0.1657
 8844SOL    HW138168   4.506   3.211  17.567 -0.4956  0.0913 -0.0783
 8844SOL    HW238169   4.605   3.273  17.486 -0.6948 -1.5337 -1.2507
 8845SOL     OW38170   4.734   1.671  15.913  0.2689 -0.4284 -0.1489
 8845SOL    HW138171   0.010   1.749  15.860 -0.3532  0.1681  0.5803
 8845SOL    HW238172   4.640   1.680  15.930  0.1854  0.4878 -1.1618
 8846SOL     OW38173   1.507   1.248   4.471 -0.0931  0.1850  0.2520
 8846SOL    HW138174   1.592   1.246   4.427 -0.4659 -1.2364 -0.4035
 8846SOL    HW238175   1.532   1.208   4.555 -0.5164  0.5977  0.5763
 8847SOL     OW38176   1.497   1.350   1.754  0.3243  0.1736  0.2490
 8847SOL    HW138177   1.528   1.277   1.701  0.2070  0.4016 -0.1277
 8847SOL    HW238178   1.440   1.310   1.819 -1.0789  1.6168 -0.1059
 8848SOL     OW38179   0.013   3.949   5.952  0.4674  0.0970 -0.0663
 8848SOL    HW138180   4.711   4.033   5.928  0.8713  0.6497  1.2178
 8848SOL    HW238181   0.048   3.978   6.037  0.1734  1.0932 -0.2828
 8849SOL     OW38182   2.645   0.521   4.956  0.4319 -0.4032 -0.3587
 8849SOL    HW138183   2.558   0.554   4.978  0.9988  0.6454  0.3338
 8849SOL    HW238184   2.652   0.549   4.865 -1.8450 -1.1691 -0.7757
 8850SOL     OW38185   4.075   3.848   8.584  0.1050  0.6710  0.2075
 8850SOL    HW138186   4.040   3.855   8.495 -0.4993  0.2678  0.4151
 8850SOL    HW238187   4.078   3.754   8.600  1.2462  0.8031  0.7300
 8851SOL     OW38188   2.796   4.651   8.372  0.0893 -0.0030  0.1773
 8851SOL    HW138189   2.786   4.635   8.466  1.1942  4.1061  1.0040
 8851SOL    HW238190   2.705   4.676   8.355 -0.1267  0.2201  1.7189
 8852SOL     OW38191   4.323   4.171   7.428  0.4948 -0.0250 -0.3997
 8852SOL    HW138192   4.366   4.153   7.344  1.5657 -1.1962  0.4026
 8852SOL    HW238193   4.394   4.176   7.492 -0.4764 -2.2538  0.8205
 8853SOL     OW38194   0.218   1.623   3.569 -0.3361  0.6360  0.0808
 8853SOL    HW138195   0.284   1.568   3.612 -0.4569  1.1000  0.8673
 8853SOL    HW238196   0.222   1.601   3.476  1.6291 -0.8644  0.5086
 8854SOL     OW38197   3.998   2.335  10.415  0.7048 -0.2300 -0.2680
 8854SOL    HW138198   3.955   2.409  10.458  0.2262 -0.2315 -0.7297
 8854SOL    HW238199   3.929   2.309  10.353  0.5834 -2.1858  0.6714
 8855SOL     OW38200   4.375   3.721  15.215  0.7207  0.1827 -0.1004
 8855SOL    HW138201   4.353   3.801  15.262 -0.3629  0.7345 -1.5382
 8855SOL    HW238202   4.424   3.767  15.147  0.9545  1.8116  1.1640
 8856SOL     OW38203   3.998   4.108   8.763 -0.0933 -0.2305 -0.3092
 8856SOL    HW138204   4.007   4.057   8.682  1.1654 -2.0448  0.9827
 8856SOL    HW238205   4.087   4.142   8.771 -0.9674  1.9691 -0.0643
 8857SOL     OW38206   0.154   4.384   1.785  0.3302  0.1160 -0.4794
 8857SOL    HW138207   0.191   4.440   1.853 -1.5440 -1.1697  1.5821
 8857SOL    HW238208   0.083   4.333   1.824  0.3384 -0.8797 -1.7457
 8858SOL     OW38209   4.031   1.025   3.348 -0.0703 -0.6629 -0.3828
 8858SOL    HW138210   3.982   1.069   3.278  0.5770 -0.7145 -0.8626
 8858SOL    HW238211   4.003   0.934   3.339 -0.2069 -0.4342 -2.3580
 8859SOL     OW38212   3.589   3.609  15.305 -0.3803  0.9337  0.6385
 8859SOL    HW138213   3.602   3.637  15.214 -1.0152 -0.2635  0.1857
 8859SOL    HW238214   3.662   3.654  15.349  0.2424  0.3348  0.2342
 8860SOL     OW38215   2.796   3.765   8.940  0.0058 -0.1924  0.7581
 8860SOL    HW138216   2.714   3.814   8.946  0.2758  0.5911 -1.9149
 8860SOL    HW238217   2.854   3.829   8.981  1.0544 -1.8592  1.8712
 8861SOL     OW38218   2.899   3.572   6.252  0.5718 -0.4362  0.2789
 8861SOL    HW138219   2.952   3.640   6.294 -0.5519  0.1249  0.7768
 8861SOL    HW238220   2.869   3.624   6.177 -1.8159 -0.3706  1.2716
 8862SOL     OW38221   4.285   2.773   4.762 -0.0674  0.3736  0.3555
 8862SOL    HW138222   4.232   2.849   4.738 -1.0384 -0.9736 -1.7157
 8862SOL    HW238223   4.213   2.712   4.777  1.1007 -1.0926  0.0637
 8863SOL     OW38224   2.985   1.976   6.997  0.4766  0.2545  0.3301
 8863SOL    HW138225   2.967   2.005   6.908 -2.2107  0.8781  1.0835
 8863SOL    HW238226   2.896   1.959   7.028 -0.2602  3.9025  0.1829
 8864SOL     OW38227   3.784   1.388   5.564 -0.1067 -0.3153  0.1770
 8864SOL    HW138228   3.857   1.439   5.600  0.9290 -2.8839  1.6956
 8864SOL    HW238229   3.708   1.442   5.585  0.3770  0.4418  0.0138
 8865SOL     OW38230   2.028   4.487   4.860  0.0749  0.1079 -0.2277
 8865SOL    HW138231   2.008   4.440   4.941 -0.0977 -0.2119 -0.4577
 8865SOL    HW238232   1.937   4.494   4.830  0.6015 -0.3030 -1.9057
 8866SOL     OW38233   1.133   4.407  15.374 -0.2973  0.3992 -0.4858
 8866SOL    HW138234   1.182   4.400  15.456  1.9717  1.2112 -1.7788
 8866SOL    HW238235   1.199   4.383  15.309  1.6212 -0.0651  1.6298
 8867SOL     OW38236   2.532   3.067   1.869 -0.1577  0.0561  0.1908
 8867SOL    HW138237   2.586   3.045   1.945  2.0199  1.5495 -0.9343
 8867SOL    HW238238   2.587   3.126   1.818  2.7554 -1.1943  1.9262
 8868SOL     OW38239   2.450   0.659   2.154  0.6578 -0.0788  0.0163
 8868SOL    HW138240   2.494   0.588   2.107 -0.5985 -1.8176  1.4436
 8868SOL    HW238241   2.373   0.613   2.188  1.5045 -1.7327 -0.3128
 8869SOL     OW38242   0.030   0.902  16.590  0.1374  0.3471 -0.0351
 8869SOL    HW138243   4.676   0.933  16.584  0.1452  0.6402  1.3177
 8869SOL    HW238244   0.046   0.924  16.682  0.4355  4.1643 -1.0371
 8870SOL     OW38245   2.799   2.967   8.520 -0.1157  0.2426  0.3289
 8870SOL    HW138246   2.885   2.953   8.560 -0.4785 -2.4368  0.1595
 8870SOL    HW238247   2.750   2.994   8.597  0.4074 -1.5043  1.2773
 8871SOL     OW38248   4.493   1.941  15.139 -0.0697 -0.6654 -0.5660
 8871SOL    HW138249   4.468   1.858  15.098  0.0553 -1.1346  0.3034
 8871SOL    HW238250   4.554   1.906  15.204  1.3839 -0.6650 -1.9472
 8872SOL     OW38251   0.197   2.237  13.958 -0.5942 -0.1787  0.1077
 8872SOL    HW138252   0.276   2.248  13.905 -0.8099  1.3012  0.0951
 8872SOL    HW238253   0.216   2.159  14.011 -0.9165 -0.1026  0.3308
 8873SOL     OW38254   0.208   1.967   4.457  0.6945  0.0366  0.5839
 8873SOL    HW138255   0.210   1.872   4.452 -0.9809 -0.0604  1.6787
 8873SOL    HW238256   0.294   1.989   4.493  1.0275  0.9579 -0.7409
 8874SOL     OW38257   2.328   1.600   2.429  0.2873  0.0227  0.4833
 8874SOL    HW138258   2.361   1.565   2.511 -1.6425 -1.2686  0.7175
 8874SOL    HW238259   2.236   1.620   2.448  0.5269 -2.4114  4.1290
 8875SOL     OW38260   0.902   3.349   9.131 -0.6161  0.3505  0.0289
 8875SOL    HW138261   0.839   3.353   9.203 -0.8593 -0.7499 -0.1222
 8875SOL    HW238262   0.898   3.257   9.105  2.4272  0.3272 -0.3229
 8876SOL     OW38263   1.374   2.634   7.324  0.1626 -0.1263  0.3977
 8876SOL    HW138264   1.457   2.658   7.364 -0.4410 -0.7925  2.0258
 8876SOL    HW238265   1.360   2.540   7.331 -0.2987 -0.1761 -1.1866
 8877SOL     OW38266   0.619   0.984   3.161  0.4752  0.5237  0.6888
 8877SOL    HW138267   0.655   1.046   3.225  2.8728 -0.4313  0.2581
 8877SOL    HW238268   0.526   1.000   3.176  0.5521 -2.0476  3.8550
 8878SOL     OW38269   3.729   2.884   3.440  0.1290 -0.2934 -0.0944
 8878SOL    HW138270   3.742   2.818   3.373  1.2799 -1.0069  0.8489
 8878SOL    HW238271   3.636   2.906   3.429 -0.2940 -1.4810  1.0499
 8879SOL     OW38272   2.385   0.747   6.415  0.2288 -0.1828  0.0560
 8879SOL    HW138273   2.403   0.670   6.470 -0.3904 -1.3963 -1.4478
 8879SOL    HW238274   2.347   0.808   6.478  0.9767  1.0517 -0.6924
 8880SOL     OW38275   2.093   3.499  17.509  0.0199 -0.3166  0.1041
 8880SOL    HW138276   2.113   3.405  17.504  1.5442 -0.1991  3.9758
 8880SOL    HW238277   2.133   3.533  17.589  0.9869 -3.2246  0.8574
 8881SOL     OW38278   0.487   1.343   5.161 -0.0343 -0.0586  0.0642
 8881SOL    HW138279   0.487   1.375   5.252  1.1973 -1.0366  0.4052
 8881SOL    HW238280   0.444   1.415   5.114  1.6165  0.9649  0.1147
 8882SOL     OW38281   4.438   3.386  10.607  0.4300  0.3449 -0.1615
 8882SOL    HW138282   4.460   3.474  10.577 -0.4296  0.2079 -1.1913
 8882SOL    HW238283   4.448   3.333  10.528  0.1727  1.2743 -0.8125
 8883SOL     OW38284   1.711   1.350   7.580  0.2758 -0.4181 -0.0458
 8883SOL    HW138285   1.748   1.359   7.492 -0.1611  2.0323  0.0135
 8883SOL    HW238286   1.707   1.440   7.612 -1.5788 -0.5189 -0.0041
 8884SOL     OW38287   0.450   3.404   8.629 -0.2430 -0.6512  0.1935
 8884SOL    HW138288   0.408   3.336   8.576 -0.7271  1.9525 -2.7693
 8884SOL    HW238289   0.500   3.442   8.556  1.3994  0.5879  1.9676
 8885SOL     OW38290   4.040   2.092   2.541  0.2526 -0.4638 -0.1505
 8885SOL    HW138291   4.128   2.110   2.509  0.4808 -1.2612  0.0241
 8885SOL    HW238292   4.054   1.998   2.552  0.9575 -0.5989 -2.2914
 8886SOL     OW38293   1.552   1.631  13.683 -0.2671  0.0301 -0.3889
 8886SOL    HW138294   1.506   1.708  13.716 -0.3726 -0.3044  0.2325
 8886SOL    HW238295   1.618   1.624  13.751 -0.6289  1.0905  0.0762
 8887SOL     OW38296   3.208   3.609   1.399  0.1236 -0.0172  0.5579
 8887SOL    HW138297   3.256   3.649   1.471  1.1546  0.0407 -0.1448
 8887SOL    HW238298   3.213   3.516   1.423 -0.4773 -0.4805 -1.0810
 8888SOL     OW38299   1.081   0.815   6.660 -0.1630 -0.1577  0.5270
 8888SOL    HW138300   1.137   0.817   6.737 -0.2378 -1.1169  0.6107
 8888SOL    HW238301   0.998   0.772   6.683  0.3995 -0.7464  1.4433
 8889SOL     OW38302   3.742   2.174  10.658  0.4370 -0.6598  0.1087
 8889SOL    HW138303   3.759   2.106  10.593  1.5394 -0.8048  0.5419
 8889SOL    HW238304   3.818   2.163  10.716 -0.4325 -1.7268  1.0566
 8890SOL     OW38305   2.517   2.653   8.256  0.0706 -0.1237 -0.2732
 8890SOL    HW138306   2.573   2.577   8.271  0.2675 -0.2906 -1.8784
 8890SOL    HW238307   2.514   2.653   8.161  0.0525  0.5093 -0.2786
 8891SOL     OW38308   2.450   3.328   5.839  0.5693 -0.3541  0.2438
 8891SOL    HW138309   2.429   3.337   5.746  2.2214  1.4993  0.0327
 8891SOL    HW238310   2.515   3.260   5.821  0.2376 -0.4863 -0.4578
 8892SOL     OW38311   3.686   4.717   5.512  0.4600 -0.4259  0.5016
 8892SOL    HW138312   3.652   0.062   5.475 -0.6688 -0.3016  1.7806
 8892SOL    HW238313   3.753   4.701   5.446  0.3341  1.4573 -0.0812
 8893SOL     OW38314   3.933   1.687   7.125 -0.0302 -0.3054  0.0545
 8893SOL    HW138315   3.954   1.733   7.043 -0.2753  0.7346  0.5794
 8893SOL    HW238316   3.838   1.680   7.131  0.0003 -0.1330  0.7332
 8894SOL     OW38317   1.844   1.393  10.977 -0.6067 -0.1781 -0.4077
 8894SOL    HW138318   1.808   1.377  11.065 -1.9632  1.5559 -0.6230
 8894SOL    HW238319   1.936   1.385  11.001 -0.6039  1.4562  0.1600
 8895SOL     OW38320   2.993   4.442   6.012 -0.3644  0.7242  0.8576
 8895SOL    HW138321   2.909   4.486   6.022 -2.1646 -2.6223  0.6218
 8895SOL    HW238322   3.030   4.502   5.947  0.3804 -0.8622 -0.2133
 8896SOL     OW38323   2.114   0.449   9.861 -0.2370  0.2282  0.0613
 8896SOL    HW138324   2.065   0.502   9.798 -0.8635  1.5425  1.6392
 8896SOL    HW238325   2.096   0.492   9.944  1.1055 -0.5605  0.7698
 8897SOL     OW38326   0.383   1.283   4.024 -0.0358  0.4534 -0.5192
 8897SOL    HW138327   0.360   1.373   4.001 -0.9593  0.5414  0.7662
 8897SOL    HW238328   0.453   1.288   4.089 -0.8257  1.2258  0.2686
 8898SOL     OW38329   0.967   1.865   7.227 -0.2641 -0.0005  0.0506
 8898SOL    HW138330   0.900   1.800   7.248 -0.3362  0.1915  0.4092
 8898SOL    HW238331   0.924   1.909   7.154  0.4664  0.1892 -0.2580
 8899SOL     OW38332   1.612   2.015   3.694  0.0657  0.6632 -0.2729
 8899SOL    HW138333   1.691   2.012   3.640 -0.5342  1.2487 -1.1728
 8899SOL    HW238334   1.569   1.930   3.692 -0.0919  0.7359  0.0678
 8900SOL     OW38335   3.834   3.150   6.122  0.5688 -0.1300  0.7793
 8900SOL    HW138336   3.915   3.117   6.161  0.8236 -2.7683 -1.9831
 8900SOL    HW238337   3.773   3.119   6.190 -0.4381  0.2975  0.0717
 8901SOL     OW38338   4.610   0.565   8.543 -0.2508 -0.1465  0.0811
 8901SOL    HW138339   4.582   0.487   8.496  0.4968 -0.6387  0.4517
 8901SOL    HW238340   4.705   0.552   8.551 -0.0937  1.4084  0.7634
 8902SOL     OW38341   3.007   3.969   6.937 -0.1054  0.2861  0.2795
 8902SOL    HW138342   2.973   3.921   6.862  1.7645 -0.6194  0.0132
 8902SOL    HW238343   3.039   4.048   6.894 -2.2888  1.2455  0.4042
 8903SOL     OW38344   4.616   4.493   9.453 -0.0539  0.1969 -0.1864
 8903SOL    HW138345   4.552   4.563   9.437 -1.0358 -0.8065 -0.6423
 8903SOL    HW238346   4.694   4.538   9.486  1.6073 -1.0144 -2.4258
 8904SOL     OW38347   0.688   0.992   1.828  0.9418  0.4212  0.2812
 8904SOL    HW138348   0.599   0.965   1.847  1.2427  0.1553  1.3070
 8904SOL    HW238349   0.702   1.060   1.893 -0.2487  1.1123 -0.1856
 8905SOL     OW38350   1.730   4.507   5.605  0.4231  0.3855  0.0519
 8905SOL    HW138351   1.754   4.448   5.677  0.9517  0.7138  0.1414
 8905SOL    HW238352   1.801   4.570   5.598  1.1877 -0.6142 -1.1057
 8906SOL     OW38353   4.158   1.544  17.000 -0.3285  0.4687  0.3921
 8906SOL    HW138354   4.212   1.484  16.948  0.0761  0.9878  0.2070
 8906SOL    HW238355   4.188   1.631  16.972 -0.4724  0.7459  1.0908
 8907SOL     OW38356   3.138   2.850  12.279  0.7457  0.0039 -0.7140
 8907SOL    HW138357   3.183   2.840  12.363 -0.6760  2.8409  0.3813
 8907SOL    HW238358   3.067   2.906  12.311  2.5600  0.9255  1.6698
 8908SOL     OW38359   4.727   0.792   2.836 -0.5195 -0.0454  0.4239
 8908SOL    HW138360   4.679   0.847   2.897  0.1057  1.1424 -0.1540
 8908SOL    HW238361   4.695   0.707   2.867 -1.7380 -0.0681 -0.8846
 8909SOL     OW38362   0.925   2.263  11.521 -0.0480 -0.4876 -0.2649
 8909SOL    HW138363   0.944   2.208  11.445  1.1807  1.4580 -1.3698
 8909SOL    HW238364   1.002   2.253  11.579  1.5540 -0.3331 -2.3761
 8910SOL     OW38365   2.860   1.827   5.601  0.0488  0.0135  0.1249
 8910SOL    HW138366   2.873   1.744   5.555  1.4550 -0.5190  1.4868
 8910SOL    HW238367   2.837   1.794   5.688  0.5111  0.6411  0.4759
 8911SOL     OW38368   1.305   3.389   4.941  0.1982 -0.3077 -0.0207
 8911SOL    HW138369   1.286   3.416   4.851  0.8369  1.5605  0.4063
 8911SOL    HW238370   1.385   3.433   4.971 -1.2573  1.2356  1.5379
 8912SOL     OW38371   0.579   4.120  17.742 -0.2659  0.3701 -0.0896
 8912SOL    HW138372   0.634   4.196   0.018 -0.1721 -0.8737  4.2809
 8912SOL    HW238373   0.501   4.122   0.053 -0.2484  0.5166 -0.0701
 8913SOL     OW38374   4.322   0.854  15.436  0.4077  0.8447  0.2464
 8913SOL    HW138375   4.376   0.893  15.505  1.6450 -0.7238  0.1593
 8913SOL    HW238376   4.252   0.918  15.423  0.2627  0.1538 -2.4378
 8914SOL     OW38377   2.338   3.213   4.910 -0.4650 -0.1685 -0.3970
 8914SOL    HW138378   2.281   3.140   4.936 -0.3316 -0.3114 -0.5063
 8914SOL    HW238379   2.410   3.206   4.973 -0.8756  0.1480  0.1119
 8915SOL     OW38380   2.440   2.442  16.023 -0.5273  0.2037 -0.2729
 8915SOL    HW138381   2.509   2.439  15.958  0.1450  0.1359  0.4392
 8915SOL    HW238382   2.462   2.518  16.077 -0.1255  0.7723 -1.2577
 8916SOL     OW38383   0.123   4.296   2.584 -0.0301 -0.1803  0.0721
 8916SOL    HW138384   0.154   4.384   2.603 -1.5374  0.6956 -1.4711
 8916SOL    HW238385   0.200   4.245   2.557 -1.4825 -0.4441 -3.5825
 8917SOL     OW38386   4.669   0.472  14.593  0.6237  0.2401  0.2547
 8917SOL    HW138387   4.642   0.558  14.561  2.4898  0.6302 -0.2496
 8917SOL    HW238388   4.646   0.476  14.686 -1.4700 -1.1178 -0.2023
 8918SOL     OW38389   0.785   0.010   2.069 -0.0718 -0.5790 -0.0801
 8918SOL    HW138390   0.870   4.710   2.094  0.6039  0.7086 -0.5120
 8918SOL    HW238391   0.805   0.103   2.062 -3.4161 -0.0058 -1.9452
 8919SOL     OW38392   1.614   4.597   7.831 -0.1141  0.1753  0.1609
 8919SOL    HW138393   1.627   4.691   7.821 -1.5070  0.1354 -1.8777
 8919SOL    HW238394   1.531   4.589   7.785  0.1978 -1.5865 -0.1092
 8920SOL     OW38395   0.660   4.383   3.922  0.1063  0.1469 -0.3247
 8920SOL    HW138396   0.601   4.368   3.848 -0.0495 -0.0583 -0.1563
 8920SOL    HW238397   0.710   4.463   3.903  1.2680 -0.1166  1.6232
 8921SOL     OW38398   0.659   1.395   3.582  0.1316 -0.2341 -0.6872
 8921SOL    HW138399   0.588   1.449   3.617 -1.3578 -3.8297  1.8189
 8921SOL    HW238400   0.726   1.462   3.563 -0.5973  0.2877 -1.4196
 8922SOL     OW38401   2.739   0.254   2.841  0.1080  0.4277 -0.6248
 8922SOL    HW138402   2.742   0.286   2.931 -1.0512  0.3475 -0.5629
 8922SOL    HW238403   2.680   0.182   2.862 -1.2280  1.8567  0.4902
 8923SOL     OW38404   3.636   4.176   2.106 -0.0103 -0.4960 -0.0163
 8923SOL    HW138405   3.581   4.224   2.169  1.7753  2.2314 -0.5239
 8923SOL    HW238406   3.581   4.161   2.029 -0.5701  1.0957  0.0742
 8924SOL     OW38407   1.830   2.977   4.537 -0.1715  0.3920  0.8042
 8924SOL    HW138408   1.913   3.024   4.542  0.4715 -0.4126 -2.3005
 8924SOL    HW238409   1.786   3.006   4.616 -2.5811  0.9465 -0.7468
 8925SOL     OW38410   4.013   2.225  12.930 -0.2242  0.3224  0.1010
 8925SOL    HW138411   4.107   2.244  12.932 -0.4265  1.1201  1.7611
 8925SOL    HW238412   4.015   2.133  12.956  1.1862  0.8672  1.8648
 8926SOL     OW38413   2.034   1.985   6.565 -0.5063 -0.4199 -0.5049
 8926SOL    HW138414   1.976   2.017   6.497 -2.7482 -0.1810  1.5112
 8926SOL    HW238415   1.996   2.010   6.649 -0.1963  0.1889 -0.5424
 8927SOL     OW38416   2.143   1.007   2.917  0.0457 -0.0743  0.2726
 8927SOL    HW138417   2.169   0.958   2.995  0.5608 -1.2849 -0.6731
 8927SOL    HW238418   2.208   1.078   2.916  1.1176 -1.0434  1.6223
 8928SOL     OW38419   0.897   3.618   5.048  0.0554  0.9078 -0.0611
 8928SOL    HW138420   0.911   3.544   4.988  0.3071 -0.1305  1.2926
 8928SOL    HW238421   0.852   3.584   5.125  0.9747  0.1920  0.1588
 8929SOL     OW38422   0.330   3.883   6.446 -0.2257  0.2310  0.4901
 8929SOL    HW138423   0.414   3.853   6.480 -0.1220 -0.4237 -0.3399
 8929SOL    HW238424   0.299   3.803   6.402 -0.6191 -1.1242  3.2466
 8930SOL     OW38425   0.254   3.750   7.465 -0.3239 -0.3813 -0.0493
 8930SOL    HW138426   0.172   3.702   7.467 -0.6962  0.3089  1.8635
 8930SOL    HW238427   0.286   3.732   7.377 -0.8990  0.5488 -0.4463
 8931SOL     OW38428   3.199   2.265  11.841 -0.1580 -0.6873  0.1882
 8931SOL    HW138429   3.263   2.335  11.827 -1.9222  1.0232  0.7383
 8931SOL    HW238430   3.213   2.229  11.929  0.9330  1.3772  0.8621
 8932SOL     OW38431   2.025   2.408   1.903  0.9887  0.2131 -0.4509
 8932SOL    HW138432   2.052   2.354   1.830  2.6230  0.0772  0.2597
 8932SOL    HW238433   2.098   2.469   1.915 -1.3155  3.0321 -0.7991
 8933SOL     OW38434   0.848   0.563  15.251  0.0014 -0.3026  0.1670
 8933SOL    HW138435   0.871   0.616  15.327 -1.3649  1.1239 -0.4012
 8933SOL    HW238436   0.924   0.508  15.236  0.3496  0.6247 -1.4748
 8934SOL     OW38437   3.487   4.194   9.428 -1.3958 -0.4574  0.5867
 8934SOL    HW138438   3.506   4.207   9.335 -1.6960  0.0483  0.5945
 8934SOL    HW238439   3.471   4.287   9.448 -0.7910 -0.4424  0.9962
 8935SOL     OW38440   2.347   2.059  16.610 -0.5048 -0.7738  0.0563
 8935SOL    HW138441   2.380   2.144  16.638  0.9983 -1.7949  1.3832
 8935SOL    HW238442   2.295   2.077  16.532  0.3845  0.3471 -0.2705
 8936SOL     OW38443   0.792   0.642   7.293  0.0241  0.1965 -0.0248
 8936SOL    HW138444   0.884   0.615   7.296 -0.7190 -2.1268  1.6855
 8936SOL    HW238445   0.761   0.620   7.205 -0.3127  0.0881  0.1229
 8937SOL     OW38446   3.093   4.239   7.564  0.1617 -0.0229  0.5134
 8937SOL    HW138447   3.143   4.270   7.639  0.4084 -0.1244  0.3922
 8937SOL    HW238448   3.069   4.326   7.530 -2.2319 -0.4551  1.0940
 8938SOL     OW38449   3.953   2.730   2.652  0.3912  0.2683 -0.3663
 8938SOL    HW138450   3.942   2.821   2.681  2.2880 -0.2718  2.0479
 8938SOL    HW238451   4.048   2.723   2.659  0.1829 -0.2832  1.8268
 8939SOL     OW38452   3.721   3.152   2.822 -0.3138 -0.2411 -0.1823
 8939SOL    HW138453   3.753   3.207   2.893 -3.0068  0.7208  0.2979
 8939SOL    HW238454   3.638   3.197   2.804 -1.4147 -2.8760 -1.6411
 8940SOL     OW38455   0.038   0.867  16.295 -0.3411  0.6062  0.0214
 8940SOL    HW138456   0.068   0.777  16.312 -2.5646  0.3300  2.6392
 8940SOL    HW238457   0.031   0.904  16.383  0.4039  1.0921 -0.1270
 8941SOL     OW38458   3.920   2.116   7.983  0.2382  0.7058 -0.1652
 8941SOL    HW138459   3.914   2.028   7.947 -1.5960  0.6762  0.2569
 8941SOL    HW238460   3.843   2.158   7.945 -0.1821 -0.9633 -1.1625
 8942SOL     OW38461   4.714   2.900   8.994  0.1947 -0.0306  0.0191
 8942SOL    HW138462   0.052   2.958   8.977 -0.3557  0.7823  0.3896
 8942SOL    HW238463   4.729   2.846   8.917  0.4039  0.4085 -0.2544
 8943SOL     OW38464   1.529   3.403   1.987  0.0107 -0.5501  0.0399
 8943SOL    HW138465   1.562   3.320   2.022  2.5452 -0.1814 -1.4270
 8943SOL    HW238466   1.518   3.372   1.897 -1.9215 -0.1970  0.1631
 8944SOL     OW38467   1.201   2.009   1.780  0.5383  0.7303  0.6005
 8944SOL    HW138468   1.287   2.048   1.796  1.5817 -1.0840 -0.5028
 8944SOL    HW238469   1.149   2.083   1.751  1.0329  1.5484  1.8061
 8945SOL     OW38470   2.513   3.782  16.893  0.3783 -0.1461 -0.3007
 8945SOL    HW138471   2.572   3.755  16.822 -0.3321  2.2049 -1.7749
 8945SOL    HW238472   2.541   3.870  16.919  1.9041 -1.2349  1.7114
 8946SOL     OW38473   2.978   3.363   6.114 -0.1386 -0.3343 -0.4660
 8946SOL    HW138474   2.943   3.435   6.166 -0.6626  1.3741 -3.1796
 8946SOL    HW238475   3.057   3.337   6.161 -0.9589  0.8501  1.5408
 8947SOL     OW38476   4.169   1.234   8.018  1.0416  0.0549 -0.8691
 8947SOL    HW138477   4.161   1.144   7.987 -1.6292  0.4636 -1.4079
 8947SOL    HW238478   4.214   1.215   8.101 -2.2811 -0.0290  0.8999
 8948SOL     OW38479   0.067   3.079  16.925  0.8836 -0.5145 -0.2073
 8948SOL    HW138480   0.064   2.985  16.908 -0.0999 -0.5130 -0.0261
 8948SOL    HW238481   0.147   3.089  16.976  0.1307 -1.4800  1.1585
 8949SOL     OW38482   4.393   0.928   1.837 -0.2237 -0.2019 -0.3508
 8949SOL    HW138483   4.346   0.850   1.867 -1.1286  0.2672 -0.5582
 8949SOL    HW238484   4.418   0.890   1.753 -0.5879 -1.1640 -0.0188
 8950SOL     OW38485   2.619   2.847   3.112 -0.1115  0.1162 -0.0278
 8950SOL    HW138486   2.659   2.854   3.199 -2.8862  0.1079  1.2340
 8950SOL    HW238487   2.634   2.938   3.088  3.8090 -0.8803 -1.4169
 8951SOL     OW38488   2.844   3.436   7.379  0.8960  0.4506  1.2365
 8951SOL    HW138489   2.770   3.482   7.340  1.1194 -1.6992 -1.6652
 8951SOL    HW238490   2.913   3.443   7.314  1.0838  3.6411  1.7807
 8952SOL     OW38491   3.840   2.490  16.012 -0.0721  0.1752  0.4508
 8952SOL    HW138492   3.797   2.408  15.987  0.9773 -0.9883  2.5342
 8952SOL    HW238493   3.765   2.543  15.982 -1.1922  0.1645  3.2332
 8953SOL     OW38494   1.491   0.787   4.423 -0.0808 -0.3493  0.0618
 8953SOL    HW138495   1.563   0.850   4.429 -0.4105  0.0677 -0.3849
 8953SOL    HW238496   1.459   0.799   4.512  3.1298  1.5953  0.9810
 8954SOL     OW38497   4.516   3.225   6.016 -0.0343  0.6333 -0.0015
 8954SOL    HW138498   4.573   3.176   6.075 -0.9395  1.7018  1.7345
 8954SOL    HW238499   4.465   3.157   5.971  2.5578 -0.0039 -1.9796
 8955SOL     OW38500   0.632   3.112   4.491  0.0460  0.3875  0.2007
 8955SOL    HW138501   0.559   3.107   4.429 -0.5380 -1.4505  1.0161
 8955SOL    HW238502   0.670   3.024   4.486 -4.0229 -1.4622  1.7654
 8956SOL     OW38503   3.015   3.836   4.184 -0.2580 -0.0292 -0.1832
 8956SOL    HW138504   3.083   3.892   4.220 -1.4631  1.6204 -0.4688
 8956SOL    HW238505   3.058   3.778   4.121 -1.2004 -2.1539  1.1124
 8957SOL     OW38506   0.597   1.659  15.116 -0.2298  0.6787  0.3625
 8957SOL    HW138507   0.533   1.727  15.094  1.4098  1.4776 -1.9167
 8957SOL    HW238508   0.599   1.654  15.212 -1.6857 -2.2890  0.2538
 8958SOL     OW38509   0.167   0.630   4.254  0.5633 -0.5604 -0.2412
 8958SOL    HW138510   0.196   0.619   4.345 -0.2334  0.9428  0.1910
 8958SOL    HW238511   0.249   0.634   4.205 -0.3620  2.4969 -1.5518
 8959SOL     OW38512   0.615   1.278   9.435 -0.2458 -0.2125 -0.0431
 8959SOL    HW138513   0.530   1.234   9.435  0.3007 -1.2646  2.0557
 8959SOL    HW238514   0.673   1.211   9.398 -1.4422 -1.6672  0.6922
 8960SOL     OW38515   2.238   1.013   9.636 -0.5722 -0.0327  0.1146
 8960SOL    HW138516   2.289   0.955   9.692 -1.4621 -1.4795 -0.5611
 8960SOL    HW238517   2.303   1.083   9.630 -0.0519 -0.5688 -0.3799
 8961SOL     OW38518   0.807   0.130   7.976 -0.0622 -0.2651  0.2306
 8961SOL    HW138519   0.778   0.200   8.034 -2.3101 -0.5613 -0.5272
 8961SOL    HW238520   0.839   0.063   8.036  0.1015  0.5372  1.0260
 8962SOL     OW38521   1.455   2.991   4.001  0.0137  0.8239  0.2901
 8962SOL    HW138522   1.372   2.963   3.961  1.1629  0.2261 -1.6629
 8962SOL    HW238523   1.467   2.919   4.063 -2.6772 -1.1753 -1.4629
 8963SOL     OW38524   3.332   3.536  16.861 -0.0176  0.1422 -0.2767
 8963SOL    HW138525   3.405   3.514  16.804  0.3522  0.5315  0.0449
 8963SOL    HW238526   3.369   3.513  16.946  0.1037 -2.4254 -1.0330
 8964SOL     OW38527   1.421   2.840  12.373 -0.5372 -0.6788  0.2644
 8964SOL    HW138528   1.390   2.888  12.450 -0.0149  1.3955 -0.8339
 8964SOL    HW238529   1.355   2.866  12.308 -0.9228 -0.3658  0.7746
 8965SOL     OW38530   2.027   4.534   1.760  0.1837  0.0090  0.1044
 8965SOL    HW138531   1.985   4.509   1.842  1.3298 -3.6188 -0.4171
 8965SOL    HW238532   2.049   4.443   1.739 -3.0571 -0.3835 -1.6766
 8966SOL     OW38533   0.330   1.711   5.543  0.3747 -0.2626 -0.2250
 8966SOL    HW138534   0.236   1.717   5.526  0.1671 -0.3765  0.8862
 8966SOL    HW238535   0.338   1.708   5.638 -2.0625  1.5010  0.0327
 8967SOL     OW38536   3.587   2.936   5.365 -0.3017 -0.4242  0.0608
 8967SOL    HW138537   3.514   2.995   5.348  0.4151  0.2784 -0.5694
 8967SOL    HW238538   3.541   2.857   5.394  2.2223 -2.1659 -0.6998
 8968SOL     OW38539   1.061   2.673   9.635  0.2358  0.2847  0.8270
 8968SOL    HW138540   1.042   2.594   9.685 -0.0226  1.3552  2.4516
 8968SOL    HW238541   1.077   2.729   9.712 -0.2217  1.4735  0.0688
 8969SOL     OW38542   2.087   4.086   4.864 -0.6001  0.0915 -0.3774
 8969SOL    HW138543   2.153   4.134   4.815 -0.6370 -0.3582 -0.8572
 8969SOL    HW238544   2.093   4.125   4.951  2.9574 -2.1072  0.3550
 8970SOL     OW38545   2.594   1.888   0.859  0.2510  0.4316 -0.0544
 8970SOL    HW138546   2.503   1.910   0.879  0.1672 -0.6022  0.6757
 8970SOL    HW238547   2.622   1.904   0.949  0.3389  0.6821 -0.1253
 8971SOL     OW38548   3.184   1.616  10.684  0.0767 -0.5475  0.3482
 8971SOL    HW138549   3.258   1.612  10.744 -0.4334  1.3761  1.0802
 8971SOL    HW238550   3.131   1.681  10.731  0.7148 -1.2750  2.0771
 8972SOL     OW38551   0.910   0.757   3.613  0.4595  0.0360 -0.6891
 8972SOL    HW138552   0.917   0.847   3.645  1.2415 -0.6715  1.1360
 8972SOL    HW238553   0.828   0.734   3.656  0.2464  1.6314 -0.2070
 8973SOL     OW38554   4.641   2.232  13.476  0.3289  0.1774  0.5409
 8973SOL    HW138555   4.633   2.232  13.381 -0.4470 -0.6913  0.6021
 8973SOL    HW238556   4.560   2.277  13.499 -1.5913 -2.3169 -1.3761
 8974SOL     OW38557   2.914   2.693  10.202 -0.6722  0.8280  0.5063
 8974SOL    HW138558   2.952   2.779  10.220  0.5754  0.7380 -1.7028
 8974SOL    HW238559   2.837   2.722  10.153 -1.0184  1.2385  1.2799
 8975SOL     OW38560   1.167   1.403   6.462 -0.4581 -0.1505  0.1879
 8975SOL    HW138561   1.181   1.453   6.382 -0.5655  0.4684  0.5559
 8975SOL    HW238562   1.245   1.347   6.456 -1.8340 -2.1424  1.1323
 8976SOL     OW38563   2.780   3.164  17.257  0.4422 -0.2620 -0.4666
 8976SOL    HW138564   2.827   3.243  17.231  0.5064  0.2783  1.3321
 8976SOL    HW238565   2.716   3.198  17.319 -0.3592 -1.0464 -0.8535
 8977SOL     OW38566   0.110   3.558  14.955  0.8013  0.0607  0.4654
 8977SOL    HW138567   0.142   3.475  14.990 -1.0137 -1.0130 -0.4301
 8977SOL    HW238568   0.193   3.606  14.956 -0.3628  2.1390 -3.9080
 8978SOL     OW38569   3.526   1.977   7.041  0.2361  0.2914  0.1273
 8978SOL    HW138570   3.541   2.017   7.127  0.7736 -2.4648  1.3225
 8978SOL    HW238571   3.431   1.963   7.042  0.0183  1.7704 -0.2929
 8979SOL     OW38572   2.486   3.992  14.735 -0.2387 -0.0205  0.6186
 8979SOL    HW138573   2.506   4.050  14.809 -0.0583  1.5338 -0.6612
 8979SOL    HW238574   2.516   4.032  14.654 -2.2336 -1.2675 -0.7217
 8980SOL     OW38575   2.162   2.466  16.078 -0.6193 -0.5408 -0.1980
 8980SOL    HW138576   2.243   2.462  16.027  0.2639  0.9573  1.0754
 8980SOL    HW238577   2.183   2.540  16.135 -1.1562  0.9178 -1.9195
 8981SOL     OW38578   0.288   1.488   6.573  0.2840 -0.1367 -0.0069
 8981SOL    HW138579   0.369   1.499   6.623 -0.0160  2.1023 -0.0261
 8981SOL    HW238580   0.300   1.396   6.550 -0.6950 -0.3362  0.2910
 8982SOL     OW38581   4.109   1.625   3.473  0.1893  0.6350 -0.0606
 8982SOL    HW138582   4.180   1.677   3.512 -1.4735  1.4539  1.9048
 8982SOL    HW238583   4.152   1.549   3.436  1.1240  1.1968 -0.1214
 8983SOL     OW38584   4.537   3.962   3.122  0.1369  0.2570 -0.2751
 8983SOL    HW138585   4.513   4.051   3.095  0.5759  1.1060  2.1701
 8983SOL    HW238586   4.500   3.907   3.052  0.4928  0.1543 -0.3822
 8984SOL     OW38587   3.410   3.214   9.133 -0.1374  0.0503 -0.0469
 8984SOL    HW138588   3.506   3.214   9.142 -0.1972 -2.5318  0.5515
 8984SOL    HW238589   3.387   3.279   9.200 -0.4530  0.4358 -0.5277
 8985SOL     OW38590   4.500   1.636   1.528 -0.5121 -0.0106  0.4674
 8985SOL    HW138591   4.439   1.586   1.474  1.0790 -1.5160  0.0400
 8985SOL    HW238592   4.583   1.608   1.489  0.2539  2.0138  0.6480
 8986SOL     OW38593   3.505   1.173  16.329  0.4283 -0.5535 -0.0596
 8986SOL    HW138594   3.488   1.256  16.373  0.9727  0.4175 -1.7136
 8986SOL    HW238595   3.498   1.219  16.246  2.2622  1.3601  0.8478
 8987SOL     OW38596   2.257   3.248   2.194 -0.4823 -0.0779 -0.1386
 8987SOL    HW138597   2.211   3.249   2.110 -1.5296  0.4700  0.4415
 8987SOL    HW238598   2.254   3.154   2.212 -0.1927 -0.3952 -1.7596
 8988SOL     OW38599   1.238   3.907  13.150 -0.0955 -0.1699 -0.1396
 8988SOL    HW138600   1.328   3.900  13.182 -0.2702 -1.4181  0.0675
 8988SOL    HW238601   1.215   3.815  13.164 -1.9545  0.7109  2.4482
 8989SOL     OW38602   3.013   4.533   3.553  0.5063  0.1556  0.2914
 8989SOL    HW138603   2.925   4.569   3.540 -0.4432 -2.1942  0.1728
 8989SOL    HW238604   3.073   4.608   3.548 -1.7435  2.0539  2.2406
 8990SOL     OW38605   3.640   0.382   9.721  0.2009  0.0828  0.6393
 8990SOL    HW138606   3.621   0.359   9.630  2.4416 -1.1695  0.4826
 8990SOL    HW238607   3.600   0.467   9.739  3.1507  1.4017  0.9709
 8991SOL     OW38608   3.507   2.707   7.795  0.4562  0.5115 -0.9203
 8991SOL    HW138609   3.420   2.676   7.770  0.7268 -2.6211  1.9809
 8991SOL    HW238610   3.551   2.633   7.753 -0.3348 -0.3693 -0.2118
 8992SOL     OW38611   3.510   0.360   8.162  0.2357  0.0979 -0.1480
 8992SOL    HW138612   3.537   0.411   8.239 -1.5620  0.7873  0.0129
 8992SOL    HW238613   3.415   0.355   8.175  0.3156 -2.6215 -0.4785
 8993SOL     OW38614   0.472   1.612   3.363 -0.1475 -0.4648  0.0884
 8993SOL    HW138615   0.384   1.580   3.341  0.1768 -1.8009  0.7693
 8993SOL    HW238616   0.455   1.707   3.364 -0.8424 -0.5535 -1.8987
 8994SOL     OW38617   3.609   0.968   8.549 -0.3544  0.1204  0.3555
 8994SOL    HW138618   3.589   1.040   8.490 -0.5679  0.8786  1.3510
 8994SOL    HW238619   3.614   1.020   8.629 -1.9190 -0.7771  1.0554
 8995SOL     OW38620   4.728   3.008   7.740  0.7840 -0.1977 -0.3904
 8995SOL    HW138621   4.650   3.004   7.794  0.2153 -1.9095 -1.3297
 8995SOL    HW238622   0.005   3.102   7.744  2.4651 -0.5596  2.7931
 8996SOL     OW38623   4.485   1.860  17.195 -0.0132  0.3475 -0.1889
 8996SOL    HW138624   4.551   1.884  17.129  1.6155 -1.4179  0.8020
 8996SOL    HW238625   4.551   1.827  17.255 -1.2456  0.4336  1.2168
 8997SOL     OW38626   1.629   0.302   5.160 -0.6256 -0.1094 -0.7179
 8997SOL    HW138627   1.567   0.342   5.222 -2.7660 -1.0081 -2.3133
 8997SOL    HW238628   1.565   0.267   5.099  0.8388  0.4230 -2.5603
 8998SOL     OW38629   1.093   2.688   4.231  0.1456  0.1806  0.6056
 8998SOL    HW138630   1.115   2.630   4.158  0.7573  0.9501  0.1769
 8998SOL    HW238631   1.132   2.649   4.310  1.1187 -1.4281 -0.6827
 8999SOL     OW38632   4.104   2.968   0.133  0.2487  0.3981  0.1727
 8999SOL    HW138633   4.064   2.990   0.217 -0.0308  1.9649 -0.3779
 8999SOL    HW238634   4.172   3.034   0.120  1.9375 -1.0860  1.5110
 9000SOL     OW38635   1.264   0.230   5.421 -0.6112 -0.0175 -0.0638
 9000SOL    HW138636   1.268   0.281   5.340  0.1430 -1.8676 -1.1837
 9000SOL    HW238637   1.169   0.234   5.433 -0.9367 -2.5743 -1.7179
 9001SOL     OW38638   3.580   1.477  14.319  0.8858 -0.6490 -0.0847
 9001SOL    HW138639   3.605   1.394  14.278  2.7212  0.1626 -0.6020
 9001SOL    HW238640   3.666   1.518  14.328  1.1807 -1.0441 -1.1473
 9002SOL     OW38641   2.866   2.277   5.870  0.2959  0.1710 -0.6006
 9002SOL    HW138642   2.957   2.298   5.889  0.8792 -1.9469 -1.0820
 9002SOL    HW238643   2.866   2.279   5.775  2.0194  1.1475 -0.5776
 9003SOL     OW38644   4.023   1.685  14.137 -0.2063  0.5127  0.6597
 9003SOL    HW138645   4.102   1.738  14.127 -0.1408  0.1148 -1.0533
 9003SOL    HW238646   4.060   1.612  14.187 -0.1450 -0.6155 -0.9973
 9004SOL     OW38647   0.528   2.670  15.293  1.1688 -0.3277 -0.2112
 9004SOL    HW138648   0.514   2.577  15.274  0.7565  0.3290 -3.1444
 9004SOL    HW238649   0.500   2.679  15.384 -1.4021 -0.8779 -0.9445
 9005SOL     OW38650   0.519   0.016   7.853 -0.1839  0.2466  0.4288
 9005SOL    HW138651   0.567   4.676   7.884 -2.6005 -1.7582 -0.7580
 9005SOL    HW238652   0.496   4.708   7.771 -0.5059  2.6027 -0.7479
 9006SOL     OW38653   1.555   3.176  13.659 -0.5923  0.3143  0.1903
 9006SOL    HW138654   1.510   3.132  13.731  0.8214 -0.3941  0.6457
 9006SOL    HW238655   1.513   3.134  13.584 -0.7300  0.2398  0.3091
 9007SOL     OW38656   1.096   0.076   1.836  0.1758  0.4323 -0.0273
 9007SOL    HW138657   1.146   0.145   1.793 -0.0331  0.6096  0.0165
 9007SOL    HW238658   1.007   0.080   1.800  0.3156 -0.4741 -0.4748
 9008SOL     OW38659   2.284   0.157   4.930 -0.3805 -0.9214  0.3986
 9008SOL    HW138660   2.283   0.161   5.025 -1.8520  2.8716  0.2218
 9008SOL    HW238661   2.259   0.245   4.902 -2.6628 -1.6812  0.0411
 9009SOL     OW38662   0.063   1.396  15.952 -0.0133  0.0524  0.2797
 9009SOL    HW138663   4.719   1.345  15.960 -0.5474  0.9740  0.8507
 9009SOL    HW238664   0.035   1.487  15.942  0.8593  0.0386 -2.3385
 9010SOL     OW38665   4.355   3.813  12.546 -0.4677 -0.5656  0.3373
 9010SOL    HW138666   4.368   3.718  12.549 -0.9421 -0.5391  3.7769
 9010SOL    HW238667   4.379   3.842  12.634  1.0717 -0.9771  0.0542
 9011SOL     OW38668   2.092   0.416   8.533 -0.4538  0.0817 -0.8185
 9011SOL    HW138669   2.168   0.459   8.571 -0.5449 -0.3299 -0.1580
 9011SOL    HW238670   2.051   0.376   8.610  2.0987  2.1247  1.6075
 9012SOL     OW38671   3.427   4.226   7.585 -0.2227 -0.1675 -0.1427
 9012SOL    HW138672   3.365   4.230   7.658 -0.4253  4.4500 -0.5751
 9012SOL    HW238673   3.477   4.154   7.623  0.5265  0.5629  0.2456
 9013SOL     OW38674   4.263   2.302   3.794 -0.5547 -0.5617  0.4419
 9013SOL    HW138675   4.319   2.371   3.758 -1.0305 -0.5795 -0.3117
 9013SOL    HW238676   4.248   2.256   3.712 -0.9250  1.3604 -0.5547
 9014SOL     OW38677   1.459   2.289   5.524  0.1018  0.5420  0.2105
 9014SOL    HW138678   1.404   2.360   5.557  0.6848  1.8964 -1.6911
 9014SOL    HW238679   1.531   2.284   5.587  0.6286  1.5637 -0.3020
 9015SOL     OW38680   0.603   1.701   5.420 -0.1193 -0.3139  0.2886
 9015SOL    HW138681   0.509   1.698   5.436 -0.3007 -1.3650 -0.9648
 9015SOL    HW238682   0.643   1.757   5.487  1.2869 -0.3281 -0.5223
 9016SOL     OW38683   1.673   1.717   5.639  0.1499  0.5239 -0.6185
 9016SOL    HW138684   1.609   1.725   5.569  0.2971 -1.4653 -0.9951
 9016SOL    HW238685   1.622   1.718   5.720  2.1167  1.1554  0.6104
 9017SOL     OW38686   3.553   4.630   2.710  0.0609  0.1376  0.0065
 9017SOL    HW138687   3.480   4.571   2.691  1.8899 -2.2677  0.3583
 9017SOL    HW238688   3.509   4.703   2.753  1.4791  1.1692 -0.2795
 9018SOL     OW38689   4.463   2.917   5.513 -0.3295  0.6462 -0.4524
 9018SOL    HW138690   4.408   2.925   5.591  0.1001 -1.7660  0.1202
 9018SOL    HW238691   4.435   2.832   5.477  0.5905 -0.2916  1.0827
 9019SOL     OW38692   1.234   1.452   0.509 -0.1101 -0.5285 -0.6971
 9019SOL    HW138693   1.260   1.477   0.598 -0.1064 -0.2298 -0.7837
 9019SOL    HW238694   1.255   1.527   0.453  1.9066 -1.5065 -1.2653
 9020SOL     OW38695   2.258   3.432  11.155 -0.6262  0.4815 -0.4468
 9020SOL    HW138696   2.264   3.465  11.245 -0.7949  0.7495 -0.5336
 9020SOL    HW238697   2.293   3.344  11.167 -1.7859  0.3802  2.1564
 9021SOL     OW38698   2.597   2.129   8.826 -0.2319 -0.3924  0.1402
 9021SOL    HW138699   2.517   2.159   8.870  1.5059 -1.9096  4.2237
 9021SOL    HW238700   2.635   2.215   8.806  0.0411 -0.8148 -1.1398
 9022SOL     OW38701   3.301   2.593   1.068 -0.0325  0.2804  0.5794
 9022SOL    HW138702   3.305   2.657   0.997 -0.5610 -0.9872 -0.6057
 9022SOL    HW238703   3.212   2.559   1.060 -0.1436  0.7351 -0.0847
 9023SOL     OW38704   3.478   3.689  14.027  0.9906 -0.2912 -0.1287
 9023SOL    HW138705   3.560   3.644  14.046  0.5776 -0.2136  1.7899
 9023SOL    HW238706   3.416   3.616  14.028 -0.8172  1.2373  0.2001
 9024SOL     OW38707   3.020   3.194  13.899 -0.5451 -0.7718  0.5686
 9024SOL    HW138708   3.112   3.195  13.926  0.2626  2.1616 -2.2894
 9024SOL    HW238709   2.983   3.229  13.980  1.1095  3.7375 -0.5854
 9025SOL     OW38710   1.247   3.691   1.276 -0.1198 -0.2434 -0.3524
 9025SOL    HW138711   1.314   3.759   1.281  1.4223 -1.9562  1.9144
 9025SOL    HW238712   1.284   3.640   1.204 -1.3581  0.3715 -1.4272
 9026SOL     OW38713   1.011   2.238  17.165 -0.1305 -0.4218 -0.0013
 9026SOL    HW138714   0.995   2.197  17.080 -2.3978  1.1416 -0.3203
 9026SOL    HW238715   0.922   2.253  17.196 -0.4220  0.7048 -1.3922
 9027SOL     OW38716   3.002   1.582   2.400 -0.0164  0.1552 -0.2759
 9027SOL    HW138717   2.906   1.589   2.405 -0.0577 -1.5348  1.1477
 9027SOL    HW238718   3.016   1.677   2.401 -0.1522  0.1870 -1.4510
 9028SOL     OW38719   1.668   0.754   4.211 -0.6840 -0.4579 -0.0739
 9028SOL    HW138720   1.674   0.658   4.203 -2.5373 -0.4461 -1.3999
 9028SOL    HW238721   1.597   0.755   4.275  1.4390  3.6625  2.2203
 9029SOL     OW38722   1.035   2.957   5.978 -0.4818 -0.1907  0.1941
 9029SOL    HW138723   0.960   2.991   5.929  1.1720  1.6453 -1.0447
 9029SOL    HW238724   1.031   2.862   5.966 -2.1187 -0.2002  0.8177
 9030SOL     OW38725   3.538   0.036   8.106 -1.0608 -0.0706 -0.0730
 9030SOL    HW138726   3.468   4.722   8.065 -1.9043  1.3432 -0.3726
 9030SOL    HW238727   3.509   0.127   8.111 -0.8282  0.0638 -1.1048
 9031SOL     OW38728   1.028   0.446  10.780 -0.0994  0.5699  0.7919
 9031SOL    HW138729   0.967   0.487  10.718 -0.5863  0.3247  1.1037
 9031SOL    HW238730   0.972   0.383  10.827  2.2577 -1.6881  0.5355
 9032SOL     OW38731   4.252   1.789   6.742  0.2439 -0.1316 -0.0423
 9032SOL    HW138732   4.228   1.761   6.654  0.8460  0.5449 -0.4168
 9032SOL    HW238733   4.313   1.720   6.769  0.3132 -0.0124  0.1067
 9033SOL     OW38734   1.077   1.596   6.240  0.8332 -0.0867 -0.8564
 9033SOL    HW138735   0.982   1.585   6.232  0.6607  0.4230  0.5920
 9033SOL    HW238736   1.112   1.531   6.179 -0.5996  0.9657 -2.7976
 9034SOL     OW38737   0.038   2.913   7.302 -0.7410 -0.0806  0.3104
 9034SOL    HW138738   0.042   3.006   7.281 -0.6277 -0.9384 -3.4849
 9034SOL    HW238739   4.714   2.889   7.232  0.7899 -0.8717 -0.7284
 9035SOL     OW38740   2.673   3.125   3.355  0.0009 -0.7807  0.5684
 9035SOL    HW138741   2.692   3.104   3.263  2.6818  1.1112  0.6808
 9035SOL    HW238742   2.734   3.066   3.399  1.2265  0.2519  0.2648
 9036SOL     OW38743   3.703   3.128  11.828 -0.6473 -0.5824  0.1221
 9036SOL    HW138744   3.666   3.213  11.851 -0.6869 -0.1737 -1.4395
 9036SOL    HW238745   3.756   3.156  11.753 -1.8836  0.8554 -0.2025
 9037SOL     OW38746   3.018   1.740   6.221  0.4771 -0.1885  0.8049
 9037SOL    HW138747   3.098   1.755   6.270  1.1309  0.2403 -0.3943
 9037SOL    HW238748   3.035   1.784   6.137 -0.6792 -0.4605  0.4210
 9038SOL     OW38749   0.858   4.720  16.776  0.1960  0.2745  0.7362
 9038SOL    HW138750   0.936   4.679  16.812  0.0785 -0.7898 -0.2007
 9038SOL    HW238751   0.853   4.680  16.689 -0.4838 -1.7367  1.7131
 9039SOL     OW38752   3.003   1.351   2.737  0.1459 -0.0365 -0.1324
 9039SOL    HW138753   2.929   1.411   2.745  0.9934  0.8723  0.8266
 9039SOL    HW238754   2.969   1.279   2.791 -0.0570 -1.6141 -2.3271
 9040SOL     OW38755   4.448   3.022  13.138  0.2954 -0.2705  0.4219
 9040SOL    HW138756   4.472   2.933  13.161 -1.2966 -0.7547  0.2538
 9040SOL    HW238757   4.442   3.075  13.217  1.2727 -1.9084  1.5930
 9041SOL     OW38758   0.685   4.105  13.717 -0.0570 -0.4621  0.0637
 9041SOL    HW138759   0.717   4.024  13.758 -1.0799 -0.1639  1.4478
 9041SOL    HW238760   0.743   4.127  13.645 -0.5859 -0.1034 -0.2557
 9042SOL     OW38761   4.367   3.667   8.873 -0.1093  0.0619  0.0133
 9042SOL    HW138762   4.404   3.745   8.915  1.1118 -0.4903 -0.0537
 9042SOL    HW238763   4.281   3.701   8.848 -0.3814  0.1103  1.0188
 9043SOL     OW38764   1.169   1.053   2.834  0.6954  0.3997 -0.0320
 9043SOL    HW138765   1.193   1.145   2.826 -1.5869  1.0049  0.2684
 9043SOL    HW238766   1.074   1.054   2.823  0.5249 -0.3188  1.3534
 9044SOL     OW38767   2.428   0.762  15.451 -0.0662 -0.2093 -0.0411
 9044SOL    HW138768   2.347   0.810  15.473  1.9624  2.2147  2.2852
 9044SOL    HW238769   2.408   0.743  15.360  0.0536  0.0105 -0.1132
 9045SOL     OW38770   1.266   2.558   4.040  0.5680 -0.0517  0.0261
 9045SOL    HW138771   1.232   2.486   4.093 -1.2142  0.3833 -0.4993
 9045SOL    HW238772   1.272   2.519   3.953 -0.7864 -0.5831  0.1572
 9046SOL     OW38773   2.889   3.454   2.809 -0.7259 -0.6029  0.4224
 9046SOL    HW138774   2.959   3.436   2.746 -2.2396  0.5457 -1.5754
 9046SOL    HW238775   2.938   3.495   2.881  0.5069 -1.3913  0.0328
 9047SOL     OW38776   1.449   2.656   8.856 -0.6317  0.0144 -0.1558
 9047SOL    HW138777   1.445   2.578   8.801  1.1929  0.1645 -0.4865
 9047SOL    HW238778   1.461   2.623   8.945 -0.8915  1.9801  0.6151
 9048SOL     OW38779   1.247   4.024  10.606  0.4137  0.2752  0.5230
 9048SOL    HW138780   1.291   4.064  10.680  3.3086  0.0880 -1.0807
 9048SOL    HW238781   1.159   4.057  10.621 -0.3471 -0.5657 -1.9953
 9049SOL     OW38782   4.288   3.857   9.893  0.2586 -0.5764  0.6476
 9049SOL    HW138783   4.233   3.846   9.971  1.0701  3.4628  1.7939
 9049SOL    HW238784   4.226   3.853   9.819  0.3662 -0.5993  0.5585
 9050SOL     OW38785   2.060   3.954   9.115 -0.0309 -0.1470  0.4186
 9050SOL    HW138786   1.992   3.886   9.113 -1.4139  1.2705 -0.8151
 9050SOL    HW238787   2.085   3.952   9.208  3.9537 -0.4954 -0.6673
 9051SOL     OW38788   0.356   1.108  17.084  0.3148  0.2463  0.0458
 9051SOL    HW138789   0.294   1.076  17.018  0.5282  1.2982 -0.6732
 9051SOL    HW238790   0.316   1.081  17.166 -0.3241  1.2824  0.0664
 9052SOL     OW38791   2.716   2.088   1.764 -0.2091 -0.6407 -0.7773
 9052SOL    HW138792   2.748   2.153   1.827 -0.6380 -2.0141  0.8714
 9052SOL    HW238793   2.662   2.142   1.706  0.8373  1.4414  0.1714
 9053SOL     OW38794   1.688   3.632   2.810  0.1038  0.3500  0.2979
 9053SOL    HW138795   1.677   3.636   2.715  0.5192  1.9555  0.3250
 9053SOL    HW238796   1.740   3.552   2.815 -1.1700 -0.6279 -2.5171
 9054SOL     OW38797   3.679   1.894   8.200  0.0616  0.0408  0.1886
 9054SOL    HW138798   3.732   1.868   8.125 -1.6414  2.1659 -1.7919
 9054SOL    HW238799   3.735   1.960   8.242  0.3326 -0.0939  0.0327
 9055SOL     OW38800   0.709   4.030  12.854  0.5722 -0.2791 -0.0070
 9055SOL    HW138801   0.765   3.980  12.794  1.3473 -2.1149  2.2508
 9055SOL    HW238802   0.658   3.956  12.888  1.5489 -0.1280  1.8101
 9056SOL     OW38803   1.950   2.835  10.009  0.0830  0.4554  0.3200
 9056SOL    HW138804   1.969   2.741   9.997 -0.5806  0.1787  1.4043
 9056SOL    HW238805   2.018   2.876   9.956  0.1092  0.8272  0.6456
 9057SOL     OW38806   1.174   0.521   6.012  0.0782 -0.5584 -0.0891
 9057SOL    HW138807   1.242   0.480   6.066  0.8747  1.6603  0.6011
 9057SOL    HW238808   1.131   0.443   5.977 -2.4731  0.7137  0.1951
 9058SOL     OW38809   1.965   0.539   0.786 -0.1468 -0.0292 -0.0874
 9058SOL    HW138810   2.028   0.608   0.803  0.3795 -1.1582  2.5643
 9058SOL    HW238811   1.972   0.522   0.692 -1.8174 -0.0689 -0.2087
 9059SOL     OW38812   0.964   2.306  12.203 -0.6220  0.1836  0.2847
 9059SOL    HW138813   1.032   2.338  12.263 -0.9532 -1.7513  1.6944
 9059SOL    HW238814   0.990   2.349  12.121  2.4354  0.2834  1.3070
 9060SOL     OW38815   0.428   0.670   7.675  0.2141 -0.3281  0.1971
 9060SOL    HW138816   0.501   0.723   7.643  0.2850  0.4212  1.6064
 9060SOL    HW238817   0.353   0.718   7.638  0.3311  0.1270  0.5589
 9061SOL     OW38818   0.357   2.577   9.049 -0.3590 -0.1557  0.1876
 9061SOL    HW138819   0.401   2.503   9.092  0.4181 -0.2261 -0.7396
 9061SOL    HW238820   0.348   2.633   9.126 -1.5678 -1.9343  1.3394
 9062SOL     OW38821   4.058   4.324   7.130  0.0860 -0.0700 -0.3238
 9062SOL    HW138822   4.012   4.395   7.085  2.1395  2.5750  1.7980
 9062SOL    HW238823   4.126   4.375   7.172 -1.6900  1.7226  0.3622
 9063SOL     OW38824   0.056   3.935   2.813 -0.2692  0.0473 -0.2840
 9063SOL    HW138825   4.728   4.004   2.800  1.2071  1.6448  0.8956
 9063SOL    HW238826   0.004   3.857   2.828  1.2898 -0.9559 -0.1105
 9064SOL     OW38827   2.807   3.839   2.693  0.2237 -0.1121 -0.0825
 9064SOL    HW138828   2.863   3.763   2.673  0.1862  0.0050 -0.6393
 9064SOL    HW238829   2.733   3.805   2.742  0.5832 -0.8530 -0.0448
 9065SOL     OW38830   3.714   1.218  12.579  0.2309  0.5206 -0.2587
 9065SOL    HW138831   3.806   1.193  12.564  0.6714  2.1733 -0.3453
 9065SOL    HW238832   3.717   1.312  12.562 -1.1023  0.6693  0.3314
 9066SOL     OW38833   2.574   0.529  12.371  0.0756  0.0856  0.3227
 9066SOL    HW138834   2.480   0.508  12.370 -0.1140  0.9642  0.0025
 9066SOL    HW238835   2.603   0.520  12.281 -0.8733 -2.7495  0.2978
 9067SOL     OW38836   2.683   2.331  17.192 -0.0846  0.1413  0.4252
 9067SOL    HW138837   2.656   2.408  17.242  2.5478  0.9538  0.6008
 9067SOL    HW238838   2.730   2.361  17.114 -1.6958  0.6357 -0.3612
 9068SOL     OW38839   1.201   3.800   1.841  0.0432  0.5216 -0.1982
 9068SOL    HW138840   1.286   3.757   1.840  0.2058  0.8191  0.8901
 9068SOL    HW238841   1.174   3.792   1.749 -0.4460 -0.6079  0.0443
 9069SOL     OW38842   3.056   2.943   5.705  0.0692 -0.3952  0.0654
 9069SOL    HW138843   3.143   2.982   5.714 -0.4246  0.3227  1.7713
 9069SOL    HW238844   3.062   2.880   5.777 -1.6760 -0.1937  0.3813
 9070SOL     OW38845   1.124   4.521   2.793  0.0472  0.3071 -0.0697
 9070SOL    HW138846   1.056   4.587   2.809  0.2739  0.7258 -0.8490
 9070SOL    HW238847   1.203   4.566   2.823 -0.0101 -0.5202  1.3025
 9071SOL     OW38848   4.093   2.790  16.586  0.4732 -0.1387  0.0582
 9071SOL    HW138849   4.095   2.722  16.519  0.5624 -0.1767  0.0989
 9071SOL    HW238850   4.006   2.774  16.622  0.1830  1.0137 -0.1242
 9072SOL     OW38851   3.704   1.474  17.338 -0.1517 -0.2393  0.0844
 9072SOL    HW138852   3.745   1.399  17.294  0.3594 -0.4100  0.8636
 9072SOL    HW238853   3.770   1.537  17.307 -0.3873  0.3818  0.8433
 9073SOL     OW38854   4.508   3.575   5.164  0.1624 -0.1693 -0.5076
 9073SOL    HW138855   4.448   3.616   5.227 -1.0704  0.6959 -2.2526
 9073SOL    HW238856   4.447   3.535   5.102 -0.0039 -1.0053  0.1864
 9074SOL     OW38857   0.240   3.779   1.409 -0.2097 -0.0838  0.3009
 9074SOL    HW138858   0.246   3.857   1.354 -0.9575 -0.2430 -0.0109
 9074SOL    HW238859   0.249   3.713   1.340 -3.4635 -1.7701  1.4782
 9075SOL     OW38860   0.797   0.447   0.491  0.1971  0.5992 -0.2562
 9075SOL    HW138861   0.875   0.401   0.461 -0.3985 -0.9348  0.5679
 9075SOL    HW238862   0.811   0.479   0.580  2.6096 -0.0494 -0.3943
 9076SOL     OW38863   3.439   0.792   6.952 -0.0183  0.0640  0.1173
 9076SOL    HW138864   3.345   0.792   6.934 -0.2424  1.4627  1.2975
 9076SOL    HW238865   3.469   0.845   6.878 -1.4259 -0.1434 -0.6006
 9077SOL     OW38866   4.200   3.661  10.863 -0.1909 -0.3615  0.3118
 9077SOL    HW138867   4.241   3.576  10.846  1.1231  0.5868 -1.1787
 9077SOL    HW238868   4.266   3.729  10.871 -0.0706 -0.6818  1.9851
 9078SOL     OW38869   0.556   1.743  10.343 -0.8480  0.2300  0.1264
 9078SOL    HW138870   0.532   1.716  10.431 -0.1998 -1.4685 -0.2036
 9078SOL    HW238871   0.609   1.666  10.322 -1.4787  0.4366 -2.2135
 9079SOL     OW38872   1.967   3.120   0.920 -0.1869 -0.3139  0.1151
 9079SOL    HW138873   1.913   3.195   0.896 -0.7004  0.2048  2.8725
 9079SOL    HW238874   1.897   3.060   0.947  0.3135 -0.6307  0.7144
 9080SOL     OW38875   2.427   3.560   7.334 -0.4085  0.2319 -0.5503
 9080SOL    HW138876   2.364   3.603   7.275 -1.7820 -1.8244 -0.5890
 9080SOL    HW238877   2.461   3.642   7.371  0.1394 -0.7904  1.1972
 9081SOL     OW38878   3.318   4.588   5.041  0.0564  0.0064 -0.0438
 9081SOL    HW138879   3.373   4.530   5.095  2.0578  0.1626 -1.9409
 9081SOL    HW238880   3.380   4.661   5.040  0.7124 -0.5903 -1.9749
 9082SOL     OW38881   0.014   4.678  11.666  0.2854 -0.8395 -0.2071
 9082SOL    HW138882   0.016   4.600  11.721 -2.6705  0.0378  1.1417
 9082SOL    HW238883   0.087   4.659  11.607 -0.6075 -0.9831 -1.2621
 9083SOL     OW38884   0.514   1.536   6.384  0.4624 -0.0294 -0.7241
 9083SOL    HW138885   0.559   1.534   6.299  2.0176  1.5596  0.0624
 9083SOL    HW238886   0.590   1.564   6.435  0.0337  0.0281 -0.1326
 9084SOL     OW38887   2.279   2.973   2.171  0.1058  0.2206  0.3545
 9084SOL    HW138888   2.342   2.912   2.210 -1.5932 -0.8827  1.3774
 9084SOL    HW238889   2.290   2.964   2.076  1.8672 -2.6465  0.8292
 9085SOL     OW38890   0.894   0.226  13.939 -0.1753  0.1072 -0.0730
 9085SOL    HW138891   0.832   0.286  13.899 -0.1926  0.9560  1.2313
 9085SOL    HW238892   0.924   0.188  13.856 -0.0069  1.8760 -0.8080
 9086SOL     OW38893   1.473   1.866   1.610 -0.5470 -0.2754  0.9008
 9086SOL    HW138894   1.523   1.913   1.677  0.7887 -2.1872  1.2295
 9086SOL    HW238895   1.388   1.909   1.614 -0.5155 -0.1847  0.5729
 9087SOL     OW38896   2.012   1.457   6.177  0.3358  0.1176  0.7455
 9087SOL    HW138897   1.934   1.485   6.129  2.2481  0.7817 -1.9637
 9087SOL    HW238898   2.036   1.375   6.134 -0.8405 -0.0642  0.4453
 9088SOL     OW38899   3.916   2.627   4.200  0.1409 -0.6659 -0.2923
 9088SOL    HW138900   3.911   2.663   4.111  0.2937  1.7595  0.7080
 9088SOL    HW238901   3.851   2.678   4.248 -0.0910 -1.7451  0.5460
 9089SOL     OW38902   0.321   2.268   0.091 -0.0277  0.4046  0.0226
 9089SOL    HW138903   0.336   2.224   0.174  1.6920 -2.3943 -1.8060
 9089SOL    HW238904   0.300   2.352   0.132 -1.4459 -1.0553  2.2760
 9090SOL     OW38905   0.662   1.778   4.422  0.0329 -0.2813  0.3458
 9090SOL    HW138906   0.712   1.826   4.487  0.3200  0.0910 -0.1483
 9090SOL    HW238907   0.676   1.690   4.458  0.5472 -0.5720 -0.5576
 9091SOL     OW38908   3.676   0.251  11.062 -0.1863 -0.2055  0.1643
 9091SOL    HW138909   3.716   0.227  11.146 -0.4646 -2.2783 -0.3015
 9091SOL    HW238910   3.713   0.182  11.007  0.3912  1.0976 -1.0539
 9092SOL     OW38911   3.853   4.687   6.774 -0.4561 -0.7400  0.1339
 9092SOL    HW138912   3.822   4.704   6.863 -0.6487 -0.9900  0.1163
 9092SOL    HW238913   3.925   4.624   6.783  0.1073  0.0535  1.1190
 9093SOL     OW38914   3.192   0.956  12.324 -0.3093  0.6188  0.7559
 9093SOL    HW138915   3.270   1.005  12.299  0.5878 -1.0565  0.2484
 9093SOL    HW238916   3.238   0.890  12.377  0.8275  0.2278 -0.7430
 9094SOL     OW38917   3.329   3.204   7.711  0.3958  0.0746 -0.4525
 9094SOL    HW138918   3.267   3.155   7.765  0.0684  0.2287 -0.6906
 9094SOL    HW238919   3.413   3.191   7.754  0.0824  1.1761  0.4785
 9095SOL     OW38920   1.663   3.461   6.754 -0.4308  0.7281  0.2554
 9095SOL    HW138921   1.707   3.398   6.810 -1.4936 -1.5008 -1.4379
 9095SOL    HW238922   1.576   3.427   6.734 -1.2005  3.3755 -0.9830
 9096SOL     OW38923   2.694   1.215   6.502  0.5689 -0.2433  0.1103
 9096SOL    HW138924   2.633   1.148   6.471 -0.2683  0.1309  0.9363
 9096SOL    HW238925   2.640   1.290   6.526  1.2420  0.4382 -0.4794
 9097SOL     OW38926   4.410   3.245   2.956 -0.4754  0.5224 -0.5700
 9097SOL    HW138927   4.367   3.183   3.015 -1.1657 -0.0016 -1.6446
 9097SOL    HW238928   4.441   3.192   2.883 -1.7995  0.7696 -1.3195
 9098SOL     OW38929   3.578   0.435   6.888 -0.0645  0.0121  0.0257
 9098SOL    HW138930   3.612   0.524   6.896  0.1518 -0.1765  1.2078
 9098SOL    HW238931   3.588   0.410   6.980  0.1702  1.1306  0.3132
 9099SOL     OW38932   4.570   3.777   8.466  0.0164  0.2402 -0.1772
 9099SOL    HW138933   4.486   3.824   8.462  0.3207  0.6480 -1.6423
 9099SOL    HW238934   4.574   3.789   8.561 -0.3561 -0.3431 -0.0842
 9100SOL     OW38935   2.611   2.412  15.821 -0.2023  0.2703 -0.5376
 9100SOL    HW138936   2.706   2.413  15.812  0.1394 -1.0875  2.8960
 9100SOL    HW238937   2.582   2.440  15.734  1.5132  1.0907 -0.8412
 9101SOL     OW38938   2.121   2.193   2.408 -0.2428 -0.2043  0.2753
 9101SOL    HW138939   2.055   2.181   2.341  1.1022  1.0442 -1.2656
 9101SOL    HW238940   2.148   2.282   2.387  2.8560 -1.0935  0.5044
 9102SOL     OW38941   4.692   2.069   4.480 -0.3118 -0.0345 -0.0927
 9102SOL    HW138942   4.689   2.161   4.504  0.3692 -0.3060  1.0247
 9102SOL    HW238943   0.049   2.059   4.463 -0.2561  0.1143  0.1288
 9103SOL     OW38944   2.028   3.467   1.532  0.5104 -0.2505  0.8102
 9103SOL    HW138945   1.968   3.393   1.543 -0.8996  0.7726  0.1604
 9103SOL    HW238946   2.042   3.470   1.437  1.7137  0.1481  1.0048
 9104SOL     OW38947   3.897   2.002  16.528 -0.5122  0.2277 -0.1151
 9104SOL    HW138948   3.909   1.910  16.506 -1.4708  0.3782 -1.2591
 9104SOL    HW238949   3.922   2.001  16.621 -1.8166  0.3739  0.2394
 9105SOL     OW38950   4.469   1.710   7.512  0.3310 -0.5019  0.5452
 9105SOL    HW138951   4.504   1.721   7.601 -1.2260 -0.8108  1.1906
 9105SOL    HW238952   4.425   1.793   7.495  0.2648 -0.8834 -1.1259
 9106SOL     OW38953   0.420   3.536   4.969 -0.1460 -0.3217  0.2015
 9106SOL    HW138954   0.452   3.460   5.017  0.4540 -1.1166 -1.4442
 9106SOL    HW238955   0.326   3.522   4.983 -0.4971 -0.5752 -2.2424
 9107SOL     OW38956   2.745   1.315   9.370 -0.3381 -0.3556 -0.1349
 9107SOL    HW138957   2.681   1.370   9.326  0.1994 -0.8233 -1.4948
 9107SOL    HW238958   2.697   1.262   9.434  0.8597 -1.3058 -0.0086
 9108SOL     OW38959   3.666   0.297  16.036 -0.7338  0.4467 -0.5160
 9108SOL    HW138960   3.576   0.268  16.052 -0.6979  0.8272  0.3646
 9108SOL    HW238961   3.701   0.282  16.124 -0.6138  1.2907 -0.4180
 9109SOL     OW38962   2.885   2.939   3.597  0.2333 -0.0273 -0.3715
 9109SOL    HW138963   2.946   2.932   3.670 -1.8651  0.5021  1.4483
 9109SOL    HW238964   2.798   2.956   3.633  0.7845  0.5112  0.6984
 9110SOL     OW38965   4.029   1.936  14.368  0.2371 -0.5527  0.3376
 9110SOL    HW138966   4.122   1.923  14.389  0.4358 -0.5547 -0.5455
 9110SOL    HW238967   4.011   1.845  14.391 -0.3461 -0.5579 -0.1383
 9111SOL     OW38968   3.724   2.299  14.931 -0.0867  0.3031 -0.0166
 9111SOL    HW138969   3.629   2.293  14.920  0.2420 -4.5317 -0.2768
 9111SOL    HW238970   3.751   2.384  14.897 -0.4949  0.8111  0.9169
 9112SOL     OW38971   4.648   2.582   4.339 -0.3056  0.4696 -0.2881
 9112SOL    HW138972   4.667   2.551   4.427  4.5762  2.6648 -0.5478
 9112SOL    HW238973   4.562   2.552   4.310 -0.8176  2.4631 -0.8416
 9113SOL     OW38974   3.096   1.458   8.056 -0.5420  0.2061  0.6322
 9113SOL    HW138975   3.041   1.487   8.128 -0.2529 -1.1686  1.4018
 9113SOL    HW238976   3.083   1.364   8.050 -0.8060  0.3795 -1.6582
 9114SOL     OW38977   3.990   4.170   3.210 -0.6800  0.0570 -0.0353
 9114SOL    HW138978   4.011   4.077   3.211 -2.7953 -0.4402 -2.9009
 9114SOL    HW238979   4.000   4.182   3.116 -2.5353 -1.3662 -0.4033
 9115SOL     OW38980   2.952   1.081  15.846 -0.3144 -0.3893 -0.3598
 9115SOL    HW138981   2.900   1.153  15.882  2.5347  0.9063  1.2180
 9115SOL    HW238982   3.024   1.130  15.805  1.4471 -2.6725  0.0085
 9116SOL     OW38983   0.413   2.354  16.835 -0.4286  0.1907 -0.3937
 9116SOL    HW138984   0.466   2.317  16.905 -1.4192 -2.2492 -0.9464
 9116SOL    HW238985   0.341   2.393  16.885  0.1112  2.5748 -1.4736
 9117SOL     OW38986   1.876   0.606  10.487  0.5638  0.0496  0.6231
 9117SOL    HW138987   1.797   0.584  10.536  0.4302  0.4743  0.5980
 9117SOL    HW238988   1.898   0.522  10.447 -1.2775 -0.8600  1.5374
 9118SOL     OW38989   3.152   1.869   8.113  0.2314 -0.6337  0.9225
 9118SOL    HW138990   3.248   1.876   8.113  0.1361  0.5671 -1.1252
 9118SOL    HW238991   3.138   1.842   8.022 -0.8794 -0.0397  0.9269
 9119SOL     OW38992   0.159   4.497   6.917  0.0545  0.0295  0.1482
 9119SOL    HW138993   0.139   4.528   7.005 -2.4299 -0.7510 -0.1380
 9119SOL    HW238994   0.253   4.515   6.911  0.4435 -2.9553 -2.6683
 9120SOL     OW38995   3.380   2.946   0.518  0.0713  0.0795 -0.5457
 9120SOL    HW138996   3.420   3.011   0.460  0.0244  1.2399  0.7152
 9120SOL    HW238997   3.358   3.007   0.589 -1.2497 -1.6228  0.5000
 9121SOL     OW38998   0.119   3.021   6.462 -0.4266  0.6328 -0.1496
 9121SOL    HW138999   0.194   2.964   6.478 -1.8710 -1.1902  0.0672
 9121SOL    HW239000   0.057   2.949   6.475  0.6544 -0.3427 -0.3535
 9122SOL     OW39001   3.978   2.722   5.960  0.2661  0.4643  0.2686
 9122SOL    HW139002   4.012   2.789   6.020  0.2292 -0.0975  0.9245
 9122SOL    HW239003   3.996   2.641   6.008  1.1443  0.0153 -0.8423
 9123SOL     OW39004   4.217   2.685   7.633  0.1943 -0.3314 -0.2682
 9123SOL    HW139005   4.122   2.676   7.620  0.1955 -1.8378  0.7411
 9123SOL    HW239006   4.223   2.780   7.643 -0.3128 -0.1609 -1.5397
 9124SOL     OW39007   3.028   2.323   0.419  0.2965 -0.0657 -0.0584
 9124SOL    HW139008   3.050   2.292   0.506  0.1461  2.2561  0.8001
 9124SOL    HW239009   3.100   2.368   0.374 -0.3820 -0.3109 -1.4142
 9125SOL     OW39010   4.039   4.630   9.146 -0.3480 -0.6246 -0.6282
 9125SOL    HW139011   4.014   4.716   9.179 -0.3347 -1.0019  0.3646
 9125SOL    HW239012   4.115   4.599   9.195 -0.4003 -1.9709 -1.3987
 9126SOL     OW39013   0.900   4.275   8.332  0.1330  0.3977 -0.1392
 9126SOL    HW139014   0.920   4.367   8.348 -1.6144  0.5959  0.9961
 9126SOL    HW239015   0.988   4.249   8.305 -0.3649  0.0906 -1.4249
 9127SOL     OW39016   3.435   3.279   8.235  0.6760  0.4749  0.2622
 9127SOL    HW139017   3.385   3.356   8.210  0.9084  1.0907  1.7120
 9127SOL    HW239018   3.426   3.280   8.331  2.2044  0.9303  0.4044
 9128SOL     OW39019   1.428   1.092  12.045 -0.2630 -0.4186 -0.3064
 9128SOL    HW139020   1.466   1.032  12.109  0.9234 -0.0346 -0.6519
 9128SOL    HW239021   1.334   1.077  12.032 -0.7895 -0.5082  3.7676
 9129SOL     OW39022   0.901   2.347  11.232 -0.4468  0.2277  0.6892
 9129SOL    HW139023   0.936   2.265  11.198 -2.4449  1.3370 -3.9783
 9129SOL    HW239024   0.963   2.370  11.301 -0.5987  0.5049  0.7350
 9130SOL     OW39025   0.521   4.020   2.499  0.1190  0.0296 -1.1366
 9130SOL    HW139026   0.478   4.087   2.447 -1.8953  0.3898  1.0260
 9130SOL    HW239027   0.520   3.938   2.449  1.3419  0.1350 -1.3292
 9131SOL     OW39028   4.030   0.254   6.669  0.1370 -0.2450 -0.2214
 9131SOL    HW139029   3.999   0.344   6.679  1.6133  0.2380  0.0394
 9131SOL    HW239030   4.102   0.267   6.608 -0.6327 -0.0109 -1.0749
 9132SOL     OW39031   4.697   3.207  14.874 -0.0100  0.0186 -0.3028
 9132SOL    HW139032   0.036   3.199  14.816  1.4232 -2.0325  1.8246
 9132SOL    HW239033   4.659   3.124  14.844  0.4341  0.4063 -1.9348
 9133SOL     OW39034   3.426   2.868  16.649 -0.1699  0.0774  0.0456
 9133SOL    HW139035   3.375   2.884  16.570 -0.9346 -1.3338  0.2587
 9133SOL    HW239036   3.477   2.948  16.663 -0.3220  0.3243 -0.8019
 9134SOL     OW39037   0.913   2.788   7.465  0.3431 -0.2274  0.2175
 9134SOL    HW139038   0.969   2.720   7.502 -0.4071 -0.3607  1.1275
 9134SOL    HW239039   0.909   2.762   7.373 -1.1530 -1.1173  0.5328
 9135SOL     OW39040   0.066   2.193   8.512  0.0925 -0.0141  0.3495
 9135SOL    HW139041   0.155   2.198   8.548  0.9505  2.0590 -2.0412
 9135SOL    HW239042   0.087   2.221   8.423 -2.1736  0.3835 -0.0473
 9136SOL     OW39043   0.198   1.775   6.963  0.2431 -0.2847  0.3998
 9136SOL    HW139044   0.165   1.830   7.035 -2.5079  0.0632 -1.1247
 9136SOL    HW239045   0.291   1.763   6.983  0.4907  1.7026  0.4307
 9137SOL     OW39046   1.631   1.566   5.368 -0.4278  0.6620  0.3500
 9137SOL    HW139047   1.612   1.509   5.293 -0.8449  0.9317  0.2554
 9137SOL    HW239048   1.721   1.592   5.349  0.2702 -2.5835 -0.8446
 9138SOL     OW39049   2.699   0.563   8.034 -0.0731  0.4188 -0.2150
 9138SOL    HW139050   2.657   0.566   8.120  0.7354  0.4561  0.1771
 9138SOL    HW239051   2.774   0.507   8.057 -0.9077  0.1929  1.9494
 9139SOL     OW39052   0.319   1.283   3.734  0.4189 -0.0869 -0.1890
 9139SOL    HW139053   0.241   1.331   3.761  1.1927  0.8594  0.3492
 9139SOL    HW239054   0.366   1.302   3.815  1.8133 -1.1868 -0.7483
 9140SOL     OW39055   2.880   1.355  10.408  0.2871 -0.4510 -0.3799
 9140SOL    HW139056   2.894   1.420  10.477 -1.3778  1.2400 -1.6356
 9140SOL    HW239057   2.867   1.280  10.466 -1.2966  0.3992  0.3561
 9141SOL     OW39058   2.058   0.175   5.558  0.2517  0.4425  0.2383
 9141SOL    HW139059   2.052   0.127   5.476  0.7903 -2.3768  1.8433
 9141SOL    HW239060   2.148   0.151   5.583  0.1562 -0.8218 -0.6344
 9142SOL     OW39061   4.089   3.005  16.942 -0.0830  0.0750  0.1781
 9142SOL    HW139062   4.172   2.988  16.899  0.2891 -2.4588  1.8967
 9142SOL    HW239063   4.060   3.083  16.895 -0.5147  1.3889  2.6124
 9143SOL     OW39064   0.062   2.186   3.562 -0.0963 -0.0924  0.0621
 9143SOL    HW139065   0.146   2.145   3.582 -1.5997 -3.2278 -0.0144
 9143SOL    HW239066   0.088   2.259   3.507  4.4042 -1.0068  0.9724
 9144SOL     OW39067   2.666   0.914  14.906 -0.3711 -0.9534 -0.9689
 9144SOL    HW139068   2.599   0.982  14.912 -2.1490 -2.6820 -1.2257
 9144SOL    HW239069   2.622   0.847  14.853 -2.8576 -0.0860  0.0026
 9145SOL     OW39070   1.726   2.002   7.562  0.2555  0.1227  0.1313
 9145SOL    HW139071   1.793   1.991   7.495 -0.7203 -1.0563 -0.6425
 9145SOL    HW239072   1.783   1.992   7.638  1.1040  1.3278 -0.3466
 9146SOL     OW39073   0.043   1.973   3.799  0.0492  0.3649  0.1353
 9146SOL    HW139074   0.018   1.889   3.837 -3.8140  1.0211 -1.0121
 9146SOL    HW239075   4.699   2.025   3.804 -0.8335 -1.1269  1.4165
 9147SOL     OW39076   2.878   4.721   6.379  0.9333 -0.0334  0.2238
 9147SOL    HW139077   2.833   0.027   6.452  1.1503 -0.4477  0.6020
 9147SOL    HW239078   2.879   0.053   6.313  2.8598 -1.4615 -1.2483
 9148SOL     OW39079   4.706   4.452   8.459  0.3231 -0.4129  0.1744
 9148SOL    HW139080   4.695   4.514   8.531 -0.4387 -0.6067  0.2211
 9148SOL    HW239081   0.050   4.403   8.475  0.9671  0.7686  0.6311
 9149SOL     OW39082   0.977   1.766   6.005  0.1319  0.0271  0.0319
 9149SOL    HW139083   0.931   1.784   6.088  0.6254  0.7541  0.1394
 9149SOL    HW239084   1.015   1.680   6.024 -1.3839 -0.6844 -0.1327
 9150SOL     OW39085   3.533   2.104   7.325  0.1622 -0.6358  0.4208
 9150SOL    HW139086   3.492   2.183   7.291 -0.0596 -1.2661 -0.7794
 9150SOL    HW239087   3.464   2.049   7.362  1.6157 -1.4459  1.9667
 9151SOL     OW39088   1.774   1.345   3.333  0.0667 -0.0986 -0.8096
 9151SOL    HW139089   1.844   1.282   3.351 -1.7018 -2.1419 -1.0855
 9151SOL    HW239090   1.755   1.326   3.241 -0.0605 -1.4646 -0.4988
 9152SOL     OW39091   4.398   1.819   2.511 -0.2405 -0.1088  0.3102
 9152SOL    HW139092   4.490   1.800   2.529  0.3157  1.3594 -1.0226
 9152SOL    HW239093   4.344   1.786   2.583 -0.3094 -0.2659  0.1863
 9153SOL     OW39094   0.025   2.866   6.674 -0.2238 -0.1026  0.2517
 9153SOL    HW139095   0.048   2.930   6.741  2.0070  1.1558 -1.7552
 9153SOL    HW239096   0.086   2.793   6.688 -0.2080 -0.0320  0.5518
 9154SOL     OW39097   1.512   4.544  15.132  0.2819  0.3145 -0.5939
 9154SOL    HW139098   1.552   4.506  15.210  2.1046  0.2970 -1.5436
 9154SOL    HW239099   1.478   4.624  15.172  1.4046 -0.1540  1.2973
 9155SOL     OW39100   3.350   3.603   3.218 -0.3911 -0.4966  0.2453
 9155SOL    HW139101   3.279   3.540   3.204 -1.0385  0.5344 -1.0877
 9155SOL    HW239102   3.345   3.671   3.151  0.1865 -0.5164  0.1873
 9156SOL     OW39103   2.914   3.945  11.530 -0.2766  0.3490  0.1440
 9156SOL    HW139104   2.923   3.861  11.575  0.1995 -0.2434 -1.0775
 9156SOL    HW239105   3.004   3.977  11.526  0.5577 -2.0879 -0.8409
 9157SOL     OW39106   1.576   2.565  10.685 -0.6408 -0.3794 -0.2665
 9157SOL    HW139107   1.664   2.568  10.646  0.0170  2.0576  1.3544
 9157SOL    HW239108   1.603   2.553  10.776  1.0921 -0.5570 -0.7949
 9158SOL     OW39109   4.171   1.597  15.099  0.1679 -0.5533  0.2672
 9158SOL    HW139110   4.154   1.503  15.103 -3.8038  0.2050  0.9509
 9158SOL    HW239111   4.144   1.613  15.009 -1.8066 -0.9108  0.7800
 9159SOL     OW39112   1.567   0.999   9.709  0.1854 -0.1475 -0.5537
 9159SOL    HW139113   1.568   1.093   9.691  3.0064 -0.1984 -0.6341
 9159SOL    HW239114   1.660   0.982   9.701  0.2370  0.9566 -2.2193
 9160SOL     OW39115   2.526   3.947   1.874  0.2377 -0.3153 -0.5092
 9160SOL    HW139116   2.569   3.862   1.867 -1.0172 -1.0697  0.8934
 9160SOL    HW239117   2.596   4.010   1.856 -0.7763  1.3935  1.4174
 9161SOL     OW39118   4.059   2.976   6.153  0.2318  0.3514 -0.0354
 9161SOL    HW139119   4.134   2.952   6.098 -0.5130  0.9597 -1.2952
 9161SOL    HW239120   4.110   3.006   6.228 -1.2240  2.0302  0.2594
 9162SOL     OW39121   3.721   4.214   1.546  0.4900  0.4232 -0.1610
 9162SOL    HW139122   3.755   4.150   1.483  0.8325 -0.2794  0.7377
 9162SOL    HW239123   3.678   4.161   1.613 -1.3522 -0.4592 -2.0383
 9163SOL     OW39124   0.678   2.368   5.008 -0.1826 -0.2183 -0.0632
 9163SOL    HW139125   0.624   2.363   5.086  0.7881  1.0647  0.6778
 9163SOL    HW239126   0.768   2.373   5.039  0.7135 -0.0618 -2.6587
 9164SOL     OW39127   3.956   3.494   6.563 -0.3037  0.0529 -0.2415
 9164SOL    HW139128   3.895   3.507   6.636 -0.0437  2.2773 -0.4188
 9164SOL    HW239129   4.001   3.416   6.596 -4.2292 -1.7637  0.8043
 9165SOL     OW39130   0.107   3.382   6.295 -0.0289 -0.0751 -0.3645
 9165SOL    HW139131   0.024   3.404   6.337  1.6386  1.1490  2.2083
 9165SOL    HW239132   0.149   3.321   6.355  0.2254  2.0125  1.5462
 9166SOL     OW39133   0.930   3.658   2.920 -0.3870 -0.0881  0.8254
 9166SOL    HW139134   0.979   3.614   2.851  0.9273  2.1598  0.3349
 9166SOL    HW239135   0.979   3.626   2.996  0.5768 -1.9569 -0.5958
 9167SOL     OW39136   3.045   4.606   2.560 -0.1309  0.1541 -0.1001
 9167SOL    HW139137   3.040   4.543   2.489 -0.1678  0.1950 -0.1336
 9167SOL    HW239138   2.995   4.681   2.528 -1.0513 -0.2486  0.3945
 9168SOL     OW39139   2.582   2.685   2.562 -0.2057  0.0187 -0.0987
 9168SOL    HW139140   2.665   2.667   2.517  0.3424  0.5943  0.6820
 9168SOL    HW239141   2.556   2.596   2.585 -3.3091  0.4923 -1.7128
 9169SOL     OW39142   0.656   0.801   2.810  0.3510 -0.4860  0.3696
 9169SOL    HW139143   0.576   0.835   2.770  0.5691 -1.1687 -0.6351
 9169SOL    HW239144   0.710   0.816   2.733  0.1873 -0.5096  0.2511
 9170SOL     OW39145   2.848   0.449   4.666  0.0216 -0.2791 -0.0126
 9170SOL    HW139146   2.884   0.537   4.652 -0.6380  0.2339  1.5868
 9170SOL    HW239147   2.777   0.454   4.602  0.3283 -0.9858 -0.4044
 9171SOL     OW39148   2.536   2.662  14.448 -0.1381 -0.2196  0.1014
 9171SOL    HW139149   2.622   2.688  14.483 -0.4194  2.4399 -1.1654
 9171SOL    HW239150   2.566   2.602  14.380  0.8531 -0.0391  0.3709
 9172SOL     OW39151   0.875   0.007  10.802  0.3038  0.1957 -0.0406
 9172SOL    HW139152   0.941   0.031  10.737 -0.1834 -0.5306 -0.8104
 9172SOL    HW239153   0.808   0.072  10.781  0.2632 -0.3694 -1.6217
 9173SOL     OW39154   1.006   0.351   0.363 -0.5999  0.9320  0.4352
 9173SOL    HW139155   1.057   0.428   0.337  0.5417 -0.2723 -0.9035
 9173SOL    HW239156   1.044   0.275   0.319  1.8106  1.9349  0.7967
 9174SOL     OW39157   4.167   4.490   5.560  0.2468 -0.3496  0.0003
 9174SOL    HW139158   4.187   4.576   5.522  0.7207 -1.4135 -2.1553
 9174SOL    HW239159   4.179   4.514   5.652 -1.2407  1.2908 -0.2308
 9175SOL     OW39160   2.815   1.210  12.245 -0.5870 -0.0445  0.5498
 9175SOL    HW139161   2.788   1.118  12.249  0.0905 -0.2653  0.0165
 9175SOL    HW239162   2.726   1.246  12.239 -1.3058 -1.5481  2.2063
 9176SOL     OW39163   0.111   1.011   4.222 -0.2848 -0.0145 -0.2049
 9176SOL    HW139164   0.048   0.939   4.223 -1.7120  1.2540  0.4255
 9176SOL    HW239165   0.068   1.069   4.285 -2.5868 -1.8218 -0.1149
 9177SOL     OW39166   3.044   2.109   3.956  0.6929 -0.0312 -0.7160
 9177SOL    HW139167   3.020   2.201   3.948 -0.4429 -0.2805 -0.2129
 9177SOL    HW239168   3.137   2.109   3.977  0.1747  0.5136  1.5855
 9178SOL     OW39169   2.748   4.652   7.833 -0.0542  0.0699  0.3920
 9178SOL    HW139170   2.679   4.590   7.854  1.1474 -0.4723  2.7465
 9178SOL    HW239171   2.808   4.604   7.777 -1.2477 -1.1868  0.2069
 9179SOL     OW39172   1.094   1.532   1.886 -0.2855  0.0297  0.2064
 9179SOL    HW139173   1.066   1.522   1.795 -0.8435 -1.6551  0.5563
 9179SOL    HW239174   1.167   1.594   1.886  0.2474 -0.5946  1.1500
 9180SOL     OW39175   2.043   2.948   7.067 -0.0186  0.1701  0.1518
 9180SOL    HW139176   2.092   3.023   7.103 -1.7422  1.3859  0.0005
 9180SOL    HW239177   2.004   2.922   7.151 -0.4937 -1.4170 -0.5771
 9181SOL     OW39178   1.920   1.453   4.764  0.4557  0.7355  0.3519
 9181SOL    HW139179   1.905   1.511   4.838 -0.4993 -1.2982  1.7441
 9181SOL    HW239180   1.859   1.489   4.700 -0.4365  1.2277  1.4863
 9182SOL     OW39181   4.495   1.596   1.791  0.0084 -0.1676  0.1333
 9182SOL    HW139182   4.572   1.650   1.804  1.0683 -1.2541 -1.6825
 9182SOL    HW239183   4.471   1.603   1.699 -0.0332 -2.1384 -0.0167
 9183SOL     OW39184   1.087   4.261   4.579  0.4474 -0.1584  0.2131
 9183SOL    HW139185   1.063   4.333   4.521 -0.4230 -1.0964 -0.6080
 9183SOL    HW239186   1.137   4.311   4.643  2.2938 -1.4357 -0.2561
 9184SOL     OW39187   0.594   4.530   4.764 -0.1843  0.0338 -0.5699
 9184SOL    HW139188   0.576   4.580   4.843  1.6349 -0.7057  0.3200
 9184SOL    HW239189   0.505   4.507   4.739 -0.0417  0.5367 -1.5692
 9185SOL     OW39190   2.502   4.352   4.868  0.3043 -0.5316 -0.2058
 9185SOL    HW139191   2.542   4.265   4.876  1.0536 -0.2906 -1.2492
 9185SOL    HW239192   2.515   4.356   4.773 -2.7247  3.0083 -0.4559
 9186SOL     OW39193   0.629   3.261   2.463 -0.3571  0.2065 -0.0898
 9186SOL    HW139194   0.646   3.340   2.515 -2.0567  0.1649  0.5418
 9186SOL    HW239195   0.544   3.289   2.429  1.5255  2.5268 -2.8608
 9187SOL     OW39196   4.091   0.610  11.927  0.6110  0.2063 -0.5859
 9187SOL    HW139197   4.051   0.541  11.875  0.2930  0.5002 -0.7293
 9187SOL    HW239198   4.030   0.612  12.002 -0.9420 -0.8858 -1.8192
 9188SOL     OW39199   0.537   4.682   7.610  0.1331 -0.0027 -0.5947
 9188SOL    HW139200   0.565   4.689   7.519 -0.4211 -1.8330 -0.9040
 9188SOL    HW239201   0.446   4.659   7.592 -0.2178  1.9658 -1.3335
 9189SOL     OW39202   1.061   0.970   8.269  0.0603  0.2045 -0.0086
 9189SOL    HW139203   1.001   0.908   8.311 -0.2777  0.4594 -0.1180
 9189SOL    HW239204   1.117   0.903   8.228  0.5228  0.8341 -0.4147
 9190SOL     OW39205   1.407   1.418  13.769  0.4320  0.2626 -0.3631
 9190SOL    HW139206   1.325   1.424  13.720  0.2809 -2.4951 -0.4819
 9190SOL    HW239207   1.457   1.490  13.732  0.0298  0.7648  0.0763
 9191SOL     OW39208   3.800   2.859   1.188  0.1235  0.3371  0.2709
 9191SOL    HW139209   3.802   2.773   1.229 -1.3070 -0.0013 -0.4014
 9191SOL    HW239210   3.741   2.844   1.114 -0.7097 -2.4914  1.5200
 9192SOL     OW39211   1.554   0.725   6.337 -0.0644  0.1769 -0.1800
 9192SOL    HW139212   1.592   0.809   6.362 -2.1375  0.4412  2.1399
 9192SOL    HW239213   1.564   0.678   6.420 -0.8981  1.8978  0.9115
 9193SOL     OW39214   0.835   4.267   6.212 -0.2817 -0.0304  0.4829
 9193SOL    HW139215   0.770   4.337   6.208  0.6981  0.8869  0.7227
 9193SOL    HW239216   0.790   4.191   6.175  0.6328  0.1669 -1.0562
 9194SOL     OW39217   3.945   4.360   5.840  0.0831  0.1743  0.1882
 9194SOL    HW139218   3.879   4.423   5.812  0.6494  0.1126 -1.2606
 9194SOL    HW239219   4.004   4.408   5.898  0.4603 -1.0707  0.8363
 9195SOL     OW39220   1.999   1.828   4.677 -0.0700  0.1958 -0.1560
 9195SOL    HW139221   2.061   1.870   4.736  1.5154 -2.5469  0.1335
 9195SOL    HW239222   1.996   1.891   4.604  0.6960 -0.0964 -0.4486
 9196SOL     OW39223   1.218   2.228   9.118 -0.2802 -0.0450 -0.1269
 9196SOL    HW139224   1.170   2.164   9.171 -0.6652  1.0622  0.8625
 9196SOL    HW239225   1.156   2.301   9.120 -0.8151 -0.5187  0.7955
 9197SOL     OW39226   2.864   2.849   4.574 -0.0261  0.8484 -0.1515
 9197SOL    HW139227   2.850   2.854   4.668 -1.0972  1.1791 -0.3328
 9197SOL    HW239228   2.907   2.932   4.552  2.3904 -0.5459 -0.7621
 9198SOL     OW39229   4.422   1.619   6.889  0.6221  0.6794 -0.2726
 9198SOL    HW139230   4.413   1.663   6.974  0.0551 -1.8612  0.9715
 9198SOL    HW239231   4.516   1.603   6.882  0.7127  0.7720  0.6264
 9199SOL     OW39232   0.997   3.182   8.176  0.4096  0.7852  0.5862
 9199SOL    HW139233   1.083   3.144   8.157  0.8458  2.4796 -0.9154
 9199SOL    HW239234   0.949   3.099   8.174 -0.6967  1.3913  1.7842
 9200SOL     OW39235   3.405   0.332   5.250  0.2112 -0.3801  0.2758
 9200SOL    HW139236   3.311   0.341   5.235  0.0279 -0.6174  1.2324
 9200SOL    HW239237   3.434   0.423   5.244 -1.3632  0.2140  1.7325
 9201SOL     OW39238   2.934   2.620   6.517  0.2481 -0.2797 -0.5057
 9201SOL    HW139239   2.938   2.670   6.599 -2.1956 -0.2556 -0.3774
 9201SOL    HW239240   2.978   2.682   6.460 -1.4369  0.8390 -0.6042
 9202SOL     OW39241   3.875   0.101   6.278  0.2104  0.1288 -0.2634
 9202SOL    HW139242   3.882   0.078   6.371  1.1613 -0.3094 -0.4379
 9202SOL    HW239243   3.786   0.135   6.279 -0.2033 -0.9612  0.3550
 9203SOL     OW39244   1.704   0.576   3.441 -0.2590 -0.3874 -0.7342
 9203SOL    HW139245   1.614   0.604   3.425 -0.1338  0.6344  0.3167
 9203SOL    HW239246   1.687   0.501   3.498 -0.5649  0.9998  1.0104
 9204SOL     OW39247   4.614   3.408   0.886  0.1050  0.2560  0.4801
 9204SOL    HW139248   4.552   3.478   0.907 -1.5369 -0.9813 -0.2458
 9204SOL    HW239249   4.593   3.392   0.794  1.3486  1.0505  0.0556
 9205SOL     OW39250   3.725   3.585  14.091 -0.1657  0.0372 -0.1287
 9205SOL    HW139251   3.767   3.509  14.131 -0.4485 -0.4286 -0.7151
 9205SOL    HW239252   3.759   3.654  14.147  0.3660  0.7582 -1.3513
 9206SOL     OW39253   0.073   3.709  10.256 -0.0286 -0.4908  0.5009
 9206SOL    HW139254   0.141   3.740  10.197 -1.0367  0.5491 -0.1046
 9206SOL    HW239255   0.053   3.794  10.296  1.2315  0.1205 -0.1951
 9207SOL     OW39256   1.480   2.455  12.902  0.2864  0.6096 -0.6577
 9207SOL    HW139257   1.442   2.383  12.852 -2.2235  0.8860  0.8289
 9207SOL    HW239258   1.558   2.408  12.934  0.0855 -0.1767 -1.3095
 9208SOL     OW39259   4.372   1.624  10.434  0.0400 -0.0425  0.6944
 9208SOL    HW139260   4.445   1.618  10.496  2.1221 -1.6702 -1.9007
 9208SOL    HW239261   4.406   1.671  10.359 -3.1771 -0.9194 -1.3135
 9209SOL     OW39262   4.477   3.379   1.876 -0.1048 -0.7631 -0.3196
 9209SOL    HW139263   4.429   3.448   1.921 -0.9094 -1.7199  0.2773
 9209SOL    HW239264   4.559   3.391   1.923 -0.3205  2.0595 -0.6523
 9210SOL     OW39265   1.359   4.154  15.331 -0.0251 -0.3128 -0.0107
 9210SOL    HW139266   1.287   4.166  15.393 -0.3144  2.5302 -0.8880
 9210SOL    HW239267   1.336   4.203  15.252  0.1349 -1.3760 -0.7096
 9211SOL     OW39268   2.721   4.331  16.856 -0.2193  0.1316 -0.1246
 9211SOL    HW139269   2.815   4.342  16.841  0.0354  0.7147  1.9900
 9211SOL    HW239270   2.709   4.324  16.761  0.2087 -3.4896  0.0617
 9212SOL     OW39271   2.401   2.962  15.049 -0.3700  0.1051  0.1183
 9212SOL    HW139272   2.438   2.910  14.977  0.5344 -1.1888  1.5315
 9212SOL    HW239273   2.356   3.026  14.994 -1.2306  1.0085  1.8688
 9213SOL     OW39274   3.304   0.384   6.978 -0.4138 -0.2046 -0.4278
 9213SOL    HW139275   3.277   0.457   7.033 -0.6767  1.3512 -2.6536
 9213SOL    HW239276   3.382   0.424   6.940 -0.0643 -0.5795 -0.1142
 9214SOL     OW39277   1.674   0.741  15.203  0.6796 -0.0840  0.1051
 9214SOL    HW139278   1.638   0.653  15.195  0.2900  0.2463 -1.7437
 9214SOL    HW239279   1.594   0.789  15.222 -0.4375 -3.3035  3.5138
 9215SOL     OW39280   4.061   2.661  12.789  0.5432 -0.5603 -0.4157
 9215SOL    HW139281   4.006   2.739  12.799  0.6787 -0.4022 -0.8930
 9215SOL    HW239282   4.021   2.611  12.859 -1.6431  0.7911 -0.7027
 9216SOL     OW39283   3.313   0.933  12.643  0.1451 -0.1566 -0.2242
 9216SOL    HW139284   3.374   0.998  12.608 -0.4311 -0.2070 -1.3302
 9216SOL    HW239285   3.334   0.854  12.592 -1.4212 -0.4144 -0.4781
 9217SOL     OW39286   3.895   0.324   3.842 -0.7468 -0.4895 -0.2107
 9217SOL    HW139287   3.860   0.356   3.925  0.6375  1.0091 -0.2079
 9217SOL    HW239288   3.967   0.383   3.820 -0.2419 -1.2800 -0.6849
 9218SOL     OW39289   3.958   1.464   4.337 -0.1106 -0.5865 -0.0985
 9218SOL    HW139290   3.982   1.459   4.244 -0.9546 -1.0573 -0.2845
 9218SOL    HW239291   4.014   1.534   4.369  0.8535 -1.3713 -0.0501
 9219SOL     OW39292   3.364   0.403   2.279  0.5673 -0.1536 -0.0525
 9219SOL    HW139293   3.356   0.494   2.249  1.7843 -0.7419 -2.1817
 9219SOL    HW239294   3.273   0.396   2.309  0.5969 -2.1636 -0.4456
 9220SOL     OW39295   3.576   0.943  14.775 -0.4144  1.1652  0.2458
 9220SOL    HW139296   3.663   0.919  14.808  0.2602  2.2876 -0.6993
 9220SOL    HW239297   3.552   1.007  14.841 -0.8280  2.6382 -1.3370
 9221SOL     OW39298   3.870   0.706   3.769  0.1698 -0.1946  0.8288
 9221SOL    HW139299   3.800   0.660   3.816 -0.0992 -1.6029 -0.9426
 9221SOL    HW239300   3.947   0.676   3.817  1.7424 -1.6554 -2.6469
 9222SOL     OW39301   3.199   4.465   4.249  0.3648  0.2998  0.0784
 9222SOL    HW139302   3.132   4.533   4.255  1.0959  1.1336 -1.2979
 9222SOL    HW239303   3.252   4.515   4.187  0.9025 -3.3412 -2.4022
 9223SOL     OW39304   3.789   2.091   2.032  0.3968 -0.1957  0.1194
 9223SOL    HW139305   3.810   2.073   1.940  2.1090 -0.4278  0.5520
 9223SOL    HW239306   3.849   2.165   2.047 -1.9054  0.9040  3.6728
 9224SOL     OW39307   1.582   4.730   9.461  0.3688  0.2439  0.0532
 9224SOL    HW139308   1.660   4.700   9.506  1.1904  0.1761 -1.4256
 9224SOL    HW239309   1.602   0.074   9.413 -3.3076 -0.8528 -3.3127
 9225SOL     OW39310   1.194   4.667   6.489 -0.6245 -0.4178 -0.5308
 9225SOL    HW139311   1.268   4.606   6.490 -0.7691 -0.6299 -2.5861
 9225SOL    HW239312   1.228   4.710   6.411  0.4910 -0.8049 -0.2600
 9226SOL     OW39313   3.419   2.917   2.846 -0.3252 -0.3476 -0.2237
 9226SOL    HW139314   3.398   2.824   2.833 -2.8557  0.1132  0.6199
 9226SOL    HW239315   3.453   2.951   2.763 -1.6078  1.0088 -0.1933
 9227SOL     OW39316   3.326   3.111   7.452 -0.1987  0.3408  0.3183
 9227SOL    HW139317   3.320   3.141   7.543 -1.4532  0.8876  0.0609
 9227SOL    HW239318   3.240   3.131   7.413 -0.6738 -3.3201 -0.4562
 9228SOL     OW39319   0.351   1.243   0.779 -0.0682  0.4786  0.2926
 9228SOL    HW139320   0.283   1.210   0.838 -0.3041  0.0034 -0.2354
 9228SOL    HW239321   0.323   1.333   0.766  0.5910  0.6031 -0.2592
 9229SOL     OW39322   2.675   2.675   5.248 -0.1750 -0.0511  0.0394
 9229SOL    HW139323   2.688   2.581   5.235 -1.7698  0.1803 -3.2372
 9229SOL    HW239324   2.597   2.672   5.304 -1.2894  0.9645 -1.4519
 9230SOL     OW39325   4.091   3.212   0.627 -0.4257  0.1497  0.2916
 9230SOL    HW139326   4.123   3.158   0.699 -1.9588 -1.3187 -0.1340
 9230SOL    HW239327   4.010   3.241   0.668  0.3250  0.5089  1.5465
 9231SOL     OW39328   3.464   0.574   4.440 -0.4013  0.1204  0.5766
 9231SOL    HW139329   3.394   0.590   4.376  0.8518  0.1670 -0.8039
 9231SOL    HW239330   3.514   0.656   4.440 -0.5360  0.1831  3.2783
 9232SOL     OW39331   0.916   1.423   9.254  0.2738  0.1399  0.1768
 9232SOL    HW139332   0.899   1.401   9.163 -1.2253 -1.6322  0.8963
 9232SOL    HW239333   0.986   1.364   9.281  0.8497  1.4593  1.5398
 9233SOL     OW39334   2.739   0.229   3.598  0.0243 -0.2505 -0.4419
 9233SOL    HW139335   2.747   0.277   3.515  2.5289  0.9959  0.5311
 9233SOL    HW239336   2.822   0.250   3.639  1.1576 -0.9286 -2.3995
 9234SOL     OW39337   3.453   0.433   1.774 -0.5031  0.6532  0.2036
 9234SOL    HW139338   3.382   0.384   1.732 -0.8658  0.4807  1.0256
 9234SOL    HW239339   3.414   0.518   1.795 -0.3691  1.1393 -1.5290
 9235SOL     OW39340   4.027   3.146  14.829 -0.5785 -0.3921 -0.1827
 9235SOL    HW139341   4.037   3.091  14.907 -0.6455  0.0648  0.1500
 9235SOL    HW239342   3.956   3.205  14.854 -0.3335  0.1244 -0.7166
 9236SOL     OW39343   1.242   2.080   0.805 -0.0512  0.6035  0.2933
 9236SOL    HW139344   1.236   2.061   0.898  1.4427  0.8722  0.4411
 9236SOL    HW239345   1.297   2.004   0.784 -0.5465  1.5611 -4.4934
 9237SOL     OW39346   2.933   1.698   6.983 -0.0531 -0.1369  0.4476
 9237SOL    HW139347   2.999   1.639   7.021  1.1878  0.1052 -1.3585
 9237SOL    HW239348   2.973   1.784   6.990 -0.4607  0.0294  0.7519
 9238SOL     OW39349   3.739   3.012   0.242  0.1902 -0.4095 -0.7634
 9238SOL    HW139350   3.729   2.939   0.181  1.9594 -1.0990 -0.2173
 9238SOL    HW239351   3.828   3.012   0.278  0.6811 -0.4119 -1.9999
 9239SOL     OW39352   4.657   4.701   4.826  0.4084 -0.1001  0.1120
 9239SOL    HW139353   4.675   4.684   4.919  1.4544  0.4542  0.0142
 9239SOL    HW239354   4.620   0.052   4.828  0.8673  0.0935  0.1823
 9240SOL     OW39355   1.369   1.154   7.726 -0.3229  1.1324  0.3420
 9240SOL    HW139356   1.339   1.067   7.699  2.3473  0.5201 -0.6131
 9240SOL    HW239357   1.409   1.140   7.812  0.7351  0.8388 -0.2031
 9241SOL     OW39358   1.993   2.624   2.817 -0.1895 -0.4093  0.2437
 9241SOL    HW139359   2.009   2.587   2.904 -2.4561 -2.1214 -0.0741
 9241SOL    HW239360   1.932   2.693   2.841 -2.4229 -0.8979 -3.9918
 9242SOL     OW39361   0.989   3.461  14.324 -1.0409 -0.3437  0.1794
 9242SOL    HW139362   0.936   3.401  14.378 -0.1999  0.2979  1.7214
 9242SOL    HW239363   0.970   3.435  14.234 -1.9746  0.9315  0.0110
 9243SOL     OW39364   3.188   3.045   7.880  0.3711 -0.1981  0.1192
 9243SOL    HW139365   3.210   3.078   7.967  0.0605  0.3696 -0.0180
 9243SOL    HW239366   3.191   2.954   7.907  3.4112 -0.0449  0.2839
 9244SOL     OW39367   0.351   1.030   8.956  0.2304 -0.1355  0.0264
 9244SOL    HW139368   0.326   1.087   9.029  0.1193 -1.5393  1.0989
 9244SOL    HW239369   0.399   0.965   9.008  0.3929 -1.1222 -1.3788
 9245SOL     OW39370   1.995   0.477   0.507 -0.6970 -0.0891 -0.0341
 9245SOL    HW139371   2.080   0.521   0.508 -0.0833 -1.2709  0.2450
 9245SOL    HW239372   1.980   0.468   0.413  1.3413  0.7197 -0.4298
 9246SOL     OW39373   2.728   0.949   2.527 -0.2068  0.4645 -0.0033
 9246SOL    HW139374   2.809   0.967   2.479  0.5335  0.1460  1.1180
 9246SOL    HW239375   2.673   0.923   2.453 -1.3286 -1.3198  1.4399
 9247SOL     OW39376   0.800   2.965  14.959 -0.3690  0.0008  0.2406
 9247SOL    HW139377   0.736   3.033  14.982  0.2223 -0.6283  3.6724
 9247SOL    HW239378   0.772   2.895  15.018  0.4985 -0.5846 -0.0491
 9248SOL     OW39379   4.115   4.611   3.380 -0.1964  0.4493 -0.3475
 9248SOL    HW139380   4.058   4.564   3.320 -0.5319 -0.5672  0.7745
 9248SOL    HW239381   4.183   4.647   3.323  0.8463  2.0448  1.8724
 9249SOL     OW39382   3.272   4.677   6.250  0.3423  0.0719 -0.1505
 9249SOL    HW139383   3.225   4.650   6.329 -0.5003  0.1432 -0.6348
 9249SOL    HW239384   3.346   4.721   6.291 -0.7516  1.7161  0.0251
 9250SOL     OW39385   3.777   4.699   8.480  0.8262 -0.3940  0.1551
 9250SOL    HW139386   3.766   4.698   8.384  1.6999  1.2654  0.0389
 9250SOL    HW239387   3.845   0.029   8.487 -0.0456  0.4987  0.1554
 9251SOL     OW39388   0.019   0.392   3.300 -0.1264 -0.0373 -0.0233
 9251SOL    HW139389   0.085   0.350   3.245 -0.4451  1.9925 -1.9471
 9251SOL    HW239390   0.062   0.377   3.384  1.7286  0.5258 -0.8859
 9252SOL     OW39391   0.524   1.264   2.376 -0.5147  0.1513  0.7629
 9252SOL    HW139392   0.443   1.220   2.403 -0.2218 -0.8164  0.0407
 9252SOL    HW239393   0.511   1.285   2.284  0.1076 -0.8421  0.4455
 9253SOL     OW39394   1.856   1.464   7.302  0.1345  0.1833 -0.7843
 9253SOL    HW139395   1.768   1.503   7.310 -0.2074 -1.1458  2.1714
 9253SOL    HW239396   1.836   1.383   7.256 -4.2505  0.6709  0.1736
 9254SOL     OW39397   3.965   0.262  12.082  0.7657  0.6804  1.0095
 9254SOL    HW139398   4.057   0.279  12.065  0.6089  1.1176  0.5832
 9254SOL    HW239399   3.935   0.293  11.997  0.2117  0.5545  1.1592
 9255SOL     OW39400   0.469   4.695   6.697 -0.1226  0.2109 -0.0248
 9255SOL    HW139401   0.552   4.729   6.662  0.9697 -2.7515 -0.2740
 9255SOL    HW239402   0.414   0.002   6.631 -0.2787  0.3318  0.1853
 9256SOL     OW39403   1.053   2.823   6.524 -0.1802  0.5831  0.5800
 9256SOL    HW139404   1.091   2.847   6.440  0.9858 -1.2184  0.5905
 9256SOL    HW239405   1.115   2.878   6.572 -0.5416  2.1775 -0.8096
 9257SOL     OW39406   1.219   4.300   8.299 -0.2986 -0.4259  0.2286
 9257SOL    HW139407   1.243   4.379   8.346 -1.0726  1.0356 -1.8435
 9257SOL    HW239408   1.244   4.231   8.361  1.9217  0.9683  0.8683
 9258SOL     OW39409   0.772   2.395  15.030 -0.0068 -0.0838  0.6696
 9258SOL    HW139410   0.677   2.384  15.035 -0.1392  0.6347 -0.1729
 9258SOL    HW239411   0.795   2.337  15.103 -1.5432  0.2258  1.4095
 9259SOL     OW39412   1.489   2.614  13.741 -0.0109 -0.3592  0.3622
 9259SOL    HW139413   1.418   2.598  13.803  0.9029 -0.6057  1.3429
 9259SOL    HW239414   1.450   2.612  13.653 -0.2604 -0.7572  0.4857
 9260SOL     OW39415   1.198   0.023   3.496  0.6166 -0.2052  0.1894
 9260SOL    HW139416   1.160   4.722   3.418  0.5936 -0.7171  0.4476
 9260SOL    HW239417   1.189   0.118   3.493  1.3837 -0.1209  0.4265
 9261SOL     OW39418   3.311   0.681   4.149 -0.2781 -0.4660  0.1714
 9261SOL    HW139419   3.259   0.759   4.129 -2.2321 -2.2400 -1.6136
 9261SOL    HW239420   3.392   0.723   4.176 -0.5949  1.8153 -2.4528
 9262SOL     OW39421   4.597   3.290  11.539 -0.1171  0.3692 -0.1345
 9262SOL    HW139422   4.590   3.328  11.451  1.2184 -0.7057 -0.7239
 9262SOL    HW239423   4.644   3.351  11.596 -0.1245 -0.4266  0.7304
 9263SOL     OW39424   1.308   3.948   3.954  0.2357 -0.0882 -0.4196
 9263SOL    HW139425   1.347   4.013   3.895 -0.5751 -0.4055 -1.2938
 9263SOL    HW239426   1.231   3.999   3.981  0.1289 -0.6998  0.4284
 9264SOL     OW39427   2.661   0.106   1.100 -0.4394  0.2114 -0.5738
 9264SOL    HW139428   2.601   0.036   1.126 -0.9539 -0.4559 -3.6212
 9264SOL    HW239429   2.655   0.114   1.005 -0.4507 -2.2862 -0.7717
 9265SOL     OW39430   4.399   2.340   5.135 -0.1766 -0.6865  0.2924
 9265SOL    HW139431   4.430   2.260   5.092  0.2801  0.4499 -1.4921
 9265SOL    HW239432   4.308   2.320   5.153 -0.3039 -1.5551 -1.3148
 9266SOL     OW39433   3.016   0.783   7.200  0.2527  0.0066  0.3138
 9266SOL    HW139434   2.958   0.824   7.136 -0.7337  1.2586  2.0329
 9266SOL    HW239435   2.960   0.725   7.251 -0.7007  0.4466 -0.2308
 9267SOL     OW39436   3.016   0.991   5.908  0.0331 -0.5072  0.0793
 9267SOL    HW139437   3.054   1.051   5.972 -1.0911 -0.1589  0.4190
 9267SOL    HW239438   3.075   0.917   5.911 -0.4858 -1.0013 -1.4998
 9268SOL     OW39439   3.098   0.523   4.475 -0.3592  0.2108 -0.1862
 9268SOL    HW139440   3.161   0.482   4.533 -1.7731  2.3108  2.8402
 9268SOL    HW239441   3.114   0.478   4.392 -2.2663 -1.2690  0.2363
 9269SOL     OW39442   2.114   2.825   4.534  0.2567  0.0405  0.5275
 9269SOL    HW139443   2.108   2.919   4.514 -2.9900 -0.1592  0.5448
 9269SOL    HW239444   2.189   2.833   4.593 -0.3034 -1.3003  1.4046
 9270SOL     OW39445   1.568   2.586   0.764 -0.1721 -0.7089  0.2271
 9270SOL    HW139446   1.504   2.555   0.700 -0.3259  0.6247 -0.2554
 9270SOL    HW239447   1.630   2.621   0.701 -0.6792  0.9518  0.6644
 9271SOL     OW39448   1.012   4.481   3.432  0.4472  0.5354  0.3830
 9271SOL    HW139449   1.053   4.532   3.362 -0.8281 -0.6160 -1.1973
 9271SOL    HW239450   0.924   4.465   3.399  1.5014  0.3586 -2.3593
 9272SOL     OW39451   1.691   3.290   4.967 -0.5617  0.2338 -0.1969
 9272SOL    HW139452   1.729   3.297   4.879 -0.6681  2.2748 -0.0886
 9272SOL    HW239453   1.677   3.380   4.995  1.2623  0.2240  0.7370
 9273SOL     OW39454   0.135   2.935   8.486 -0.5169  0.0076  0.1064
 9273SOL    HW139455   0.137   2.839   8.493 -1.5378 -0.1012 -1.0317
 9273SOL    HW239456   0.209   2.947   8.426 -1.7334 -0.0310 -1.4113
 9274SOL     OW39457   2.781   4.089   6.098  0.2981  0.0600 -0.1098
 9274SOL    HW139458   2.827   4.059   6.020 -0.6153 -0.8631 -0.3057
 9274SOL    HW239459   2.741   4.002   6.110  1.5706 -0.6132 -0.7690
 9275SOL     OW39460   1.372   3.393   7.780  0.4971 -0.0305  0.1025
 9275SOL    HW139461   1.382   3.368   7.872 -0.0826 -1.0802 -0.1303
 9275SOL    HW239462   1.435   3.331   7.745  2.0920  1.0591  1.0431
 9276SOL     OW39463   4.403   2.031   7.758  0.1080  0.3964 -0.2509
 9276SOL    HW139464   4.341   1.981   7.705  0.2951  0.2225 -0.3035
 9276SOL    HW239465   4.344   2.084   7.812 -0.9815  0.2894 -1.3174
 9277SOL     OW39466   4.561   2.786   5.804  0.0912 -0.4770 -0.5167
 9277SOL    HW139467   4.616   2.721   5.760  0.5587  0.3272 -1.1201
 9277SOL    HW239468   4.473   2.763   5.772 -0.8118  1.6891  0.4406
 9278SOL     OW39469   0.723   3.957   8.078 -0.6384  0.1770 -0.3235
 9278SOL    HW139470   0.629   3.941   8.080 -0.0049 -3.4033  1.6147
 9278SOL    HW239471   0.744   3.962   7.984 -0.1583 -1.3811 -0.2996
 9279SOL     OW39472   1.750   2.605   8.002 -0.0575 -0.5313 -0.3742
 9279SOL    HW139473   1.843   2.628   7.995  0.1619 -1.0977  0.7773
 9279SOL    HW239474   1.768   2.512   8.012  0.1356 -0.4394  0.1554
 9280SOL     OW39475   0.554   1.828  15.389 -0.0257 -0.0496 -0.6677
 9280SOL    HW139476   0.468   1.855  15.357 -0.3401 -1.7898 -1.2916
 9280SOL    HW239477   0.554   1.732  15.399  2.6220 -0.0707 -0.9350
 9281SOL     OW39478   1.553   2.728   7.772  0.3573  0.3316 -0.4211
 9281SOL    HW139479   1.590   2.642   7.753 -0.5670  0.0988 -1.1625
 9281SOL    HW239480   1.561   2.715   7.866  2.1108  0.6946 -0.5106
 9282SOL     OW39481   1.453   1.842  17.449 -0.5679 -0.0689 -0.7665
 9282SOL    HW139482   1.499   1.924  17.431 -0.3357  0.1540  0.7896
 9282SOL    HW239483   1.385   1.861  17.514  0.8408  0.5893  0.5322
 9283SOL     OW39484   3.082   0.564   2.065  0.5166  0.6665  0.5266
 9283SOL    HW139485   3.173   0.584   2.042  0.5657  0.2395  0.3597
 9283SOL    HW239486   3.087   0.568   2.161  1.3365 -0.2113  0.5207
 9284SOL     OW39487   2.003   4.479  16.298 -0.4364 -0.2885  0.2814
 9284SOL    HW139488   2.029   4.497  16.208  2.0656 -0.2711  1.0174
 9284SOL    HW239489   2.063   4.409  16.326  1.6444  1.5320  0.3437
 9285SOL     OW39490   1.533   0.383  13.951 -0.7151  0.6424 -0.0422
 9285SOL    HW139491   1.448   0.421  13.972 -0.8829  0.6703 -0.7820
 9285SOL    HW239492   1.503   0.292  13.960 -0.2210  0.4421 -0.4072
 9286SOL     OW39493   2.947   4.716  15.598  0.0544  0.4694  0.2519
 9286SOL    HW139494   2.920   0.021  15.516 -0.2910  1.4153  0.8471
 9286SOL    HW239495   2.890   0.025  15.659 -0.8012  0.9213 -0.9028
 9287SOL     OW39496   3.708   0.531   1.682  0.6277 -0.1843  0.1562
 9287SOL    HW139497   3.661   0.595   1.629  0.8806  0.5325  0.7877
 9287SOL    HW239498   3.640   0.493   1.739 -0.5000  0.2345 -0.9066
 9288SOL     OW39499   0.643   0.856   7.671 -0.1184  0.6251 -0.1768
 9288SOL    HW139500   0.583   0.897   7.733  1.4533  0.5482  1.3706
 9288SOL    HW239501   0.726   0.901   7.683  0.1578  0.5069 -1.7005
 9289SOL     OW39502   3.534   2.877   6.237 -0.3821  0.0966 -0.6320
 9289SOL    HW139503   3.548   2.969   6.261  0.1586  0.6525 -3.1024
 9289SOL    HW239504   3.582   2.847   6.160  0.2874  2.5734 -1.1677
 9290SOL     OW39505   1.073   4.544   4.517 -0.8495 -0.1568 -0.3736
 9290SOL    HW139506   1.131   4.541   4.593 -1.2331 -0.3204 -0.0874
 9290SOL    HW239507   1.025   4.622   4.544  0.3154  0.5079 -0.2549
 9291SOL     OW39508   3.639   4.189   3.878  0.0617  0.1858 -0.1089
 9291SOL    HW139509   3.699   4.213   3.948 -0.4423 -0.0029  0.3913
 9291SOL    HW239510   3.688   4.115   3.842  0.6861  1.0270 -1.0023
 9292SOL     OW39511   1.176   3.460   5.200 -0.4151 -0.2295 -0.3978
 9292SOL    HW139512   1.104   3.521   5.187  0.3971  0.8383  0.1605
 9292SOL    HW239513   1.183   3.417   5.115  0.8878  0.0739 -0.4542
 9293SOL     OW39514   2.696   2.986   8.284 -0.4848  0.0053 -0.0278
 9293SOL    HW139515   2.627   3.046   8.313 -2.4191 -2.0039 -0.5398
 9293SOL    HW239516   2.723   2.964   8.373 -0.9378  0.4967  0.2301
 9294SOL     OW39517   0.103   2.751   0.042  0.3857 -0.5378 -0.3512
 9294SOL    HW139518   0.058   2.803   0.109  0.5739 -0.4187 -0.3160
 9294SOL    HW239519   0.108   2.817  17.717  1.0147  1.1119  1.2688
 9295SOL     OW39520   0.248   2.830  15.692  0.3023  0.4163 -0.2608
 9295SOL    HW139521   0.163   2.798  15.660  0.0215  0.6498  0.2571
 9295SOL    HW239522   0.240   2.818  15.786 -2.9044 -0.8871 -0.6862
 9296SOL     OW39523   1.659   4.188  17.367 -0.2281 -0.1687  0.0238
 9296SOL    HW139524   1.690   4.278  17.375  1.6589 -0.7411 -0.9278
 9296SOL    HW239525   1.643   4.185  17.272 -2.3786  3.4050  0.2779
 9297SOL     OW39526   2.831   2.734  12.315 -0.3253  0.1029  0.3793
 9297SOL    HW139527   2.860   2.656  12.361 -0.4550 -0.1308  0.0612
 9297SOL    HW239528   2.736   2.725  12.327 -0.5415  3.0012  0.9949
 9298SOL     OW39529   1.840   2.395  10.814  0.0367  0.5334  0.0824
 9298SOL    HW139530   1.919   2.362  10.772  0.2092  1.4286 -0.2938
 9298SOL    HW239531   1.881   2.437  10.889 -0.6079 -1.8548  1.7596
 9299SOL     OW39532   0.378   3.275   7.002  0.0702  0.0071 -0.1258
 9299SOL    HW139533   0.418   3.323   7.074 -0.2618 -0.1248  0.1463
 9299SOL    HW239534   0.456   3.240   6.960 -0.8803 -0.2917 -1.6385
 9300SOL     OW39535   4.372   2.937  13.509  0.0671 -0.2143 -0.1858
 9300SOL    HW139536   4.357   2.925  13.603  1.8232 -0.0805  0.1114
 9300SOL    HW239537   4.444   2.874  13.503  0.6183  0.5161 -1.1856
 9301SOL     OW39538   3.699   0.185   9.903 -0.2254  0.0842  0.3887
 9301SOL    HW139539   3.702   0.259   9.842  0.0927  1.1264  1.6796
 9301SOL    HW239540   3.779   0.141   9.874 -0.7698 -0.9978  0.5439
 9302SOL     OW39541   0.158   2.642   3.526  0.0271 -0.0751  0.2926
 9302SOL    HW139542   0.107   2.602   3.455  0.8798  1.3364 -1.1075
 9302SOL    HW239543   0.139   2.734   3.507  1.6120  0.0111 -0.8116
 9303SOL     OW39544   2.011   4.274   1.671  0.0678  0.3849 -0.4948
 9303SOL    HW139545   2.051   4.209   1.613  1.1860  0.4944  0.1592
 9303SOL    HW239546   1.957   4.222   1.730  1.8333 -0.9493 -0.0561
 9304SOL     OW39547   2.350   2.426   6.982  0.4637  0.7827  0.3758
 9304SOL    HW139548   2.302   2.417   6.900 -0.3788 -4.5648  1.4177
 9304SOL    HW239549   2.328   2.339   7.017  1.3025  0.3999 -0.0526
 9305SOL     OW39550   1.086   1.958   9.253 -0.1604  0.4749 -0.3546
 9305SOL    HW139551   1.164   1.918   9.293 -0.1135  1.9944  1.0861
 9305SOL    HW239552   1.032   1.880   9.247  3.9416 -2.5097  1.3657
 9306SOL     OW39553   4.440   2.555   7.527 -0.0449  0.6043 -0.1311
 9306SOL    HW139554   4.363   2.589   7.571 -0.3347 -1.5536  1.0518
 9306SOL    HW239555   4.507   2.566   7.595  1.6720 -1.9879 -1.3670
 9307SOL     OW39556   0.398   0.196   8.207 -0.7610  0.2392 -0.0179
 9307SOL    HW139557   0.439   0.270   8.250 -0.4413 -0.1867  0.4078
 9307SOL    HW239558   0.468   0.131   8.196 -0.7828 -0.0395  1.4870
 9308SOL     OW39559   4.293   2.735  16.764  0.2985 -0.2591  0.4367
 9308SOL    HW139560   4.320   2.644  16.755  1.2146 -0.1770  2.2466
 9308SOL    HW239561   4.242   2.748  16.684  2.7508  1.2181 -0.8962
 9309SOL     OW39562   4.166   4.681   5.767  0.4074 -0.3001 -0.4210
 9309SOL    HW139563   4.120   0.026   5.747 -0.0799 -0.6276 -0.6357
 9309SOL    HW239564   4.236   4.693   5.832 -1.4728 -3.2486  2.1700
 9310SOL     OW39565   1.067   0.196  12.765 -0.2445 -0.2832  0.2594
 9310SOL    HW139566   1.073   0.137  12.839  0.7782  0.4176  0.7406
 9310SOL    HW239567   1.055   0.143  12.686  3.5932 -2.5804  1.2457
 9311SOL     OW39568   0.451   1.901   3.446  0.2697  0.6795  0.3133
 9311SOL    HW139569   0.364   1.926   3.478 -1.8739 -2.5317 -2.9357
 9311SOL    HW239570   0.482   1.848   3.519 -1.2496 -1.8901 -0.9132
 9312SOL     OW39571   4.402   2.693   4.140 -0.2042 -0.1510 -0.0282
 9312SOL    HW139572   4.323   2.645   4.164 -1.4498  2.2355  0.6104
 9312SOL    HW239573   4.443   2.632   4.078  1.5761  0.7430  0.2481
 9313SOL     OW39574   1.280   4.736   0.554  0.6953 -0.4011  0.0521
 9313SOL    HW139575   1.325   0.053   0.488  0.7203  0.9431  1.1556
 9313SOL    HW239576   1.199   0.045   0.576  0.2703 -0.9449 -0.4092
 9314SOL     OW39577   1.533   0.728  13.778  0.2135 -0.4711  0.2536
 9314SOL    HW139578   1.590   0.792  13.737  1.0766 -0.6811  1.1248
 9314SOL    HW239579   1.504   0.793  13.843  0.4007 -0.0189 -0.1240
 9315SOL     OW39580   3.387   3.739   4.835 -0.3211  0.1910  0.3466
 9315SOL    HW139581   3.333   3.786   4.772  0.8644  0.2819 -0.6065
 9315SOL    HW239582   3.405   3.808   4.900  1.2230  0.4628 -0.3891
 9316SOL     OW39583   2.165   3.934   7.853 -0.1134 -0.1694  0.4038
 9316SOL    HW139584   2.076   3.942   7.818 -1.4573 -1.1777  3.4992
 9316SOL    HW239585   2.166   3.839   7.842 -0.1006 -0.1706  0.4154
 9317SOL     OW39586   0.529   3.264  11.664  0.0178 -0.5344  0.3579
 9317SOL    HW139587   0.589   3.195  11.692  1.3895  1.1078  1.4331
 9317SOL    HW239588   0.445   3.226  11.690 -0.3849 -1.8774 -2.8827
 9318SOL     OW39589   1.317   4.222   5.738 -0.2192 -0.0121 -1.0154
 9318SOL    HW139590   1.335   4.243   5.830 -0.9959 -0.2417 -0.8070
 9318SOL    HW239591   1.373   4.281   5.689  2.0749 -0.0973  1.4947
 9319SOL     OW39592   3.429   3.934   5.014  0.8416  0.0810 -0.6216
 9319SOL    HW139593   3.489   4.007   5.031  0.3879 -0.0119  1.3254
 9319SOL    HW239594   3.355   3.959   5.069  1.3519 -0.2073  0.1958
 9320SOL     OW39595   3.864   4.023   3.961  0.0751 -0.1752 -0.1397
 9320SOL    HW139596   3.889   4.004   3.870 -0.7742 -1.2440 -0.1647
 9320SOL    HW239597   3.942   3.989   4.005 -0.8102 -2.9495 -0.6855
 9321SOL     OW39598   3.609   0.636  13.530 -0.0241 -0.4227 -0.4204
 9321SOL    HW139599   3.565   0.642  13.445 -0.2264  1.6307 -0.1792
 9321SOL    HW239600   3.585   0.723  13.563  0.2796 -0.6168  0.2932
 9322SOL     OW39601   4.384   3.152   4.247 -0.7494 -0.1631  0.6457
 9322SOL    HW139602   4.311   3.213   4.252 -0.1020  0.5650  1.2074
 9322SOL    HW239603   4.445   3.211   4.293  0.1130 -0.2709 -0.3497
 9323SOL     OW39604   2.074   2.030   8.129 -0.0100  0.1971  0.0924
 9323SOL    HW139605   2.139   1.987   8.185 -1.6436 -2.6457 -0.1785
 9323SOL    HW239606   2.128   2.073   8.063 -1.9732 -1.2204 -2.4523
 9324SOL     OW39607   3.410   2.612   1.333 -0.3399 -0.8261  0.0317
 9324SOL    HW139608   3.483   2.661   1.294 -1.3127 -1.5393 -2.7045
 9324SOL    HW239609   3.363   2.604   1.249  0.2004 -2.6775 -0.0975
 9325SOL     OW39610   0.965   2.839   4.829  0.4627  0.0037  0.0408
 9325SOL    HW139611   0.984   2.801   4.743  1.1616  0.3699  0.0330
 9325SOL    HW239612   0.877   2.803   4.845 -0.2058  1.8012  0.3612
 9326SOL     OW39613   3.213   1.506   2.638 -0.4315  0.4504 -0.0298
 9326SOL    HW139614   3.174   1.571   2.580 -0.9285  0.5526  0.4190
 9326SOL    HW239615   3.132   1.489   2.685 -0.3657 -1.2447 -0.5202
 9327SOL     OW39616   2.389   1.292   6.001  0.1029 -0.4931  0.1318
 9327SOL    HW139617   2.395   1.305   5.907 -1.3825 -0.4289  0.0456
 9327SOL    HW239618   2.430   1.206   6.010 -1.4761 -1.3438 -0.9060
 9328SOL     OW39619   4.219   3.503  11.568 -0.3262 -0.1468 -0.0874
 9328SOL    HW139620   4.189   3.591  11.589 -0.5633 -0.6965  1.9224
 9328SOL    HW239621   4.313   3.516  11.580 -0.9721  2.7930  1.7002
 9329SOL     OW39622   4.563   4.195  13.704  0.2685 -0.4597  0.1589
 9329SOL    HW139623   4.641   4.245  13.728 -0.8669  0.3872  2.0579
 9329SOL    HW239624   4.605   4.115  13.672  0.7062 -0.1164 -0.1293
 9330SOL     OW39625   0.810   3.888  13.792  0.0043 -0.6084 -0.7795
 9330SOL    HW139626   0.903   3.890  13.771  0.3706  0.9306  1.0116
 9330SOL    HW239627   0.779   3.797  13.785 -0.2648 -0.4798 -1.2306
 9331SOL     OW39628   4.253   1.482  10.705  0.0633  0.5015  0.4933
 9331SOL    HW139629   4.193   1.524  10.766 -1.3405 -2.0539  0.8856
 9331SOL    HW239630   4.323   1.461  10.766 -0.9990 -2.7312  0.5765
 9332SOL     OW39631   3.466   3.482   6.714  0.2203  0.2249  0.1352
 9332SOL    HW139632   3.501   3.500   6.627 -0.2109  0.7935  0.0737
 9332SOL    HW239633   3.464   3.570   6.753  1.1959  1.0750 -1.7152
 9333SOL     OW39634   0.352   3.923  13.651  0.1020 -0.6285 -0.0977
 9333SOL    HW139635   0.414   3.921  13.578 -1.1855 -2.4803 -1.1642
 9333SOL    HW239636   0.340   4.015  13.676  3.6022 -0.1348 -0.2608
 9334SOL     OW39637   4.536   1.844   8.649 -0.5741 -0.2092  0.0990
 9334SOL    HW139638   4.615   1.790   8.659 -1.7472 -1.3889  2.8455
 9334SOL    HW239639   4.558   1.881   8.563 -0.1441 -1.0586 -0.1599
 9335SOL     OW39640   0.241   2.738  11.364 -0.0657  0.7510 -0.2712
 9335SOL    HW139641   0.329   2.701  11.366 -0.1172  0.6324 -0.2195
 9335SOL    HW239642   0.186   2.683  11.420 -0.3589  2.1306  0.8201
 9336SOL     OW39643   3.878   3.379   2.276  0.1008  0.2136 -0.5939
 9336SOL    HW139644   3.913   3.324   2.206  0.4590 -1.2838  0.7753
 9336SOL    HW239645   3.839   3.311   2.331  0.6476 -0.2181 -0.7481
 9337SOL     OW39646   4.156   2.187   7.834 -0.1762 -0.3963 -0.0088
 9337SOL    HW139647   4.075   2.175   7.884 -0.3860  2.6699  0.4310
 9337SOL    HW239648   4.114   2.227   7.758 -0.3080  0.4354  0.4937
 9338SOL     OW39649   1.812   4.086   6.383  0.0615 -0.6281 -0.2643
 9338SOL    HW139650   1.894   4.039   6.372  0.4504  0.2346 -0.9753
 9338SOL    HW239651   1.823   4.155   6.318 -1.5643 -1.7728 -1.7500
 9339SOL     OW39652   4.178   2.184  16.111 -0.2037 -0.1107  0.6149
 9339SOL    HW139653   4.177   2.280  16.112  2.4310 -0.0995  1.8738
 9339SOL    HW239654   4.189   2.167  16.017  1.0681  0.0755  0.7307
 9340SOL     OW39655   4.273   3.479   3.254  0.3785 -0.3374  0.4220
 9340SOL    HW139656   4.304   3.501   3.166 -2.2902  1.7075 -0.0134
 9340SOL    HW239657   4.261   3.567   3.290 -2.5420 -0.7495  0.5006
 9341SOL     OW39658   4.247   0.692   7.360 -0.8483  0.1232  0.3700
 9341SOL    HW139659   4.158   0.659   7.351  0.2171 -2.6781  0.1675
 9341SOL    HW239660   4.234   0.785   7.381  1.1203  0.7525 -1.1903
 9342SOL     OW39661   1.654   4.329   0.901 -0.5944 -0.5596 -0.3163
 9342SOL    HW139662   1.647   4.418   0.935  1.0762  0.6300 -3.0886
 9342SOL    HW239663   1.630   4.349   0.810 -0.0451 -0.7180 -0.4972
 9343SOL     OW39664   3.648   4.127  15.147  0.1671  0.1456 -0.0305
 9343SOL    HW139665   3.568   4.178  15.158 -0.7010 -1.3691  0.7250
 9343SOL    HW239666   3.705   4.195  15.113 -0.3742  0.2424 -0.7545
 9344SOL     OW39667   0.966   0.871   0.137  0.2066  0.2097 -0.0350
 9344SOL    HW139668   1.007   0.789   0.162 -2.2645 -0.5265  1.6554
 9344SOL    HW239669   0.922   0.904   0.215  2.5414  2.3076  0.3749
 9345SOL     OW39670   4.589   2.994  16.216 -0.2090 -0.1115  0.1320
 9345SOL    HW139671   4.515   3.052  16.235  0.3447  0.3836  0.7666
 9345SOL    HW239672   4.646   3.067  16.193 -0.6775  0.6248  1.2867
 9346SOL     OW39673   2.821   0.738  10.134 -0.5043 -0.9479  0.1436
 9346SOL    HW139674   2.908   0.772  10.113 -1.3003  1.4878  0.7564
 9346SOL    HW239675   2.840   0.653  10.174 -0.4394 -1.9941 -2.0817
 9347SOL     OW39676   1.162   2.058   6.433 -0.0690 -0.3853 -0.2303
 9347SOL    HW139677   1.153   1.963   6.435  2.7479 -0.6368  1.0607
 9347SOL    HW239678   1.100   2.081   6.503 -2.6103  0.9654 -2.9179
 9348SOL     OW39679   1.864   3.903  13.919  0.3159  0.0517 -0.6733
 9348SOL    HW139680   1.917   3.959  13.977 -0.3886 -0.3794  0.3818
 9348SOL    HW239681   1.814   3.974  13.878 -0.1856 -0.3906 -0.8177
 9349SOL     OW39682   1.814   3.858   3.426 -0.1754  0.2432 -0.2573
 9349SOL    HW139683   1.724   3.887   3.410  0.4524  0.1393 -3.8978
 9349SOL    HW239684   1.855   3.898   3.349  3.2550 -3.3776 -0.2964
 9350SOL     OW39685   4.623   0.704   4.053  0.1102 -0.0315  0.5113
 9350SOL    HW139686   4.659   0.744   4.132  0.9989  0.4762 -0.1412
 9350SOL    HW239687   4.574   0.640   4.104  2.8103 -2.6689 -0.1245
 9351SOL     OW39688   4.121   2.911  16.108 -0.3680  0.1984 -0.5366
 9351SOL    HW139689   4.110   2.924  16.014 -0.7182 -0.5072 -0.5918
 9351SOL    HW239690   4.172   2.990  16.126 -0.7382  0.8013 -2.1601
 9352SOL     OW39691   1.034   0.276   4.524  0.8340  0.3044  0.1705
 9352SOL    HW139692   0.949   0.313   4.498  1.0968  1.7450  1.3675
 9352SOL    HW239693   1.017   0.267   4.618  0.8748  0.9957  0.2462
 9353SOL     OW39694   1.164   0.641  10.504 -0.0440 -0.5226 -0.0860
 9353SOL    HW139695   1.189   0.560  10.548 -2.0878 -1.5943 -0.8887
 9353SOL    HW239696   1.181   0.693  10.583 -0.4242 -1.9480  0.9352
 9354SOL     OW39697   4.168   0.965   8.021  0.2597 -0.0618  1.1832
 9354SOL    HW139698   4.098   0.900   8.014 -1.3971  1.6372  1.9900
 9354SOL    HW239699   4.228   0.925   8.084 -0.1469  3.1342  3.6136
 9355SOL     OW39700   0.308   0.495   0.576  0.1003 -0.1581  0.5763
 9355SOL    HW139701   0.384   0.472   0.524  0.1503  1.7677 -0.2101
 9355SOL    HW239702   0.332   0.586   0.597 -0.3101 -0.2702  1.5452
 9356SOL     OW39703   3.484   2.083   3.036  0.2336 -0.3218  0.0742
 9356SOL    HW139704   3.415   2.064   3.100  2.0263  0.1620  2.1723
 9356SOL    HW239705   3.512   1.995   3.010  1.3571  0.4111 -1.1554
 9357SOL     OW39706   0.012   3.624   7.520  0.0283 -0.3896  0.5753
 9357SOL    HW139707   4.673   3.672   7.483  2.7831  2.3295 -1.4896
 9357SOL    HW239708   0.025   3.550   7.461 -0.4350 -0.9075  1.1227
 9358SOL     OW39709   2.333   4.282  11.555  0.4062  0.1351  0.0793
 9358SOL    HW139710   2.240   4.267  11.570  0.4728 -0.2034  0.1506
 9358SOL    HW239711   2.317   4.355  11.494  2.8476  1.2745  0.7936
 9359SOL     OW39712   0.070   0.083   7.070 -0.1379 -0.1248  0.0890
 9359SOL    HW139713   4.732   0.050   7.020  0.3248 -0.7563 -0.1748
 9359SOL    HW239714   0.104   4.735   7.098  1.3469  0.7319  0.8956
 9360SOL     OW39715   0.252   2.046   9.006 -1.1521  0.3161  0.1946
 9360SOL    HW139716   0.323   2.047   9.070 -0.8332 -0.9578 -0.1317
 9360SOL    HW239717   0.259   1.956   8.975 -0.1332  1.1963 -2.1292
 9361SOL     OW39718   4.592   3.072  15.244  0.0598 -0.5641 -0.6223
 9361SOL    HW139719   4.643   3.148  15.215 -0.4946  0.2617  0.5941
 9361SOL    HW239720   4.583   3.029  15.159 -1.0264 -3.4927  0.9871
 9362SOL     OW39721   2.566   2.590  12.899 -0.5825  0.2551  0.0490
 9362SOL    HW139722   2.587   2.676  12.863 -0.3669 -0.8601 -2.4902
 9362SOL    HW239723   2.491   2.610  12.955 -2.4098 -0.0378 -2.3035
 9363SOL     OW39724   0.142   0.399  11.916  0.2446 -0.3051  0.0089
 9363SOL    HW139725   0.054   0.436  11.916  0.2691 -0.2073  4.1511
 9363SOL    HW239726   0.191   0.462  11.863 -0.7786  0.0370 -0.5290
 9364SOL     OW39727   1.054   3.042   7.343  0.6805 -0.2669 -0.2260
 9364SOL    HW139728   1.005   2.965   7.373 -2.0730  0.7483 -2.1557
 9364SOL    HW239729   1.143   3.012   7.361  0.2368 -0.9248  0.8440
 9365SOL     OW39730   0.285   0.823   5.664  0.9923  0.3287  0.0432
 9365SOL    HW139731   0.261   0.731   5.653 -1.8483  1.0339  0.2125
 9365SOL    HW239732   0.355   0.804   5.726  0.5214 -0.1530  0.4276
 9366SOL     OW39733   0.262   2.868   9.261 -0.6661 -0.1043  0.5808
 9366SOL    HW139734   0.224   2.782   9.280 -1.5539  0.3252  0.7335
 9366SOL    HW239735   0.186   2.919   9.289 -0.3948  1.0388 -0.7799
 9367SOL     OW39736   2.581   4.115   7.447  0.3043  0.3925  0.2431
 9367SOL    HW139737   2.579   4.037   7.392  1.4956  1.4826 -1.3284
 9367SOL    HW239738   2.494   4.110   7.487  0.1215  0.1964 -0.1782
 9368SOL     OW39739   0.962   0.114   5.674 -0.5287 -0.1789 -0.2430
 9368SOL    HW139740   0.870   0.085   5.677 -0.6016  0.0170 -0.6334
 9368SOL    HW239741   1.000   0.084   5.757  0.6279 -1.4853 -1.2357
 9369SOL     OW39742   0.826   3.286  11.175 -0.2908  0.3117  0.3798
 9369SOL    HW139743   0.797   3.223  11.241  1.2663  0.2336  0.9862
 9369SOL    HW239744   0.880   3.229  11.120 -0.9018 -0.0641  0.1665
 9370SOL     OW39745   0.433   4.012   1.513  0.3433 -0.7263 -0.1422
 9370SOL    HW139746   0.416   4.069   1.438 -1.1233  0.3657  1.0442
 9370SOL    HW239747   0.365   3.951   1.483  0.6510 -0.2506 -1.8385
 9371SOL     OW39748   2.520   1.790   6.538 -0.3463 -0.0819 -0.4934
 9371SOL    HW139749   2.515   1.766   6.446 -2.0452  0.1473 -0.4684
 9371SOL    HW239750   2.469   1.724   6.585  0.5714 -0.9645 -0.7524
 9372SOL     OW39751   1.857   2.596   4.673  0.0784 -0.3596  0.0277
 9372SOL    HW139752   1.907   2.621   4.595 -0.6259  1.0505  0.0254
 9372SOL    HW239753   1.907   2.638   4.744  2.3649 -0.6160 -1.4434
 9373SOL     OW39754   3.994   0.812  15.083 -0.1196  0.2685  0.0720
 9373SOL    HW139755   3.997   0.742  15.148 -1.9277  0.5240  0.4262
 9373SOL    HW239756   4.088   0.826  15.079 -0.4577  1.9775 -1.6444
 9374SOL     OW39757   2.021   2.019  17.703 -0.9000 -0.1038  0.0336
 9374SOL    HW139758   2.105   1.976  17.720 -0.4020  0.1734 -1.6484
 9374SOL    HW239759   2.045   2.059  17.619  0.0955 -1.1754 -0.1827
 9375SOL     OW39760   3.972   2.744  15.459  0.2189 -0.9147  0.1090
 9375SOL    HW139761   3.958   2.655  15.491  0.6820 -1.3087 -0.8051
 9375SOL    HW239762   3.999   2.725  15.369  0.2709  2.2966 -0.5444
 9376SOL     OW39763   4.577   0.447   1.051  0.3509  0.3190  0.2205
 9376SOL    HW139764   4.590   0.369   0.998 -4.4564 -0.0954 -0.2981
 9376SOL    HW239765   4.620   0.510   0.993  0.9589  0.8451  1.2404
 9377SOL     OW39766   4.074   1.026   6.501  0.0358 -0.1465  0.1010
 9377SOL    HW139767   4.103   1.003   6.589 -1.6730  0.9066  0.9411
 9377SOL    HW239768   4.137   1.094   6.476 -1.1562  1.2586  0.8360
 9378SOL     OW39769   1.612   3.997   0.988  0.3982 -0.3650 -0.8595
 9378SOL    HW139770   1.525   4.034   0.975 -0.0703 -1.8396 -1.9123
 9378SOL    HW239771   1.597   3.902   0.984 -2.5803  0.0509  0.4756
 9379SOL     OW39772   4.317   4.349  12.572  0.1872  0.2381  0.1627
 9379SOL    HW139773   4.407   4.354  12.540 -0.3815  0.5859 -1.3822
 9379SOL    HW239774   4.276   4.337  12.486  1.1069  1.1945 -0.4180
 9380SOL     OW39775   1.159   2.912  14.664 -0.4587 -0.2472  0.1704
 9380SOL    HW139776   1.083   2.868  14.626  0.5002 -0.3969 -1.5962
 9380SOL    HW239777   1.231   2.857  14.635 -0.1473  0.7251 -0.9270
 9381SOL     OW39778   2.050   1.079   7.794 -0.3575  0.0765 -0.1025
 9381SOL    HW139779   2.128   1.129   7.819  0.6102 -1.1279 -0.7142
 9381SOL    HW239780   2.090   0.992   7.787  0.1776  0.3482 -0.3998
 9382SOL     OW39781   1.698   0.338   6.895  0.1092  0.1826 -0.4611
 9382SOL    HW139782   1.670   0.273   6.831  3.5499 -1.3485 -0.4088
 9382SOL    HW239783   1.617   0.359   6.942  1.2381  3.5206 -0.0079
 9383SOL     OW39784   1.884   2.267   5.920  0.5345  0.6723 -0.2820
 9383SOL    HW139785   1.958   2.251   5.980  1.0890 -0.6669 -1.3194
 9383SOL    HW239786   1.811   2.214   5.953  0.6908 -0.2082 -1.3460
 9384SOL     OW39787   0.271   2.223   7.898 -0.0383 -0.1153  0.1874
 9384SOL    HW139788   0.212   2.202   7.826  2.0097 -1.2528 -1.1524
 9384SOL    HW239789   0.214   2.193   7.969  1.1741 -1.4801  0.5906
 9385SOL     OW39790   2.234   4.191   2.245 -0.5432  0.1974 -0.6390
 9385SOL    HW139791   2.182   4.236   2.311  0.3536 -1.0215  0.8924
 9385SOL    HW239792   2.271   4.265   2.196  2.1598  0.4034  1.7604
 9386SOL     OW39793   3.430   2.310   1.092  0.2545 -0.3861  0.1997
 9386SOL    HW139794   3.395   2.399   1.093 -0.9178 -0.8510  0.1836
 9386SOL    HW239795   3.351   2.257   1.099 -0.7395  1.3245  1.7377
 9387SOL     OW39796   0.517   3.602   1.428  0.2902  0.6751  0.1121
 9387SOL    HW139797   0.537   3.686   1.386  0.9204 -0.8377 -2.6098
 9387SOL    HW239798   0.591   3.580   1.484  0.5315 -0.9457 -0.8579
 9388SOL     OW39799   4.162   2.467   5.933 -0.1279  0.1792 -0.2445
 9388SOL    HW139800   4.246   2.447   5.975  0.2724  0.9711 -0.6723
 9388SOL    HW239801   4.159   2.398   5.866 -0.2782  1.0182 -1.0918
 9389SOL     OW39802   4.624   3.326   5.040  0.0146 -0.0460  0.0705
 9389SOL    HW139803   4.593   3.241   5.071 -0.4065 -0.0217 -0.2841
 9389SOL    HW239804   4.563   3.388   5.080  0.1659  0.7586 -0.9369
 9390SOL     OW39805   2.880   2.553   0.528  0.0935  0.3039 -0.0688
 9390SOL    HW139806   2.823   2.490   0.484  0.6299 -0.0937 -0.1796
 9390SOL    HW239807   2.948   2.568   0.463  0.0250  2.3672  0.3305
 9391SOL     OW39808   1.807   2.624  10.236 -0.1945  0.4527  0.1122
 9391SOL    HW139809   1.778   2.715  10.240 -0.0175  0.5436 -0.7066
 9391SOL    HW239810   1.827   2.621  10.142 -1.6251 -1.4481 -0.1320
 9392SOL     OW39811   4.055   1.689   4.515 -0.1961  0.5125 -0.0978
 9392SOL    HW139812   3.968   1.726   4.531 -0.0695  0.7856 -0.0322
 9392SOL    HW239813   4.070   1.673   4.609  3.1858 -0.8556 -0.8513
 9393SOL     OW39814   2.394   4.597  16.935  0.2724 -0.4812  0.3988
 9393SOL    HW139815   2.355   4.633  16.855  0.0457  0.0338  0.7410
 9393SOL    HW239816   2.347   4.514  16.937  0.5859 -0.6941 -1.1147
 9394SOL     OW39817   1.171   1.896  10.161 -0.3619  0.1563  0.2423
 9394SOL    HW139818   1.256   1.869  10.195  1.0434  1.3544 -2.3329
 9394SOL    HW239819   1.120   1.837  10.216 -0.3681 -0.9533 -0.9528
 9395SOL     OW39820   1.038   1.212   7.250 -0.0658  0.0698  0.5352
 9395SOL    HW139821   1.012   1.191   7.160 -0.3058 -1.2044  0.8895
 9395SOL    HW239822   1.128   1.181   7.240 -0.0455 -0.9443  3.9266
 9396SOL     OW39823   1.828   1.049   5.541  1.0302 -0.0422 -0.1214
 9396SOL    HW139824   1.887   1.122   5.561  1.9678 -1.5700  2.5968
 9396SOL    HW239825   1.767   1.087   5.478  0.4072  0.2660  0.6828
 9397SOL     OW39826   0.462   2.830  11.619 -0.8850  0.4743 -0.4013
 9397SOL    HW139827   0.456   2.739  11.589  0.9968  0.4820 -0.7771
 9397SOL    HW239828   0.374   2.839  11.657 -1.7064  1.0938 -2.4258
 9398SOL     OW39829   1.797   1.993   8.149  0.3137 -0.5150  0.3604
 9398SOL    HW139830   1.881   2.026   8.180 -0.4550  2.7825 -1.0508
 9398SOL    HW239831   1.820   1.962   8.062 -2.1378 -0.1875 -0.3893
 9399SOL     OW39832   4.565   1.553   3.203 -0.1686 -0.2509  0.6282
 9399SOL    HW139833   4.644   1.513   3.238  1.4104  0.4409 -2.1525
 9399SOL    HW239834   4.579   1.545   3.108 -1.8806  0.3435  0.3224
 9400SOL     OW39835   2.914   0.486   1.869 -0.2810  0.1874  0.6601
 9400SOL    HW139836   2.972   0.466   1.942 -0.2492 -1.3057  0.2234
 9400SOL    HW239837   2.990   0.524   1.823 -0.8567  0.8653  0.2733
 9401SOL     OW39838   1.839   2.232   2.842  0.1068  0.0702 -0.0429
 9401SOL    HW139839   1.860   2.182   2.921  1.8006  1.1108  0.1712
 9401SOL    HW239840   1.920   2.241   2.792  0.0720 -1.5946 -0.3717
 9402SOL     OW39841   1.207   0.620   1.605 -0.1669  0.1953  0.1573
 9402SOL    HW139842   1.115   0.646   1.595  0.0332  1.6152  1.9257
 9402SOL    HW239843   1.224   0.647   1.696 -1.0197 -0.8765  0.6369
 9403SOL     OW39844   2.278   0.235   2.015  0.0684  0.0519  0.3071
 9403SOL    HW139845   2.272   0.148   1.977 -0.5916  0.5116 -0.6319
 9403SOL    HW239846   2.313   0.294   1.949 -0.7377  2.0088  1.6286
 9404SOL     OW39847   2.807   0.527   3.838 -0.2310 -0.3778  0.1951
 9404SOL    HW139848   2.841   0.460   3.779  0.8783  0.0815  0.3061
 9404SOL    HW239849   2.741   0.475   3.885  2.0289 -1.3233  2.3315
 9405SOL     OW39850   3.275   0.987   3.801  0.0111 -0.2407 -0.3338
 9405SOL    HW139851   3.329   1.065   3.794 -0.1601  0.2738  4.1837
 9405SOL    HW239852   3.332   0.930   3.749  1.3062 -1.0070  1.9395
 9406SOL     OW39853   1.895   4.018   2.353  0.2322 -0.4098  0.8505
 9406SOL    HW139854   1.822   3.967   2.318 -2.2638  2.5427  1.6996
 9406SOL    HW239855   1.967   3.955   2.355 -0.3177 -1.0764 -0.3365
 9407SOL     OW39856   1.649   3.611   2.546 -0.3846 -0.0094 -0.0354
 9407SOL    HW139857   1.579   3.673   2.527 -0.5516 -0.1712  0.0541
 9407SOL    HW239858   1.680   3.585   2.459  1.4532 -1.1188  0.9386
 9408SOL     OW39859   0.415   3.207   2.923 -0.2485  0.3310  0.1355
 9408SOL    HW139860   0.468   3.276   2.883  0.2414  0.6775  1.4033
 9408SOL    HW239861   0.339   3.262   2.942 -1.3510 -0.8822 -0.7444
 9409SOL     OW39862   4.263   1.055   4.860 -0.0510 -0.5202  0.1160
 9409SOL    HW139863   4.243   0.962   4.845  1.2204 -1.2887  3.1631
 9409SOL    HW239864   4.215   1.098   4.789  1.7631 -1.0827 -1.4718
 9410SOL     OW39865   2.439   4.153   2.884  0.1385  0.1004 -0.3165
 9410SOL    HW139866   2.513   4.108   2.843 -1.9073 -2.3675 -1.2883
 9410SOL    HW239867   2.389   4.181   2.807  0.9110 -1.9570 -1.5511
 9411SOL     OW39868   0.775   1.611   1.857 -0.3512  0.0250  0.1881
 9411SOL    HW139869   0.811   1.524   1.838 -1.4652 -0.8007  1.8032
 9411SOL    HW239870   0.700   1.613   1.798 -0.6591 -1.2154  0.5287
 9412SOL     OW39871   1.498   4.255  10.951 -0.0170 -0.3993 -0.1968
 9412SOL    HW139872   1.449   4.277  10.871  1.4605 -0.1430 -1.0235
 9412SOL    HW239873   1.453   4.175  10.976  1.3228 -1.7401 -2.1475
 9413SOL     OW39874   3.379   4.204   7.318  0.4467  0.1826 -0.0557
 9413SOL    HW139875   3.292   4.169   7.297  0.3102  0.0560  0.6968
 9413SOL    HW239876   3.381   4.219   7.413  1.7148 -0.6916  0.0632
 9414SOL     OW39877   3.026   0.682  11.628 -0.1349 -0.5608 -0.0810
 9414SOL    HW139878   3.052   0.638  11.708  0.5722  0.0458  0.0190
 9414SOL    HW239879   3.098   0.673  11.566  0.7963 -0.3340  0.9672
 9415SOL     OW39880   1.791   4.274   7.731 -1.0298 -0.2569  0.2068
 9415SOL    HW139881   1.703   4.283   7.695 -0.3990  1.4527 -0.8797
 9415SOL    HW239882   1.787   4.318   7.816  3.4233 -1.0514  0.8604
 9416SOL     OW39883   3.451   0.905   7.886  0.0126 -0.1181  0.2713
 9416SOL    HW139884   3.439   0.993   7.851 -0.3063 -0.8527 -1.4438
 9416SOL    HW239885   3.491   0.869   7.808  1.6056  0.8606  0.6215
 9417SOL     OW39886   3.731   3.102  15.703  0.4572 -0.0457 -0.0402
 9417SOL    HW139887   3.736   3.008  15.685 -3.4995 -0.8330  3.0699
 9417SOL    HW239888   3.643   3.125  15.673  0.1180  0.1195  1.0717
 9418SOL     OW39889   2.021   4.660  11.273 -0.0106 -0.1929  0.4256
 9418SOL    HW139890   1.953   4.621  11.218  0.6465 -1.1258  0.2735
 9418SOL    HW239891   2.034   0.012  11.238 -0.1996  0.4432  1.9776
 9419SOL     OW39892   2.258   3.945   1.794  0.3985 -0.2912  0.1671
 9419SOL    HW139893   2.348   3.977   1.801  0.5103 -0.2340 -1.6340
 9419SOL    HW239894   2.269   3.874   1.731 -3.0033 -0.1294 -0.6503
 9420SOL     OW39895   4.643   3.153   7.328 -0.2929 -0.5691  0.4823
 9420SOL    HW139896   4.605   3.120   7.409  2.3946  1.1432  2.4417
 9420SOL    HW239897   4.564   3.160   7.274  1.1134 -0.2918 -1.5397
 9421SOL     OW39898   1.437   3.303   6.378 -0.6441 -0.1848  0.6491
 9421SOL    HW139899   1.356   3.325   6.331  0.0545 -0.1671 -0.5547
 9421SOL    HW239900   1.462   3.220   6.337  0.0598  0.9580 -1.2849
 9422SOL     OW39901   1.154   3.594   0.735 -0.2271  0.3525 -0.2247
 9422SOL    HW139902   1.081   3.619   0.678  0.5251  1.9582 -0.4927
 9422SOL    HW239903   1.139   3.502   0.755 -0.4377  0.1409 -1.3497
 9423SOL     OW39904   2.021   3.987   8.484  0.1485 -0.2875 -0.1690
 9423SOL    HW139905   1.990   4.073   8.514  1.3290  0.3885 -0.8724
 9423SOL    HW239906   1.999   3.936   8.562  0.0193  2.1316  1.4103
 9424SOL     OW39907   3.397   0.663   9.023 -0.1143 -0.2773 -0.5018
 9424SOL    HW139908   3.489   0.669   9.046 -0.2908  0.6739 -0.0435
 9424SOL    HW239909   3.405   0.584   8.970 -2.4668 -0.4342 -0.6262
 9425SOL     OW39910   2.635   2.396   5.961  0.1023 -0.6863 -0.2647
 9425SOL    HW139911   2.720   2.354   5.949 -0.2743 -1.5627  0.0888
 9425SOL    HW239912   2.585   2.370   5.883  1.6289  0.4853 -1.6388
 9426SOL     OW39913   4.350   3.320  17.582 -0.0435  0.1123  0.1873
 9426SOL    HW139914   4.285   3.271  17.532 -2.9729  2.1861  1.9138
 9426SOL    HW239915   4.294   3.396  17.602 -2.8773 -2.4741  2.0186
 9427SOL     OW39916   1.362   1.860   3.778 -0.4095 -0.2908  0.5501
 9427SOL    HW139917   1.357   1.955   3.780  0.2848 -0.2217 -0.8069
 9427SOL    HW239918   1.274   1.846   3.814 -1.7818  2.7206 -1.6155
 9428SOL     OW39919   4.547   3.180   6.871 -0.4610  0.1176 -0.4897
 9428SOL    HW139920   4.605   3.241   6.826  1.7035 -0.5966  1.2857
 9428SOL    HW239921   4.615   3.118   6.901 -0.6194 -0.2858 -0.9682
 9429SOL     OW39922   1.128   2.864   8.022  0.0647  0.2165  0.3804
 9429SOL    HW139923   1.178   2.795   7.980  2.0998  1.8781  0.0703
 9429SOL    HW239924   1.198   2.925   8.044  0.8635 -0.7574  0.5284
 9430SOL     OW39925   4.550   4.390  12.997  0.0222  0.6022 -0.1858
 9430SOL    HW139926   4.592   4.408  13.081 -0.9790 -0.8617  0.6165
 9430SOL    HW239927   4.530   4.476  12.960 -2.9096 -0.2635 -0.6144
 9431SOL     OW39928   1.413   1.065   9.074  0.0448 -0.0821 -0.3541
 9431SOL    HW139929   1.466   1.127   9.124 -0.4332  1.1729 -1.3840
 9431SOL    HW239930   1.464   0.985   9.060 -2.5846 -1.8499  0.3601
 9432SOL     OW39931   0.926   0.707   5.062 -0.1546 -0.2040  0.0489
 9432SOL    HW139932   0.836   0.678   5.047  0.4385 -1.7979 -0.4361
 9432SOL    HW239933   0.968   0.623   5.043 -1.0106 -1.3839  3.2528
 9433SOL     OW39934   3.196   3.992   7.485  0.9069 -0.7386  0.3760
 9433SOL    HW139935   3.180   4.077   7.526  4.5392  0.5695 -0.8419
 9433SOL    HW239936   3.112   3.953   7.461  0.0099 -1.0855  4.0971
 9434SOL     OW39937   0.752   3.825  14.604 -0.3224 -0.4032  0.1671
 9434SOL    HW139938   0.790   3.780  14.528 -0.9411 -0.2371 -0.2387
 9434SOL    HW239939   0.777   3.768  14.677 -1.3284 -1.4256 -0.2823
 9435SOL     OW39940   2.337   4.026   3.669 -0.0919 -0.2861  0.1533
 9435SOL    HW139941   2.309   4.072   3.590 -1.6750 -1.5573 -0.0347
 9435SOL    HW239942   2.304   3.936   3.664 -1.1347  0.1008  0.0982
 9436SOL     OW39943   1.880   3.901  15.997 -0.7490 -0.4497  0.4273
 9436SOL    HW139944   1.965   3.906  15.954 -0.6334  1.0883  0.8325
 9436SOL    HW239945   1.886   3.984  16.045  0.8409  0.0570 -0.6477
 9437SOL     OW39946   0.126   1.836   2.229  0.3566  0.2969 -0.5410
 9437SOL    HW139947   0.183   1.903   2.191 -0.2125  1.2029  0.2281
 9437SOL    HW239948   0.119   1.778   2.153 -2.6944  0.4722 -0.3642
 9438SOL     OW39949   3.910   3.339   3.622 -0.5407  0.4169  0.0238
 9438SOL    HW139950   3.997   3.306   3.641  0.0447  0.7354 -2.1501
 9438SOL    HW239951   3.876   3.361   3.709 -1.0661 -0.8542  0.1350
 9439SOL     OW39952   3.816   3.889   9.726  1.0448  0.2416  0.5308
 9439SOL    HW139953   3.857   3.803   9.720 -0.2137 -0.3282  0.2141
 9439SOL    HW239954   3.728   3.861   9.703  0.8980  1.4157 -0.3367
 9440SOL     OW39955   1.724   3.958  12.229 -0.0555 -0.0500 -0.2641
 9440SOL    HW139956   1.630   3.970  12.216  0.3186  0.3591 -2.7153
 9440SOL    HW239957   1.720   3.910  12.311  0.1617 -0.4513 -0.4888
 9441SOL     OW39958   2.038   0.742   6.878  0.0029 -0.1657  0.0361
 9441SOL    HW139959   2.083   0.692   6.810 -1.5480 -0.6049 -0.6559
 9441SOL    HW239960   1.964   0.684   6.897  0.0835  0.2792  1.7809
 9442SOL     OW39961   2.100   3.673   7.814  0.3305  0.3352 -0.3392
 9442SOL    HW139962   2.143   3.588   7.820  1.5802  0.9582 -0.5905
 9442SOL    HW239963   2.007   3.654   7.801  0.8617 -0.0184 -3.7020
 9443SOL     OW39964   2.136   2.098   5.367 -0.1864  0.4583 -0.4981
 9443SOL    HW139965   2.066   2.033   5.371  1.2196 -1.0448  0.0298
 9443SOL    HW239966   2.181   2.065   5.289  0.5777  0.4139 -0.0421
 9444SOL     OW39967   3.481   1.778   2.973  0.5137 -0.1121 -0.0653
 9444SOL    HW139968   3.485   1.780   2.877 -0.6362 -0.3938 -0.1148
 9444SOL    HW239969   3.394   1.741   2.988 -0.1856  1.9933  1.0646
 9445SOL     OW39970   2.166   3.785   6.210  0.4432 -0.2581  0.0334
 9445SOL    HW139971   2.208   3.760   6.292  0.2882 -1.4400 -0.2394
 9445SOL    HW239972   2.117   3.861   6.241 -1.9907 -1.9609  0.3918
 9446SOL     OW39973   0.468   0.653  12.575 -0.1369  0.3374 -0.8019
 9446SOL    HW139974   0.418   0.579  12.608 -0.2472  0.4714 -0.6669
 9446SOL    HW239975   0.395   0.697  12.531  0.9971  1.5227 -1.5039
 9447SOL     OW39976   2.995   3.610  11.419 -0.1883  0.0187  0.1749
 9447SOL    HW139977   3.088   3.589  11.427 -0.1081  0.7800  1.3030
 9447SOL    HW239978   3.002   3.616  11.324 -2.1651  0.8160  0.0899
 9448SOL     OW39979   1.808   3.080  13.439  0.0234  0.0443 -0.0810
 9448SOL    HW139980   1.812   3.163  13.488 -0.5222 -0.9660  1.6541
 9448SOL    HW239981   1.805   3.018  13.511  0.4634 -0.8150 -0.8041
 9449SOL     OW39982   0.269   1.360   7.278 -0.1126  0.3228 -0.0982
 9449SOL    HW139983   0.235   1.442   7.313  0.6662  0.3182  0.6841
 9449SOL    HW239984   0.195   1.299   7.282  1.4021 -1.6016 -1.1669
 9450SOL     OW39985   2.035   0.210   1.382  0.3776 -0.0297  0.6073
 9450SOL    HW139986   2.036   0.152   1.459 -1.2548  0.1158  0.7422
 9450SOL    HW239987   1.949   0.251   1.383 -0.9869 -2.8703 -1.5532
 9451SOL     OW39988   1.937   2.493   5.435 -0.1632 -0.7580  0.4485
 9451SOL    HW139989   1.870   2.478   5.368 -0.7786 -0.5035  1.0120
 9451SOL    HW239990   1.954   2.587   5.439 -0.1514 -0.6982 -0.9155
 9452SOL     OW39991   0.398   0.793   4.947  0.2220 -0.6057 -0.6695
 9452SOL    HW139992   0.355   0.879   4.943  0.4156 -0.4955 -0.3337
 9452SOL    HW239993   0.365   0.764   5.032  1.9861 -1.7596 -0.3880
 9453SOL     OW39994   1.125   4.620  10.143 -0.2336  0.4512 -0.2892
 9453SOL    HW139995   1.183   4.642  10.071  1.3885 -0.6990  0.6784
 9453SOL    HW239996   1.042   4.619  10.095 -0.6054 -1.1853  0.3986
 9454SOL     OW39997   0.548   1.334   7.305  0.3443 -0.8358  0.0207
 9454SOL    HW139998   0.455   1.337   7.323  0.5830  3.3924  0.7206
 9454SOL    HW239999   0.550   1.335   7.209  0.0210 -1.9871  0.0112
 9455SOL     OW40000   0.263   0.137   5.352  0.5280  0.1962 -0.1400
 9455SOL    HW140001   0.322   0.119   5.425  1.9332  2.7023 -0.6591
 9455SOL    HW240002   0.190   0.082   5.380  0.7042  0.3775  0.6707
 9456SOL     OW40003   4.684   4.229   1.849  0.3565  0.1628 -0.0200
 9456SOL    HW140004   4.595   4.234   1.883  0.2958 -3.5247  0.2999
 9456SOL    HW240005   4.677   4.196   1.759  0.3487  0.4410 -0.1224
 9457SOL     OW40006   1.475   0.439   2.163 -0.5060  0.1641 -0.2479
 9457SOL    HW140007   1.500   0.440   2.255 -1.7842  0.9685  0.0897
 9457SOL    HW240008   1.525   0.362   2.137 -1.9707 -0.8742  0.0179
 9458SOL     OW40009   4.458   2.038   2.093  0.3656 -0.0373 -0.6313
 9458SOL    HW140010   4.486   2.127   2.073 -0.8054  0.2717 -0.8975
 9458SOL    HW240011   4.527   2.018   2.157  2.0772  1.2696 -2.0457
 9459SOL     OW40012   1.277   4.614   1.960  0.0710  0.2091 -0.0340
 9459SOL    HW140013   1.193   4.646   1.927 -0.1920 -0.0735  0.3679
 9459SOL    HW240014   1.334   4.684   1.927  0.3617 -0.0541 -0.0910
 9460SOL     OW40015   2.371   1.422   1.820 -0.3803 -0.8059 -0.1909
 9460SOL    HW140016   2.372   1.442   1.726  0.3008  1.1440  0.2276
 9460SOL    HW240017   2.461   1.394   1.836  0.2684  2.7594  2.4429
 9461SOL     OW40018   3.635   0.540   8.013  0.3417  0.1370 -0.1368
 9461SOL    HW140019   3.706   0.548   8.076  1.2890  0.8706 -1.2912
 9461SOL    HW240020   3.582   0.474   8.058  0.0440 -0.0555 -0.7685
 9462SOL     OW40021   4.380   0.603  15.326  0.4216  0.7256 -0.1505
 9462SOL    HW140022   4.306   0.543  15.338  1.4200 -0.3335  0.6655
 9462SOL    HW240023   4.347   0.680  15.372 -1.0382 -1.0432  1.7616
 9463SOL     OW40024   1.966   2.288   9.263 -0.0200 -0.2497 -0.5802
 9463SOL    HW140025   1.902   2.359   9.261 -1.1808 -1.3340 -2.0752
 9463SOL    HW240026   2.028   2.334   9.319  0.6435 -1.8559  0.0288
 9464SOL     OW40027   0.460   0.475   2.418 -1.4595  0.1778  0.2480
 9464SOL    HW140028   0.499   0.427   2.490  1.2026  1.1473 -0.5366
 9464SOL    HW240029   0.529   0.533   2.385 -0.3180 -0.7164  1.1005
 9465SOL     OW40030   3.835   1.577  14.341 -0.3975 -0.2175 -0.2489
 9465SOL    HW140031   3.899   1.621  14.398 -0.9652  0.1995  0.0608
 9465SOL    HW240032   3.874   1.591  14.255  2.1214 -0.2239  0.8701
 9466SOL     OW40033   4.249   3.656   0.221  0.3431 -0.2538  0.2961
 9466SOL    HW140034   4.275   3.742   0.255 -1.6207  0.9302 -1.2172
 9466SOL    HW240035   4.201   3.619   0.294 -0.1125 -1.5112 -0.6419
 9467SOL     OW40036   4.391   3.907   3.738 -0.6657  0.4970 -0.0449
 9467SOL    HW140037   4.420   3.929   3.827  0.3871 -1.3580  0.0523
 9467SOL    HW240038   4.428   3.820   3.722 -2.6817 -0.5846  1.1435
 9468SOL     OW40039   3.951   1.198   1.632 -0.2176  0.5256  0.1936
 9468SOL    HW140040   4.009   1.202   1.708  0.5794 -3.0338 -0.2228
 9468SOL    HW240041   4.006   1.154   1.567 -3.0203 -3.3625  0.4072
 9469SOL     OW40042   0.715   1.456   4.040  0.7824  0.0914 -0.0439
 9469SOL    HW140043   0.791   1.454   3.983  0.2550  2.5404 -0.8553
 9469SOL    HW240044   0.756   1.436   4.124 -0.9210  2.0146  1.2550
 9470SOL     OW40045   4.589   0.579   5.000 -0.0626  0.1666 -0.0372
 9470SOL    HW140046   4.551   0.640   5.063  1.6702  1.1797  0.0119
 9470SOL    HW240047   4.669   0.557   5.049 -1.4563 -1.8884  1.3113
 9471SOL     OW40048   4.509   3.822   9.535 -0.4110  0.1909  0.8686
 9471SOL    HW140049   4.524   3.732   9.507 -0.4806  0.3533  0.3059
 9471SOL    HW240050   4.570   3.865   9.475 -0.1370 -1.3257  0.0655
 9472SOL     OW40051   1.576   4.267   4.821  0.2768 -0.0674  0.2547
 9472SOL    HW140052   1.623   4.213   4.756  0.4953 -1.2415  1.3812
 9472SOL    HW240053   1.535   4.206   4.882  1.3413  1.0854  2.1232
 9473SOL     OW40054   0.675   4.653   4.078  0.2638  0.1398  0.1170
 9473SOL    HW140055   0.717   4.629   4.160  0.8301 -2.3652 -0.9072
 9473SOL    HW240056   0.583   4.651   4.106 -0.1844 -0.8911 -1.4071
 9474SOL     OW40057   4.631   3.393  15.083  0.1875 -0.0523  0.4248
 9474SOL    HW140058   4.653   3.311  15.038 -0.7603 -0.2856  0.3982
 9474SOL    HW240059   4.691   3.451  15.036 -1.8881  1.4724 -0.3367
 9475SOL     OW40060   3.619   3.887   7.425 -0.2867 -0.4070 -0.0486
 9475SOL    HW140061   3.645   3.804   7.385  1.3269  0.9836 -1.9416
 9475SOL    HW240062   3.644   3.957   7.364 -1.1437 -0.6889 -0.7227
 9476SOL     OW40063   3.260   1.058   8.931  0.1119 -0.3092 -0.3208
 9476SOL    HW140064   3.200   1.123   8.894  0.4428 -0.5794 -1.3444
 9476SOL    HW240065   3.315   1.029   8.857  0.8170  0.0103  0.0758
 9477SOL     OW40066   3.531   3.718   5.168 -0.5137 -0.6710 -0.2336
 9477SOL    HW140067   3.615   3.756   5.193 -1.6054 -0.1966  2.7363
 9477SOL    HW240068   3.488   3.784   5.113 -2.4506 -2.9975 -1.5226
 9478SOL     OW40069   0.510   3.761   3.318  0.0972 -0.4436  0.4046
 9478SOL    HW140070   0.459   3.842   3.313  1.9887  0.7372  0.3099
 9478SOL    HW240071   0.541   3.750   3.228 -1.5367  0.7324 -0.3246
 9479SOL     OW40072   1.193   2.163  14.086  0.0523 -0.2907  0.4670
 9479SOL    HW140073   1.257   2.226  14.120  0.3545 -1.0721  1.3529
 9479SOL    HW240074   1.163   2.142  14.175 -0.5165  2.1211  0.8500
 9480SOL     OW40075   2.316   3.722   7.641  0.0219  0.3382 -0.0047
 9480SOL    HW140076   2.329   3.648   7.702 -0.1088 -0.2659 -0.7121
 9480SOL    HW240077   2.229   3.748   7.671  0.1402  1.8238 -0.9825
 9481SOL     OW40078   2.695   0.273   0.499  0.8029  0.0543  0.2097
 9481SOL    HW140079   2.785   0.262   0.467  0.7481  1.3567 -0.3936
 9481SOL    HW240080   2.656   0.233   0.421  0.3233 -0.5608  0.7605
 9482SOL     OW40081   1.542   2.316   3.178 -0.2849 -0.5638  0.0269
 9482SOL    HW140082   1.556   2.273   3.094  0.0127  1.5510 -0.9994
 9482SOL    HW240083   1.563   2.407   3.158  0.2454 -0.5978  0.4334
 9483SOL     OW40084   1.491   3.525   5.070  0.9471 -0.8361  0.1746
 9483SOL    HW140085   1.429   3.597   5.082 -0.0087 -1.4118 -1.4701
 9483SOL    HW240086   1.558   3.576   5.024  0.3222  1.5482  1.8820
 9484SOL     OW40087   2.337   0.183   5.594  0.0819  0.2216  0.1278
 9484SOL    HW140088   2.398   0.141   5.534 -1.5058 -0.5572 -0.9329
 9484SOL    HW240089   2.363   0.153   5.681 -1.7588  0.5374  0.7896
 9485SOL     OW40090   1.600   3.302  14.390 -0.5915 -0.5266  0.0114
 9485SOL    HW140091   1.626   3.359  14.462  2.2824 -0.5529 -1.0142
 9485SOL    HW240092   1.680   3.253  14.375 -0.1788  0.1221  0.1004
 9486SOL     OW40093   0.406   1.419   6.905  0.0156  0.0631  0.3281
 9486SOL    HW140094   0.406   1.514   6.895  0.2982  0.1247  0.9356
 9486SOL    HW240095   0.368   1.418   6.992 -1.2951  0.0485 -0.2508
 9487SOL     OW40096   3.744   0.107  17.114 -0.4785  0.2905  0.1584
 9487SOL    HW140097   3.796   0.090  17.193 -2.7000 -1.2651  1.2984
 9487SOL    HW240098   3.731   0.199  17.136 -2.2011  0.2087 -0.5134
 9488SOL     OW40099   4.141   0.886   2.033 -0.3092  0.1916  0.3427
 9488SOL    HW140100   4.049   0.907   2.020 -0.3382  0.6821  1.3171
 9488SOL    HW240101   4.182   0.968   2.006 -0.0809  0.4808  1.5706
 9489SOL     OW40102   2.974   3.603   4.407 -0.6393  0.2069  0.7543
 9489SOL    HW140103   2.903   3.666   4.395  0.6261  1.4056 -0.3691
 9489SOL    HW240104   3.054   3.650   4.384 -0.7794 -0.2985 -0.7143
 9490SOL     OW40105   4.117   3.897  15.018  0.6118  0.1645 -0.2660
 9490SOL    HW140106   4.179   3.824  15.022 -2.0190 -2.0903 -0.9915
 9490SOL    HW240107   4.180   3.964  14.993 -0.4629  1.2315 -0.1293
 9491SOL     OW40108   1.985   0.233  15.965 -0.5429  0.3615  0.2024
 9491SOL    HW140109   1.943   0.259  15.883  0.1896 -1.0107 -0.6011
 9491SOL    HW240110   2.003   0.141  15.945  0.9644  0.7013 -0.0018
 9492SOL     OW40111   1.973   0.736   8.923  0.6651 -0.2841  0.5162
 9492SOL    HW140112   1.973   0.806   8.989 -0.6314 -2.1012  2.4242
 9492SOL    HW240113   1.893   0.751   8.873  1.0460 -1.7140 -0.5174
 9493SOL     OW40114   2.632   3.174   7.347  0.2534 -0.4014 -0.7912
 9493SOL    HW140115   2.656   3.099   7.292  2.0112 -0.9617  0.7500
 9493SOL    HW240116   2.696   3.171   7.418 -1.0669 -0.8574  0.4015
 9494SOL     OW40117   2.478   4.200  11.307  0.6325  0.1608  0.4458
 9494SOL    HW140118   2.506   4.229  11.394  2.6521 -0.8568  0.1469
 9494SOL    HW240119   2.394   4.158  11.325  0.0828  2.0119  2.3011
 9495SOL     OW40120   4.447   0.810   7.814  0.0761  0.1632 -0.0703
 9495SOL    HW140121   4.541   0.822   7.832  0.3926 -0.0706 -1.5271
 9495SOL    HW240122   4.452   0.741   7.748  1.6135 -1.8208  2.0982
 9496SOL     OW40123   1.599   2.408   6.977  0.3134 -0.5887  0.0480
 9496SOL    HW140124   1.590   2.498   7.007 -1.6420 -0.5940 -0.5474
 9496SOL    HW240125   1.660   2.425   6.905 -0.0370  2.2520  0.4146
 9497SOL     OW40126   0.988   1.868   3.591  0.7780 -0.1110  0.4505
 9497SOL    HW140127   0.930   1.926   3.541  0.2922 -0.9577  0.0184
 9497SOL    HW240128   1.065   1.867   3.534 -0.0216  2.3213 -0.6558
 9498SOL     OW40129   3.510   1.793   8.748 -0.2582  0.1778 -0.4965
 9498SOL    HW140130   3.539   1.791   8.839 -0.2320  0.7601 -0.4955
 9498SOL    HW240131   3.540   1.875   8.709 -0.5393  0.2819 -0.4933
 9499SOL     OW40132   1.237   0.825  14.743 -0.1771 -0.0361 -0.2467
 9499SOL    HW140133   1.170   0.857  14.805  0.8798 -0.8950  1.3450
 9499SOL    HW240134   1.280   0.756  14.794 -0.4436 -0.0911 -0.0904
 9500SOL     OW40135   3.870   0.738   8.637 -0.3835  0.0221 -0.0276
 9500SOL    HW140136   3.930   0.664   8.651 -0.4852 -0.0611 -0.0324
 9500SOL    HW240137   3.897   0.753   8.546  0.5329  1.3985  0.4686
 9501SOL     OW40138   0.514   1.943   2.155  0.0018 -0.0560  0.8418
 9501SOL    HW140139   0.423   1.962   2.130 -0.7176 -3.7745  0.4831
 9501SOL    HW240140   0.562   1.936   2.073  0.0231 -0.4139  0.8813
 9502SOL     OW40141   3.632   0.787   4.473 -0.3265 -0.1353 -0.0239
 9502SOL    HW140142   3.610   0.880   4.478  1.6881  0.3973 -1.2861
 9502SOL    HW240143   3.726   0.803   4.484 -0.4646 -0.6671  2.0304
 9503SOL     OW40144   1.929   2.927   8.333 -0.6341  0.3454  0.2250
 9503SOL    HW140145   1.981   2.847   8.330 -1.3442 -0.1527  0.9902
 9503SOL    HW240146   1.896   2.943   8.245  0.0518 -0.5916 -0.2025
 9504SOL     OW40147   3.369   4.421   2.682  0.2132 -0.4322  0.2753
 9504SOL    HW140148   3.300   4.388   2.625  0.1103  0.8613 -0.3529
 9504SOL    HW240149   3.446   4.397   2.631  0.8043  1.4183  0.2875
 9505SOL     OW40150   3.224   1.768   8.825 -0.4003  0.2532 -0.1675
 9505SOL    HW140151   3.314   1.791   8.802  0.0851 -1.5324 -0.0361
 9505SOL    HW240152   3.191   1.840   8.879  1.9492  1.0233  0.2506
 9506SOL     OW40153   1.788   0.778   2.109  0.3936 -0.2936  1.0397
 9506SOL    HW140154   1.840   0.713   2.062 -2.5482 -2.0882  0.2688
 9506SOL    HW240155   1.699   0.750   2.090  0.0515  1.3204  0.2682
 9507SOL     OW40156   0.163   0.009   6.057  0.5165  0.0848 -0.3706
 9507SOL    HW140157   0.206   4.719   6.139 -0.7706  1.6983  0.8040
 9507SOL    HW240158   0.072   4.723   6.074  1.1753  0.1307  3.1037
 9508SOL     OW40159   4.362   3.704   4.671  0.2372 -0.6313  0.0016
 9508SOL    HW140160   4.437   3.737   4.720  1.1188  0.6643 -2.2560
 9508SOL    HW240161   4.396   3.696   4.583 -0.6594  1.5518 -0.5433
 9509SOL     OW40162   3.431   4.142   4.572  0.0110 -0.3089  0.0021
 9509SOL    HW140163   3.428   4.047   4.567 -1.3179 -0.2656  0.0120
 9509SOL    HW240164   3.405   4.151   4.663 -0.6991  0.5532 -0.2797
 9510SOL     OW40165   3.422   0.674  12.045 -0.6165  0.5799  0.2681
 9510SOL    HW140166   3.370   0.681  11.965 -2.2911  1.0878  1.4006
 9510SOL    HW240167   3.450   0.764  12.064  2.2451 -0.2656  0.0257
 9511SOL     OW40168   2.390   0.905  11.803  0.3824  0.2323  0.0807
 9511SOL    HW140169   2.456   0.866  11.746 -0.7594 -1.6392  0.0612
 9511SOL    HW240170   2.325   0.920  11.734  0.9480  0.3296 -0.4371
 9512SOL     OW40171   3.546   1.202   6.555  0.0392  0.3779 -0.3661
 9512SOL    HW140172   3.571   1.255   6.630  0.0556  0.3743 -0.3691
 9512SOL    HW240173   3.575   1.259   6.484 -2.0312  0.3730 -1.2269
 9513SOL     OW40174   1.199   4.339   1.086  0.3879 -0.1460  0.3992
 9513SOL    HW140175   1.229   4.428   1.106  1.5618 -0.4440 -0.0595
 9513SOL    HW240176   1.280   4.292   1.107 -0.3565 -1.7632 -0.3443
 9514SOL     OW40177   3.370   1.333   2.860 -0.0866 -0.4295 -0.0191
 9514SOL    HW140178   3.300   1.324   2.925 -1.1204 -2.0677 -1.3584
 9514SOL    HW240179   3.391   1.425   2.875  0.1968 -0.1965 -1.8145
 9515SOL     OW40180   1.221   1.150   8.592  0.1297 -0.4388  0.3861
 9515SOL    HW140181   1.242   1.114   8.506  2.1574  2.3221 -0.2776
 9515SOL    HW240182   1.205   1.241   8.566  0.7634 -0.1434  0.9974
 9516SOL     OW40183   1.729   0.425   1.700  0.4925  0.4007 -0.9997
 9516SOL    HW140184   1.745   0.500   1.757  0.9554 -0.8922  0.6146
 9516SOL    HW240185   1.757   0.456   1.614 -1.2411 -0.1239 -1.7527
 9517SOL     OW40186   2.302   2.266   6.502  0.3633 -0.5349 -0.6111
 9517SOL    HW140187   2.363   2.196   6.524  0.2477 -0.9686 -1.6663
 9517SOL    HW240188   2.225   2.222   6.466 -0.2188 -0.3908  0.4600
 9518SOL     OW40189   4.454   1.339   4.994 -0.6996  0.5043 -0.0562
 9518SOL    HW140190   4.445   1.410   4.931 -0.7724 -1.4472 -2.2620
 9518SOL    HW240191   4.526   1.292   4.952 -0.7075  0.8664 -0.4690
 9519SOL     OW40192   2.946   1.656  16.711  0.2585  0.4337 -0.3899
 9519SOL    HW140193   2.961   1.568  16.677 -0.5724 -0.3026  1.1412
 9519SOL    HW240194   3.034   1.676  16.745 -0.0127  1.6028 -0.3729
 9520SOL     OW40195   0.525   2.135   2.386  0.2549 -0.1787  0.1311
 9520SOL    HW140196   0.504   2.063   2.327 -0.5080  1.1841 -1.2701
 9520SOL    HW240197   0.438   2.165   2.413 -0.4455 -2.9715  1.0002
 9521SOL     OW40198   2.604   4.014   0.577  0.0420 -0.0527 -0.3703
 9521SOL    HW140199   2.524   4.063   0.559 -0.8982 -2.0347 -1.4739
 9521SOL    HW240200   2.601   3.938   0.519 -1.8574 -0.1318 -0.1581
 9522SOL     OW40201   2.795   2.225   4.672  0.2965  0.8061 -0.1651
 9522SOL    HW140202   2.799   2.240   4.578  1.0022  1.4097 -0.0426
 9522SOL    HW240203   2.882   2.263   4.684  0.8630 -0.4783 -0.1875
 9523SOL     OW40204   1.295   0.501   0.109  0.3100 -0.0443 -0.0075
 9523SOL    HW140205   1.325   0.574   0.056  0.9871  0.1690  0.6555
 9523SOL    HW240206   1.224   0.470   0.053 -0.2035 -1.5047  1.4396
 9524SOL     OW40207   1.481   2.142  12.412  0.6026  0.2574  0.0322
 9524SOL    HW140208   1.535   2.078  12.367  3.2644  1.9530  0.7741
 9524SOL    HW240209   1.520   2.230  12.405 -0.6558  0.8065 -0.0981
 9525SOL     OW40210   0.565   1.682   9.668 -0.3578  0.0926  0.0763
 9525SOL    HW140211   0.553   1.588   9.683  3.0197 -0.5028 -0.8816
 9525SOL    HW240212   0.483   1.696   9.621 -0.2324  0.5542 -0.0060
 9526SOL     OW40213   1.625   1.090  17.541  0.1496 -0.1956  0.1746
 9526SOL    HW140214   1.611   1.150  17.467 -0.7583  0.8445  1.1888
 9526SOL    HW240215   1.533   1.078  17.564  0.7809 -1.0634  2.2320
 9527SOL     OW40216   0.709   2.355   8.005  0.6123  0.6628 -0.1823
 9527SOL    HW140217   0.730   2.445   8.029  2.0283  0.4382 -0.5260
 9527SOL    HW240218   0.796   2.314   8.009 -0.0732 -0.6722  1.0395
 9528SOL     OW40219   4.172   1.555   7.215  0.5350 -0.2741  0.3461
 9528SOL    HW140220   4.253   1.597   7.242 -0.3083  1.9118 -0.5602
 9528SOL    HW240221   4.132   1.632   7.176  1.9579 -0.1051 -0.7544
 9529SOL     OW40222   0.763   0.178   5.938  0.0756  0.5796 -0.0169
 9529SOL    HW140223   0.820   0.126   5.995 -2.2115 -0.6375  1.1210
 9529SOL    HW240224   0.713   0.110   5.894 -1.6341  1.4091  0.6576
 9530SOL     OW40225   2.047   2.294   2.699  0.5365  0.5889 -1.2576
 9530SOL    HW140226   2.040   2.386   2.674  0.6040  0.9210 -0.0544
 9530SOL    HW240227   2.057   2.251   2.614  1.0838  1.7463 -1.7788
 9531SOL     OW40228   4.254   4.569   0.666 -0.5964  0.3878  0.1903
 9531SOL    HW140229   4.294   4.531   0.745 -0.6883  0.6982  0.3869
 9531SOL    HW240230   4.264   4.664   0.669  1.5909  0.1356  1.3152
 9532SOL     OW40231   0.962   3.143   4.956  0.0901  0.2791  0.4063
 9532SOL    HW140232   0.978   3.053   4.929 -1.2627  0.3843 -0.7346
 9532SOL    HW240233   1.015   3.181   4.886 -0.2340 -0.7318 -0.3778
 9533SOL     OW40234   0.130   3.245  15.537 -0.2363 -0.6237  0.2115
 9533SOL    HW140235   0.214   3.199  15.529  0.6320  1.2664 -1.7089
 9533SOL    HW240236   0.080   3.165  15.554  1.0918 -1.4405  0.3374
 9534SOL     OW40237   3.302   0.269   2.850 -0.0582 -0.2000 -0.0886
 9534SOL    HW140238   3.274   0.354   2.816  1.5752  0.4149  0.1008
 9534SOL    HW240239   3.243   0.207   2.806  2.4732 -1.8717 -1.1701
 9535SOL     OW40240   2.670   0.419   5.820  0.3024  0.1729 -0.6988
 9535SOL    HW140241   2.643   0.328   5.803 -3.0094  1.2432 -1.1309
 9535SOL    HW240242   2.764   0.427   5.835  0.4464 -0.9571 -1.0095
 9536SOL     OW40243   3.209   3.418   4.334  0.1578 -0.1175 -0.2532
 9536SOL    HW140244   3.229   3.498   4.383 -0.7188 -1.6197  2.5985
 9536SOL    HW240245   3.143   3.445   4.270  0.5554  0.4411 -0.4231
 9537SOL     OW40246   0.333   3.511   1.271  0.0133 -0.1111  0.0706
 9537SOL    HW140247   0.329   3.416   1.275  2.5892 -0.2805 -1.4023
 9537SOL    HW240248   0.393   3.527   1.344 -1.9321  0.4997  1.5415
 9538SOL     OW40249   0.456   4.153  13.845 -0.0170  0.0085 -0.2327
 9538SOL    HW140250   0.544   4.155  13.806  0.3605 -0.2020  0.6181
 9538SOL    HW240251   0.477   4.177  13.935 -1.9241 -1.2927  0.5660
 9539SOL     OW40252   1.140   0.868  11.899 -0.0217 -0.0731  0.0393
 9539SOL    HW140253   1.126   0.926  11.974 -0.2478  0.3744 -0.3485
 9539SOL    HW240254   1.052   0.834  11.888 -0.3378  0.4951  0.8309
 9540SOL     OW40255   1.955   1.912   1.462  0.1631  0.3480 -0.0820
 9540SOL    HW140256   1.947   1.916   1.557  0.0025  1.8838 -0.1635
 9540SOL    HW240257   1.873   1.870   1.437 -1.6650  1.4330  4.0559
 9541SOL     OW40258   2.631   3.373   0.425 -0.5503  0.1604 -0.0732
 9541SOL    HW140259   2.647   3.380   0.519 -0.8104  1.0095 -0.0896
 9541SOL    HW240260   2.623   3.279   0.410 -0.2427  0.0770  0.2816
 9542SOL     OW40261   2.233   2.601   8.887  0.3817 -0.2697  0.4336
 9542SOL    HW140262   2.296   2.672   8.903  0.4804 -0.2325 -0.1222
 9542SOL    HW240263   2.198   2.598   8.976 -0.2731 -3.3456  0.0483
 9543SOL     OW40264   0.314   3.597  15.880 -0.3967  0.6297  0.0443
 9543SOL    HW140265   0.355   3.680  15.855 -0.7624  0.4856 -1.0425
 9543SOL    HW240266   0.241   3.586  15.819 -0.4406  1.0765  0.0132
 9544SOL     OW40267   3.039   3.265   5.857 -0.1633 -0.8450 -0.1229
 9544SOL    HW140268   2.963   3.242   5.804 -0.2808 -0.4741 -0.1167
 9544SOL    HW240269   2.998   3.326   5.919  0.4559 -0.0096 -0.5202
 9545SOL     OW40270   2.710   2.366   8.893 -0.0261 -0.3578 -0.5897
 9545SOL    HW140271   2.631   2.403   8.931  1.9602  0.5956  2.6342
 9545SOL    HW240272   2.762   2.341   8.969 -0.6569  1.5862  0.4656
 9546SOL     OW40273   3.674   0.145  16.863 -0.1637 -0.4246  0.0723
 9546SOL    HW140274   3.710   0.138  16.952  1.5859 -1.2804 -0.7118
 9546SOL    HW240275   3.731   0.215  16.831 -1.0623  0.4462  0.3650
 9547SOL     OW40276   0.353   2.564  10.647 -0.4002  0.2090  0.3248
 9547SOL    HW140277   0.329   2.657  10.643  3.6445  1.1866 -1.1453
 9547SOL    HW240278   0.309   2.540  10.728  1.2019  2.2694  1.7990
 9548SOL     OW40279   1.843   1.677   2.233  0.0095 -0.4357  0.0490
 9548SOL    HW140280   1.922   1.657   2.182 -0.8331  3.0411 -2.6034
 9548SOL    HW240281   1.779   1.639   2.173  0.9858 -0.4436 -0.9961
 9549SOL     OW40282   1.705   3.380   4.022  0.5067  0.1890  1.0273
 9549SOL    HW140283   1.661   3.306   4.064 -0.0921  1.6736  2.9859
 9549SOL    HW240284   1.777   3.340   3.972 -1.7750 -4.9252  1.8309
 9550SOL     OW40285   3.238   1.781  16.648  0.0705  0.7727  0.6538
 9550SOL    HW140286   3.212   1.872  16.667  0.4131  1.6756 -3.2277
 9550SOL    HW240287   3.282   1.790  16.563  0.2818  1.0463  0.7910
 9551SOL     OW40288   1.214   3.954   5.734 -0.9105 -0.2264 -0.4760
 9551SOL    HW140289   1.246   4.044   5.743 -2.7477  0.5214 -1.4878
 9551SOL    HW240290   1.188   3.960   5.642  1.3164 -0.6717 -1.1488
 9552SOL     OW40291   0.854   1.337   0.047  0.1290  0.0183  0.5987
 9552SOL    HW140292   0.775   1.316  17.741  0.3994  0.9988 -0.2264
 9552SOL    HW240293   0.928   1.311  17.737 -1.2668 -0.2086 -1.2211
 9553SOL     OW40294   4.365   2.294   4.576 -0.3627 -0.1003 -0.0220
 9553SOL    HW140295   4.344   2.366   4.516 -0.6428 -0.8214 -0.7840
 9553SOL    HW240296   4.453   2.285   4.540 -0.0059  1.8693  0.3356
 9554SOL     OW40297   4.161   3.331  13.486  0.5074 -0.5609 -0.0558
 9554SOL    HW140298   4.195   3.337  13.576  0.3239  0.5714 -0.0576
 9554SOL    HW240299   4.068   3.316  13.501  0.3891 -0.3113 -0.5432
 9555SOL     OW40300   0.703   3.516  17.066 -0.0961 -0.0759 -0.0963
 9555SOL    HW140301   0.690   3.603  17.104 -0.7207  0.2581 -1.0806
 9555SOL    HW240302   0.771   3.479  17.122 -2.4924 -1.9898  1.5488
 9556SOL     OW40303   3.112   4.684   2.085 -0.5695  0.5182 -0.0600
 9556SOL    HW140304   3.071   0.013   2.028 -2.3773 -1.0459 -0.5324
 9556SOL    HW240305   3.037   4.627   2.100 -0.1927  0.2207  0.6971
 9557SOL     OW40306   2.162   0.320   7.262 -0.1346  0.2164  0.2843
 9557SOL    HW140307   2.100   0.249   7.242  0.0254  0.7450 -2.0923
 9557SOL    HW240308   2.106   0.397   7.259 -0.1847  0.1415 -0.8681
 9558SOL     OW40309   3.394   0.783  12.409  0.3002  0.1746 -0.3681
 9558SOL    HW140310   3.481   0.799  12.371  0.2236 -2.0837 -1.4967
 9558SOL    HW240311   3.386   0.688  12.408  0.2274  0.1946 -2.4775
 9559SOL     OW40312   2.447   2.724   0.553  0.1641 -0.0657  0.3469
 9559SOL    HW140313   2.441   2.803   0.607  0.9699  0.1511  0.1250
 9559SOL    HW240314   2.406   2.751   0.471 -1.9271 -0.8697  1.1360
 9560SOL     OW40315   0.067   3.475  14.304  0.0700  0.3813  0.4704
 9560SOL    HW140316   0.137   3.527  14.262 -1.7996  1.3911 -1.4133
 9560SOL    HW240317   0.117   3.437  14.376  0.0070  0.4942  0.5738
 9561SOL     OW40318   0.901   2.539   8.372  0.1401  0.1042 -0.4930
 9561SOL    HW140319   0.970   2.604   8.355 -2.5912  3.3834  0.8420
 9561SOL    HW240320   0.860   2.567   8.454  0.6498 -0.7181  0.0398
 9562SOL     OW40321   2.056   4.096   0.697  1.0095  0.2028  0.4141
 9562SOL    HW140322   1.971   4.077   0.736  0.3673 -0.5152 -1.2992
 9562SOL    HW240323   2.090   4.008   0.717  1.3606  0.0039 -1.0390
 9563SOL     OW40324   2.306   0.348  14.849 -0.3016 -0.7029  0.4499
 9563SOL    HW140325   2.280   0.348  14.757  0.5797 -0.4593  0.2020
 9563SOL    HW240326   2.276   0.433  14.880  0.0681 -0.7140  0.8297
 9564SOL     OW40327   4.588   2.828   5.140 -0.7023  0.2324  0.1505
 9564SOL    HW140328   4.652   2.782   5.086 -1.3306  0.2370 -0.5942
 9564SOL    HW240329   4.534   2.756   5.171 -0.0912 -0.2508  0.0887
 9565SOL     OW40330   4.469   2.842   8.475  0.2061 -0.2385  0.1951
 9565SOL    HW140331   4.436   2.798   8.397  0.9499 -0.1987 -0.1417
 9565SOL    HW240332   4.533   2.777   8.503  1.8461  0.4156 -2.0322
 9566SOL     OW40333   1.560   1.227   9.220  0.2378  0.3879  0.5350
 9566SOL    HW140334   1.594   1.184   9.299  0.0177  0.0444  0.4439
 9566SOL    HW240335   1.523   1.305   9.261 -0.7918  0.4416 -0.4879
 9567SOL     OW40336   4.106   3.584   5.127  0.9149 -0.7114  0.0314
 9567SOL    HW140337   4.031   3.536   5.162  1.4601 -1.1934  0.5307
 9567SOL    HW240338   4.065   3.670   5.115  0.6728 -0.8031  0.2022
 9568SOL     OW40339   3.192   3.485   9.541  0.1475 -0.3407 -0.0604
 9568SOL    HW140340   3.246   3.557   9.575 -0.4434 -0.2390  0.6558
 9568SOL    HW240341   3.101   3.515   9.536 -0.5818 -2.4513  0.4367
 9569SOL     OW40342   0.919   4.258  15.340 -0.6291  0.0488  0.1472
 9569SOL    HW140343   0.947   4.178  15.385  0.6116  0.6932  0.5149
 9569SOL    HW240344   0.982   4.318  15.378 -0.4483 -1.2481  1.8977
   4.73639   4.73639  17.74408
