Membrane in water
40344
    1TMC1    C1    1   4.728   0.968  11.923  0.4498  0.1699 -0.3557
    1TMC1    C2    2   0.066   1.019  12.023 -0.0555  0.7786 -0.0569
    1TMC1    C3    3   0.126   1.136  11.996  0.1638  0.7147  0.6726
    1TMC1    C4    4   4.709   1.040  11.802 -0.2065 -0.1004 -0.2407
    1TMC1    C5    5   0.037   1.155  11.780  0.7018  0.0939 -0.0277
    1TMC1    C6    6   0.128   1.201  11.871  0.2827 -0.0916 -0.0492
    1TMC1     C    7   4.653   0.845  11.942  0.5334 -0.4677 -0.0052
    1TMC1     O    8   4.578   0.814  11.845  0.4505  0.3694  0.0296
    1TMC1     H    9   0.073   0.972  12.120  1.1801 -0.6180 -0.8303
    1TMC1    H1   10   4.642   1.003  11.725 -2.5072  2.2598  0.6297
    1TMC1    H2   11   0.192   1.285  11.847 -1.2777  1.7776  2.3512
    1TMC1    C7   12   0.022   1.231  11.652  0.7730 -0.3043 -0.0903
    1TMC1    C8   13   0.207   1.190  12.101  0.1619 -0.6659  0.2991
    1TMC1    O1   14   4.734   1.173  11.548  0.2615  0.2493  0.3753
    1TMC1    O2   15   0.221   1.135  12.210 -0.0858 -0.6364  0.4080
    1TMC1    O3   16   4.731   1.361  11.685 -0.0416  0.0664 -0.6828
    1TMC1    H3   17   0.015   1.381  11.779 -0.0321  0.9707 -0.8785
    1TMC1    O5   18   0.185   1.327  12.082 -0.5073 -0.0290  0.6761
    1TMC1    H5   19   0.124   1.352  12.010 -1.6620  0.0922  1.6978
    2MPD2     C   20   4.533   0.428  12.218 -0.3171  0.0551  0.3775
    2MPD2    C1   21   4.494   0.461  12.091 -0.3225  0.1373 -0.9199
    2MPD2    C2   22   4.546   0.575  12.037  0.4224  0.4928 -0.4853
    2MPD2    C3   23   4.635   0.661  12.103 -0.1958  0.0643 -0.4913
    2MPD2    C4   24   4.684   0.606  12.222 -0.1069 -0.3108  0.0873
    2MPD2    C5   25   4.634   0.496  12.282  0.0606  0.1609 -0.1801
    2MPD2     H   26   4.524   0.599  11.934  0.8392 -0.6565 -0.8348
    2MPD2    H1   27   0.024   0.657  12.276  0.0323 -0.1197 -0.2962
    2MPD2    H2   28   4.493   0.344  12.273 -1.4036  0.7221  0.6171
    2MPD2    H3   29   4.655   0.462  12.383  0.1602 -0.0754 -0.2793
    2MPD2     N   30   4.694   0.782  12.059  0.6630  0.0060 -0.6179
    2MPD2    H5   31   0.010   0.840  12.121  1.1744 -0.4670 -0.6199
    2MPD2    N1   32   4.394   0.400  12.016 -0.8259 -0.3860 -0.4729
    2MPD2    H7   33   4.377   0.441  11.925  1.6690  2.3127  0.2488
    3TMC1    C1   34   4.359   1.378   9.977  0.2823 -0.2713 -0.0403
    3TMC1    C2   35   4.346   1.508   9.926 -0.2790 -0.1272 -0.1692
    3TMC1    C3   36   4.432   1.547   9.830 -0.1862  0.1472 -0.3720
    3TMC1    C4   37   4.450   1.294   9.921  0.3292  0.0407 -0.0026
    3TMC1    C5   38   4.520   1.340   9.818 -0.3820 -0.4682  0.1718
    3TMC1    C6   39   4.526   1.468   9.770 -0.5765  0.0333  0.1904
    3TMC1     C   40   4.262   1.320  10.070  0.1650  0.8239  0.4820
    3TMC1     O   41   4.265   1.199  10.081  0.5152  0.1717 -0.1805
    3TMC1     H   42   4.254   1.563   9.946 -1.8497 -2.7643 -0.1533
    3TMC1    H1   43   4.473   1.192   9.949  0.1145 -0.3894 -1.4117
    3TMC1    H2   44   4.580   1.498   9.681  1.1777 -0.8540  0.9590
    3TMC1    C7   45   4.624   1.250   9.766 -0.2304  0.7465 -0.0194
    3TMC1    C8   46   4.419   1.685   9.791 -0.2437  0.5030 -0.1344
    3TMC1    O1   47   4.612   1.128   9.769 -0.5281 -0.1612 -0.4832
    3TMC1    O2   48   4.317   1.748   9.806 -0.0936  0.6025 -0.7480
    3TMC1    O3   49   0.002   1.323   9.750  0.0766  0.3422 -0.3332
    3TMC1    H3   50   4.738   1.416   9.782 -0.9375 -0.5152  2.0227
    3TMC1    O5   51   4.548   1.725   9.769  0.1897 -0.9615  0.1777
    3TMC1    H5   52   4.615   1.655   9.786  1.5965 -0.0239 -1.5021
    4MPD2     C   53   3.861   1.351  10.403 -0.2887  0.1341 -0.4506
    4MPD2    C1   54   3.906   1.479  10.371  0.0726  0.0671 -0.8724
    4MPD2    C2   55   4.002   1.493  10.270 -0.1924  0.0335 -0.7221
    4MPD2    C3   56   4.065   1.383  10.212 -0.2844 -0.0045  0.3158
    4MPD2    C4   57   4.015   1.255  10.250  0.2712 -0.6440  0.0846
    4MPD2    C5   58   3.913   1.244  10.343  0.4305 -0.6757  0.0814
    4MPD2     H   59   4.050   1.589  10.255  2.0647 -1.1405 -0.9665
    4MPD2    H1   60   4.060   1.174  10.194  0.9095 -0.2180 -0.0173
    4MPD2    H2   61   3.789   1.330  10.482  0.7344 -2.0135 -0.0720
    4MPD2    H3   62   3.886   1.141  10.367 -0.5372 -0.4657 -0.0802
    4MPD2     N   63   4.176   1.409  10.128 -0.2739  0.3696  0.2180
    4MPD2    H5   64   4.194   1.508  10.111  0.8243 -0.0219 -0.9304
    4MPD2    N1   65   3.881   1.595  10.448  0.2427  0.0744  0.0981
    4MPD2    H7   66   3.915   1.686  10.417 -0.6655  0.5414  0.4542
    5TCq1    O1   67   0.771   2.352  11.848  0.0801  0.2210  0.1270
    5TCq1    C1   68   0.808   2.367  11.721  0.5774  0.6904  0.0205
    5TCq1    O2   69   0.841   2.283  11.642  0.3683  0.5559 -0.1718
    5TCq1    C2   70   0.807   2.511  11.678 -0.3474  0.7441  0.0512
    5TCq1    C3   71   0.791   2.613  11.761 -0.7024 -0.3780 -0.1830
    5TCq1    C4   72   0.770   2.733  11.698  0.0504  0.0055  0.4166
    5TCq1    C5   73   0.777   2.748  11.566 -0.3548 -0.2675 -0.3238
    5TCq1    C6   74   0.803   2.646  11.481  0.0243 -0.1301 -0.8459
    5TCq1    C7   75   0.826   2.524  11.542 -0.3321 -0.1747 -0.2797
    5TCq1    C8   76   0.785   2.666  11.336 -0.0566 -0.2109 -0.0783
    5TCq1    O4   77   0.744   2.568  11.284 -0.4314  0.3325 -0.3231
    5TCq1    C9   78   0.702   2.848  11.762 -0.0796  1.2522  0.4175
    5TCq1    O5   79   0.712   2.965  11.712  0.0543  0.0892 -0.4263
    5TCq1    O6   80   0.647   2.816  11.872 -0.3881  0.2361 -0.0815
    5TCq1    H1   81   0.739   2.436  11.888  0.5231  0.3712  0.1685
    5TCq1    H2   82   0.762   2.603  11.865  0.9981  0.5198  0.3815
    5TCq1    H3   83   0.739   2.839  11.521 -0.9181  0.2254  1.1476
    5TCq1    H4   84   0.830   2.435  11.479 -0.8505 -1.2200  1.1601
    6MPD2     C   85   0.805   2.965  11.126 -0.7992  0.0994  0.0596
    6MPD2    C1   86   0.769   2.838  11.162  0.4455 -1.0963  0.2195
    6MPD2    C2   87   0.669   2.773  11.085  0.6188  0.1607  0.3119
    6MPD2    C3   88   0.619   2.820  10.964  0.7005  0.4891  0.3721
    6MPD2    C4   89   0.664   2.946  10.933  0.2479 -0.1442  0.2820
    6MPD2    C5   90   0.745   3.016  11.015 -0.1110  0.2912  0.5002
    6MPD2     H   91   0.626   2.678  11.115 -1.1696  1.1947  1.0198
    6MPD2    H1   92   0.638   2.992  10.838 -0.1891 -1.3196 -0.1733
    6MPD2    H2   93   0.874   3.022  11.187  0.5472 -1.9934  0.5043
    6MPD2    H3   94   0.766   3.119  10.988 -0.3420  0.7066  1.9155
    6MPD2     N   95   0.530   2.737  10.895 -0.0759  0.1143  0.4420
    6MPD2    H5   96   0.519   2.641  10.926 -0.5316  0.4362  1.2831
    6MPD2    N1   97   0.822   2.788  11.284  0.4339 -0.1484  0.6657
    6MPD2    H7   98   0.888   2.849  11.329 -0.8016  0.7762  1.2299
    7TCq1    O1   99   1.228   1.784  13.303 -0.0656 -0.0090  0.3826
    7TCq1    C1  100   1.293   1.776  13.187  0.4753 -0.5824  0.5614
    7TCq1    O2  101   1.264   1.687  13.104 -0.2381  0.6090  0.8751
    7TCq1    C2  102   1.431   1.808  13.233  0.2020  0.4940 -0.3982
    7TCq1    C3  103   1.438   1.904  13.326 -0.6410  0.2850  0.2263
    7TCq1    C4  104   1.560   1.912  13.392 -0.1449 -0.1698  0.5696
    7TCq1    C5  105   1.674   1.836  13.355  0.6331  0.4692 -0.0362
    7TCq1    C6  106   1.652   1.730  13.274  0.2392  0.3366 -0.4465
    7TCq1    C7  107   1.525   1.711  13.218 -0.9752 -0.6180  0.6621
    7TCq1    C8  108   1.765   1.642  13.248 -0.4564  0.4372  0.8315
    7TCq1    O4  109   1.878   1.663  13.292  0.4771  0.0953 -0.8440
    7TCq1    C9  110   1.572   2.019  13.489  0.8760  0.4388  0.0098
    7TCq1    O5  111   1.689   2.036  13.527 -0.8235  0.4809 -0.1013
    7TCq1    O6  112   1.466   2.076  13.532 -0.1286  0.4851 -1.1433
    7TCq1    H1  113   1.273   1.846  13.364 -3.3625  1.0009  1.7642
    7TCq1    H2  114   1.361   1.979  13.337  0.7606  1.6597  0.6483
    7TCq1    H3  115   1.766   1.851  13.410  0.9854 -1.5299 -0.1150
    7TCq1    H4  116   1.508   1.641  13.137  0.2993 -1.3057  0.9855
    8MPD2     C  117   1.906   1.168  13.096  0.0391 -0.4514  0.8089
    8MPD2    C1  118   1.971   1.272  13.157 -0.1949  0.3011  0.1334
    8MPD2    C2  119   1.917   1.397  13.174  0.7019  0.0760 -0.2209
    8MPD2    C3  120   1.789   1.411  13.146  0.0749 -0.2365 -0.2615
    8MPD2    C4  121   1.716   1.311  13.090  0.3063  0.2938  0.3952
    8MPD2    C5  122   1.776   1.194  13.060  0.4515 -0.4417 -0.7932
    8MPD2     H  123   1.974   1.476  13.221  0.2819 -0.5230  1.2993
    8MPD2    H1  124   1.608   1.321  13.077  0.4775  0.7448 -0.6785
    8MPD2    H2  125   1.946   1.071  13.067  0.4291 -0.9704  3.0945
    8MPD2    H3  126   1.711   1.113  13.031  1.0445 -0.8673 -0.9503
    8MPD2     N  127   1.719   1.531  13.180 -0.5716  0.1811  0.1748
    8MPD2    H5  128   1.620   1.512  13.169 -0.6027  0.5299 -0.1385
    8MPD2    N1  129   2.108   1.246  13.182  0.3516 -0.5934  0.0657
    8MPD2    H7  130   2.138   1.150  13.167  0.0759 -0.8539  1.1433
    9TMC1    C1  131   0.021   1.641  10.671  0.3545  0.6209 -0.8215
    9TMC1    C2  132   4.671   1.548  10.624  0.4096  0.5515 -0.9181
    9TMC1    C3  133   4.575   1.590  10.536  0.2458 -0.0678  0.8648
    9TMC1    C4  134   0.005   1.769  10.634  0.0308  0.0891 -0.1160
    9TMC1    C5  135   4.658   1.805  10.534  0.0859 -0.5776 -0.8321
    9TMC1    C6  136   4.572   1.714  10.486  0.3411 -0.1389 -0.2214
    9TMC1     C  137   0.098   1.612  10.793  0.4937 -0.2510 -0.3303
    9TMC1     O  138   0.173   1.703  10.823  0.2476  0.1563  0.2080
    9TMC1     H  139   4.686   1.444  10.651 -0.1064  0.4145 -1.1516
    9TMC1    H1  140   0.073   1.843  10.675  0.5471 -0.4327 -0.0420
    9TMC1    H2  141   4.492   1.752  10.424  1.2258 -0.2280 -1.4337
    9TMC1    C7  142   4.618   1.940  10.515 -0.4549  0.1159 -0.2015
    9TMC1    C8  143   4.475   1.493  10.500 -0.3913 -0.2959 -0.5730
    9TMC1    O1  144   4.555   1.988  10.421  0.4057  0.0887 -0.4200
    9TMC1    O2  145   4.432   1.495  10.385  0.0984 -0.2785 -0.5624
    9TMC1    O3  146   4.654   2.010  10.625 -0.2643 -0.6419  0.3034
    9TMC1    H3  147   4.720   1.981  10.691 -0.1589  1.7492  1.2599
    9TMC1    O5  148   4.472   1.396  10.590 -0.0559 -0.9729 -0.0141
    9TMC1    H5  149   4.489   1.423  10.683 -0.6752  0.6367 -0.3745
   10MPD2     C  150   0.179   1.536  11.060  0.0701 -0.0488  0.4442
   10MPD2    C1  151   0.071   1.486  10.998  0.2190 -0.3366  0.7252
   10MPD2    C2  152   4.720   1.404  11.064  0.0162 -0.7087 -0.7025
   10MPD2    C3  153   4.737   1.379  11.197  0.3052  0.4826  0.2286
   10MPD2    C4  154   0.109   1.431  11.261  0.1856 -0.2016 -0.1657
   10MPD2    C5  155   0.201   1.506  11.189  1.0643 -0.5155 -0.2973
   10MPD2     H  156   4.629   1.369  11.014 -1.8694 -0.1458  2.3645
   10MPD2    H1  157   0.116   1.425  11.369  1.7877  2.7946 -0.1071
   10MPD2    H2  158   0.243   1.603  11.004  1.0096 -0.1525  1.3937
   10MPD2    H3  159   0.290   1.548  11.235  0.5749 -0.0170  0.1940
   10MPD2     N  160   4.647   1.302  11.278  0.5811 -0.0684 -0.0717
   10MPD2    H5  161   4.667   1.297  11.377  0.3654  0.7634  0.0109
   10MPD2    N1  162   0.041   1.519  10.868 -0.6497 -0.0824 -0.2753
   10MPD2    H7  163   4.701   1.466  10.831  0.5288 -0.4476 -2.2756
   11TCq1    O1  164   0.538   0.917  14.385  0.4545  0.2802 -0.0897
   11TCq1    C1  165   0.468   0.807  14.431 -0.8338 -0.2405  0.2977
   11TCq1    O2  166   0.429   0.798  14.544  0.6636  0.0459  0.2743
   11TCq1    C2  167   0.453   0.706  14.335 -0.0403  0.3931  0.0770
   11TCq1    C3  168   0.538   0.693  14.226 -0.2024  0.4243  0.3343
   11TCq1    C4  169   0.507   0.598  14.126 -0.5021 -0.8507  1.0665
   11TCq1    C5  170   0.403   0.511  14.147  0.0204  0.4292 -0.0564
   11TCq1    C6  171   0.335   0.520  14.265 -0.0300 -0.7099  0.1591
   11TCq1    C7  172   0.354   0.615  14.359 -0.3066  1.0708  0.7545
   11TCq1    C8  173   0.206   0.453  14.265  0.9117  0.2783  0.3122
   11TCq1    O4  174   0.111   0.526  14.296  0.0253 -0.3570  0.2785
   11TCq1    C9  175   0.583   0.582  14.006 -1.0886 -0.6255 -0.6416
   11TCq1    O5  176   0.569   0.474  13.942 -1.0430 -0.4421 -0.0045
   11TCq1    O6  177   0.677   0.665  13.992  0.3319 -0.0505  0.7030
   11TCq1    H1  178   0.536   0.908  14.287  3.8634 -1.9948  0.0703
   11TCq1    H2  179   0.637   0.738  14.232  0.9231 -1.7908 -1.5133
   11TCq1    H3  180   0.380   0.441  14.067  0.5557  1.2199 -0.8997
   11TCq1    H4  181   0.298   0.623  14.451 -0.7240  0.5613  0.5451
   12MPD2     C  182   4.726   0.300  14.145 -1.1235 -0.0151  0.0918
   12MPD2    C1  183   0.118   0.261  14.134 -0.2321 -0.5087  0.0710
   12MPD2    C2  184   0.150   0.143  14.063 -0.4038  0.0152  0.0379
   12MPD2    C3  185   0.054   0.079  13.988  0.5226  0.2417 -0.2025
   12MPD2    C4  186   4.667   0.133  13.975 -0.0080 -0.0332 -0.2584
   12MPD2    C5  187   4.640   0.240  14.058  0.3312  0.3516  0.2674
   12MPD2     H  188   0.249   0.101  14.067 -1.0526 -1.5231  0.0284
   12MPD2    H1  189   4.583   0.083  13.929  0.0852 -1.2581  0.8974
   12MPD2    H2  190   4.688   0.385  14.200 -0.3410 -1.0819  2.2903
   12MPD2    H3  191   4.539   0.279  14.063  0.4657  0.6584  0.5810
   12MPD2     N  192   0.076   4.705  13.908  0.1367 -0.1162  0.2841
   12MPD2    H5  193   0.011   4.693  13.831 -1.8970 -1.2274  2.1653
   12MPD2    N1  194   0.216   0.332  14.209 -0.5760 -0.3687 -0.0760
   12MPD2    H7  195   0.314   0.308  14.201  0.0438  1.3492  2.4085
   13TCq1    O1  196   0.587   1.547   9.954  0.1849  0.2262  0.5285
   13TCq1    C1  197   0.554   1.540  10.084 -0.1336 -0.3604 -0.0476
   13TCq1    O2  198   0.627   1.499  10.173 -0.5121 -0.5704 -0.1657
   13TCq1    C2  199   0.416   1.518  10.085 -0.7274  1.1337 -0.2787
   13TCq1    C3  200   0.342   1.590   9.988  0.5392 -0.0832 -0.6632
   13TCq1    C4  201   0.217   1.544   9.952 -0.5340  0.0632 -0.4714
   13TCq1    C5  202   0.171   1.426   9.993  0.0725  0.2019  0.4408
   13TCq1    C6  203   0.246   1.357  10.080 -0.5201 -0.0086  0.5915
   13TCq1    C7  204   0.371   1.395  10.130 -0.1725  0.5137 -0.5423
   13TCq1    C8  205   0.177   1.246  10.150 -0.7341 -0.6028 -0.4717
   13TCq1    O4  206   0.238   1.145  10.177  0.7442  0.2305  0.2024
   13TCq1    C9  207   0.143   1.624   9.858 -0.3051  0.1774  0.4338
   13TCq1    O5  208   0.211   1.712   9.793  0.9745 -0.2727  0.0702
   13TCq1    O6  209   0.039   1.576   9.818  0.1214 -0.0728 -0.5198
   13TCq1    H1  210   0.501   1.563   9.911  0.9929 -0.0700 -1.1855
   13TCq1    H2  211   0.382   1.688   9.964  0.9889 -0.0641  0.1417
   13TCq1    H3  212   0.073   1.396   9.958  0.2074 -0.0612  0.2871
   13TCq1    H4  213   0.430   1.342  10.204 -0.5720  2.4554  1.1623
   14MPD2     C  214   4.713   1.038  10.207  0.8489  0.7783  0.3785
   14MPD2    C1  215   4.690   1.173  10.214  0.5518  0.2613  0.3012
   14MPD2    C2  216   4.570   1.217  10.266  0.2409 -0.0907 -0.5462
   14MPD2    C3  217   4.472   1.126  10.317 -0.4920  0.7361  0.0087
   14MPD2    C4  218   4.490   0.992  10.293 -0.2533 -0.4641  0.4082
   14MPD2    C5  219   4.607   0.953  10.234  0.0006 -0.4409 -0.1785
   14MPD2     H  220   4.558   1.324  10.276  1.9377 -0.1216  1.8207
   14MPD2    H1  221   4.427   0.905  10.308 -0.6135 -0.7037 -2.4418
   14MPD2    H2  222   0.059   0.992  10.157  1.2098 -0.2008  1.8829
   14MPD2    H3  223   4.628   0.847  10.228  1.6823 -0.0964 -0.4571
   14MPD2     N  224   4.355   1.171  10.382 -0.3102 -0.3046 -0.5503
   14MPD2    H5  225   4.352   1.269  10.408 -0.2937 -0.6659  0.8023
   14MPD2    N1  226   0.042   1.269  10.170  0.6034 -0.9109  0.2637
   14MPD2    H7  227   0.006   1.362  10.154  0.0786 -0.9364  1.3149
   15TCq1    O1  228   2.408   0.153   1.743  0.3907 -0.3624  0.4226
   15TCq1    C1  229   2.297   0.103   1.678  0.2654  0.5979  0.5554
   15TCq1    O2  230   2.218   0.021   1.723 -0.7001 -0.0842 -0.0966
   15TCq1    C2  231   2.331   0.130   1.537 -0.3347 -0.3776  0.1364
   15TCq1    C3  232   2.363   0.258   1.501  0.1505 -0.1797 -0.0432
   15TCq1    C4  233   2.368   0.288   1.371 -0.5804  0.1083  0.7290
   15TCq1    C5  234   2.337   0.191   1.274 -0.7495 -0.0455 -0.0041
   15TCq1    C6  235   2.296   0.068   1.308  0.1708 -0.3324  0.0835
   15TCq1    C7  236   2.301   0.033   1.444  0.8132 -0.3924  0.2276
   15TCq1    C8  237   2.318   4.691   1.218  0.1120  0.1426 -0.2541
   15TCq1    O4  238   2.366   4.586   1.257 -0.0274  0.7167 -0.1005
   15TCq1    C9  239   2.421   0.414   1.326  0.0253 -0.0811  0.0764
   15TCq1    O5  240   2.481   0.489   1.410 -0.4043 -0.1202 -0.1362
   15TCq1    O6  241   2.418   0.425   1.202 -0.1397 -0.4139  0.4261
   15TCq1    H1  242   2.467   0.204   1.684 -0.2925  2.0793  1.8526
   15TCq1    H2  243   2.401   0.336   1.566 -3.3199  0.4518  1.2409
   15TCq1    H3  244   2.334   0.221   1.169 -0.6881 -0.4989 -0.1337
   15TCq1    H4  245   2.279   4.668   1.470  1.7131 -0.9038 -1.0317
   16MPD2     C  246   2.215   4.659   0.861 -0.5299 -0.0277  0.8146
   16MPD2    C1  247   2.271   4.622   0.985  0.2717 -0.8971 -0.2371
   16MPD2    C2  248   2.317   4.495   0.996  0.2267 -0.2921 -0.1454
   16MPD2    C3  249   2.327   4.407   0.885 -0.4015  0.4928 -0.4911
   16MPD2    C4  250   2.281   4.446   0.763 -0.7295 -0.1862 -0.1423
   16MPD2    C5  251   2.220   4.567   0.754 -0.2593 -0.0835 -0.1778
   16MPD2     H  252   2.352   4.446   1.085 -0.2729 -1.2225 -0.4584
   16MPD2    H1  253   2.295   4.391   0.670  0.3120 -1.5846  0.8377
   16MPD2    H2  254   2.170   0.018   0.847  1.1252  0.3452 -2.0204
   16MPD2    H3  255   2.176   4.594   0.658 -0.8960  1.2169  0.4910
   16MPD2     N  256   2.408   4.287   0.904 -0.0196 -0.1239  0.2496
   16MPD2    H5  257   2.448   4.262   0.994  1.4229  1.5351  0.0545
   16MPD2    N1  258   2.274   4.720   1.090  0.0742 -0.2260  0.0831
   16MPD2    H7  259   2.231   0.072   1.070 -0.8168 -0.0802  2.6001
   17TMC1    C1  260   4.224   0.298   9.991 -0.4340  0.4720  0.3260
   17TMC1    C2  261   4.144   0.209   9.919 -0.8213 -0.2112 -0.2494
   17TMC1    C3  262   4.030   0.164   9.981  0.3449  0.1379  0.5810
   17TMC1    C4  263   4.200   0.317  10.127 -0.5796 -0.0719  0.1106
   17TMC1    C5  264   4.100   0.250  10.189 -0.6710 -0.2629 -0.1607
   17TMC1    C6  265   4.008   0.177  10.112 -0.1521 -0.7270 -0.2404
   17TMC1     C  266   4.343   0.351   9.926 -0.0411  0.1020 -0.0869
   17TMC1     O  267   4.367   0.311   9.810  0.6590  0.5753  0.1170
   17TMC1     H  268   4.151   0.191   9.813 -2.8521  3.1993 -0.9652
   17TMC1    H1  269   4.276   0.364  10.188 -0.8355 -0.6076  0.8365
   17TMC1    H2  270   3.920   0.137  10.161 -1.6609  1.2731 -1.3041
   17TMC1    C7  271   4.051   0.288  10.319 -1.0526 -0.4101  0.1647
   17TMC1    C8  272   3.921   0.104   9.900  0.3411  0.3262 -0.3544
   17TMC1    O1  273   4.074   0.400  10.364  0.5710 -0.2882  0.2726
   17TMC1    O2  274   3.950   0.047   9.794  0.1192 -0.8455 -0.1344
   17TMC1    O3  275   4.039   0.167  10.386  0.2744  0.2901 -0.1474
   17TMC1    H3  276   4.049   0.081  10.342  0.5579  0.9214 -1.3007
   17TMC1    O5  277   3.800   0.163   9.920 -0.0851  0.1060  0.3100
   17TMC1    H5  278   3.795   0.208  10.007 -1.3023  0.6593 -0.0471
   18MPD2     C  279   4.571   0.518   9.836 -0.0590  0.1121  0.4130
   18MPD2    C1  280   4.535   0.505   9.967 -0.0780 -0.2463 -0.0354
   18MPD2    C2  281   4.620   0.551  10.063  0.8152  0.2338 -0.2469
   18MPD2    C3  282   4.735   0.620  10.025 -0.4905  0.5526 -0.5780
   18MPD2    C4  283   0.031   0.635   9.897 -0.3742 -0.0102  0.3533
   18MPD2    C5  284   4.686   0.583   9.803  0.2019  0.2539  0.2342
   18MPD2     H  285   4.606   0.533  10.170  0.5194  1.6483 -0.0503
   18MPD2    H1  286   0.118   0.693   9.870 -0.5908  0.5252  0.8079
   18MPD2    H2  287   4.511   0.484   9.753  1.1988 -1.7577  0.2636
   18MPD2    H3  288   4.695   0.601   9.696  0.3680  0.3876  0.2703
   18MPD2     N  289   0.100   0.652  10.115 -0.3541 -0.1835 -0.1793
   18MPD2    H5  290   0.177   0.705  10.075 -0.2106  1.1134  1.8248
   18MPD2    N1  291   4.423   0.435  10.013  0.2803  0.4435  0.0550
   18MPD2    H7  292   4.392   0.454  10.108  2.9352 -1.2217  1.2260
   19TMC2    C1  293   1.663   0.652  13.840 -0.8196  0.0444 -0.1924
   19TMC2    C2  294   1.600   0.741  13.756 -0.1732  0.2083  0.5493
   19TMC2    C3  295   1.468   0.722  13.709 -0.4167  0.2873 -0.1378
   19TMC2    C4  296   1.585   0.556  13.896 -0.0512 -0.1722  0.5529
   19TMC2    C5  297   1.458   0.531  13.838 -0.5051 -0.2611 -0.0351
   19TMC2    C6  298   1.399   0.608  13.742 -0.5750  0.0367 -0.1328
   19TMC2     C  299   1.780   0.708  13.906 -0.1145 -0.0911  0.3660
   19TMC2     O  300   1.815   0.820  13.868 -0.5920  0.3825  0.6803
   19TMC2     H  301   1.657   0.828  13.725 -1.2719  0.2440 -1.3717
   19TMC2    H1  302   1.626   0.488  13.970 -1.5245 -0.0442  1.4866
   19TMC2    H2  303   1.317   0.570  13.682 -0.7036  0.3179 -0.1364
   19TMC2    C7  304   1.411   0.400  13.862 -0.3476 -0.8792 -0.1205
   19TMC2    C8  305   1.437   0.784  13.581  0.4351  0.1710 -0.0916
   19TMC2    O1  306   1.486   0.316  13.912 -0.0414  0.5940  0.0255
   19TMC2    O2  307   1.363   0.728  13.498 -0.0778 -0.0270 -0.0526
   19TMC2    O5  308   1.428   0.914  13.595 -0.6386  0.4653 -0.8225
   19TMC2    H5  309   1.460   0.942  13.684  1.9652  0.8863 -1.8984
   20MPD2     C  310   2.052   0.758  14.023  0.9873  0.8134 -0.5349
   20MPD2    C1  311   1.988   0.636  14.032 -0.7627  0.2508  0.9900
   20MPD2    C2  312   2.046   0.534  14.106  0.6399  0.7341  0.7590
   20MPD2    C3  313   2.174   0.541  14.147 -0.1348  0.0653 -0.1259
   20MPD2    C4  314   2.240   0.660  14.136 -0.8065 -0.3973 -0.1506
   20MPD2    C5  315   2.182   0.764  14.071  0.2740  0.3119  0.6678
   20MPD2     H  316   1.985   0.445  14.114 -1.3302  1.8491 -1.9963
   20MPD2    H1  317   2.339   0.677  14.176 -0.8644 -2.0463  0.6864
   20MPD2    H2  318   2.028   0.843  13.960 -0.9090 -0.8600 -2.0831
   20MPD2    H3  319   2.224   0.859  14.041  0.1268 -0.4570 -1.9095
   20MPD2     N  320   2.246   0.433  14.207  0.0380  0.3042 -0.0198
   20MPD2    H5  321   2.341   0.450  14.237 -0.4364 -0.7698  2.0574
   20MPD2    N1  322   1.859   0.613  13.974  0.5375  0.4810 -0.1441
   20MPD2    H7  323   1.831   0.517  13.988  1.7791  0.8218  4.6630
   21TMC2    C1  324   3.960   0.892  14.037 -0.3841  0.1625 -0.1352
   21TMC2    C2  325   4.057   0.799  14.042  0.9286 -0.1657  0.0395
   21TMC2    C3  326   4.081   0.755  14.172  0.6320  0.5441  0.4217
   21TMC2    C4  327   3.880   0.927  14.136  0.1033  0.1448 -0.0645
   21TMC2    C5  328   3.914   0.880  14.259 -0.6777  0.4204 -0.2509
   21TMC2    C6  329   4.015   0.795  14.285 -0.0943  0.1042 -0.0458
   21TMC2     C  330   3.950   0.972  13.914  0.0234  0.1810  0.0690
   21TMC2     O  331   3.930   0.908  13.814  0.2355 -0.2508 -0.3356
   21TMC2     H  332   4.122   0.784  13.957  2.2297  1.5377  0.7186
   21TMC2    H1  333   3.799   0.996  14.117 -0.0235 -0.4062 -1.5213
   21TMC2    H2  334   4.047   0.758  14.382 -1.3333  0.5355  0.5300
   21TMC2    C7  335   3.881   0.975  14.372 -0.2763 -0.2487 -0.3900
   21TMC2    C8  336   4.192   0.661  14.187  0.6666  0.3261  0.3825
   21TMC2    O1  337   3.937   0.961  14.482  0.3344  0.1098 -0.0023
   21TMC2    O2  338   4.285   0.674  14.266  0.5260 -0.5512 -0.4896
   21TMC2    O5  339   4.208   0.595  14.069  0.5734  0.6562  0.2516
   21TMC2    H5  340   4.125   0.572  14.023  1.8687 -2.8980 -0.3553
   22MPD2     C  341   4.049   1.380  14.238  0.9431  0.0303 -0.2864
   22MPD2    C1  342   4.100   1.248  14.249  0.5707 -0.1329 -0.4249
   22MPD2    C2  343   4.065   1.156  14.150 -0.6277  0.2880  0.0032
   22MPD2    C3  344   3.984   1.190  14.043  0.1554 -0.0471  0.3171
   22MPD2    C4  345   3.947   1.319  14.030 -0.1044 -0.2881  0.4596
   22MPD2    C5  346   3.980   1.408  14.122  0.1064  0.1922 -0.2214
   22MPD2     H  347   4.110   1.058  14.148  1.1041  1.0172  3.0650
   22MPD2    H1  348   3.896   1.352  13.941 -1.4549 -1.0196  0.9644
   22MPD2    H2  349   4.078   1.466  14.297  2.0126 -0.6439  0.1729
   22MPD2    H3  350   3.956   1.512  14.109 -1.4289 -0.3360 -1.5096
   22MPD2     N  351   3.944   1.107  13.932  0.0076 -0.2217  0.5183
   22MPD2    H5  352   3.908   1.166  13.857 -1.9695 -0.3894  1.3445
   22MPD2    N1  353   4.162   1.205  14.367 -0.2306  0.1995  0.9841
   22MPD2    H7  354   4.214   1.119  14.356  0.6078  1.2934 -3.3400
   23TMC2    C1  355   0.480   2.019  14.478 -0.0342 -0.0970  0.5399
   23TMC2    C2  356   0.526   2.086  14.374 -0.7856 -0.3286  1.0134
   23TMC2    C3  357   0.500   2.038  14.249  0.1355 -0.1786 -0.2528
   23TMC2    C4  358   0.394   1.919  14.455  1.2265  0.4974  0.2380
   23TMC2    C5  359   0.361   1.872  14.335  0.1471  0.1110 -0.4896
   23TMC2    C6  360   0.421   1.931  14.224 -0.4503 -0.5569  0.3511
   23TMC2     C  361   0.484   2.073  14.609 -0.2425  0.7298  1.3780
   23TMC2     O  362   0.455   2.003  14.704 -0.1445  0.6663 -0.0135
   23TMC2     H  363   0.579   2.180  14.380 -0.6881 -0.3173 -0.0281
   23TMC2    H1  364   0.351   1.873  14.543 -1.0517  1.0790 -0.5656
   23TMC2    H2  365   0.423   1.880  14.128  0.9615  2.0300 -1.0070
   23TMC2    C7  366   0.252   1.775  14.319 -0.1869  0.3588 -0.5247
   23TMC2    C8  367   0.577   2.087  14.136  0.1373 -0.4606  0.1291
   23TMC2    O1  368   0.235   1.697  14.410 -0.0308 -0.3701  0.0553
   23TMC2    O2  369   0.563   2.036  14.027  0.1965  0.0469 -0.5906
   23TMC2    O5  370   0.696   2.145  14.177 -0.0412 -0.7535 -0.4860
   23TMC2    H5  371   0.722   2.125  14.269 -1.3138 -0.2442 -0.0107
   24MPD2     C  372   0.609   2.432  14.951 -0.1603  0.0531  0.4387
   24MPD2    C1  373   0.639   2.296  14.948 -0.2117 -0.0077 -0.8817
   24MPD2    C2  374   0.603   2.231  14.830  0.3149 -0.2236 -0.0431
   24MPD2    C3  375   0.522   2.283  14.732 -0.1179  0.0841 -0.5106
   24MPD2    C4  376   0.496   2.414  14.742 -0.3876 -0.2358  0.1882
   24MPD2    C5  377   0.535   2.486  14.849 -0.5323 -0.2693  0.2731
   24MPD2     H  378   0.624   2.125  14.830  2.3440  0.1749 -0.3041
   24MPD2    H1  379   0.437   2.473  14.672  0.5976 -0.4273 -0.8117
   24MPD2    H2  380   0.637   2.503  15.028  2.8375 -1.6741  0.9355
   24MPD2    H3  381   0.493   2.584  14.869 -0.9027 -0.7649  1.8794
   24MPD2     N  382   0.498   2.206  14.611  0.4358  0.0758 -0.5102
   24MPD2    H5  383   0.476   2.255  14.525  0.3683 -1.5620 -1.4346
   24MPD2    N1  384   0.699   2.232  15.056 -0.3455 -0.2723 -0.8542
   24MPD2    H7  385   0.716   2.132  15.043 -1.3308 -0.7563  1.4498
   25TMC2    C1  386   3.569   0.375  11.624 -0.2358  0.1099  0.1688
   25TMC2    C2  387   3.633   0.481  11.681 -0.6033  0.1593  0.0498
   25TMC2    C3  388   3.657   0.470  11.810 -0.1036 -0.0608 -1.1179
   25TMC2    C4  389   3.514   0.268  11.702 -0.4328 -0.2479 -0.1300
   25TMC2    C5  390   3.544   0.269  11.833 -0.0375 -0.5592 -0.0238
   25TMC2    C6  391   3.615   0.369  11.890  0.4791 -0.6123  0.0729
   25TMC2     C  392   3.555   0.381  11.482 -1.2658  0.1804 -0.4192
   25TMC2     O  393   3.563   0.493  11.436  0.5663 -0.2925 -0.6966
   25TMC2     H  394   3.676   0.564  11.625 -1.8185  1.9233  1.6937
   25TMC2    H1  395   3.459   0.197  11.641 -0.5506  0.7619 -1.1923
   25TMC2    H2  396   3.638   0.370  11.996  1.7202 -2.5142 -0.1923
   25TMC2    C7  397   3.504   0.159  11.920  0.4936 -0.4789  0.5340
   25TMC2    C8  398   3.711   0.586  11.879  0.0615  0.0458  0.4679
   25TMC2    O1  399   3.582   0.118  12.006 -0.1663 -0.3937  0.3661
   25TMC2    O2  400   3.745   0.573  11.996  0.0164 -0.2444  0.5994
   25TMC2    O5  401   3.620   0.675  11.825  0.0784  0.3747  0.2570
   25TMC2    H5  402   3.573   0.630  11.752  0.4058  1.4347 -0.6138
   26MPD2     C  403   3.444   0.158  11.039 -0.5373  0.1137  0.1046
   26MPD2    C1  404   3.448   0.061  11.136  0.5133 -0.4969 -0.2433
   26MPD2    C2  405   3.477   0.104  11.265  0.0237 -0.4056  0.2215
   26MPD2    C3  406   3.510   0.233  11.299 -0.3910 -0.2894  0.4911
   26MPD2    C4  407   3.490   0.327  11.198 -0.2757 -0.0234 -0.1417
   26MPD2    C5  408   3.459   0.288  11.074 -0.4288 -0.7732  0.0059
   26MPD2     H  409   3.501   0.031  11.341 -0.6632 -1.7383 -0.8552
   26MPD2    H1  410   3.496   0.431  11.227 -1.1284 -0.1728  0.5521
   26MPD2    H2  411   3.436   0.132  10.934 -1.3723  1.0751 -0.0674
   26MPD2    H3  412   3.444   0.367  11.001  1.9117 -0.4543 -0.1108
   26MPD2     N  413   3.547   0.257  11.427  0.0129  0.1316 -0.3498
   26MPD2    H5  414   3.567   0.176  11.484 -0.8705 -1.0924 -1.7605
   26MPD2    N1  415   3.428   4.666  11.093 -0.0030 -0.1358  0.2119
   26MPD2    H7  416   3.434   4.649  10.993 -1.0015  2.5565 -0.3181
   27TMC2    C1  417   2.485   2.054  11.837  0.2238  0.1798 -0.5569
   27TMC2    C2  418   2.561   2.036  11.725 -0.4719  0.3620 -0.0835
   27TMC2    C3  419   2.679   2.096  11.717  0.0083 -0.8078 -0.1700
   27TMC2    C4  420   2.554   2.099  11.950  0.2535  0.3624  0.4460
   27TMC2    C5  421   2.684   2.148  11.937 -0.1694 -0.4958  0.4334
   27TMC2    C6  422   2.739   2.171  11.814  0.4906 -0.0130 -0.0216
   27TMC2     C  423   2.385   1.948  11.862 -0.1721  0.9686 -0.3220
   27TMC2     O  424   2.408   1.841  11.807  1.2076  0.6403  0.2023
   27TMC2     H  425   2.518   1.982  11.642 -0.0114 -1.2770  0.7388
   27TMC2    H1  426   2.504   2.099  12.046 -2.1940  2.4356 -0.8529
   27TMC2    H2  427   2.840   2.202  11.791  0.7660 -1.0611 -0.2217
   27TMC2    C7  428   2.757   2.185  12.059 -0.1117  0.4319 -0.9226
   27TMC2    C8  429   2.734   2.093  11.577 -0.5626  0.0313 -0.2787
   27TMC2    O1  430   2.705   2.138  12.157  0.5915 -0.1757  0.4243
   27TMC2    O2  431   2.803   2.183  11.538 -0.1083 -0.1007  0.9372
   27TMC2    O5  432   2.761   1.962  11.564  0.1380 -0.1025 -0.2335
   27TMC2    H5  433   2.724   1.898  11.630  2.1594  0.6263  1.6203
   28MPD2     C  434   1.991   1.701  12.078 -0.4653  0.3837 -0.5173
   28MPD2    C1  435   1.998   1.825  12.133  0.4034  0.2777 -0.0054
   28MPD2    C2  436   2.096   1.911  12.088  0.0924 -0.0263 -0.2060
   28MPD2    C3  437   2.177   1.882  11.979  0.3377 -0.3267 -0.3522
   28MPD2    C4  438   2.146   1.768  11.908 -0.0693 -0.8417  0.3471
   28MPD2    C5  439   2.062   1.673  11.963 -0.9722 -0.9902  0.8485
   28MPD2     H  440   2.112   2.002  12.144 -0.0624 -0.6282  0.8184
   28MPD2    H1  441   2.198   1.746  11.815 -0.7063  1.3110 -0.5226
   28MPD2    H2  442   1.931   1.619  12.117  2.2969 -0.6394  1.5744
   28MPD2    H3  443   2.052   1.576  11.915 -0.3113 -1.2367  1.2027
   28MPD2     N  444   2.284   1.976  11.955 -0.5478 -0.3698 -0.2140
   28MPD2    H5  445   2.288   2.064  12.006 -1.6074 -0.0782 -0.6211
   28MPD2    N1  446   1.918   1.849  12.242 -0.0317  0.8169  0.1384
   28MPD2    H7  447   1.857   1.775  12.276  1.1314  0.4495  1.4232
   29TMC2    C1  448   2.719   4.161  14.142 -0.2291 -0.0055 -0.6585
   29TMC2    C2  449   2.763   4.112  14.262  0.2500  1.1236  0.0672
   29TMC2    C3  450   2.739   4.194  14.368  0.8288 -0.3594  0.0732
   29TMC2    C4  451   2.662   4.282  14.133 -0.7514 -0.8450 -0.3339
   29TMC2    C5  452   2.632   4.356  14.242 -0.3678 -0.0604 -0.5296
   29TMC2    C6  453   2.677   4.318  14.368  0.6055 -0.1221  1.3442
   29TMC2     C  454   2.736   4.078  14.027 -0.2413  0.1354 -0.0224
   29TMC2     O  455   2.832   4.006  14.026 -0.4236 -0.1099  0.0812
   29TMC2     H  456   2.811   4.015  14.268  1.3728  1.6780 -0.0006
   29TMC2    H1  457   2.642   4.322  14.035  1.3252 -2.6700 -1.5171
   29TMC2    H2  458   2.659   4.384  14.452 -0.4200  1.9846 -0.5225
   29TMC2    C7  459   2.614   4.496  14.212 -0.1564 -0.2159 -0.2168
   29TMC2    C8  460   2.755   4.133  14.494  0.4310  0.2339  1.0390
   29TMC2    O1  461   2.570   4.523  14.101 -0.6949 -0.6495 -0.0012
   29TMC2    O2  462   2.760   4.012  14.518 -0.6335 -0.5293 -0.0795
   29TMC2    O5  463   2.764   4.233  14.592 -0.1580 -0.1248 -0.1396
   29TMC2    H5  464   2.796   4.315  14.549  0.0435 -0.0369  0.1841
   30MPD2     C  465   2.618   3.894  13.565 -0.4779  0.5426 -0.2456
   30MPD2    C1  466   2.704   3.849  13.664 -0.1121  0.1214 -0.2029
   30MPD2    C2  467   2.711   3.913  13.787 -0.0933 -0.5965 -0.1541
   30MPD2    C3  468   2.643   4.037  13.802  0.8524 -0.3263 -0.3304
   30MPD2    C4  469   2.555   4.073  13.703 -0.2327  0.1958  0.5570
   30MPD2    C5  470   2.540   4.000  13.590 -0.1277  0.6786  0.4811
   30MPD2     H  471   2.774   3.874  13.867 -1.6108 -0.6220  1.0209
   30MPD2    H1  472   2.491   4.160  13.710  1.0158  1.1586  0.0432
   30MPD2    H2  473   2.627   3.849  13.467  0.2173 -0.5685  0.3321
   30MPD2    H3  474   2.472   4.037  13.514  0.9521 -1.3573 -1.5020
   30MPD2     N  475   2.650   4.108  13.918  0.5877 -0.0261  0.3868
   30MPD2    H5  476   2.567   4.166  13.928  0.5520 -0.1345  0.7116
   30MPD2    N1  477   2.782   3.729  13.655 -0.3526 -0.1418  0.4942
   30MPD2    H7  478   2.849   3.707  13.728  1.2788 -0.3231 -1.0697
   31TMC2    C1  479   0.450   2.842  15.459  0.7863  0.8024  0.0018
   31TMC2    C2  480   0.322   2.886  15.507 -0.5484  0.2578 -0.2328
   31TMC2    C3  481   0.302   2.901  15.642  0.6852 -0.8013 -0.2725
   31TMC2    C4  482   0.556   2.839  15.540  0.0078 -0.6488 -0.0002
   31TMC2    C5  483   0.534   2.867  15.673 -0.7296 -0.4113  0.1831
   31TMC2    C6  484   0.408   2.886  15.725  0.0668  0.0730  0.6024
   31TMC2     C  485   0.468   2.851  15.318 -0.4246 -0.2568 -0.4553
   31TMC2     O  486   0.383   2.909  15.256  0.3569  0.1530 -0.4525
   31TMC2     H  487   0.240   2.887  15.436  0.1344 -0.9078 -1.0323
   31TMC2    H1  488   0.657   2.840  15.501 -0.8320 -0.4337 -2.1470
   31TMC2    H2  489   0.394   2.878  15.832  1.6550  0.3495  0.8390
   31TMC2    C7  490   0.640   2.846  15.768 -0.0645 -0.3084 -0.5419
   31TMC2    C8  491   0.162   2.888  15.697  0.0023 -0.4146 -0.3148
   31TMC2    O1  492   0.724   2.765  15.741 -0.1415  0.6146  0.2381
   31TMC2    O2  493   0.135   2.810  15.784 -0.3408 -0.0974  0.0456
   31TMC2    O5  494   0.080   2.980  15.654 -0.0273 -0.3675  0.4159
   31TMC2    H5  495   0.127   3.051  15.606 -0.2196  0.5996  1.6695
   32MPD2     C  496   0.787   2.787  14.925 -0.4257  0.4313  0.2692
   32MPD2    C1  497   0.663   2.839  14.921  0.0381 -0.7935 -0.7679
   32MPD2    C2  498   0.585   2.853  15.038  0.4016  0.8576  0.1937
   32MPD2    C3  499   0.643   2.800  15.152  0.3805 -0.5589 -0.1721
   32MPD2    C4  500   0.771   2.753  15.153  0.6723  0.0451  0.4170
   32MPD2    C5  501   0.843   2.746  15.043  0.0096 -0.3228 -0.1472
   32MPD2     H  502   0.490   2.904  15.036  0.0584  0.2098  0.0394
   32MPD2    H1  503   0.824   2.725  15.243 -0.2156  0.6637  1.1351
   32MPD2    H2  504   0.844   2.776  14.834 -0.2710  0.7626  0.3274
   32MPD2    H3  505   0.949   2.723  15.043  0.1208  0.1880 -1.7019
   32MPD2     N  506   0.585   2.799  15.279  0.0526  0.3777 -0.3562
   32MPD2    H5  507   0.647   2.754  15.345  0.1220  0.2735 -0.4926
   32MPD2    N1  508   0.618   2.881  14.793 -0.5455 -0.2066 -0.1814
   32MPD2    H7  509   0.682   2.852  14.720  0.2569  0.2166  0.3554
   33TMC2    C1  510   0.211   0.881   9.473 -0.2741  0.3754 -0.4007
   33TMC2    C2  511   0.122   0.790   9.419  0.7880  0.6536  0.4461
   33TMC2    C3  512   0.004   0.834   9.369  0.2515 -0.2675 -0.3622
   33TMC2    C4  513   0.171   1.010   9.496 -0.2659 -0.4361 -0.0498
   33TMC2    C5  514   0.047   1.053   9.440 -0.0545 -0.0022 -0.2226
   33TMC2    C6  515   4.697   0.962   9.378 -0.4782 -0.0771  0.7519
   33TMC2     C  516   0.288   0.818   9.572 -0.1220 -0.5608  0.0289
   33TMC2     O  517   0.250   0.704   9.600 -0.0597  0.3405 -0.4548
   33TMC2     H  518   0.143   0.684   9.414  0.7156  0.6403  0.4241
   33TMC2    H1  519   0.234   1.070   9.561  1.1955 -2.1243  0.0925
   33TMC2    H2  520   4.609   0.993   9.323  0.8178  1.6754 -0.3403
   33TMC2    C7  521   0.017   1.194   9.445 -0.3906 -0.4130 -0.3196
   33TMC2    C8  522   4.653   0.729   9.333  0.2105 -1.0681 -0.4349
   33TMC2    O1  523   0.114   1.260   9.410  0.0199  0.1821 -0.3772
   33TMC2    O2  524   4.685   0.634   9.264 -0.7150 -0.2540 -0.2524
   33TMC2    O5  525   4.573   0.719   9.438 -0.3617 -0.0361  0.6985
   33TMC2    H5  526   4.566   0.795   9.499 -0.1072  0.4945  0.0598
   34MPD2     C  527   0.668   0.805   9.912  0.3599 -0.3097 -0.1036
   34MPD2    C1  528   0.563   0.729   9.890  0.1632  0.7681  0.2830
   34MPD2    C2  529   0.472   0.753   9.789 -0.1582 -0.0749  0.5060
   34MPD2    C3  530   0.496   0.857   9.705  0.1552  0.1598  0.4178
   34MPD2    C4  531   0.605   0.939   9.721  0.0194  0.1543 -0.0884
   34MPD2    C5  532   0.691   0.909   9.823 -0.4119 -0.3480 -0.5257
   34MPD2     H  533   0.387   0.687   9.775 -0.3191  0.4786 -1.0852
   34MPD2    H1  534   0.619   1.020   9.651  0.2607 -2.3534 -2.9352
   34MPD2    H2  535   0.735   0.794   9.997 -2.9197 -0.9457  2.4073
   34MPD2    H3  536   0.770   0.981   9.840  1.2400 -1.7309 -2.3281
   34MPD2     N  537   0.402   0.885   9.604 -0.2583  0.3063  0.2304
   34MPD2    H5  538   0.409   0.966   9.544 -0.1555  0.0448 -0.1076
   34MPD2    N1  539   0.530   0.622   9.974 -0.5497 -0.1341  0.4412
   34MPD2    H7  540   0.452   0.568   9.937 -0.5204 -0.0918  0.3164
   35TMC2    C1  541   1.870   2.263  11.168  0.5206  0.0614  0.8542
   35TMC2    C2  542   1.906   2.316  11.053 -0.1380 -0.2083 -0.1518
   35TMC2    C3  543   1.854   2.265  10.939 -0.5586 -0.2017 -0.0052
   35TMC2    C4  544   1.773   2.167  11.171  0.1545 -0.8062 -0.2222
   35TMC2    C5  545   1.714   2.122  11.057  0.2873  0.0277 -0.3050
   35TMC2    C6  546   1.758   2.165  10.936 -0.3274 -0.2454  0.1554
   35TMC2     C  547   1.935   2.309  11.286 -0.0396 -0.7107 -0.0215
   35TMC2     O  548   2.001   2.413  11.276  0.4645 -0.2660  0.3069
   35TMC2     H  549   1.971   2.403  11.047  1.0576 -1.0947 -0.1812
   35TMC2    H1  550   1.740   2.137  11.270 -0.4282  0.1175 -0.1359
   35TMC2    H2  551   1.712   2.138  10.841 -0.0769  2.5140 -0.7364
   35TMC2    C7  552   1.603   2.034  11.076  0.8554 -0.0367  0.7372
   35TMC2    C8  553   1.853   2.345  10.815 -0.0069 -0.2400 -0.0688
   35TMC2    O1  554   1.593   1.985  11.184 -0.2069  0.4990  0.2578
   35TMC2    O2  555   1.763   2.344  10.731  0.2330  0.1033  0.4191
   35TMC2    O5  556   1.976   2.377  10.784  0.6679  1.2102 -0.0420
   35TMC2    H5  557   2.043   2.357  10.853 -0.6527 -0.8352  0.6238
   36MPD2     C  558   1.943   2.352  11.800 -0.1999 -0.7341 -0.2223
   36MPD2    C1  559   1.904   2.223  11.771 -0.0352 -0.0254  0.8439
   36MPD2    C2  560   1.891   2.183  11.636  0.4185  0.7208  1.1098
   36MPD2    C3  561   1.921   2.275  11.540 -0.6508 -0.1737 -1.0394
   36MPD2    C4  562   1.965   2.403  11.573  0.4989 -0.7886  0.0720
   36MPD2    C5  563   1.971   2.438  11.705 -0.5392 -0.3573 -0.6708
   36MPD2     H  564   1.845   2.089  11.605 -0.4114  1.0264  1.4108
   36MPD2    H1  565   1.994   2.485  11.508  0.2970 -1.1621 -0.4996
   36MPD2    H2  566   1.949   2.386  11.902  0.3660  1.1551 -0.8943
   36MPD2    H3  567   1.995   2.540  11.734 -0.4393 -0.3642 -0.7285
   36MPD2     N  568   1.901   2.243  11.403 -0.1629 -0.8358 -0.5306
   36MPD2    H5  569   1.870   2.149  11.378  0.5742 -0.4021 -3.1505
   36MPD2    N1  570   1.876   2.140  11.881  0.4696 -0.5615 -0.0035
   36MPD2    H7  571   1.878   2.198  11.964 -0.1730  0.9541 -1.0497
   37TMC2    C1  572   3.307   2.141  11.198  0.2689 -0.1769  0.3861
   37TMC2    C2  573   3.233   2.225  11.114 -0.0786 -0.2565  1.0653
   37TMC2    C3  574   3.299   2.285  11.010 -0.0872 -0.4715  1.2770
   37TMC2    C4  575   3.441   2.117  11.181 -0.2264  0.3371 -0.9237
   37TMC2    C5  576   3.501   2.179  11.066  0.1035 -0.7354 -0.3033
   37TMC2    C6  577   3.430   2.257  10.978  0.7303  0.2031  0.2886
   37TMC2     C  578   3.259   2.142  11.334  0.1210 -0.7200 -0.3008
   37TMC2     O  579   3.141   2.114  11.354  0.4396 -0.3738  0.7378
   37TMC2     H  580   3.128   2.236  11.138 -0.2876  0.6680 -0.3342
   37TMC2    H1  581   3.491   2.048  11.248 -0.8968  2.3481  1.6607
   37TMC2    H2  582   3.471   2.290  10.883 -1.8936 -2.7669 -1.8832
   37TMC2    C7  583   3.637   2.143  11.037 -0.2639 -0.4963  0.1317
   37TMC2    C8  584   3.229   2.368  10.908 -0.8296 -0.0617 -0.2865
   37TMC2    O1  585   3.697   2.223  10.962  0.1124  0.2418  0.1106
   37TMC2    O2  586   3.107   2.375  10.906  0.1228  0.3707 -0.1901
   37TMC2    O5  587   3.313   2.466  10.866 -0.0434  0.1605  0.1219
   37TMC2    H5  588   3.403   2.462  10.905  0.0696  2.0303  0.0648
   38MPD2     C  589   3.376   2.234  11.831  0.0628 -0.6728 -0.0373
   38MPD2    C1  590   3.486   2.253  11.753  0.8934  0.1461 -0.7147
   38MPD2    C2  591   3.466   2.239  11.613  0.0922 -0.6871 -0.5062
   38MPD2    C3  592   3.351   2.201  11.554  0.6601 -0.3656  0.4208
   38MPD2    C4  593   3.237   2.189  11.633  0.0615 -0.5757  1.2859
   38MPD2    C5  594   3.250   2.216  11.769 -0.2237  0.1054 -0.0034
   38MPD2     H  595   3.552   2.257  11.549  0.0965 -0.4258 -0.4277
   38MPD2    H1  596   3.146   2.149  11.591 -0.4619  1.1734  0.7303
   38MPD2    H2  597   3.395   2.222  11.937  0.3904 -2.0280 -0.2433
   38MPD2    H3  598   3.161   2.203  11.830  0.3673 -1.6213  0.4880
   38MPD2     N  599   3.364   2.193  11.413  0.0799 -0.5991 -0.0160
   38MPD2    H5  600   3.455   2.207  11.369 -1.5739  1.4384 -2.7900
   38MPD2    N1  601   3.612   2.273  11.816  0.3224  0.2553  0.3500
   38MPD2    H7  602   3.608   2.288  11.916 -1.2668  1.2035  0.1461
   39TMC2    C1  603   2.980   3.976   1.397  0.2794  0.3107 -1.2591
   39TMC2    C2  604   3.091   4.034   1.342 -0.7870 -0.2891  0.7587
   39TMC2    C3  605   3.154   4.138   1.407 -0.5530 -0.0149  0.0416
   39TMC2    C4  606   2.924   4.029   1.514  0.3825 -0.1716  0.1805
   39TMC2    C5  607   2.991   4.126   1.581  0.6604 -0.0671 -0.7194
   39TMC2    C6  608   3.102   4.187   1.523  0.3161 -0.1832  0.0595
   39TMC2     C  609   2.889   3.885   1.331  0.6174 -0.3197 -0.3361
   39TMC2     O  610   2.773   3.884   1.359 -0.0982 -0.4329 -0.1433
   39TMC2     H  611   3.136   4.001   1.249 -2.0563  0.1155  0.0070
   39TMC2    H1  612   2.836   3.977   1.550  0.9253 -2.5649 -1.9727
   39TMC2    H2  613   3.163   4.252   1.584  1.2987 -0.2800 -0.8183
   39TMC2    C7  614   2.899   4.224   1.638  0.1236  0.0749 -1.0253
   39TMC2    C8  615   3.296   4.149   1.365  1.0466 -0.5866 -0.5204
   39TMC2    O1  616   2.813   4.173   1.707  0.0528  0.3679 -0.1803
   39TMC2    O2  617   3.337   4.102   1.257  0.0550  0.6982  0.6064
   39TMC2    O5  618   3.351   4.265   1.416  0.3952  0.6369  0.0417
   39TMC2    H5  619   3.294   4.317   1.477 -0.2154  1.4115 -1.1773
   40MPD2     C  620   2.978   3.606   1.116 -0.6889 -0.2806 -0.6342
   40MPD2    C1  621   2.890   3.698   1.170 -0.2212 -0.2903 -1.0520
   40MPD2    C2  622   2.755   3.683   1.145  0.4017 -0.2241 -0.1481
   40MPD2    C3  623   2.710   3.573   1.077 -0.0947 -0.1401  0.9731
   40MPD2    C4  624   2.802   3.475   1.033  0.9043 -0.2561  0.4180
   40MPD2    C5  625   2.933   3.492   1.048  0.1588 -0.1338 -1.2289
   40MPD2     H  626   2.686   3.763   1.170  0.9164 -0.0827  0.8494
   40MPD2    H1  627   2.781   3.392   0.966 -0.8516 -0.7991  1.6323
   40MPD2    H2  628   3.086   3.604   1.129 -0.7061 -1.2443 -0.6796
   40MPD2    H3  629   2.990   3.412   1.002  1.2163  0.4853 -0.9959
   40MPD2     N  630   2.579   3.546   1.045 -0.0050  0.7292 -0.1678
   40MPD2    H5  631   2.566   3.467   0.983 -0.9104  2.1950 -1.8497
   40MPD2    N1  632   2.954   3.798   1.249 -0.3616 -1.2316 -0.5741
   40MPD2    H7  633   3.055   3.790   1.256 -0.1269  1.9970 -0.1175
   41TMC2    C1  634   0.807   2.174  13.713 -0.4015  0.4418  1.0199
   41TMC2    C2  635   0.708   2.224  13.791 -0.8733 -0.5864  0.5605
   41TMC2    C3  636   0.678   2.353  13.796  0.1844  0.4267  0.0266
   41TMC2    C4  637   0.858   2.264  13.625  0.4563 -0.0878 -0.3356
   41TMC2    C5  638   0.822   2.389  13.622 -0.8079 -0.1868 -0.1179
   41TMC2    C6  639   0.736   2.444  13.714  0.2140 -0.0207  0.3923
   41TMC2     C  640   0.922   2.103  13.775 -0.1182 -0.0173  0.4121
   41TMC2     O  641   1.034   2.119  13.723 -0.1682  0.7349  0.2996
   41TMC2     H  642   0.677   2.164  13.876 -2.0680  2.6748  2.4296
   41TMC2    H1  643   0.938   2.236  13.557 -1.8699  0.0887 -3.1489
   41TMC2    H2  644   0.719   2.551  13.724 -1.6680 -0.5323  2.6421
   41TMC2    C7  645   0.851   2.470  13.511 -0.2424  0.6060  0.1526
   41TMC2    C8  646   0.605   2.391  13.920 -0.5362 -0.5301  0.2219
   41TMC2    O1  647   0.871   2.591  13.531  0.0796 -0.0758  0.2079
   41TMC2    O2  648   0.499   2.338  13.952  0.1731 -0.6206  0.0072
   41TMC2    O5  649   0.700   2.411  14.011  0.0243  0.0902  0.6166
   41TMC2    H5  650   0.786   2.438  13.974 -1.7036  2.3351 -1.7458
   42MPD2     C  651   1.113   1.969  13.983  0.3729 -0.9423  0.1550
   42MPD2    C1  652   0.977   1.969  13.982 -0.2288 -0.1748 -0.0720
   42MPD2    C2  653   0.919   1.912  14.095  0.4375 -0.6059  0.0027
   42MPD2    C3  654   0.999   1.861  14.200 -0.4580  0.0242  0.5593
   42MPD2    C4  655   1.137   1.857  14.194 -0.0095  0.1546 -0.1365
   42MPD2    C5  656   1.195   1.915  14.083  0.9610  0.1952  0.0706
   42MPD2     H  657   0.811   1.897  14.092  0.0037  2.3892  0.5544
   42MPD2    H1  658   1.197   1.815  14.273  1.0093  1.2734 -0.3158
   42MPD2    H2  659   1.166   2.030  13.910  2.2361 -0.0872  2.2384
   42MPD2    H3  660   1.303   1.927  14.078  0.8038  1.3836 -0.2429
   42MPD2     N  661   0.950   1.813  14.326  0.1762 -0.0954 -0.2217
   42MPD2    H5  662   1.018   1.789  14.397 -0.6108 -1.5268  0.0606
   42MPD2    N1  663   0.889   2.036  13.890 -0.2750  0.5481  0.3242
   42MPD2    H7  664   0.795   2.058  13.922 -0.4605  1.9839 -1.2046
   43TMC2    C1  665   2.573   0.420   0.554  0.3319  0.0969 -0.3398
   43TMC2    C2  666   2.436   0.432   0.570 -0.0362 -0.3016 -0.0822
   43TMC2    C3  667   2.384   0.513   0.671 -0.1130  0.2121  0.6050
   43TMC2    C4  668   2.651   0.508   0.625  0.5132  0.8330  0.2046
   43TMC2    C5  669   2.597   0.592   0.717  0.0582 -0.4715 -0.2920
   43TMC2    C6  670   2.464   0.594   0.747 -0.3799  0.0244 -0.0831
   43TMC2     C  671   2.630   0.373   0.430 -0.6328  0.6138  1.3410
   43TMC2     O  672   2.751   0.371   0.417  0.4169  0.1871 -0.0092
   43TMC2     H  673   2.373   0.356   0.526 -0.0572 -1.4280  1.8929
   43TMC2    H1  674   2.756   0.508   0.598  1.2840  1.8702  3.2171
   43TMC2    H2  675   2.423   0.668   0.814  0.2454 -0.6810  1.0880
   43TMC2    C7  676   2.699   0.671   0.795 -0.6154  0.6128 -0.2051
   43TMC2    C8  677   2.246   0.499   0.706  0.2275  0.5119  0.1493
   43TMC2    O1  678   2.812   0.686   0.743 -0.2390  0.4919  0.7511
   43TMC2    O2  679   2.162   0.480   0.620  0.2703 -0.0640 -0.5244
   43TMC2    O5  680   2.254   0.441   0.832  0.1691  0.3943  0.4721
   43TMC2    H5  681   2.344   0.431   0.870  1.1258  1.3518 -1.5466
   44MPD2     C  682   2.589   0.129  17.726  0.1291  0.6687 -0.4170
   44MPD2    C1  683   2.699   0.164   0.047 -0.3893  0.2619 -0.0647
   44MPD2    C2  684   2.682   0.226   0.168 -0.0831 -0.4692  0.2108
   44MPD2    C3  685   2.557   0.252   0.222 -0.1857 -0.2007  0.5892
   44MPD2    C4  686   2.439   0.215   0.149 -0.4414 -0.1410 -0.3564
   44MPD2    C5  687   2.465   0.142   0.036  0.1973  0.0924  0.2165
   44MPD2     H  688   2.774   0.255   0.218 -0.8067 -1.2863  2.0008
   44MPD2    H1  689   2.339   0.223   0.188  1.1129  2.6101  3.0540
   44MPD2    H2  690   2.591   0.080  17.629  0.0466  0.7248 -0.4466
   44MPD2    H3  691   2.387   0.105  17.722  0.3332 -1.0581  0.6962
   44MPD2     N  692   2.539   0.326   0.344 -0.1853 -0.0197  0.7875
   44MPD2    H5  693   2.442   0.355   0.352 -0.1986 -0.2161  1.2895
   44MPD2    N1  694   2.830   0.147   0.005 -0.4876  0.1708 -0.4928
   44MPD2    H7  695   2.907   0.154   0.071  0.0417 -1.5712 -0.9319
   45TMC2    C1  696   3.544   2.697   9.551  0.1673 -0.3699  0.1560
   45TMC2    C2  697   3.572   2.698   9.419 -0.0765 -0.7454 -0.5529
   45TMC2    C3  698   3.586   2.824   9.369 -0.7199  0.2439 -0.3232
   45TMC2    C4  699   3.564   2.804   9.632 -0.1728  0.0621  0.1396
   45TMC2    C5  700   3.584   2.929   9.577  0.7837 -0.5287 -0.1958
   45TMC2    C6  701   3.576   2.938   9.442 -0.1006  0.2282  0.4039
   45TMC2     C  702   3.528   2.559   9.608 -0.0327  0.3886 -0.6639
   45TMC2     O  703   3.594   2.524   9.707 -0.3245  0.3761  0.2873
   45TMC2     H  704   3.579   2.610   9.356 -0.7365 -2.7192  2.0985
   45TMC2    H1  705   3.540   2.786   9.737  1.7369 -3.6875 -0.0906
   45TMC2    H2  706   3.575   3.032   9.387 -0.8268  0.6482  1.1252
   45TMC2    C7  707   3.583   3.051   9.661  0.5239 -0.0392 -1.2973
   45TMC2    C8  708   3.620   2.841   9.228  0.1233  0.4583  0.2343
   45TMC2    O1  709   3.530   3.038   9.770 -0.0822  0.0216 -0.2194
   45TMC2    O2  710   3.676   2.940   9.185  0.0754 -0.1944 -0.1357
   45TMC2    O5  711   3.527   2.767   9.164  0.2045  0.5738  0.9350
   45TMC2    H5  712   3.479   2.705   9.223  2.0551 -2.4868 -0.7785
   46MPD2     C  713   3.445   2.281   9.689 -0.3283 -0.1711  0.5547
   46MPD2    C1  714   3.387   2.351   9.584  0.0378 -0.2018  0.1259
   46MPD2    C2  715   3.287   2.288   9.510 -0.1655  0.0306 -0.4997
   46MPD2    C3  716   3.247   2.159   9.534  0.5370 -0.3035  0.1828
   46MPD2    C4  717   3.297   2.093   9.644 -1.0481  0.0375  0.0217
   46MPD2    C5  718   3.399   2.153   9.721 -0.6581 -0.1158 -0.0634
   46MPD2     H  719   3.243   2.348   9.431  0.5799 -0.5729 -1.3644
   46MPD2    H1  720   3.276   1.987   9.654 -0.6772 -0.1620 -1.3592
   46MPD2    H2  721   3.515   2.320   9.762  0.1923  3.6719 -1.9864
   46MPD2    H3  722   3.442   2.106   9.808  0.3141  1.8216  0.5147
   46MPD2     N  723   3.142   2.119   9.452 -0.4367  0.2546 -0.0012
   46MPD2    H5  724   3.118   2.178   9.373  1.7618  2.1536  0.7276
   46MPD2    N1  725   3.432   2.485   9.544 -0.5534  0.4480 -0.2581
   46MPD2    H7  726   3.395   2.522   9.457  0.3442  0.8834 -0.4487
   47TMC2    C1  727   3.514   3.526   9.313  0.1538 -0.1568 -0.5591
   47TMC2    C2  728   3.485   3.453   9.203  0.3861  0.9432 -0.3258
   47TMC2    C3  729   3.356   3.403   9.208 -0.3022 -0.1185  0.9192
   47TMC2    C4  730   3.436   3.544   9.421  0.0244 -0.1813 -0.5987
   47TMC2    C5  731   3.313   3.485   9.420  0.4047  0.2750 -0.0089
   47TMC2    C6  732   3.275   3.408   9.311 -0.1411 -0.0713 -0.0868
   47TMC2     C  733   3.640   3.596   9.317  0.1870 -0.0880  0.5587
   47TMC2     O  734   3.656   3.703   9.374  0.4243 -0.3982 -0.1093
   47TMC2     H  735   3.550   3.451   9.116  1.9861 -0.9987  0.9146
   47TMC2    H1  736   3.468   3.608   9.503  0.2540  0.5299 -1.2432
   47TMC2    H2  737   3.172   3.374   9.300 -0.4663  0.9371 -0.2397
   47TMC2    C7  738   3.230   3.490   9.538 -0.4947 -0.6161  0.1849
   47TMC2    C8  739   3.302   3.329   9.095 -0.2957 -0.7753 -0.2239
   47TMC2    O1  740   3.150   3.397   9.555  0.4122 -0.1578 -0.0639
   47TMC2    O2  741   3.244   3.226   9.112 -0.8170 -0.2001 -0.2056
   47TMC2    O5  742   3.334   3.378   8.974  0.7133  0.3596 -0.2821
   47TMC2    H5  743   3.369   3.470   8.979  1.3467  0.1545 -0.8493
   48MPD2     C  744   3.916   3.669   9.249 -0.0577  0.5996  0.7395
   48MPD2    C1  745   3.868   3.543   9.251 -0.4604  0.8463 -0.3884
   48MPD2    C2  746   3.958   3.439   9.223  0.2371  0.2288  0.7741
   48MPD2    C3  747   4.095   3.464   9.203  0.0952 -0.5310  0.7465
   48MPD2    C4  748   4.138   3.592   9.203  0.6300 -0.0594  0.0664
   48MPD2    C5  749   4.046   3.693   9.224 -0.2328 -0.1785  0.7578
   48MPD2     H  750   3.934   3.334   9.217  1.3536 -0.0001  0.2463
   48MPD2    H1  751   4.242   3.621   9.203  0.4442  0.5879 -2.1558
   48MPD2    H2  752   3.853   3.755   9.271 -1.9916 -0.8359  0.8185
   48MPD2    H3  753   4.071   3.798   9.216 -0.9867  0.0406  1.2855
   48MPD2     N  754   4.175   3.354   9.186 -0.8521 -0.0062 -0.3434
   48MPD2    H5  755   4.124   3.266   9.186 -0.6506 -0.1179  1.6953
   48MPD2    N1  756   3.735   3.504   9.263 -0.0915 -0.0470  0.6792
   48MPD2    H7  757   3.718   3.405   9.250  5.1534 -0.5645 -2.3814
   49TMC2    C1  758   3.804   0.251   9.483  0.3878  0.1187 -0.4346
   49TMC2    C2  759   3.793   0.194   9.361 -0.0035 -0.5385  0.0937
   49TMC2    C3  760   3.690   0.111   9.332 -0.2915 -0.0243 -0.1824
   49TMC2    C4  761   3.704   0.231   9.578 -0.4057  0.1628 -0.5223
   49TMC2    C5  762   3.598   0.151   9.551  0.2390  0.1794 -0.7199
   49TMC2    C6  763   3.583   0.094   9.423 -0.1522 -0.2345  0.2141
   49TMC2     C  764   3.925   0.322   9.517  0.3766  0.0479  0.4133
   49TMC2     O  765   4.010   0.327   9.427 -0.1937  0.1611 -0.1789
   49TMC2     H  766   3.869   0.199   9.284  0.6066  1.1475  0.8160
   49TMC2    H1  767   3.722   0.260   9.681  1.9270 -0.7106 -0.6990
   49TMC2    H2  768   3.493   0.038   9.397 -0.5050  0.8514 -0.8923
   49TMC2    C7  769   3.489   0.144   9.646 -0.5039 -0.4187 -0.6643
   49TMC2    C8  770   3.657   0.081   9.195 -0.0229  0.3775  0.2935
   49TMC2    O1  771   3.414   0.050   9.640 -0.0844  0.2503 -0.1700
   49TMC2    O2  772   3.544   0.100   9.155  0.2317  0.4408  0.2466
   49TMC2    O5  773   3.773   0.040   9.129  0.4792 -0.4656  0.6745
   49TMC2    H5  774   3.853   0.010   9.178  1.9807  0.1707 -1.4252
   50MPD2     C  775   4.139   0.495   9.616  0.7113 -0.2021  0.1168
   50MPD2    C1  776   4.019   0.478   9.684  0.3043 -0.1229  0.1647
   50MPD2    C2  777   4.002   0.539   9.815 -0.6744  0.1079 -0.0505
   50MPD2    C3  778   4.093   0.629   9.859 -0.6393  0.2728 -0.6980
   50MPD2    C4  779   4.208   0.657   9.788  0.3899  0.5634 -0.2961
   50MPD2    C5  780   4.230   0.588   9.663  0.8170 -0.9012 -0.4149
   50MPD2     H  781   3.914   0.504   9.869 -1.0373  2.4439  0.8749
   50MPD2    H1  782   4.283   0.731   9.816 -0.4896  0.6845  1.7120
   50MPD2    H2  783   4.168   0.453   9.520  1.1985  0.0858  0.1337
   50MPD2    H3  784   4.330   0.602   9.623  0.8631  0.6854  0.2789
   50MPD2     N  785   4.073   0.698   9.984  0.1800  0.4687 -0.1103
   50MPD2    H5  786   4.150   0.758  10.013  0.3281 -0.1186  0.6884
   50MPD2    N1  787   3.916   0.395   9.633  0.3839  0.0432  0.4481
   50MPD2    H7  788   3.827   0.399   9.682  1.1198  0.1922  1.7855
   51TMC2    C1  789   4.472   3.387   1.003 -0.5061  0.7750 -0.0962
   51TMC2    C2  790   4.367   3.383   0.912 -0.7490  0.2879 -0.4103
   51TMC2    C3  791   4.379   3.452   0.796  0.0750  0.1638  0.2045
   51TMC2    C4  792   4.582   3.466   0.982 -0.4871  0.6657  0.0514
   51TMC2    C5  793   4.576   3.550   0.872 -0.5010 -0.6242 -0.1663
   51TMC2    C6  794   4.484   3.533   0.774  0.1698  0.7362 -0.3219
   51TMC2     C  795   4.510   3.258   1.070 -0.1834 -0.7263 -0.3312
   51TMC2     O  796   4.628   3.234   1.085  0.0682  0.2103 -0.5102
   51TMC2     H  797   4.286   3.310   0.911  1.2438 -1.9372 -0.6455
   51TMC2    H1  798   4.651   3.477   1.065  0.9286 -1.1458 -0.8631
   51TMC2    H2  799   4.484   3.590   0.682  0.3319  0.5821 -0.4159
   51TMC2    C7  800   4.696   3.626   0.836 -0.0687 -0.5120 -0.5209
   51TMC2    C8  801   4.259   3.448   0.710 -0.1653  0.3552 -0.2644
   51TMC2    O1  802   4.732   3.628   0.722 -0.2959  0.4761  0.7987
   51TMC2    O2  803   4.168   3.365   0.731  0.4691 -0.4062 -0.3855
   51TMC2    O5  804   4.235   3.568   0.664  0.2287 -0.0933 -0.8053
   51TMC2    H5  805   4.276   3.639   0.719  1.2691 -1.6370  0.4215
   52MPD2     C  806   4.414   2.775   1.195 -0.2682  0.2293  0.2517
   52MPD2    C1  807   4.532   2.834   1.159 -0.0641 -0.3512  0.3952
   52MPD2    C2  808   4.530   2.968   1.133 -0.0408 -0.1007 -0.0747
   52MPD2    C3  809   4.410   3.040   1.135 -0.1114 -0.9245 -0.0881
   52MPD2    C4  810   4.302   2.976   1.187 -0.7462 -0.2967 -0.4881
   52MPD2    C5  811   4.298   2.841   1.206  0.1889 -0.0087 -0.4606
   52MPD2     H  812   4.620   3.016   1.098  0.5884 -1.3693 -0.2072
   52MPD2    H1  813   4.204   3.022   1.187 -0.3226  0.5863 -1.1592
   52MPD2    H2  814   4.415   2.670   1.223  0.8768  0.3982  0.8566
   52MPD2    H3  815   4.201   2.802   1.234 -0.5347  1.3883 -1.0109
   52MPD2     N  816   4.404   3.180   1.106 -0.5815 -0.2734  0.2969
   52MPD2    H5  817   4.314   3.226   1.119 -0.4831  0.0093 -0.0353
   52MPD2    N1  818   4.654   2.768   1.148  0.3303 -0.1617 -0.0366
   52MPD2    H7  819   4.732   2.826   1.119  1.5194 -0.5697  2.3264
   53TMC2    C1  820   4.374   2.119  11.028 -0.4748  0.2229 -0.4594
   53TMC2    C2  821   4.486   2.113  10.960  0.1964 -0.5447 -0.0844
   53TMC2    C3  822   4.594   2.184  10.998 -0.1892 -0.6155 -0.1275
   53TMC2    C4  823   4.364   2.203  11.136  0.7371  0.2944  0.7563
   53TMC2    C5  824   4.475   2.281  11.172  1.1918  0.3776 -0.6130
   53TMC2    C6  825   4.595   2.269  11.110  0.1128 -0.0594  0.0286
   53TMC2     C  826   4.280   2.013  11.011  0.0069 -0.3504 -0.6282
   53TMC2     O  827   4.332   1.911  10.962  0.4226 -0.5162  0.6633
   53TMC2     H  828   4.502   2.051  10.873 -0.3444  1.1495 -1.4059
   53TMC2    H1  829   4.273   2.198  11.195 -0.5392 -0.5195 -1.2458
   53TMC2    H2  830   4.681   2.332  11.125  0.2335 -0.8587  2.6626
   53TMC2    C7  831   4.472   2.360  11.291  0.0157 -0.3016 -0.0055
   53TMC2    C8  832   4.716   2.147  10.924 -0.1661  1.2675 -0.2663
   53TMC2    O1  833   4.357   2.403  11.308  0.4543  0.8102 -0.4602
   53TMC2    O2  834   4.733   2.031  10.887  1.2504  0.0104 -0.5243
   53TMC2    O5  835   0.017   2.252  10.860  0.0317  0.1163  0.0174
   53TMC2    H5  836   4.724   2.329  10.913 -1.2056 -1.0270  0.9591
   54MPD2     C  837   4.052   1.829  11.015 -0.6255 -0.2293 -0.1729
   54MPD2    C1  838   4.042   1.969  11.016  0.4350 -0.1325 -0.0185
   54MPD2    C2  839   3.919   2.030  11.034  0.4592  0.2562 -0.9865
   54MPD2    C3  840   3.802   1.957  11.052 -0.7395 -0.3112  0.3489
   54MPD2    C4  841   3.811   1.825  11.054 -0.0238 -0.8209 -0.1610
   54MPD2    C5  842   3.936   1.762  11.039  0.3465 -0.0260  0.0832
   54MPD2     H  843   3.906   2.137  11.031  1.3155  0.3553 -1.0121
   54MPD2    H1  844   3.721   1.769  11.074 -0.4699  0.2132  0.7151
   54MPD2    H2  845   4.146   1.778  11.003 -1.4455 -2.0100  1.0238
   54MPD2    H3  846   3.946   1.654  11.043 -0.0753 -0.1752 -2.5559
   54MPD2     N  847   3.674   2.012  11.070  0.4732 -0.1458 -0.2655
   54MPD2    H5  848   3.605   1.953  11.115  0.3891  0.4760  0.4127
   54MPD2    N1  849   4.159   2.056  11.026 -0.7386 -0.1974 -0.2832
   54MPD2    H7  850   4.146   2.157  11.030  0.9627 -0.0486  1.1359
   55TMC2    C1  851   1.176   0.005  17.285  0.2395 -0.3047 -0.4614
   55TMC2    C2  852   1.192   4.700  17.157 -0.5300 -0.1313  0.5489
   55TMC2    C3  853   1.219   4.569  17.144 -0.0056  0.3223  0.2871
   55TMC2    C4  854   1.200   4.665  17.391  0.9466  0.3599  0.0878
   55TMC2    C5  855   1.261   4.546  17.370 -0.1332 -0.1777 -1.3860
   55TMC2    C6  856   1.276   4.497  17.243  0.3495  0.3890 -0.3727
   55TMC2     C  857   1.137   0.143  17.309  0.3340 -0.1344 -0.4411
   55TMC2     O  858   1.090   0.170  17.415 -0.1000 -0.2825 -0.0728
   55TMC2     H  859   1.163   0.023  17.072 -2.1320 -1.7289 -0.0595
   55TMC2    H1  860   1.180   4.708  17.489  0.6617 -0.6183  0.4614
   55TMC2    H2  861   1.296   4.391  17.234  3.1469  0.7470  1.7488
   55TMC2    C7  862   1.284   4.455  17.478  1.2090  0.1551  0.0076
   55TMC2    C8  863   1.260   4.522  17.013  0.4085  0.3935  0.2481
   55TMC2    O1  864   1.363   4.359  17.463  0.1104  0.5178 -0.3566
   55TMC2    O2  865   1.341   4.432  17.005 -0.7208  0.1732 -0.1638
   55TMC2    O5  866   1.150   4.546  16.936 -0.3016 -0.0554 -0.0427
   55TMC2    H5  867   1.077   4.590  16.985 -0.6440 -1.1119  0.3988
   56MPD2     C  868   1.180   0.441  17.093 -0.0859  0.6909  0.3327
   56MPD2    C1  869   1.144   0.372  17.208 -0.7674  0.6438  0.1710
   56MPD2    C2  870   1.093   0.447  17.313 -0.4347 -0.0885 -0.1493
   56MPD2    C3  871   1.074   0.579  17.312  0.2743 -0.5487 -0.1885
   56MPD2    C4  872   1.101   0.639  17.202  0.0995 -0.0900 -0.1297
   56MPD2    C5  873   1.153   0.576  17.094 -0.2859 -0.2293 -0.7254
   56MPD2     H  874   1.066   0.391  17.402 -0.5371  2.0564  1.1584
   56MPD2    H1  875   1.079   0.744  17.186 -0.9008 -0.1512  0.8319
   56MPD2    H2  876   1.212   0.399  16.998  0.4826  0.5505  0.5861
   56MPD2    H3  877   1.172   0.642  17.010  1.0652  0.3147  0.0018
   56MPD2     N  878   1.006   0.635  17.425  0.1488 -0.2779 -0.3843
   56MPD2    H5  879   1.003   0.575  17.507  0.7739 -1.3395 -1.1379
   56MPD2    N1  880   1.165   0.233  17.205 -0.1733  0.0555  0.2791
   56MPD2    H7  881   1.218   0.203  17.123  1.4537  1.2760  0.8860
   57TMC2    C1  882   0.199   0.694  13.385  0.8016  0.0690  0.1423
   57TMC2    C2  883   0.221   0.564  13.429  0.1715  0.0222  0.2625
   57TMC2    C3  884   0.308   0.483  13.354 -0.0750  0.1901  0.3400
   57TMC2    C4  885   0.259   0.738  13.271  0.2153 -0.3639  0.0659
   57TMC2    C5  886   0.347   0.657  13.202  0.0462 -0.1797  0.1151
   57TMC2    C6  887   0.374   0.529  13.242 -0.5788  0.6670  0.5093
   57TMC2     C  888   0.097   0.771  13.442  0.6590  0.0343 -0.5003
   57TMC2     O  889   0.085   0.883  13.396  0.1132  0.3010 -0.2986
   57TMC2     H  890   0.193   0.519  13.524 -0.3977  1.5391  0.8208
   57TMC2    H1  891   0.250   0.836  13.227  0.9752 -0.8027 -1.0797
   57TMC2    H2  892   0.452   0.467  13.198 -0.5421  0.5098  0.7963
   57TMC2    C7  893   0.407   0.688  13.076 -0.1196  1.5319  0.1585
   57TMC2    C8  894   0.343   0.359  13.411 -0.1215 -0.8219  0.3776
   57TMC2    O1  895   0.426   0.803  13.051  0.1479 -0.3209  0.4019
   57TMC2    O2  896   0.356   0.354  13.533  0.0224  0.0489  0.0681
   57TMC2    O5  897   0.398   0.277  13.320  0.0415 -0.0976 -0.3830
   57TMC2    H5  898   0.383   0.305  13.227 -0.6845 -1.5750 -0.7314
   58MPD2     C  899   4.404   0.779  13.717 -0.1960  0.2702 -0.1724
   58MPD2    C1  900   4.460   0.881  13.644 -0.0453  0.5672 -0.8625
   58MPD2    C2  901   4.577   0.849  13.571 -0.0551  0.2023 -0.1607
   58MPD2    C3  902   4.644   0.729  13.587 -0.2124 -1.0684  0.2902
   58MPD2    C4  903   4.583   0.630  13.661  0.9213  0.5681 -0.4963
   58MPD2    C5  904   4.476   0.661  13.738 -0.5965 -0.1790 -0.2735
   58MPD2     H  905   4.618   0.934  13.517 -0.5252  0.0564 -0.7398
   58MPD2    H1  906   4.620   0.528  13.674  0.8320  0.3081 -2.2089
   58MPD2    H2  907   4.310   0.791  13.769 -0.1945  1.1935 -0.3868
   58MPD2    H3  908   4.432   0.587  13.804 -0.5628  0.1191  0.0806
   58MPD2     N  909   0.028   0.695  13.536  0.6604 -0.6317  0.5531
   58MPD2    H5  910   0.054   0.598  13.554  0.8337 -1.1238 -2.3205
   58MPD2    N1  911   4.399   1.003  13.620 -0.2974 -0.1309 -0.2151
   58MPD2    H7  912   4.438   1.059  13.545  1.7458 -0.5396  0.5252
   59TMC2    C1  913   2.054   1.366  12.758 -0.3056  0.1950  0.1832
   59TMC2    C2  914   2.103   1.249  12.815 -0.1073  0.2343  0.2816
   59TMC2    C3  915   2.047   1.133  12.771  0.7066  0.4293 -0.4197
   59TMC2    C4  916   1.972   1.359  12.650  0.0372 -0.5933 -0.2917
   59TMC2    C5  917   1.931   1.238  12.603  0.3329  0.0255 -0.3277
   59TMC2    C6  918   1.961   1.123  12.666 -0.1571  0.5775  0.1449
   59TMC2     C  919   2.112   1.492  12.798  0.2104 -0.5684  0.4943
   59TMC2     O  920   2.037   1.588  12.785 -0.1260 -0.0887  0.0813
   59TMC2     H  921   2.169   1.244  12.901  0.2893  0.3380 -0.0184
   59TMC2    H1  922   1.953   1.447  12.589 -1.2490 -1.0965 -0.5940
   59TMC2    H2  923   1.909   1.031  12.644 -2.0667  1.4207  1.1711
   59TMC2    C7  924   1.872   1.217  12.467  0.4217  0.2484 -0.8933
   59TMC2    C8  925   2.097   1.009  12.829  0.4527  0.4449 -0.2997
   59TMC2    O1  926   1.869   1.098  12.427 -0.2323 -0.0171 -0.8929
   59TMC2    O2  927   2.166   1.000  12.930 -0.3878 -0.1765  0.1076
   59TMC2    O5  928   2.108   0.917  12.732  0.0777 -1.0640  0.0146
   59TMC2    H5  929   2.074   0.961  12.652 -2.0702 -1.1366  0.8987
   60MPD2     C  930   2.253   1.686  12.976  0.3391 -0.2119 -0.1937
   60MPD2    C1  931   2.308   1.576  12.926 -0.2234  0.4662  0.4018
   60MPD2    C2  932   2.435   1.543  12.974  0.2705  0.2096  1.0342
   60MPD2    C3  933   2.508   1.620  13.066 -0.2168  0.1332  0.5852
   60MPD2    C4  934   2.445   1.735  13.100 -0.2370  0.3391  0.3196
   60MPD2    C5  935   2.320   1.769  13.061 -0.2219 -0.2892  0.4922
   60MPD2     H  936   2.478   1.450  12.940 -3.7319 -0.5614 -1.8220
   60MPD2    H1  937   2.499   1.803  13.164  1.6288 -1.3240  0.5332
   60MPD2    H2  938   2.155   1.727  12.955 -0.0210 -1.4506 -0.9436
   60MPD2    H3  939   2.270   1.854  13.106 -2.3313 -1.0293 -0.4479
   60MPD2     N  940   2.636   1.587  13.118  0.4836  0.2074  0.1786
   60MPD2    H5  941   2.684   1.657  13.175 -0.8005  0.9921  0.3018
   60MPD2    N1  942   2.241   1.483  12.849 -0.4213 -0.4645 -0.6228
   60MPD2    H7  943   2.287   1.399  12.816  2.5292  1.1008 -0.4938
   61TMC2    C1  944   2.118   2.288  15.616 -0.4027 -0.4048  0.4444
   61TMC2    C2  945   2.202   2.308  15.721  0.1531  0.9483  0.1262
   61TMC2    C3  946   2.173   2.421  15.791 -0.6185  0.4077  0.3026
   61TMC2    C4  947   2.007   2.369  15.586 -0.1397 -0.2130  0.2988
   61TMC2    C5  948   1.995   2.487  15.658  0.9832  0.3418  0.2439
   61TMC2    C6  949   2.076   2.510  15.768 -0.7093 -0.6761 -0.0744
   61TMC2     C  950   2.152   2.174  15.530 -0.2831 -0.2189  0.0514
   61TMC2     O  951   2.215   2.082  15.587 -0.5551 -0.4277  0.2261
   61TMC2     H  952   2.285   2.251  15.759 -1.0199 -0.2587  0.8643
   61TMC2    H1  953   1.945   2.337  15.504  1.0757  1.8338 -1.4362
   61TMC2    H2  954   2.053   2.592  15.836 -4.8077 -1.0451 -1.0060
   61TMC2    C7  955   1.923   2.595  15.600 -0.0792 -0.2858  0.3246
   61TMC2    C8  956   2.254   2.426  15.913 -0.3765 -0.8746 -0.1209
   61TMC2    O1  957   1.906   2.595  15.479  0.0327  0.1712  0.1579
   61TMC2    O2  958   2.309   2.331  15.966 -0.4510  0.6100 -0.2254
   61TMC2    O5  959   2.272   2.553  15.947  0.0527 -0.1479 -0.5977
   61TMC2    H5  960   2.279   2.613  15.870 -2.0510  0.7013 -0.1422
   62MPD2     C  961   2.166   1.959  15.322  0.0179 -0.0325 -0.6178
   62MPD2    C1  962   2.112   2.079  15.301 -0.2074  0.4742  0.0626
   62MPD2    C2  963   2.049   2.104  15.178 -0.0385  0.3026  1.2615
   62MPD2    C3  964   2.059   2.017  15.072  0.4845 -0.5461 -0.3024
   62MPD2    C4  965   2.106   1.888  15.095  0.5592 -0.0993 -0.1514
   62MPD2    C5  966   2.162   1.867  15.220 -0.4723 -0.1026  0.8612
   62MPD2     H  967   2.023   2.208  15.164 -1.2886 -0.3587 -1.2247
   62MPD2    H1  968   2.106   1.817  15.013 -1.0002 -2.8642  2.2674
   62MPD2    H2  969   2.224   1.935  15.410 -0.4257 -1.3301 -0.6671
   62MPD2    H3  970   2.205   1.768  15.226  0.2424  0.1385 -0.2751
   62MPD2     N  971   2.019   2.054  14.947  0.4816 -0.4409  0.1240
   62MPD2    H5  972   2.004   2.153  14.925  0.8813  0.0352  2.0452
   62MPD2    N1  973   2.106   2.180  15.403 -0.1565 -0.3228 -0.2647
   62MPD2    H7  974   2.059   2.265  15.375 -0.2313  0.3857  2.0442
   63TMC2    C1  975   0.481   2.899  10.079  0.5988 -0.1218 -0.2791
   63TMC2    C2  976   0.605   2.920  10.125  0.3453  0.8416  0.1260
   63TMC2    C3  977   0.674   3.036  10.088  0.2094  0.3319 -0.5212
   63TMC2    C4  978   0.422   2.989   9.990 -0.0657 -0.5787  0.1032
   63TMC2    C5  979   0.489   3.110   9.969  0.6537  0.5729  0.6227
   63TMC2    C6  980   0.612   3.135  10.014  0.7828  0.4103  0.4095
   63TMC2     C  981   0.438   2.761  10.065 -0.2235  0.7450  0.1371
   63TMC2     O  982   0.375   2.735   9.968 -0.4273  0.5252 -0.0947
   63TMC2     H  983   0.671   2.841  10.161  0.8707  1.5528  0.7429
   63TMC2    H1  984   0.324   2.976   9.946 -0.7730 -1.1177  1.8477
   63TMC2    H2  985   0.676   3.217   9.985 -1.2235  1.6155 -0.6277
   63TMC2    C7  986   0.432   3.190   9.857 -0.3427  0.1156  0.0261
   63TMC2    C8  987   0.806   3.067  10.143  0.1944  0.5134  0.5466
   63TMC2    O1  988   0.321   3.170   9.811  0.2060  0.4972 -0.5648
   63TMC2    O2  989   0.903   2.992  10.159  0.6701 -0.2365 -0.4178
   63TMC2    O5  990   0.791   3.179  10.220  0.0737  0.2910  0.1141
   63TMC2    H5  991   0.696   3.204  10.212 -0.1010  0.0123  1.2658
   64MPD2     C  992   0.377   2.268  10.171 -0.0769 -0.3188  0.0769
   64MPD2    C1  993   0.479   2.314  10.247 -0.5544  0.0085 -0.4796
   64MPD2    C2  994   0.506   2.449  10.238  0.4897  0.3734  0.1729
   64MPD2    C3  995   0.439   2.542  10.164 -0.4081  0.5229 -0.2315
   64MPD2    C4  996   0.343   2.491  10.078 -0.4271 -0.3643  0.1237
   64MPD2    C5  997   0.311   2.360  10.089  0.2792 -0.4043 -0.4756
   64MPD2     H  998   0.595   2.492  10.282 -0.7887  1.5921  1.5912
   64MPD2    H1  999   0.277   2.542  10.009  1.2528  1.0074 -0.4441
   64MPD2    H2 1000   0.323   2.173  10.173 -1.0179  0.2344  1.2819
   64MPD2    H3 1001   0.222   2.325  10.039 -0.2136  1.8882 -1.1793
   64MPD2     N 1002   0.481   2.680  10.159  0.2888 -0.3356  0.2947
   64MPD2    H5 1003   0.550   2.712  10.226  0.0919 -0.3104  0.4878
   64MPD2    N1 1004   0.568   2.225  10.314 -0.2794  0.9354  0.1145
   64MPD2    H7 1005   0.652   2.271  10.350  1.4851 -1.8409 -0.4679
   65TMC2    C1 1006   2.851   2.113  15.489 -0.5048 -0.0620 -0.3627
   65TMC2    C2 1007   2.830   2.083  15.355  0.5124 -0.2554  0.1416
   65TMC2    C3 1008   2.851   2.186  15.265 -0.0175  0.2217  0.0909
   65TMC2    C4 1009   2.883   2.245  15.527 -0.6420 -0.1993 -0.1457
   65TMC2    C5 1010   2.894   2.339  15.430  0.4724 -0.4791  0.2766
   65TMC2    C6 1011   2.893   2.311  15.295 -0.1280 -0.2271  0.0600
   65TMC2     C 1012   2.858   2.016  15.594  0.5769  0.6154  0.3611
   65TMC2     O 1013   2.931   2.053  15.686 -0.0171  0.3957  0.1438
   65TMC2     H 1014   2.797   1.985  15.323  1.2830 -0.2275 -0.7584
   65TMC2    H1 1015   2.906   2.273  15.630  0.6789 -1.0629 -0.2027
   65TMC2    H2 1016   2.905   2.385  15.217  2.1402 -1.5699 -0.8772
   65TMC2    C7 1017   2.905   2.482  15.457 -0.2092 -0.6297 -0.1970
   65TMC2    C8 1018   2.790   2.179  15.133  0.1472 -0.3363  0.2370
   65TMC2    O1 1019   2.904   2.558  15.362  0.1816  0.4355  0.5972
   65TMC2    O2 1020   2.768   2.074  15.076 -0.5475  0.7597 -0.5423
   65TMC2    O5 1021   2.704   2.284  15.127 -0.1408 -0.2007 -0.0351
   65TMC2    H5 1022   2.753   2.367  15.147  1.1161 -0.8275 -0.5135
   66MPD2     C 1023   2.857   1.760  15.738 -0.5236 -0.2633 -0.3590
   66MPD2    C1 1024   2.793   1.783  15.620 -0.3791  0.5928 -0.1650
   66MPD2    C2 1025   2.723   1.683  15.565 -0.3204 -0.0118  0.2540
   66MPD2    C3 1026   2.741   1.556  15.608 -0.4038 -0.1954  0.7010
   66MPD2    C4 1027   2.812   1.533  15.722  0.1724 -0.7174  0.3955
   66MPD2    C5 1028   2.866   1.638  15.795 -0.1846  0.6336  0.3347
   66MPD2     H 1029   2.663   1.694  15.475 -2.3474  1.0551  1.7200
   66MPD2    H1 1030   2.829   1.432  15.757 -0.8504 -0.6047  1.2352
   66MPD2    H2 1031   2.910   1.844  15.782  2.2131  0.6019 -5.3249
   66MPD2    H3 1032   2.920   1.618  15.887  0.3117 -1.1557 -0.3373
   66MPD2     N 1033   2.681   1.448  15.549  0.9530  0.3575 -0.7127
   66MPD2    H5 1034   2.687   1.357  15.593  0.6581  0.1993 -1.0000
   66MPD2    N1 1035   2.783   1.912  15.562  0.4157  0.1658  0.0855
   66MPD2    H7 1036   2.728   1.917  15.476  1.7243  2.0610 -0.6290
   67TMC2    C1 1037   2.753   1.506  14.059 -0.1121 -0.2524 -1.4580
   67TMC2    C2 1038   2.718   1.631  14.055  0.5159 -0.1619 -0.3021
   67TMC2    C3 1039   2.780   1.713  14.143 -0.4637  0.2714  0.9813
   67TMC2    C4 1040   2.861   1.463  14.138 -0.1808  0.6062 -0.7795
   67TMC2    C5 1041   2.935   1.555  14.203  0.1228 -0.3305 -0.1100
   67TMC2    C6 1042   2.898   1.683  14.205 -0.1012 -0.0545 -0.1731
   67TMC2     C 1043   2.683   1.412  13.979  0.1534 -0.3075 -0.4420
   67TMC2     O 1044   2.738   1.309  13.946  0.4242  0.2739 -0.3140
   67TMC2     H 1045   2.649   1.676  13.985 -0.0569 -1.0458 -0.3014
   67TMC2    H1 1046   2.888   1.358  14.151  0.2478  0.7179 -0.7502
   67TMC2    H2 1047   2.966   1.756  14.246  1.0559 -1.0660 -0.2632
   67TMC2    C7 1048   3.044   1.508  14.277  0.3061  0.4501 -0.1088
   67TMC2    C8 1049   2.756   1.858  14.121 -0.9256  0.7235  0.1765
   67TMC2    O1 1050   3.110   1.417  14.223 -0.0018  0.8309 -0.1992
   67TMC2    O2 1051   2.746   1.911  14.009  0.7833 -0.5723 -0.6317
   67TMC2    O5 1052   2.811   1.930  14.228 -0.3621 -0.8097  0.8758
   67TMC2    H5 1053   2.839   1.872  14.303 -0.4207  0.0715  1.5758
   68MPD2     C 1054   2.472   1.302  13.785  0.2858  0.3842  0.0247
   68MPD2    C1 1055   2.454   1.408  13.869  0.4158 -0.0140  0.2191
   68MPD2    C2 1056   2.336   1.482  13.852 -0.2260  0.0499  0.0214
   68MPD2    C3 1057   2.244   1.453  13.749  0.6047 -0.1616  0.7231
   68MPD2    C4 1058   2.251   1.330  13.677  0.0579 -0.4282 -0.2673
   68MPD2    C5 1059   2.368   1.261  13.698 -0.4320  0.2739 -0.4403
   68MPD2     H 1060   2.337   1.576  13.905  0.6453 -0.0441  0.1727
   68MPD2    H1 1061   2.174   1.300  13.607 -0.3265 -1.4296  0.5866
   68MPD2    H2 1062   2.562   1.245  13.802  1.2470  1.3720 -1.6912
   68MPD2    H3 1063   2.380   1.168  13.643  1.3761  0.1631  0.1448
   68MPD2     N 1064   2.130   1.533  13.725  0.0200  0.0277  0.4555
   68MPD2    H5 1065   2.064   1.498  13.657  0.9805  0.3529 -0.6400
   68MPD2    N1 1066   2.554   1.462  13.957  0.1104 -0.5159  0.1256
   68MPD2    H7 1067   2.529   1.539  14.018 -1.0418 -0.9956  0.2590
   69TMC2    C1 1068   4.691   2.515  12.208 -0.0352 -0.0201  0.0509
   69TMC2    C2 1069   4.709   2.654  12.187 -0.6929 -1.1097  0.6919
   69TMC2    C3 1070   0.061   2.692  12.092  0.0744  0.3500  0.3744
   69TMC2    C4 1071   0.020   2.425  12.134 -0.2002  0.1702 -0.8337
   69TMC2    C5 1072   0.117   2.464  12.048  0.1780  0.4706 -0.0631
   69TMC2    C6 1073   0.130   2.596  12.013 -0.5288  0.5607  0.6074
   69TMC2     C 1074   4.588   2.462  12.300 -0.4744  0.3159  0.6715
   69TMC2     O 1075   4.584   2.341  12.317 -0.5470 -0.9658  0.7517
   69TMC2     H 1076   4.678   2.726  12.262  1.9294 -0.6593  1.3362
   69TMC2    H1 1077   4.728   2.323  12.153  0.3516  0.2240  0.3524
   69TMC2    H2 1078   0.209   2.631  11.947  0.3005 -2.9458 -0.3009
   69TMC2    C7 1079   0.218   2.371  11.998 -0.0129 -0.3910  0.2337
   69TMC2    C8 1080   0.127   2.816  12.111  0.0189  0.1208  0.1696
   69TMC2    O1 1081   0.306   2.420  11.929  0.6777  0.2136  0.4146
   69TMC2    O2 1082   0.076   2.916  12.061  0.1993  0.0902  0.2134
   69TMC2    O5 1083   0.184   2.811  12.231  0.3177  0.9583  0.1983
   69TMC2    H5 1084   0.204   2.718  12.257  0.1026  0.8284 -0.1110
   70MPD2     C 1085   4.299   2.620  12.475  0.4240  0.3411 -0.9749
   70MPD2    C1 1086   4.401   2.530  12.450 -0.2877 -0.8245 -0.1199
   70MPD2    C2 1087   4.389   2.412  12.523  0.2600  0.2847 -0.2025
   70MPD2    C3 1088   4.284   2.391  12.614 -0.2604 -0.5650 -0.8115
   70MPD2    C4 1089   4.195   2.489  12.639  0.3576 -0.1380 -0.2379
   70MPD2    C5 1090   4.199   2.604  12.565 -0.4897 -0.1228 -0.3295
   70MPD2     H 1091   4.466   2.336  12.515 -0.5718 -0.5981  0.2499
   70MPD2    H1 1092   4.109   2.478  12.704  1.5983  0.2416  1.4697
   70MPD2    H2 1093   4.300   2.707  12.410 -0.6987  0.1732 -1.2179
   70MPD2    H3 1094   4.123   2.680  12.578 -1.8345 -1.6621  0.8827
   70MPD2     N 1095   4.266   2.279  12.692 -0.1733  0.3312 -0.5310
   70MPD2    H5 1096   4.195   2.288  12.765  0.9098 -0.4935  0.6174
   70MPD2    N1 1097   4.503   2.560  12.352  0.3376  0.3944  0.6600
   70MPD2    H7 1098   4.505   2.650  12.306 -1.0368  1.0786  1.9373
   71TMC2    C1 1099   2.156   3.063   1.596 -0.1319  0.3186 -0.4518
   71TMC2    C2 1100   2.191   2.961   1.671  0.1358  0.1913 -0.4255
   71TMC2    C3 1101   2.119   2.941   1.787  0.1568 -0.2105  0.0903
   71TMC2    C4 1102   2.054   3.151   1.630 -0.0527  0.5071 -0.1534
   71TMC2    C5 1103   1.986   3.130   1.746  0.3854 -0.8649  0.3589
   71TMC2    C6 1104   2.023   3.026   1.830 -0.0050  0.2719  0.0364
   71TMC2     C 1105   2.209   3.060   1.464 -0.3594 -0.5175  0.0807
   71TMC2     O 1106   2.306   2.988   1.445  0.2339  0.0020  0.3714
   71TMC2     H 1107   2.262   2.885   1.643 -2.6699 -2.1062 -1.3327
   71TMC2    H1 1108   2.030   3.245   1.583  0.6992  1.5996  1.6447
   71TMC2    H2 1109   1.971   3.023   1.926 -1.8950 -0.3009 -1.0056
   71TMC2    C7 1110   1.872   3.217   1.786  0.3502  0.2201  0.0519
   71TMC2    C8 1111   2.186   2.871   1.893  0.1919 -0.2140 -0.1524
   71TMC2    O1 1112   1.859   3.260   1.903  0.2992  0.4334 -0.1319
   71TMC2    O2 1113   2.129   2.771   1.932  0.2490  0.5756 -0.3622
   71TMC2    O5 1114   2.324   2.890   1.880  0.1672 -0.0859  0.5109
   71TMC2    H5 1115   2.346   2.980   1.846  1.8071 -0.0375  1.6937
   72MPD2     C 1116   2.067   3.099   0.973  0.7220  0.5644  0.3649
   72MPD2    C1 1117   2.188   3.058   1.024  0.2700  0.0056 -0.1776
   72MPD2    C2 1118   2.208   3.068   1.161  0.0663  0.0329 -0.3888
   72MPD2    C3 1119   2.107   3.107   1.241 -0.4277  0.4653 -0.1485
   72MPD2    C4 1120   1.988   3.158   1.191 -0.1684  0.0175  0.1353
   72MPD2    C5 1121   1.970   3.159   1.055  0.6801  0.7153 -0.2289
   72MPD2     H 1122   2.303   3.032   1.199 -0.7786 -1.4911  0.2577
   72MPD2    H1 1123   1.899   3.182   1.248  0.4054  2.7314 -0.1176
   72MPD2    H2 1124   2.049   3.099   0.866  0.9023  0.7650  0.3335
   72MPD2    H3 1125   1.873   3.194   1.021 -1.8001 -3.6651  2.2373
   72MPD2     N 1126   2.109   3.107   1.380 -0.6711  0.0871 -0.2362
   72MPD2    H5 1127   2.020   3.130   1.423 -1.3281 -0.9904 -1.0064
   72MPD2    N1 1128   2.298   3.020   0.940  0.4605 -0.1673 -0.6603
   72MPD2    H7 1129   2.393   3.011   0.973  1.0149 -0.8792 -2.4957
   73TMC2    C1 1130   1.805   4.707  13.962 -0.5613  0.1873  0.5715
   73TMC2    C2 1131   1.797   4.595  13.887  0.0114 -0.5357  0.4444
   73TMC2    C3 1132   1.889   4.495  13.904  0.5222 -0.3453  0.2610
   73TMC2    C4 1133   1.911   4.719  14.054  0.3163 -0.1762  0.6356
   73TMC2    C5 1134   2.008   4.625  14.060  0.8878 -0.4774 -0.4970
   73TMC2    C6 1135   2.001   4.516  13.984  0.3388  0.6608 -1.0743
   73TMC2     C 1136   1.812   0.085  13.879 -0.2226  0.6843 -0.7211
   73TMC2     O 1137   1.889   0.173  13.920 -0.6855 -0.1238 -0.3313
   73TMC2     H 1138   1.710   4.577  13.826  0.1808 -0.1646  0.0952
   73TMC2    H1 1139   1.923   0.067  14.118 -0.6036  1.4323 -1.3369
   73TMC2    H2 1140   2.083   4.446  13.996  0.7178  1.0876 -1.1722
   73TMC2    C7 1141   2.136   4.680  14.061  0.1152 -0.4237  0.1530
   73TMC2    C8 1142   1.897   4.404  13.796  0.0728 -0.0472 -0.2272
   73TMC2    O1 1143   2.220   4.611  14.119 -0.1543  0.0071 -0.2648
   73TMC2    O2 1144   1.993   4.388  13.723 -0.1332  0.6327 -0.4685
   73TMC2    O5 1145   1.794   4.321  13.820  0.3089 -0.0955  0.2178
   73TMC2    H5 1146   1.730   4.345  13.891 -0.2629 -0.6817 -0.0992
   74MPD2     C 1147   1.637   0.412  13.533 -0.8257 -0.2568 -0.0119
   74MPD2    C1 1148   1.754   0.415  13.601 -0.7337 -0.0431  0.9101
   74MPD2    C2 1149   1.780   0.306  13.677  0.0403  0.9041 -0.5460
   74MPD2    C3 1150   1.687   0.205  13.696 -0.4541 -0.0584 -0.3216
   74MPD2    C4 1151   1.571   0.205  13.626 -0.3609 -0.1578 -0.1965
   74MPD2    C5 1152   1.544   0.308  13.542  0.1085 -0.2409  0.2626
   74MPD2     H 1153   1.868   0.301  13.740 -0.0327  3.0617 -0.2802
   74MPD2    H1 1154   1.498   0.127  13.645 -1.0531  0.4835 -0.2148
   74MPD2    H2 1155   1.601   0.496  13.475 -0.5177 -0.3762 -0.3778
   74MPD2    H3 1156   1.454   0.310  13.483  0.0018  0.2172  0.4448
   74MPD2     N 1157   1.711   0.094  13.784 -0.6176 -0.0253 -0.1050
   74MPD2    H5 1158   1.639   0.023  13.780 -0.0633 -0.6952  1.7623
   74MPD2    N1 1159   1.846   0.528  13.575  0.0202 -0.1827  0.2310
   74MPD2    H7 1160   1.825   0.609  13.519 -1.5922  0.8496  2.3145
   75TMC2    C1 1161   1.984   1.729  13.753  0.2236 -1.8862 -0.1123
   75TMC2    C2 1162   1.972   1.852  13.810 -0.9907  1.0415 -0.0558
   75TMC2    C3 1163   1.853   1.917  13.810  0.7145 -0.2297  0.4205
   75TMC2    C4 1164   1.877   1.665  13.696 -0.1346 -0.4530 -0.0705
   75TMC2    C5 1165   1.756   1.725  13.714  0.2088 -0.1345  0.1788
   75TMC2    C6 1166   1.743   1.854  13.761  0.8954 -0.1109  0.7453
   75TMC2     C 1167   2.092   1.643  13.802 -0.9708  0.6631  0.1537
   75TMC2     O 1168   2.129   1.669  13.912 -0.0869 -0.1804 -0.4549
   75TMC2     H 1169   2.066   1.889  13.850  1.0301 -2.7105 -1.2702
   75TMC2    H1 1170   1.878   1.563  13.660 -0.9003  0.3764 -2.4768
   75TMC2    H2 1171   1.646   1.903  13.762  0.0275 -1.7911 -1.5793
   75TMC2    C7 1172   1.631   1.660  13.657  0.1535 -0.0244 -0.4453
   75TMC2    C8 1173   1.863   2.061  13.833  0.5846  0.3098 -0.4556
   75TMC2    O1 1174   1.639   1.579  13.569 -0.0060 -0.3283  0.3001
   75TMC2    O2 1175   1.927   2.100  13.929 -0.3334 -0.1523  0.4355
   75TMC2    O5 1176   1.798   2.139  13.745 -0.4210  0.0709  0.6343
   75TMC2    H5 1177   1.760   2.086  13.671 -1.8884 -1.4567  2.5109
   76TMC2    C1 1178   1.006   1.150  11.891 -0.0068 -0.1716  0.1721
   76TMC2    C2 1179   1.021   1.020  11.859 -0.7886  0.6028  0.1698
   76TMC2    C3 1180   1.055   0.934  11.962  0.3366  0.4252 -0.6823
   76TMC2    C4 1181   1.017   1.191  12.021 -0.2202 -0.4495  0.0931
   76TMC2    C5 1182   1.047   1.099  12.114 -0.0911 -0.0737 -0.7502
   76TMC2    C6 1183   1.067   0.970  12.092  0.4517  0.4514  0.2135
   76TMC2     C 1184   0.994   1.264  11.800  0.4347 -0.0813  0.0067
   76TMC2     O 1185   0.941   1.368  11.835 -0.1151  0.4719 -0.1322
   76TMC2     H 1186   1.028   0.974  11.761  0.3474 -0.3744  0.7027
   76TMC2    H1 1187   0.995   1.293  12.051 -1.4387 -0.6671 -0.0363
   76TMC2    H2 1188   1.104   0.901  12.166 -3.0954 -0.8125  0.7997
   76TMC2    C7 1189   1.029   1.129  12.258  0.2540 -0.7884 -0.9762
   76TMC2    C8 1190   1.081   0.798  11.917 -0.4462 -0.3170  0.2403
   76TMC2    O1 1191   1.021   1.027  12.325 -0.1087 -0.6289 -0.4061
   76TMC2    O2 1192   1.148   0.723  11.982 -0.0263  0.6665 -0.2064
   76TMC2    O5 1193   0.962   0.776  11.860 -0.1037  1.0180 -0.4748
   76TMC2    H5 1194   0.911   0.858  11.841  1.2337  1.7098 -1.0662
   77MPD2     C 1195   0.997   1.463  11.319  0.1730  0.4406  0.8264
   77MPD2    C1 1196   0.942   1.514  11.436  0.2855 -0.6625  0.0179
   77MPD2    C2 1197   0.945   1.428  11.548 -0.3397  0.5698 -0.1688
   77MPD2    C3 1198   1.012   1.309  11.556  0.4394 -0.2821 -0.2135
   77MPD2    C4 1199   1.059   1.266  11.434 -0.3047 -0.1059 -0.3675
   77MPD2    C5 1200   1.053   1.340  11.319 -0.1053 -0.0055 -0.0819
   77MPD2     H 1201   0.897   1.455  11.641  0.7022 -1.6726  1.0404
   77MPD2    H1 1202   1.102   1.169  11.411  1.4794  0.6053 -0.0551
   77MPD2    H2 1203   0.987   1.516  11.225 -3.0548 -0.3031  0.7549
   77MPD2    H3 1204   1.092   1.301  11.226  0.4211 -0.8129  0.4700
   77MPD2     N 1205   1.030   1.228  11.673  0.5017 -0.1845 -0.0438
   77MPD2    H5 1206   1.077   1.139  11.660  2.5152  1.0080 -0.9144
   77MPD2    N1 1207   0.877   1.640  11.437 -0.3416 -0.2696  0.1668
   77MPD2    H7 1208   0.897   1.699  11.358 -0.0433  0.7931  1.0396
   78TMC2    C1 1209   2.329   1.600   1.576 -0.5540  0.6781  0.8368
   78TMC2    C2 1210   2.244   1.704   1.607 -0.2604 -0.6982  0.4022
   78TMC2    C3 1211   2.270   1.833   1.560  0.6072  0.0783  0.2543
   78TMC2    C4 1212   2.443   1.625   1.496  0.5371  0.0742 -0.6439
   78TMC2    C5 1213   2.467   1.751   1.448  0.4859  0.5122 -0.3510
   78TMC2    C6 1214   2.384   1.859   1.483  0.5876  0.1171  0.6861
   78TMC2     C 1215   2.274   1.465   1.604 -0.1366  0.1367  0.2412
   78TMC2     O 1216   2.199   1.453   1.699 -0.1335  0.4885  0.1797
   78TMC2     H 1217   2.163   1.687   1.677 -2.3613  0.8243 -1.6207
   78TMC2    H1 1218   2.502   1.539   1.469 -0.3612 -1.1385  1.2346
   78TMC2    H2 1219   2.403   1.961   1.453  0.0848  0.7491  2.4911
   78TMC2    C7 1220   2.580   1.772   1.359  0.1054  0.8443 -0.5888
   78TMC2    C8 1221   2.199   1.949   1.605 -0.2004 -0.6591  0.5444
   78TMC2    O1 1222   2.597   1.882   1.304  0.1863 -0.0384 -0.4943
   78TMC2    O2 1223   2.254   2.059   1.613 -0.2638  0.3534 -0.2113
   78TMC2    O5 1224   2.067   1.927   1.605  0.1064 -0.9650  0.2296
   78TMC2    H5 1225   2.050   1.831   1.592  0.5823 -1.1483  0.9712
   79MPD1     C 1226   2.150   0.972   1.475 -0.5507 -0.4142  0.0985
   79MPD1    C1 1227   2.114   1.053   1.583  0.2565  0.2020 -0.0507
   79MPD1    C2 1228   2.162   1.184   1.592 -0.7571 -0.8983  0.3107
   79MPD1    C3 1229   2.249   1.236   1.502 -0.0206 -0.1339 -0.4638
   79MPD1    C4 1230   2.289   1.152   1.400 -0.0380  0.7915  0.2081
   79MPD1    C5 1231   2.248   1.020   1.388  0.5860  0.5232  0.0106
   79MPD1     H 1232   2.126   1.239   1.678 -2.4134  0.7320 -1.4160
   79MPD1    H1 1233   2.355   1.193   1.324 -0.0506 -1.5922 -1.0627
   79MPD1    H2 1234   2.093   0.882   1.457 -0.6691 -0.4451  0.6409
   79MPD1    H3 1235   2.285   0.960   1.305 -0.9330  0.9997 -0.9941
   79MPD1     N 1236   2.304   1.365   1.511  0.1611 -0.3118 -0.0951
   79MPD1    H5 1237   2.362   1.393   1.432  0.2186  0.0161  0.0618
   79MPD1    N1 1238   2.003   1.025   1.669 -0.2333 -0.0519  0.3178
   79MPD1    H6 1239   2.016   1.079   1.755 -0.2170 -1.7047  1.3567
   79MPD1    H7 1240   1.984   0.928   1.695 -1.6114  0.2150  0.3377
   80TMC2    C1 1241   4.413   1.694  11.243 -0.6276  0.7483  0.2927
   80TMC2    C2 1242   4.472   1.686  11.118 -0.0103  0.4098  0.3366
   80TMC2    C3 1243   4.412   1.603  11.031  0.0792 -0.2698 -0.1314
   80TMC2    C4 1244   4.324   1.603  11.292  1.0059 -0.1996 -0.5054
   80TMC2    C5 1245   4.280   1.503  11.207  0.7019  0.3103 -0.4188
   80TMC2    C6 1246   4.325   1.504  11.075 -0.4218 -0.2864  0.1071
   80TMC2     C 1247   4.474   1.785  11.333  0.0261 -0.1375  0.0353
   80TMC2     O 1248   4.588   1.820  11.302  0.2443 -0.0151 -0.8840
   80TMC2     H 1249   4.543   1.758  11.081  2.2049 -1.0313  1.7944
   80TMC2    H1 1250   4.294   1.620  11.395  0.6191 -0.5654 -0.5594
   80TMC2    H2 1251   4.277   1.436  11.006 -0.3647 -0.0019 -0.2104
   80TMC2    C7 1252   4.193   1.395  11.251 -0.1663  0.0017 -0.1038
   80TMC2    C8 1253   4.450   1.585  10.896 -0.2140 -0.1336  0.2183
   80TMC2    O1 1254   4.147   1.323  11.162 -0.2094  0.2006  0.3120
   80TMC2    O2 1255   4.464   1.475  10.840  0.2131  0.4015 -0.5666
   80TMC2    O5 1256   4.472   1.716  10.852  0.2495 -0.1657 -0.0196
   80TMC2    H5 1257   4.426   1.784  10.906 -0.1633 -0.0752 -0.4967
   81MPD2     C 1258   4.576   1.982  11.549  0.1824  0.3199 -0.3916
   81MPD2    C1 1259   4.443   1.931  11.529  0.4012  0.2738  0.7864
   81MPD2    C2 1260   4.344   1.995  11.606 -0.5347  0.7874 -0.3025
   81MPD2    C3 1261   4.373   2.098  11.701  0.2231 -0.4955 -0.4005
   81MPD2    C4 1262   4.501   2.132  11.722  0.3216  0.5514 -0.1632
   81MPD2    C5 1263   4.599   2.072  11.644 -0.1355 -0.4696 -0.2403
   81MPD2     H 1264   4.241   1.970  11.584 -0.9816  2.7857 -0.4753
   81MPD2    H1 1265   4.528   2.204  11.799  0.2152 -0.0235  0.4165
   81MPD2    H2 1266   4.655   1.963  11.478 -0.6976  0.3411 -1.3762
   81MPD2    H3 1267   4.697   2.119  11.648 -0.5178  0.1040  2.2117
   81MPD2     N 1268   4.275   2.180  11.764  0.2006 -0.8030 -0.1180
   81MPD2    H5 1269   4.291   2.232  11.849 -1.4318  0.1740 -0.3997
   81MPD2    N1 1270   4.398   1.835  11.435  0.1878  0.3297  0.3966
   81MPD2    H7 1271   4.301   1.805  11.439  0.1107  0.4684 -0.4149
   82TMC2    C1 1272   2.175   1.154  10.792 -0.5047 -0.1790 -0.4897
   82TMC2    C2 1273   2.236   1.258  10.861  0.1863 -0.0263 -0.5891
   82TMC2    C3 1274   2.294   1.217  10.985  0.2712 -0.7045 -0.6471
   82TMC2    C4 1275   2.149   1.024  10.843  0.3845  0.6595  0.5439
   82TMC2    C5 1276   2.209   0.999  10.967 -0.7127 -0.4275  0.0599
   82TMC2    C6 1277   2.286   1.092  11.030 -0.0258  0.8497  0.3515
   82TMC2     C 1278   2.124   1.184  10.664 -0.0343 -0.5156  0.6040
   82TMC2     O 1279   2.103   1.303  10.646 -0.0739 -0.0454 -0.1424
   82TMC2     H 1280   2.236   1.356  10.814  1.1811  1.6358  2.8464
   82TMC2    H1 1281   2.087   0.949  10.796 -0.3943  1.4412  0.3175
   82TMC2    H2 1282   2.327   1.066  11.127 -1.8645 -2.2455  0.3224
   82TMC2    C7 1283   2.175   0.877  11.046  0.1242 -0.1097 -0.5667
   82TMC2    C8 1284   2.364   1.312  11.064  0.4690  1.4608 -0.0927
   82TMC2    O1 1285   2.187   0.890  11.168 -0.6898 -0.0762 -0.2274
   82TMC2    O2 1286   2.354   1.298  11.186  0.3306 -0.0863 -0.0549
   82TMC2    O5 1287   2.422   1.414  10.994  0.2770  0.3204  0.2935
   82TMC2    H5 1288   2.433   1.387  10.900 -0.9392 -2.6209  1.0092
   83MPD2     C 1289   2.184   1.104  10.172  0.1585 -0.5364 -0.0591
   83MPD2    C1 1290   2.095   1.191  10.226  0.5904  0.2371  0.1174
   83MPD2    C2 1291   2.066   1.184  10.366  0.0666 -0.5687 -0.1706
   83MPD2    C3 1292   2.132   1.085  10.437 -1.3595 -0.1271 -0.2875
   83MPD2    C4 1293   2.209   0.982  10.372  0.1086  0.3052  0.3738
   83MPD2    C5 1294   2.233   0.992  10.237  0.3512  0.4956 -0.6770
   83MPD2     H 1295   1.993   1.246  10.417 -0.4368 -0.8823 -0.5086
   83MPD2    H1 1296   2.247   0.899  10.430 -1.8770 -1.0079 -0.2371
   83MPD2    H2 1297   2.210   1.127  10.069  1.2173 -1.6398 -0.0326
   83MPD2    H3 1298   2.298   0.924  10.182  1.3658 -0.3421  1.5495
   83MPD2     N 1299   2.147   1.080  10.578 -0.6715 -0.1559 -0.5651
   83MPD2    H5 1300   2.176   0.991  10.617 -0.7279  1.5392  3.2765
   83MPD2    N1 1301   2.052   1.298  10.150  1.0775 -0.1237  0.1485
   83MPD2    H7 1302   2.101   1.297  10.061 -0.5996 -1.0115 -0.7659
   84TMC2    C1 1303   3.967   0.712  10.429  0.1980 -0.3651 -0.1879
   84TMC2    C2 1304   4.094   0.695  10.456  0.7637 -0.8286 -0.0925
   84TMC2    C3 1305   4.185   0.710  10.359  0.2852 -0.1272 -0.1270
   84TMC2    C4 1306   3.919   0.723  10.299 -0.8267 -0.3289 -0.1305
   84TMC2    C5 1307   4.011   0.731  10.203 -0.3797  0.7195 -0.0907
   84TMC2    C6 1308   4.145   0.733  10.234  0.0266  0.1135  0.9662
   84TMC2     C 1309   3.868   0.732  10.530 -0.3686  0.0458 -0.0402
   84TMC2     O 1310   3.767   0.800  10.495  0.2963  0.3764 -0.3138
   84TMC2     H 1311   4.124   0.649  10.550 -0.3022  1.5260  1.3887
   84TMC2    H1 1312   3.813   0.727  10.275 -1.4602 -0.7221  2.6249
   84TMC2    H2 1313   4.224   0.737  10.160  0.1039 -0.0918  1.0389
   84TMC2    C7 1314   3.966   0.680  10.073 -0.4360 -0.5868 -0.2840
   84TMC2    C8 1315   4.307   0.636  10.358 -0.0430 -0.1343  0.4835
   84TMC2    O1 1316   3.867   0.608  10.066  0.5098  0.1138 -0.0936
   84TMC2    O2 1317   4.354   0.582  10.262 -0.2818  0.2831 -0.0451
   84TMC2    O5 1318   4.370   0.648  10.478 -0.5351 -0.1897 -0.1379
   84TMC2    H5 1319   4.312   0.700  10.539 -0.4075 -1.2014  0.8386
   85TMC2    C1 1320   0.318   3.374  15.821 -0.1434 -0.5324  0.4828
   85TMC2    C2 1321   0.243   3.466  15.881  0.0890 -0.5223  0.0757
   85TMC2    C3 1322   0.264   3.597  15.842 -0.0913 -0.4261  0.1274
   85TMC2    C4 1323   0.410   3.408  15.719  0.7060 -0.6930  0.1054
   85TMC2    C5 1324   0.424   3.539  15.674  0.4591 -0.4579 -0.0741
   85TMC2    C6 1325   0.347   3.630  15.737 -0.3554  0.0533 -0.8801
   85TMC2     C 1326   0.317   3.237  15.870  1.0805 -0.0928  0.0605
   85TMC2     O 1327   0.422   3.177  15.876  0.3127  0.2799  0.1402
   85TMC2     H 1328   0.179   3.436  15.962  0.7044 -2.8662 -0.3200
   85TMC2    H1 1329   0.476   3.330  15.684  0.0335 -1.3350  0.2639
   85TMC2    H2 1330   0.364   3.732  15.704 -3.7158  0.3608 -1.7193
   85TMC2    C7 1331   0.474   3.551  15.540 -0.4489 -0.3352 -0.1204
   85TMC2    C8 1332   0.192   3.703  15.902 -0.3086  0.0462  0.1203
   85TMC2    O1 1333   0.555   3.472  15.497 -0.0488  0.3469 -0.0125
   85TMC2    O2 1334   0.169   3.804  15.834 -0.6723 -0.7796  0.5647
   85TMC2    O5 1335   0.154   3.670  16.028 -0.2578  0.0266 -0.3250
   85TMC2    H5 1336   0.206   3.599  16.071 -1.2043  0.1412  1.0055
   86MPD2     C 1337   0.150   2.889  16.210 -0.1797  0.3409  0.0209
   86MPD2    C1 1338   0.048   2.913  16.118  0.1703  0.5902  0.7274
   86MPD2    C2 1339   0.066   3.007  16.016 -0.1677 -0.1942  0.0380
   86MPD2    C3 1340   0.186   3.075  16.008  0.4017  0.2060 -0.1777
   86MPD2    C4 1341   0.288   3.051  16.095  0.0281  0.3227 -0.7467
   86MPD2    C5 1342   0.264   2.955  16.193  0.1238  1.0731  0.2399
   86MPD2     H 1343   4.717   3.030  15.956 -0.8563 -2.1933  0.2569
   86MPD2    H1 1344   0.380   3.108  16.096  0.1179  0.1323  1.2948
   86MPD2    H2 1345   0.148   2.819  16.293  1.3290 -0.1632 -0.3665
   86MPD2    H3 1346   0.339   2.939  16.269 -0.3750  1.3466  0.7847
   86MPD2     N 1347   0.196   3.187  15.923 -0.0882 -0.0115 -0.5841
   86MPD2    H5 1348   0.109   3.227  15.890 -0.6690 -0.8553 -0.0840
   86MPD2    N1 1349   4.670   2.831  16.122 -0.6757 -0.7577 -0.2365
   86MPD2    H7 1350   4.612   2.818  16.041 -0.7379 -2.4704  0.0941
   87TMC2    C1 1351   2.134   1.429   0.770 -0.0993 -0.2905 -0.2996
   87TMC2    C2 1352   2.041   1.342   0.817 -0.4328  0.0490  0.9264
   87TMC2    C3 1353   1.931   1.401   0.885  0.3381  0.5465  0.7251
   87TMC2    C4 1354   2.125   1.566   0.794 -0.2680 -0.1535  0.3542
   87TMC2    C5 1355   2.029   1.613   0.880 -0.3205  0.3318 -0.4387
   87TMC2    C6 1356   1.927   1.531   0.924 -0.0241 -0.3198 -0.1344
   87TMC2     C 1357   2.224   1.379   0.669  0.0562 -0.8665 -0.3980
   87TMC2     O 1358   2.263   1.456   0.582 -0.1091  0.2176 -0.0018
   87TMC2     H 1359   2.043   1.236   0.795 -0.2288  0.5325 -1.3673
   87TMC2    H1 1360   2.203   1.629   0.753 -0.2148 -0.3135  0.2123
   87TMC2    H2 1361   1.837   1.569   0.972  0.8772 -0.9131  1.9984
   87TMC2    C7 1362   2.036   1.751   0.923  0.4096  0.1252 -0.8492
   87TMC2    C8 1363   1.813   1.327   0.935  0.2829 -0.0364  0.2266
   87TMC2    O1 1364   2.121   1.818   0.863 -0.0326  0.4019  0.2499
   87TMC2    O2 1365   1.737   1.363   1.023  0.2795 -0.1010  0.0458
   87TMC2    O5 1366   1.836   1.197   0.887  0.1319 -0.3069  0.0316
   87TMC2    H5 1367   1.856   1.207   0.791 -1.3211  0.0547 -0.2229
   88MPD2     C 1368   1.860   1.897   1.214  0.2858 -0.5023  0.6556
   88MPD2    C1 1369   1.933   1.895   1.093  0.4472 -0.0367 -0.2867
   88MPD2    C2 1370   2.002   2.009   1.050  0.3527  0.3383  1.0152
   88MPD2    C3 1371   1.983   2.126   1.117  0.0457  0.5379 -0.3537
   88MPD2    C4 1372   1.917   2.126   1.238 -0.5414 -0.4166  0.0185
   88MPD2    C5 1373   1.851   2.011   1.285  0.0821  0.2826  0.3633
   88MPD2     H 1374   2.041   2.013   0.950 -0.0326  0.7882  0.8813
   88MPD2    H1 1375   1.928   2.214   1.300  2.0209 -0.3007 -0.6054
   88MPD2    H2 1376   1.803   1.812   1.250 -0.5709  0.3911  1.4179
   88MPD2    H3 1377   1.788   2.008   1.372 -1.0642  0.5112 -0.4582
   88MPD2     N 1378   2.026   2.253   1.079  0.6960 -0.3204 -0.1248
   88MPD2    H5 1379   1.991   2.335   1.129 -1.7433  0.5708 -3.3128
   88MPD2    N1 1380   1.943   1.779   1.023  0.0002 -0.3524 -0.1211
   88MPD2    H7 1381   1.890   1.698   1.051  0.2152 -0.0193  1.2624
   89TMC2    C1 1382   2.725   0.285   1.448 -0.4154 -0.3303 -0.3219
   89TMC2    C2 1383   2.765   0.403   1.501 -0.1260 -0.7584 -0.8798
   89TMC2    C3 1384   2.818   0.498   1.416 -0.6120 -0.0879  0.1787
   89TMC2    C4 1385   2.743   0.259   1.315 -0.8995  0.1305  0.0839
   89TMC2    C5 1386   2.798   0.356   1.231  0.1436  0.1528 -0.1229
   89TMC2    C6 1387   2.845   0.478   1.282 -0.7767 -0.1674 -0.1465
   89TMC2     C 1388   2.700   0.175   1.537  0.1064  0.5196  0.1455
   89TMC2     O 1389   2.664   0.216   1.646  0.5210  0.2636  0.2414
   89TMC2     H 1390   2.759   0.422   1.608  2.1981  0.5438 -0.9718
   89TMC2    H1 1391   2.695   0.169   1.279  2.7414 -1.3925 -0.9526
   89TMC2    H2 1392   2.902   0.550   1.225  0.4147 -0.6466  0.4348
   89TMC2    C7 1393   2.811   0.321   1.092  0.2841 -0.4073 -0.0778
   89TMC2    C8 1394   2.794   0.635   1.455 -0.6439  0.0118  0.3791
   89TMC2    O1 1395   2.732   0.244   1.042  0.2527  0.2584 -0.3582
   89TMC2    O2 1396   2.866   0.725   1.415 -0.0531  0.1344 -0.3335
   89TMC2    O5 1397   2.670   0.638   1.510  0.6001  0.2779  0.2137
   89TMC2    H5 1398   2.628   0.551   1.493 -1.4701  1.2976  0.2278
   90MPD2     C 1399   2.753   4.457   1.735 -0.1093 -0.2051  0.6913
   90MPD2    C1 1400   2.825   4.461   1.620  0.2831  0.7635  0.1553
   90MPD2    C2 1401   2.826   4.573   1.540  0.4008  0.0451  0.1676
   90MPD2    C3 1402   2.740   4.677   1.582 -1.4947  0.1990 -0.2485
   90MPD2    C4 1403   2.670   4.674   1.696  0.2999 -0.8693 -0.0108
   90MPD2    C5 1404   2.681   4.567   1.776  0.1353  0.0731  0.1347
   90MPD2     H 1405   2.885   4.567   1.449 -0.7626 -1.9634 -0.4474
   90MPD2    H1 1406   2.605   0.013   1.734 -0.7186 -0.5886 -2.2977
   90MPD2    H2 1407   2.746   4.369   1.798 -1.3649  0.5046  1.5242
   90MPD2    H3 1408   2.640   4.567   1.877  0.3192  1.5857  0.2200
   90MPD2     N 1409   2.738   0.054   1.497  0.0483  0.0987 -0.6804
   90MPD2    H5 1410   2.790   0.040   1.412  2.1982  2.5106  0.2427
   90MPD2    N1 1411   2.912   4.347   1.589 -0.1418  0.4479 -0.1768
   90MPD2    H7 1412   2.984   4.369   1.520 -0.1827 -0.1488 -0.4072
   91TMC2    C1 1413   0.348   4.476  16.447 -0.2372  1.0168  0.1034
   91TMC2    C2 1414   0.469   4.424  16.469  0.1364  0.1893  0.0297
   91TMC2    C3 1415   0.476   4.328  16.571 -0.3968 -0.3871  0.8144
   91TMC2    C4 1416   0.234   4.429  16.511 -0.2389  1.0015 -0.4995
   91TMC2    C5 1417   0.247   4.343  16.613  0.7828 -0.3638 -1.1009
   91TMC2    C6 1418   0.372   4.304  16.658 -0.3332  0.2788 -0.1750
   91TMC2     C 1419   0.332   4.574  16.341  0.4770 -0.5084  0.1950
   91TMC2     O 1420   0.240   4.656  16.339  1.0281 -0.6882  0.1174
   91TMC2     H 1421   0.557   4.459  16.415  0.6385  1.1560  1.4601
   91TMC2    H1 1422   0.138   4.462  16.472 -1.3223  1.3676  2.4887
   91TMC2    H2 1423   0.381   4.235  16.742 -0.7341 -0.0648 -0.4164
   91TMC2    C7 1424   0.129   4.265  16.647  0.2797  0.1017 -0.4372
   91TMC2    C8 1425   0.601   4.299  16.619  0.6221 -0.2923 -0.3979
   91TMC2    O1 1426   0.144   4.176  16.731 -0.5117 -0.5442  0.8620
   91TMC2    O2 1427   0.698   4.369  16.592  0.2053 -0.2848 -0.1800
   91TMC2    O5 1428   0.606   4.164  16.629  0.1039 -0.4016  0.1089
   91TMC2    H5 1429   0.517   4.125  16.618 -0.2353  0.4666 -0.2396
   92MPD2     C 1430   0.388   0.028  16.101 -0.0507  0.0121 -0.6106
   92MPD2    C1 1431   0.465   4.659  16.142  0.0680 -0.0803  0.3342
   92MPD2    C2 1432   0.574   4.623  16.063  0.0975  0.3370  0.0699
   92MPD2    C3 1433   0.604   4.689  15.948 -0.2835 -0.4868 -0.1360
   92MPD2    C4 1434   0.538   0.061  15.911  0.6377  0.0013  0.6951
   92MPD2    C5 1435   0.424   0.097  15.985  0.3022  0.4106  0.8225
   92MPD2     H 1436   0.643   4.545  16.091 -0.5558  0.2351  1.3983
   92MPD2    H1 1437   0.568   0.128  15.831  0.6422 -1.4652 -0.5355
   92MPD2    H2 1438   0.303   0.060  16.160 -0.6482 -0.5484 -1.1715
   92MPD2    H3 1439   0.376   0.189  15.955  0.7773  0.9111  1.5874
   92MPD2     N 1440   0.723   4.651  15.879 -0.2708  0.3436  0.3304
   92MPD2    H5 1441   0.775   4.573  15.918  0.8003  1.0606  0.3433
   92MPD2    N1 1442   0.439   4.578  16.251  0.1328 -0.2503 -0.2367
   92MPD2    H7 1443   0.501   4.498  16.259  2.2224  1.5326  1.4892
   93TMC2    C1 1444   1.778   3.992  13.289 -0.3544 -0.2456  0.2868
   93TMC2    C2 1445   1.777   3.859  13.326  0.7622 -0.4308  0.3858
   93TMC2    C3 1446   1.897   3.798  13.353  0.9916 -0.7351 -0.6596
   93TMC2    C4 1447   1.899   4.053  13.255 -0.5067 -0.5543  0.6957
   93TMC2    C5 1448   2.020   3.978  13.273 -0.2200 -0.8280 -0.0972
   93TMC2    C6 1449   2.018   3.853  13.313  0.3867 -0.0821  0.0438
   93TMC2     C 1450   1.658   4.044  13.240 -0.7859 -0.3679  0.1383
   93TMC2     O 1451   1.666   4.118  13.143 -0.3248 -0.1715  0.2460
   93TMC2     H 1452   1.689   3.798  13.340 -1.2537  2.7340  1.3014
   93TMC2    H1 1453   1.901   4.145  13.197  1.9217  0.1279  1.8721
   93TMC2    H2 1454   2.106   3.800  13.350  0.8309  1.6007  1.3948
   93TMC2    C7 1455   2.148   4.056  13.283 -0.6521  0.1329 -0.0631
   93TMC2    C8 1456   1.910   3.682  13.440  0.1864  0.3677  0.1908
   93TMC2    O1 1457   2.246   3.982  13.281  0.1670  1.0756  0.4142
   93TMC2    O2 1458   2.008   3.610  13.439  0.2894  0.4795  1.1070
   93TMC2    O5 1459   1.794   3.640  13.482  0.1746 -0.0273  0.4425
   93TMC2    H5 1460   1.730   3.711  13.503 -1.6676 -0.4145 -3.7428
   94MPD2     C 1461   1.387   4.081  13.147 -0.0264 -0.1393  0.3856
   94MPD2    C1 1462   1.420   4.032  13.272  0.3790 -0.4408 -0.0267
   94MPD2    C2 1463   1.315   4.000  13.363 -0.5487 -0.1764 -0.0308
   94MPD2    C3 1464   1.183   4.040  13.326  0.5326 -0.4303 -0.4094
   94MPD2    C4 1465   1.159   4.101  13.206 -0.0026 -0.3658  0.3292
   94MPD2    C5 1466   1.260   4.114  13.118  0.2390  0.0479 -0.2003
   94MPD2     H 1467   1.335   3.953  13.458 -1.2555  1.9575  1.1701
   94MPD2    H1 1468   1.062   4.128  13.165 -1.2440  0.7040  3.9820
   94MPD2    H2 1469   1.456   4.089  13.064 -0.9831 -1.0584 -0.4998
   94MPD2    H3 1470   1.246   4.158  13.020  0.1009  1.0555  0.2781
   94MPD2     N 1471   1.067   4.022  13.404  0.2459 -0.2826 -0.1981
   94MPD2    H5 1472   0.985   4.068  13.366 -0.3953 -1.9267 -0.7989
   94MPD2    N1 1473   1.547   3.996  13.306 -0.3599 -0.1121  0.3998
   94MPD2    H7 1474   1.551   3.948  13.395 -2.0125 -0.8303  0.0912
   95TMC2    C1 1475   1.628   1.460  15.613  0.2637  0.2253  0.6504
   95TMC2    C2 1476   1.520   1.399  15.679  0.1963  0.2147 -0.4736
   95TMC2    C3 1477   1.430   1.475  15.743 -0.3520 -0.5329 -0.0084
   95TMC2    C4 1478   1.633   1.594  15.598  0.0735  1.2178 -0.3923
   95TMC2    C5 1479   1.531   1.665  15.656 -0.0818  0.4154 -0.0355
   95TMC2    C6 1480   1.433   1.609  15.727 -0.0436 -0.3107 -0.1115
   95TMC2     C 1481   1.756   1.388  15.593 -0.5027 -0.0758  0.2241
   95TMC2     O 1482   1.841   1.434  15.520 -0.1042  0.0594  0.3291
   95TMC2     H 1483   1.529   1.291  15.678  0.5477  0.2289  0.9779
   95TMC2    H1 1484   1.728   1.628  15.556  2.3313 -0.5025  3.3530
   95TMC2    H2 1485   1.358   1.671  15.776  0.0389 -0.2129 -0.1088
   95TMC2    C7 1486   1.511   1.811  15.635  0.0419 -0.1521 -0.0539
   95TMC2    C8 1487   1.309   1.417  15.798 -0.7154  0.9607  0.3288
   95TMC2    O1 1488   1.427   1.869  15.704  0.6883 -0.6178 -0.2485
   95TMC2    O2 1489   1.200   1.469  15.775  0.5302  0.5236  0.7587
   95TMC2    O5 1490   1.328   1.293  15.841  0.1893 -0.2480  0.1491
   95TMC2    H5 1491   1.418   1.267  15.870 -0.2458 -0.2756  1.4471
   96MPD2     C 1492   2.112   1.043  15.720  0.2593 -0.0952 -0.1815
   96MPD2    C1 1493   2.115   1.138  15.619 -0.0225 -0.1288 -0.0585
   96MPD2    C2 1494   2.001   1.209  15.592  0.1717 -0.3266 -0.4866
   96MPD2    C3 1495   1.894   1.199  15.680  0.2156 -0.1436  0.0607
   96MPD2    C4 1496   1.897   1.110  15.776  0.6733 -0.3471  0.3010
   96MPD2    C5 1497   2.004   1.030  15.800  0.0705 -0.3245  0.5957
   96MPD2     H 1498   1.992   1.273  15.504  0.8696  1.6902  0.9080
   96MPD2    H1 1499   1.810   1.096  15.839 -0.7654 -3.1818 -2.3327
   96MPD2    H2 1500   2.189   0.968  15.738  2.0851  1.8724  0.1833
   96MPD2    H3 1501   2.002   0.963  15.885 -1.0531  1.7541  2.1818
   96MPD2     N 1502   1.773   1.275  15.673  0.0208  0.8380  0.9432
   96MPD2    H5 1503   1.700   1.250  15.738 -0.4987  0.4828  0.2185
   96MPD2    N1 1504   2.229   1.137  15.532 -0.3485 -0.2906 -0.4153
   96MPD2    H7 1505   2.303   1.069  15.545 -0.7814 -0.9049 -1.1436
   97TMC2    C1 1506   4.340   3.662  17.412 -0.2507  0.0556  0.7879
   97TMC2    C2 1507   4.241   3.654  17.312  0.4570 -0.1094  0.4963
   97TMC2    C3 1508   4.184   3.773  17.276  0.5446 -0.7519  0.0749
   97TMC2    C4 1509   4.382   3.777  17.455 -0.5221 -0.6369 -0.7197
   97TMC2    C5 1510   4.321   3.896  17.425 -0.2219  0.0707 -0.0887
   97TMC2    C6 1511   4.229   3.892  17.325  0.5647  0.2159  0.2131
   97TMC2     C 1512   4.345   3.540  17.497  0.0410 -0.0320  0.6684
   97TMC2     O 1513   4.303   3.438  17.444  0.2752 -0.3541 -0.1932
   97TMC2     H 1514   4.189   3.562  17.287  0.9882 -0.5492  0.9971
   97TMC2    H1 1515   4.462   3.791  17.527 -0.5070 -1.3962 -0.5860
   97TMC2    H2 1516   4.188   3.980  17.278  0.9398  0.2801  0.0080
   97TMC2    C7 1517   4.386   4.021  17.466 -0.0932 -0.3739  0.1624
   97TMC2    C8 1518   4.105   3.771  17.153  0.0688 -0.2189 -0.0555
   97TMC2    O1 1519   4.505   4.014  17.487  0.0940  0.0647 -0.0445
   97TMC2    O2 1520   4.125   3.844  17.058  0.8661  0.3419 -0.5216
   97TMC2    O5 1521   3.988   3.704  17.180  0.2180 -0.2305 -0.3507
   97TMC2    H5 1522   3.993   3.674  17.273  0.7629 -0.2977 -0.4039
   98MPD2     C 1523   4.190   3.288   0.157  0.0986 -0.7373 -0.1298
   98MPD2    C1 1524   4.171   3.425   0.181  0.2795  0.3757  0.0403
   98MPD2    C2 1525   4.219   3.522   0.090 -0.2125 -0.0822  0.1907
   98MPD2    C3 1526   4.284   3.478  17.727 -0.2247 -0.2796  0.4207
   98MPD2    C4 1527   4.306   3.340  17.711  0.0906  0.5366  0.5450
   98MPD2    C5 1528   4.254   3.248   0.044  0.3951 -0.0801 -0.5562
   98MPD2     H 1529   4.181   3.623   0.097  1.0501  0.4578 -0.8593
   98MPD2    H1 1530   4.352   3.306  17.619 -0.7349 -1.0892  0.7423
   98MPD2    H2 1531   4.136   3.214   0.214 -2.1160  0.6876 -0.3612
   98MPD2    H3 1532   4.265   3.141   0.032  1.1956 -0.0452 -0.0848
   98MPD2     N 1533   4.337   3.570  17.634  0.1884  0.4820 -0.0999
   98MPD2    H5 1534   4.328   3.670  17.650  1.8830  0.5992  0.1422
   98MPD2    N1 1535   4.064   3.450   0.276 -0.2338  0.4647 -0.7168
   98MPD2    H7 1536   4.009   3.367   0.297  1.3243 -0.0904  1.1941
   99TMC2    C1 1537   2.585   1.053   1.541 -0.8615 -0.4855  0.0535
   99TMC2    C2 1538   2.585   1.174   1.606 -0.2520  0.5550 -0.3515
   99TMC2    C3 1539   2.524   1.179   1.727  0.3838  0.0715  0.0994
   99TMC2    C4 1540   2.547   0.940   1.601 -1.2102 -0.4574 -0.9364
   99TMC2    C5 1541   2.487   0.950   1.726  1.0270 -0.6073 -0.0326
   99TMC2    C6 1542   2.486   1.066   1.792  0.0162 -0.2130 -0.1778
   99TMC2     C 1543   2.657   1.044   1.418  0.2277 -0.6600  0.1690
   99TMC2     O 1544   2.705   1.150   1.379  0.1427  0.0324 -0.2337
   99TMC2     H 1545   2.613   1.268   1.559 -2.7327  1.2040 -0.5346
   99TMC2    H1 1546   2.557   0.839   1.564  2.7336 -1.0900  1.8611
   99TMC2    H2 1547   2.470   1.072   1.899 -2.1660  1.4775 -0.6059
   99TMC2    C7 1548   2.414   0.836   1.780  0.3322 -0.6478 -0.6179
   99TMC2    C8 1549   2.533   1.310   1.797  0.4695  1.0694 -0.2273
   99TMC2    O1 1550   2.407   0.824   1.900 -0.3698 -0.6924 -0.0838
   99TMC2    O2 1551   2.604   1.408   1.773  0.0183 -0.1294 -0.1417
   99TMC2    O5 1552   2.416   1.313   1.864 -0.0659  0.5738  0.1547
   99TMC2    H5 1553   2.379   1.222   1.871 -0.9697  0.8893 -0.4305
  100MPD2     C 1554   2.837   0.966   1.192 -0.0680 -0.4214 -0.5911
  100MPD2    C1 1555   2.714   0.913   1.222  0.2336 -0.1551 -0.0945
  100MPD2    C2 1556   2.665   0.817   1.130 -0.1876 -0.1666 -0.1336
  100MPD2    C3 1557   2.718   0.795   1.002  0.7550 -0.3211  0.1228
  100MPD2    C4 1558   2.840   0.858   0.977 -0.0592  0.2252  0.3930
  100MPD2    C5 1559   2.900   0.939   1.074 -0.3689 -0.3580 -0.0795
  100MPD2     H 1560   2.581   0.759   1.167 -1.2318  0.7300 -1.1331
  100MPD2    H1 1561   2.893   0.851   0.883 -1.9208 -1.6747 -0.5070
  100MPD2    H2 1562   2.888   1.034   1.259 -2.1222  0.0398  0.4839
  100MPD2    H3 1563   2.990   0.986   1.035  0.0301 -0.6541  0.4928
  100MPD2     N 1564   2.649   0.714   0.914  0.1891 -0.6227  0.1849
  100MPD2    H5 1565   2.557   0.684   0.946  0.3911 -1.2567  0.1566
  100MPD2    N1 1566   2.645   0.935   1.342  0.2650 -0.0594 -0.3908
  100MPD2    H7 1567   2.572   0.873   1.375 -0.1331  0.3477 -0.5098
  101TMC2    C1 1568   3.482   2.133  12.763 -0.7714  0.4107 -0.5027
  101TMC2    C2 1569   3.398   2.241  12.757  0.2503  0.0724  0.8080
  101TMC2    C3 1570   3.454   2.359  12.722 -0.5563  0.1915 -0.3423
  101TMC2    C4 1571   3.613   2.140  12.716  0.0376 -0.0673 -0.4871
  101TMC2    C5 1572   3.662   2.265  12.687  0.5174 -0.1734  0.4498
  101TMC2    C6 1573   3.592   2.378  12.686 -0.0586 -0.0661  1.3905
  101TMC2     C 1574   3.425   2.006  12.808  0.0574 -0.3766  0.0680
  101TMC2     O 1575   3.306   1.997  12.841  0.2775 -0.2918 -0.2471
  101TMC2     H 1576   3.295   2.230  12.789  0.2316 -2.2037 -0.0518
  101TMC2    H1 1577   3.676   2.051  12.715  3.1139  2.0881  0.1468
  101TMC2    H2 1578   3.629   2.473  12.648 -0.8392 -0.3866 -0.1790
  101TMC2    C7 1579   3.800   2.280  12.640  0.0150  0.5268 -0.1266
  101TMC2    C8 1580   3.359   2.463  12.696  0.7252  0.4207  0.2194
  101TMC2    O1 1581   3.841   2.393  12.625 -0.1800 -0.4276  0.2942
  101TMC2    O2 1582   3.239   2.446  12.704  1.0017  0.2572  0.8625
  101TMC2    O5 1583   3.419   2.584  12.694  0.0648  0.0551  0.7600
  101TMC2    H5 1584   3.516   2.578  12.710  0.1272 -0.9104 -0.0442
  102MPD2     C 1585   3.576   1.671  12.792  0.3803  1.0359  0.2232
  102MPD2    C1 1586   3.486   1.768  12.826 -0.0791  0.5087  0.7229
  102MPD2    C2 1587   3.373   1.725  12.900  0.2152 -0.6163 -0.2313
  102MPD2    C3 1588   3.353   1.591  12.924 -0.1405 -0.3689 -0.2130
  102MPD2    C4 1589   3.438   1.498  12.883 -0.7211  0.2446 -0.4780
  102MPD2    C5 1590   3.556   1.534  12.816  0.2981  0.1750  0.2137
  102MPD2     H 1591   3.295   1.794  12.930 -0.5355 -1.9319  0.8688
  102MPD2    H1 1592   3.425   1.391  12.897 -2.2315  0.1880 -2.2741
  102MPD2    H2 1593   3.664   1.681  12.730  0.0282  1.3506 -0.2260
  102MPD2    H3 1594   3.625   1.458  12.783  0.1366 -0.5630  1.5909
  102MPD2     N 1595   3.237   1.556  12.994  0.2063  0.2952  0.0141
  102MPD2    H5 1596   3.174   1.628  13.029 -2.3947 -1.6126 -0.8138
  102MPD2    N1 1597   3.516   1.900  12.799  0.3163 -0.0330 -0.1669
  102MPD2    H7 1598   3.611   1.922  12.768 -0.1778  1.4186 -0.6374
  103TMC2    C1 1599   1.024   1.862  12.702 -0.6427  0.4312 -0.6876
  103TMC2    C2 1600   0.998   1.929  12.588  0.0702 -0.4211  0.1523
  103TMC2    C3 1601   0.963   2.060  12.599  0.6355 -0.4160  0.1051
  103TMC2    C4 1602   1.027   1.924  12.832  0.1665 -0.8340  0.4562
  103TMC2    C5 1603   1.009   2.064  12.832  1.1507 -0.2907  0.2647
  103TMC2    C6 1604   0.985   2.124  12.712 -0.0209  0.3099 -0.7703
  103TMC2     C 1605   1.030   1.716  12.703  0.0682  0.6394  0.4975
  103TMC2     O 1606   1.012   1.666  12.813  0.5237 -0.0391 -0.6318
  103TMC2     H 1607   0.967   1.880  12.496 -1.0504  0.8692 -0.1591
  103TMC2    H1 1608   1.046   1.864  12.920 -0.0833 -0.5560  0.7008
  103TMC2    H2 1609   0.989   2.232  12.706 -0.4909  0.3235 -0.9022
  103TMC2    C7 1610   0.983   2.138  12.956  0.0355  0.1981  0.6311
  103TMC2    C8 1611   0.968   2.140  12.475  0.4567 -0.1592 -0.0028
  103TMC2    O1 1612   0.991   2.074  13.063  0.6713  0.1952  0.0959
  103TMC2    O2 1613   0.944   2.258  12.466 -0.0771  0.5811  0.0716
  103TMC2    O5 1614   1.046   2.080  12.383 -0.3752 -1.1845 -0.5100
  103TMC2    H5 1615   1.098   2.005  12.419  0.3873 -1.1224 -1.4966
  104MPD2     C 1616   1.030   1.420  12.672  0.3289 -0.4224  0.4499
  104MPD2    C1 1617   1.053   1.503  12.570 -0.7168 -0.2258  0.2209
  104MPD2    C2 1618   1.052   1.449  12.439  0.8042  0.3456 -0.5457
  104MPD2    C3 1619   1.043   1.311  12.418  0.0606 -0.5920 -0.4036
  104MPD2    C4 1620   1.036   1.230  12.528  0.0737 -0.6194 -0.0685
  104MPD2    C5 1621   1.025   1.287  12.653 -0.0080 -0.1546 -0.8245
  104MPD2     H 1622   1.050   1.510  12.349  0.4454 -0.8638 -1.3702
  104MPD2    H1 1623   1.018   1.123  12.525 -1.6879 -0.2741 -2.0628
  104MPD2    H2 1624   1.023   1.451  12.775 -1.3902 -0.4146  0.3438
  104MPD2    H3 1625   1.014   1.211  12.729 -0.5892 -0.4664 -1.2166
  104MPD2     N 1626   1.036   1.261  12.287 -0.5905 -0.2281 -0.2173
  104MPD2    H5 1627   1.043   1.325  12.209  0.1128  0.0605  0.0841
  104MPD2    N1 1628   1.065   1.648  12.585 -0.1504 -0.3303 -0.0546
  104MPD2    H7 1629   1.079   1.711  12.506 -0.6859  0.4165  0.4396
  105TMC2    C1 1630   2.834   1.124  17.730 -0.1520 -0.5648  0.5237
  105TMC2    C2 1631   2.818   1.258  17.698  0.3069 -0.0144 -0.0486
  105TMC2    C3 1632   2.773   1.337   0.046  0.4457 -0.0996  0.1465
  105TMC2    C4 1633   2.804   1.072   0.099  0.6193  0.7779 -1.2991
  105TMC2    C5 1634   2.737   1.154   0.177 -0.1236 -0.0586 -0.3718
  105TMC2    C6 1635   2.723   1.289   0.164  0.4747  0.6717  0.2220
  105TMC2     C 1636   2.918   1.041  17.638 -0.3831 -0.5289  0.3903
  105TMC2     O 1637   2.922   0.920  17.653 -0.6753 -0.3844  0.9196
  105TMC2     H 1638   2.839   1.305  17.603  2.0268 -1.9185 -0.6124
  105TMC2    H1 1639   2.815   0.966   0.116  0.4080  0.3421 -3.8993
  105TMC2    H2 1640   2.680   1.346   0.245  0.7320  0.1599  0.7153
  105TMC2    C7 1641   2.701   1.100   0.305  0.5375 -0.2167  0.8081
  105TMC2    C8 1642   2.780   1.479   0.019  0.5972  0.1092 -0.8376
  105TMC2    O1 1643   2.790   1.043   0.374  0.2371  0.1611  0.7311
  105TMC2    O2 1644   2.830   1.524  17.669  0.1195 -0.1702 -1.0344
  105TMC2    O5 1645   2.790   1.531   0.145  0.4876  0.6896 -0.5408
  105TMC2    H5 1646   2.769   1.463   0.212 -1.6185  0.8206 -1.0652
  106MPD2     C 1647   3.225   1.005  17.234  0.2847  0.3372  0.1247
  106MPD2    C1 1648   3.209   1.143  17.264 -0.7254  0.7744  0.0287
  106MPD2    C2 1649   3.129   1.177  17.374 -0.5188  0.4750  0.1868
  106MPD2    C3 1650   3.066   1.072  17.440 -0.3671 -0.5535 -0.0573
  106MPD2    C4 1651   3.073   0.939  17.405  0.4226  0.7526 -0.0747
  106MPD2    C5 1652   3.150   0.911  17.299 -0.5329  0.0883  0.8679
  106MPD2     H 1653   3.124   1.278  17.412  2.3725  0.4440  0.6065
  106MPD2    H1 1654   3.011   0.863  17.451  2.2482 -0.9244 -0.4238
  106MPD2    H2 1655   3.298   0.969  17.162 -0.1773 -1.1224  0.3937
  106MPD2    H3 1656   3.167   0.812  17.257  0.8510  0.6028  0.2141
  106MPD2     N 1657   2.983   1.119  17.547  0.6683 -0.8462  0.6781
  106MPD2    H5 1658   2.974   1.220  17.551  4.1089 -0.5601  0.5910
  106MPD2    N1 1659   3.284   1.241  17.205  0.3933  0.0948 -0.4430
  106MPD2    H7 1660   3.248   1.333  17.230 -0.8889 -0.3811 -0.5155
  107TMC2    C1 1661   3.218   1.076  11.168 -0.4701 -0.6926  1.1572
  107TMC2    C2 1662   3.242   1.191  11.109 -0.2175  0.2101 -0.4421
  107TMC2    C3 1663   3.355   1.193  11.036 -0.3161  0.2786  0.4417
  107TMC2    C4 1664   3.295   0.965  11.152 -0.1747  0.3005  0.1013
  107TMC2    C5 1665   3.385   0.966  11.051 -0.2072 -0.3293 -0.4835
  107TMC2    C6 1666   3.425   1.082  10.995 -0.3399  0.0087 -1.1226
  107TMC2     C 1667   3.113   1.072  11.272  0.3709  0.1400 -0.7427
  107TMC2     O 1668   3.136   0.998  11.367  0.4507 -0.2033 -0.2438
  107TMC2     H 1669   3.196   1.286  11.132  1.2461  0.4878  1.3061
  107TMC2    H1 1670   3.258   0.874  11.197  0.7755 -0.5195 -0.7875
  107TMC2    H2 1671   3.515   1.091  10.934 -0.0650 -0.1577 -0.7451
  107TMC2    C7 1672   3.471   0.846  11.044  0.4784  0.1560 -0.2936
  107TMC2    C8 1673   3.423   1.315  11.010  0.7757  0.4812  0.7789
  107TMC2    O1 1674   3.480   0.776  11.145 -0.1147 -0.0759  0.8654
  107TMC2    O2 1675   3.512   1.319  10.924 -0.9080  0.5016 -0.1329
  107TMC2    O5 1676   3.411   1.400  11.122 -0.4206 -0.3614  0.3581
  107TMC2    H5 1677   3.345   1.374  11.189  1.2271 -1.5125  1.5371
  108MPD2     C 1678   2.825   1.290  11.314 -0.1121 -0.1369 -0.5196
  108MPD2    C1 1679   2.917   1.196  11.346  0.3929  0.3216  0.0381
  108MPD2    C2 1680   2.914   1.142  11.474  0.5351 -0.0789  0.2519
  108MPD2    C3 1681   2.823   1.189  11.568 -0.6220  0.2494  0.0099
  108MPD2    C4 1682   2.731   1.294  11.533 -0.2907  0.1989 -0.6709
  108MPD2    C5 1683   2.727   1.333  11.404 -0.1004 -0.1786 -0.4273
  108MPD2     H 1684   2.979   1.058  11.494  1.5268  0.4155 -0.8721
  108MPD2    H1 1685   2.667   1.342  11.607 -1.9426 -0.9479 -1.3603
  108MPD2    H2 1686   2.818   1.338  11.217 -0.1107  0.4367 -0.2378
  108MPD2    H3 1687   2.661   1.404  11.355 -0.6449 -0.5227 -0.1840
  108MPD2     N 1688   2.818   1.148  11.704 -0.1232 -0.2148  0.1724
  108MPD2    H5 1689   2.744   1.187  11.762  0.2350 -0.7718  1.0180
  108MPD2    N1 1690   3.016   1.160  11.255 -0.2063  0.1047 -0.0040
  108MPD2    H7 1691   3.015   1.212  11.167 -1.7757 -0.5903 -0.4058
  109TMC2    C1 1692   3.441   2.450   0.185 -0.0746 -0.2442  0.3883
  109TMC2    C2 1693   3.489   2.446   0.055  0.2362 -0.3974  0.2735
  109TMC2    C3 1694   3.565   2.551   0.014 -0.4964  0.6069 -0.2093
  109TMC2    C4 1695   3.451   2.561   0.263  0.3366 -0.9548 -0.2240
  109TMC2    C5 1696   3.517   2.673   0.214 -0.2291 -0.2477  0.1502
  109TMC2    C6 1697   3.583   2.661   0.092 -0.4675  0.0087 -0.0552
  109TMC2     C 1698   3.365   2.335   0.225 -0.2620 -0.4896 -0.1552
  109TMC2     O 1699   3.307   2.274   0.136  0.2908 -0.3434 -0.1553
  109TMC2     H 1700   3.472   2.354   0.001 -0.7197 -0.0340 -0.0450
  109TMC2    H1 1701   3.418   2.560   0.366  0.2329 -0.9751 -0.2579
  109TMC2    H2 1702   3.654   2.737   0.062 -0.8505  0.9316  1.3840
  109TMC2    C7 1703   3.528   2.795   0.290  0.1698  0.0339  0.5611
  109TMC2    C8 1704   3.639   2.551  17.638 -0.1064 -0.1079 -0.0498
  109TMC2    O1 1705   3.617   2.872   0.256 -0.3210 -0.5041  0.9326
  109TMC2    O2 1706   3.716   2.643  17.612 -0.3249 -0.3918 -0.3778
  109TMC2    O5 1707   3.590   2.456  17.558 -0.3224  0.0137 -0.1556
  109TMC2    H5 1708   3.506   2.414  17.587  0.0138 -2.2165 -2.4226
  110MPD2     C 1709   3.126   2.026   0.567 -1.1020 -0.7013  0.3004
  110MPD2    C1 1710   3.182   2.134   0.632 -0.1855 -0.0273  0.5162
  110MPD2    C2 1711   3.256   2.228   0.562 -0.4627  0.5298  0.3124
  110MPD2    C3 1712   3.273   2.218   0.425 -0.3254 -0.4177 -0.6231
  110MPD2    C4 1713   3.223   2.107   0.353  0.3859 -0.4197 -0.1313
  110MPD2    C5 1714   3.154   2.009   0.431  0.1548 -0.9074 -0.0380
  110MPD2     H 1715   3.309   2.306   0.616  1.4819 -1.8170  1.7724
  110MPD2    H1 1716   3.238   2.091   0.246  0.8383 -0.5481 -0.0477
  110MPD2    H2 1717   3.075   1.942   0.613  0.2645 -1.6152  0.1424
  110MPD2    H3 1718   3.118   1.921   0.378  1.7730 -0.6588 -1.5827
  110MPD2     N 1719   3.358   2.316   0.362  0.7458  0.3460  0.0791
  110MPD2    H5 1720   3.416   2.376   0.419  0.6623 -0.2208  0.7599
  110MPD2    N1 1721   3.172   2.146   0.772 -0.1827 -0.7077 -0.6810
  110MPD2    H7 1722   3.106   2.080   0.812  0.9386 -0.3281  1.7418
  111TMC2    C1 1723   3.126   2.518  11.427  0.0571  0.4035 -0.4308
  111TMC2    C2 1724   3.050   2.484  11.540  0.1471 -0.5487 -0.7848
  111TMC2    C3 1725   3.104   2.526  11.656 -0.7654 -0.1151  0.2234
  111TMC2    C4 1726   3.258   2.568  11.437  0.0073 -0.0855  0.3755
  111TMC2    C5 1727   3.313   2.587  11.560 -0.2569  0.0813  0.0500
  111TMC2    C6 1728   3.235   2.568  11.668  0.4254  0.4376 -0.0120
  111TMC2     C 1729   3.084   2.493  11.293  0.3360  0.3115 -0.0247
  111TMC2     O 1730   3.146   2.532  11.197  0.2286 -0.5640  0.3688
  111TMC2     H 1731   2.948   2.448  11.544  0.1135 -0.0563  2.2997
  111TMC2    H1 1732   3.318   2.574  11.347  1.7591  0.1874  1.5729
  111TMC2    H2 1733   3.285   2.580  11.764  1.6329  1.9392 -0.8198
  111TMC2    C7 1734   3.452   2.622  11.588 -0.4074 -0.0057 -0.4631
  111TMC2    C8 1735   3.021   2.515  11.765  0.0952 -0.3746  0.1056
  111TMC2    O1 1736   3.485   2.653  11.703  0.7296 -0.3542  0.0847
  111TMC2    O2 1737   2.968   2.408  11.795  0.3900 -0.1089  0.5918
  111TMC2    O5 1738   3.041   2.617  11.850  0.3246 -0.2380 -0.0987
  111TMC2    H5 1739   3.075   2.699  11.807 -1.3593  0.3260 -0.3696
  112MPD2     C 1740   2.683   2.448  10.991 -0.4320  0.3998  0.5082
  112MPD2    C1 1741   2.796   2.519  10.974 -0.4763  0.0722 -0.1367
  112MPD2    C2 1742   2.898   2.510  11.063  0.1984 -0.2173 -0.1424
  112MPD2    C3 1743   2.885   2.432  11.177 -0.3683 -0.8578 -0.2034
  112MPD2    C4 1744   2.766   2.357  11.197  0.2826  0.0874  0.3617
  112MPD2    C5 1745   2.668   2.370  11.101 -0.3595  0.2128 -0.0667
  112MPD2     H 1746   2.991   2.563  11.048  0.5032 -1.0646 -1.3001
  112MPD2    H1 1747   2.751   2.295  11.284 -1.1643 -2.1292 -1.4506
  112MPD2    H2 1748   2.595   2.465  10.930 -0.4384 -0.6757  0.2199
  112MPD2    H3 1749   2.579   2.313  11.126 -1.8139  2.5495  0.0297
  112MPD2     N 1750   2.966   2.431  11.288  0.1442  0.5942 -0.1109
  112MPD2    H5 1751   2.937   2.389  11.376  0.8958 -0.2152 -0.2552
  112MPD2    N1 1752   2.812   2.607  10.871  0.3984 -0.2462  0.5289
  112MPD2    H7 1753   2.905   2.649  10.864  0.3709  0.2432  3.1772
  113TMC2    C1 1754   1.527   0.611   0.491  0.4475 -0.1069 -0.1696
  113TMC2    C2 1755   1.488   0.713   0.409 -0.0300  0.5984  0.4245
  113TMC2    C3 1756   1.474   0.675   0.277 -0.1554  0.0729 -0.0067
  113TMC2    C4 1757   1.542   0.483   0.450  0.3690 -0.3113 -0.0259
  113TMC2    C5 1758   1.521   0.452   0.321  0.3209  0.3562 -0.2176
  113TMC2    C6 1759   1.489   0.544   0.233  0.1520  0.0174 -0.0998
  113TMC2     C 1760   1.566   0.655   0.626  1.0137 -0.2962  0.2607
  113TMC2     O 1761   1.494   0.744   0.676  0.2657  0.4380 -0.3598
  113TMC2     H 1762   1.444   0.807   0.442  0.5330  1.6113 -1.7445
  113TMC2    H1 1763   1.561   0.401   0.519 -0.5649 -1.4656 -1.1476
  113TMC2    H2 1764   1.452   0.524   0.133 -4.5901 -0.2244  1.6598
  113TMC2    C7 1765   1.531   0.314   0.271 -0.9400 -0.2483 -0.1989
  113TMC2    C8 1766   1.380   0.760   0.194 -0.0519 -0.3391  0.0336
  113TMC2    O1 1767   1.535   0.310   0.149 -0.1691  0.5396 -0.1602
  113TMC2    O2 1768   1.305   0.706   0.111  0.6675  0.1035  0.3326
  113TMC2    O5 1769   1.360   0.870   0.255 -0.0210 -0.0127  0.7211
  113TMC2    H5 1770   1.448   0.900   0.287 -0.0600  0.7801  0.0889
  114MPD2     C 1771   1.907   0.675   1.003  0.1524 -0.1908  0.1240
  114MPD2    C1 1772   1.808   0.769   0.966  0.2839 -0.6654  0.5479
  114MPD2    C2 1773   1.722   0.737   0.861  0.7177 -0.1669  0.3247
  114MPD2    C3 1774   1.735   0.615   0.795 -0.1827 -0.4092  0.6496
  114MPD2    C4 1775   1.827   0.526   0.837  0.7451  0.2096  0.0082
  114MPD2    C5 1776   1.918   0.558   0.937  0.2776  0.2101  0.4257
  114MPD2     H 1777   1.651   0.815   0.836 -1.5875 -2.2268  0.4981
  114MPD2    H1 1778   1.839   0.431   0.787 -0.2305  0.3313 -0.4550
  114MPD2    H2 1779   1.985   0.684   1.078  1.0298  0.6473 -0.8938
  114MPD2    H3 1780   1.989   0.481   0.964 -1.4003 -1.0152  1.3429
  114MPD2     N 1781   1.671   0.587   0.670 -0.3153 -0.1625  0.2193
  114MPD2    H5 1782   1.705   0.507   0.617  1.1079 -1.2136  2.7564
  114MPD2    N1 1783   1.787   0.891   1.027  0.6172  0.0752 -0.0263
  114MPD2    H7 1784   1.709   0.949   0.995  1.8729  1.1221 -1.1792
  115TMC2    C1 1785   2.891   3.391  17.540 -0.8703  0.1514 -0.1998
  115TMC2    C2 1786   2.986   3.409  17.641 -0.2022 -0.0330 -0.3025
  115TMC2    C3 1787   3.013   3.538  17.677  0.1828  0.8094 -0.0801
  115TMC2    C4 1788   2.807   3.492  17.495 -0.2608 -0.2219  0.1441
  115TMC2    C5 1789   2.855   3.620  17.521  0.3944 -0.1617  0.3409
  115TMC2    C6 1790   2.956   3.647  17.611 -0.1627 -0.0923 -0.0850
  115TMC2     C 1791   2.869   3.261  17.482 -0.1210  0.6502  0.2955
  115TMC2     O 1792   2.822   3.264  17.370 -0.7237  0.1832 -0.0429
  115TMC2     H 1793   3.039   3.325  17.683 -1.7978 -0.1267  1.5189
  115TMC2    H1 1794   2.728   3.471  17.424 -0.8455  1.3208  0.3361
  115TMC2    H2 1795   2.970   3.750  17.644 -0.5798 -0.5102  1.3995
  115TMC2    C7 1796   2.767   3.732  17.487  0.1631 -0.2915 -0.7293
  115TMC2    C8 1797   3.135   3.563   0.006  0.3500  0.2725  0.1068
  115TMC2    O1 1798   2.651   3.707  17.462  0.6476 -0.2232  0.7860
  115TMC2    O2 1799   3.199   3.475   0.059  0.6242 -0.4607 -0.2987
  115TMC2    O5 1800   3.136   3.686   0.060  0.0709 -0.0760  0.5006
  115TMC2    H5 1801   3.068   3.756   0.048 -0.5068 -0.6678  0.3553
  116MPD2     C 1802   2.835   2.758  17.513  0.3922  0.8648 -0.1013
  116MPD2    C1 1803   2.769   2.848  17.439 -0.5102 -0.5392 -0.0571
  116MPD2    C2 1804   2.786   2.987  17.451 -1.0499 -0.2832 -0.2569
  116MPD2    C3 1805   2.883   3.027  17.546 -0.0692  0.1425 -0.3470
  116MPD2    C4 1806   2.943   2.940  17.636 -0.3374 -0.4866 -0.4731
  116MPD2    C5 1807   2.920   2.806  17.610 -0.8113 -0.2790  0.7092
  116MPD2     H 1808   2.731   3.049  17.382 -1.0727  0.6719  0.6253
  116MPD2    H1 1809   3.018   2.977  17.706  0.1865 -0.9216 -0.8089
  116MPD2    H2 1810   2.831   2.651  17.499 -0.2923  0.6204  1.9548
  116MPD2    H3 1811   2.985   2.735  17.661 -0.3780  0.0458  0.6147
  116MPD2     N 1812   2.907   3.158  17.564  0.2449  0.1875 -0.5326
  116MPD2    H5 1813   2.952   3.177  17.653  1.0466 -1.3490 -0.6010
  116MPD2    N1 1814   2.676   2.791  17.347  0.4679 -0.1624  0.3668
  116MPD2    H7 1815   2.686   2.691  17.328 -1.3135 -0.2945  0.1211
  117TMC2    C1 1816   1.232   4.243  13.789 -0.5783  0.4305 -0.0460
  117TMC2    C2 1817   1.325   4.182  13.709  0.3218  0.2872 -0.1614
  117TMC2    C3 1818   1.426   4.264  13.662  0.6724 -1.0362  0.4293
  117TMC2    C4 1819   1.246   4.368  13.835  0.2241  0.0875  0.3073
  117TMC2    C5 1820   1.352   4.441  13.797 -0.1080 -0.4779 -0.0112
  117TMC2    C6 1821   1.443   4.393  13.706  1.1838 -0.8421  0.3542
  117TMC2     C 1822   1.122   4.157  13.829  0.3252  0.6460 -0.1600
  117TMC2     O 1823   1.130   4.036  13.836 -0.3768 -0.4084  0.4153
  117TMC2     H 1824   1.309   4.084  13.666 -0.3885  0.0063  0.7381
  117TMC2    H1 1825   1.181   4.407  13.912 -0.8191  0.7597 -0.9010
  117TMC2    H2 1826   1.531   4.449  13.678  2.2360 -2.9414 -0.5923
  117TMC2    C7 1827   1.345   4.586  13.803 -0.2777 -0.3101  0.0235
  117TMC2    C8 1828   1.539   4.199  13.606  0.6709  0.6933 -0.0507
  117TMC2    O1 1829   1.454   4.643  13.803 -0.4736 -0.1247  0.1264
  117TMC2    O2 1830   1.574   4.086  13.632  0.2836 -0.3239  0.1355
  117TMC2    O5 1831   1.570   4.274  13.505  0.1229 -0.8694 -0.3325
  117TMC2    H5 1832   1.515   4.352  13.483  1.5741  0.1531 -0.3384
  118MPD2     C 1833   1.047   0.045  13.799 -0.2550 -0.3770 -0.3378
  118MPD2    C1 1834   1.182   0.029  13.823 -0.3822 -0.6270 -0.2637
  118MPD2    C2 1835   1.262   0.137  13.838  0.0143  0.2232  0.5632
  118MPD2    C3 1836   1.209   0.266  13.827 -0.0622  0.2461  0.5063
  118MPD2    C4 1837   1.079   0.274  13.795 -0.4021  0.4069 -0.4306
  118MPD2    C5 1838   0.996   0.167  13.778 -0.0036 -0.0198 -0.0035
  118MPD2     H 1839   1.370   0.127  13.843 -0.2770 -3.2459 -0.0449
  118MPD2    H1 1840   1.041   0.375  13.786 -0.4936  0.3134 -1.1041
  118MPD2    H2 1841   0.976   4.702  13.791 -1.7080  0.8472  0.0985
  118MPD2    H3 1842   0.892   0.180  13.754 -0.0902  0.4026  0.6101
  118MPD2     N 1843   1.279   0.385  13.831 -0.4679  0.1925 -0.5967
  118MPD2    H5 1844   1.212   0.461  13.828 -0.3985  0.2764 -0.0845
  118MPD2    N1 1845   1.224   4.632  13.813  0.0289 -0.4042  0.0470
  118MPD2    H7 1846   1.142   4.575  13.799 -1.7739  1.7198  2.0804
  119TMC2    C1 1847   3.809   0.715  13.081 -0.3127 -0.4382 -0.0342
  119TMC2    C2 1848   3.902   0.639  13.146  0.4439 -0.5563  0.4536
  119TMC2    C3 1849   3.873   0.583  13.265 -0.4431  0.5054 -0.4036
  119TMC2    C4 1850   3.682   0.723  13.124 -0.3336  0.1770  0.1833
  119TMC2    C5 1851   3.655   0.677  13.250 -0.7356 -0.0974 -0.5941
  119TMC2    C6 1852   3.748   0.599  13.317  0.6261 -0.6055 -0.6909
  119TMC2     C 1853   3.850   0.820  12.998 -0.1209 -0.1303  0.6142
  119TMC2     O 1854   3.796   0.928  13.020 -0.0408 -0.1633 -0.3541
  119TMC2     H 1855   4.004   0.634  13.109  0.3100  1.2749 -0.1805
  119TMC2    H1 1856   3.612   0.782  13.065  0.2649  0.8633  0.1609
  119TMC2    H2 1857   3.738   0.561  13.418  0.7752  0.0536 -0.4302
  119TMC2    C7 1858   3.547   0.748  13.321  0.0089  0.5324  0.8983
  119TMC2    C8 1859   3.977   0.578  13.371 -0.0583 -0.8909  0.2920
  119TMC2    O1 1860   3.498   0.847  13.272  0.3738 -0.4488  0.0657
  119TMC2    O2 1861   3.956   0.601  13.491 -0.1219  0.2009  0.2700
  119TMC2    O5 1862   4.083   0.518  13.323  0.3576  0.3572 -0.7476
  119TMC2    H5 1863   4.101   0.518  13.226 -0.7869  0.0430 -0.9642
  120MPD2     C 1864   4.346   0.960  13.039 -0.2368  0.3501  0.1644
  120MPD2    C1 1865   4.228   1.015  13.088  0.6978  0.4002 -0.1572
  120MPD2    C2 1866   4.102   0.970  13.051  0.6978  0.4544  0.1000
  120MPD2    C3 1867   4.086   0.856  12.971  0.4541 -0.1020 -0.4379
  120MPD2    C4 1868   4.205   0.792  12.933  1.0426 -0.5438  0.2703
  120MPD2    C5 1869   4.325   0.846  12.960 -0.4925  0.1457  0.3154
  120MPD2     H 1870   4.010   1.012  13.092  1.2202  1.0319  0.6723
  120MPD2    H1 1871   4.203   0.721  12.851 -0.7335 -0.9685  0.6834
  120MPD2    H2 1872   4.445   0.992  13.068 -0.9974  2.3900  0.4929
  120MPD2    H3 1873   4.409   0.798  12.911 -1.0561  0.0672 -0.5793
  120MPD2     N 1874   3.966   0.788  12.947  0.5257 -0.0410  0.4393
  120MPD2    H5 1875   3.971   0.690  12.922 -0.4687  0.6421 -2.3933
  120MPD2    N1 1876   4.247   1.109  13.194  0.4295  0.8188  0.2574
  120MPD2    H7 1877   4.343   1.114  13.228 -0.4640 -2.5588  3.2904
  121TMC2    C1 1878   0.849   2.930  14.274 -0.1324  0.2222 -0.0767
  121TMC2    C2 1879   0.840   2.838  14.380  0.2369  0.2473  0.6256
  121TMC2    C3 1880   0.750   2.736  14.362 -0.0226 -0.5695  0.1076
  121TMC2    C4 1881   0.761   2.929  14.175 -0.9667 -0.2200 -0.2642
  121TMC2    C5 1882   0.669   2.836  14.169 -1.2705 -0.5465 -0.3331
  121TMC2    C6 1883   0.652   2.740  14.270  0.4738 -0.7392  0.6155
  121TMC2     C 1884   0.983   2.976  14.255  0.1853 -0.4855  0.7381
  121TMC2     O 1885   1.060   2.976  14.347  0.7866 -0.6621  0.6848
  121TMC2     H 1886   0.918   2.829  14.455  2.3507 -2.3399 -1.9065
  121TMC2    H1 1887   0.768   2.988  14.085 -0.5322  0.6541  0.3415
  121TMC2    H2 1888   0.570   2.669  14.271  0.4791 -0.7511 -0.2315
  121TMC2    C7 1889   0.649   2.785  14.032 -0.1672  0.0136 -0.3777
  121TMC2    C8 1890   0.729   2.675  14.494 -0.2429  0.0874 -0.3482
  121TMC2    O1 1891   0.744   2.790  13.952  0.8007  0.3430 -0.2632
  121TMC2    O2 1892   0.769   2.732  14.592  0.1976 -0.2148  0.3114
  121TMC2    O5 1893   0.621   2.593  14.488 -0.0373  0.2178 -0.2278
  121TMC2    H5 1894   0.606   2.551  14.401 -0.7008  0.1137 -0.0682
  122MPD2     C 1895   1.246   3.047  14.136 -1.4572 -0.1134  0.7218
  122MPD2    C1 1896   1.129   3.037  14.066  0.1462 -0.2118  0.6863
  122MPD2    C2 1897   1.133   3.048  13.927 -0.8039  0.1050 -0.8096
  122MPD2    C3 1898   1.250   3.078  13.865 -0.8727 -0.3102  0.3074
  122MPD2    C4 1899   1.367   3.083  13.932 -0.3615 -0.0772  0.1504
  122MPD2    C5 1900   1.365   3.050  14.063  0.8034  1.1873 -0.4884
  122MPD2     H 1901   1.049   3.027  13.861 -1.3145 -0.9953  0.1901
  122MPD2    H1 1902   1.460   3.086  13.877 -0.0974  0.6387  0.6443
  122MPD2    H2 1903   1.251   3.026  14.242  0.6806 -0.9321  0.4591
  122MPD2    H3 1904   1.457   3.032  14.117  0.9393  0.1616 -1.0682
  122MPD2     N 1905   1.259   3.112  13.727  0.2114  0.4007 -0.2264
  122MPD2    H5 1906   1.350   3.106  13.683  0.8075  2.3544  0.7360
  122MPD2    N1 1907   1.002   3.010  14.126  0.1764 -0.4478 -0.1326
  122MPD2    H7 1908   0.921   3.007  14.066 -1.9332  1.0700  2.6329
  123TMC2    C1 1909   3.935   1.749   9.600 -0.3989 -0.3430  0.7194
  123TMC2    C2 1910   4.060   1.797   9.653 -0.1191 -0.7119  0.2925
  123TMC2    C3 1911   4.149   1.851   9.559  0.0295 -0.1568  0.1639
  123TMC2    C4 1912   3.907   1.745   9.466  0.2414 -0.3476  0.5529
  123TMC2    C5 1913   4.002   1.790   9.381 -0.6676  0.2095 -0.7848
  123TMC2    C6 1914   4.120   1.839   9.426 -0.0145 -0.8270 -0.2077
  123TMC2     C 1915   3.869   1.645   9.684  0.1443 -0.3380 -0.2450
  123TMC2     O 1916   3.926   1.610   9.784  0.1092  0.3544 -0.3041
  123TMC2     H 1917   4.070   1.825   9.757  1.2091  1.1037 -0.3196
  123TMC2    H1 1918   3.804   1.733   9.434 -0.1103  1.4629  1.0185
  123TMC2    H2 1919   4.198   1.871   9.359 -2.9584  4.3957 -1.1327
  123TMC2    C7 1920   3.963   1.838   9.248 -0.5953  0.8270 -0.2289
  123TMC2    C8 1921   4.187   1.983   9.596 -0.2243 -0.2795 -0.3892
  123TMC2    O1 1922   4.020   1.939   9.214 -0.1787 -0.1860 -0.3682
  123TMC2    O2 1923   4.126   2.077   9.550 -0.4787  0.2292 -0.6996
  123TMC2    O5 1924   4.240   1.985   9.720  0.0360  0.2852 -0.4798
  123TMC2    H5 1925   4.263   1.898   9.758 -0.2553 -0.3376 -1.7366
  124MPD2     C 1926   3.546   1.249   9.742  0.0168  0.1536 -0.4818
  124MPD2    C1 1927   3.515   1.323   9.630 -0.2191 -0.2209  0.7516
  124MPD2    C2 1928   3.576   1.445   9.611 -0.2747  0.6488  0.8815
  124MPD2    C3 1929   3.682   1.487   9.684  0.0459  0.0555  0.4765
  124MPD2    C4 1930   3.717   1.404   9.790  0.3959  0.2542  0.0444
  124MPD2    C5 1931   3.646   1.298   9.821  0.5114 -0.5142  0.5473
  124MPD2     H 1932   3.542   1.505   9.528  1.3749 -0.1918 -0.4065
  124MPD2    H1 1933   3.803   1.418   9.854  1.3922  0.6894 -1.3772
  124MPD2    H2 1934   3.496   1.160   9.777  0.2061 -0.3768 -1.5652
  124MPD2    H3 1935   3.666   1.251   9.916 -2.0453 -1.4697  0.6261
  124MPD2     N 1936   3.748   1.603   9.646  0.0547  0.2120 -0.2094
  124MPD2    H5 1937   3.708   1.664   9.576  0.8898  2.2611  1.0977
  124MPD2    N1 1938   3.423   1.261   9.544 -0.1027 -0.3204 -0.1185
  124MPD2    H7 1939   3.399   1.164   9.562  2.5949 -0.4765  2.5371
  125TMC2    C1 1940   2.735   3.382  10.391 -0.3188 -0.2226  0.1224
  125TMC2    C2 1941   2.636   3.308  10.325  0.2449  0.2630  0.0048
  125TMC2    C3 1942   2.639   3.315  10.186 -0.3407 -0.0765  0.1082
  125TMC2    C4 1943   2.839   3.447  10.317 -0.1441 -0.4868 -0.1741
  125TMC2    C5 1944   2.844   3.434  10.181  0.2590  1.0471  0.2203
  125TMC2    C6 1945   2.740   3.374  10.116  0.4123 -0.4313 -0.7406
  125TMC2     C 1946   2.689   3.470  10.496 -0.3286  0.0463 -0.5570
  125TMC2     O 1947   2.618   3.419  10.578  0.1617  0.1634 -0.3949
  125TMC2     H 1948   2.540   3.288  10.370  0.9420  1.4678  2.0101
  125TMC2    H1 1949   2.912   3.508  10.370 -0.3570  0.9740 -1.5680
  125TMC2    H2 1950   2.729   3.389  10.009 -1.5467  0.2348 -0.4476
  125TMC2    C7 1951   2.900   3.547  10.121 -0.6893 -0.1562  0.4377
  125TMC2    C8 1952   2.529   3.252  10.107  0.4464 -0.6916 -0.0445
  125TMC2    O1 1953   2.899   3.656  10.187 -0.7834 -0.1750  0.7896
  125TMC2    O2 1954   2.498   3.283   9.993 -0.0907  0.5628  0.0781
  125TMC2    O5 1955   2.483   3.152  10.183 -0.2820 -0.5104 -0.2137
  125TMC2    H5 1956   2.522   3.136  10.272 -3.0576  1.2806  1.3254
  126MPD1     C 1957   2.588   3.958  10.640  0.2955  0.4801 -0.3187
  126MPD1    C1 1958   2.630   3.960  10.510 -0.5522  0.1506  0.1190
  126MPD1    C2 1959   2.662   3.836  10.453 -0.4947  0.8933 -0.2273
  126MPD1    C3 1960   2.666   3.718  10.526  1.1247  0.0015  0.0052
  126MPD1    C4 1961   2.615   3.718  10.651  0.2457 -0.0336  0.2431
  126MPD1    C5 1962   2.584   3.842  10.713 -0.3325 -0.0251 -0.8246
  126MPD1     H 1963   2.691   3.832  10.349 -0.5859 -1.2072 -0.1796
  126MPD1    H1 1964   2.615   3.628  10.711  0.5309  0.4484  0.9711
  126MPD1    H2 1965   2.558   4.048  10.692  1.0762  0.5397  0.0229
  126MPD1    H3 1966   2.539   3.853  10.811  0.4175 -2.8463 -0.1747
  126MPD1     N 1967   2.707   3.602  10.460 -0.6607  0.2939 -0.2597
  126MPD1    H5 1968   2.740   3.614  10.365 -1.0425 -0.4549 -0.4882
  126MPD1    N1 1969   2.613   4.081  10.436 -0.1645  0.4278  0.2967
  126MPD1    H6 1970   2.613   4.168  10.489 -1.1944 -0.0115  1.0125
  126MPD1    H7 1971   2.674   4.096  10.357 -0.7424 -2.5396 -0.7049
  127TMC2    C1 1972   4.670   2.186   9.462 -0.2215 -0.0150 -0.5482
  127TMC2    C2 1973   0.065   2.179   9.422  0.6125 -0.1330 -0.4450
  127TMC2    C3 1974   0.110   2.050   9.396  0.2608  0.1241  0.2608
  127TMC2    C4 1975   4.593   2.074   9.469 -0.1340  0.0731  0.7704
  127TMC2    C5 1976   4.646   1.951   9.434  0.2530 -0.0051  0.5901
  127TMC2    C6 1977   0.038   1.936   9.394  0.0122  0.0861  0.0120
  127TMC2     C 1978   4.613   2.317   9.454 -0.8588  0.1140  0.1087
  127TMC2     O 1979   4.686   2.396   9.392  0.0620  0.0501  0.4220
  127TMC2     H 1980   0.129   2.266   9.425 -0.9607  0.9497  1.0704
  127TMC2    H1 1981   4.490   2.080   9.501 -0.4464  0.1980 -0.2718
  127TMC2    H2 1982   0.085   1.840   9.380  1.1492  0.6417  0.0116
  127TMC2    C7 1983   4.555   1.841   9.433 -0.3354 -0.0202 -0.0288
  127TMC2    C8 1984   0.256   2.036   9.386 -0.2717  0.0136 -0.2832
  127TMC2    O1 1985   4.440   1.860   9.463  0.0014  0.1549 -0.6800
  127TMC2    O2 1986   0.324   2.142   9.371 -0.1335 -0.3448 -0.4416
  127TMC2    O5 1987   0.300   1.924   9.452 -0.2202 -0.0066 -0.9432
  127TMC2    H5 1988   0.231   1.865   9.489  0.5775  1.3263  2.6656
  128MPD2     C 1989   4.290   2.446   9.564 -0.1162 -1.2062 -0.6085
  128MPD2    C1 1990   4.408   2.450   9.495 -0.4601 -0.2332  0.3838
  128MPD2    C2 1991   4.438   2.560   9.419 -0.3074  0.6894  0.4369
  128MPD2    C3 1992   4.350   2.671   9.419 -0.4359 -0.1810  0.2089
  128MPD2    C4 1993   4.242   2.675   9.511  0.0922 -0.4381 -0.5289
  128MPD2    C5 1994   4.210   2.556   9.571  0.2091 -0.3241 -0.6186
  128MPD2     H 1995   4.525   2.566   9.354 -0.3371 -0.9852  0.2485
  128MPD2    H1 1996   4.168   2.753   9.510  0.5838  0.0520  0.5392
  128MPD2    H2 1997   4.255   2.362   9.623  0.1742  0.1593  1.4989
  128MPD2    H3 1998   4.125   2.551   9.639 -0.1096 -0.8339 -1.0582
  128MPD2     N 1999   4.375   2.777   9.327  0.9658  0.2221 -0.1565
  128MPD2    H5 2000   4.438   2.751   9.253 -1.1517 -0.2667 -1.7985
  128MPD2    N1 2001   4.481   2.331   9.496  0.5007 -0.0566  0.7248
  128MPD2    H7 2002   4.447   2.249   9.545 -0.4166  0.2368  0.5865
  129TMC2    C1 2003   4.555   1.644   1.354 -0.4719 -0.7919  0.2576
  129TMC2    C2 2004   4.551   1.732   1.461 -0.3755  0.3573 -0.3538
  129TMC2    C3 2005   4.458   1.695   1.555 -0.7483  0.5367 -0.6137
  129TMC2    C4 2006   4.484   1.529   1.340  0.1548 -0.0970 -0.3087
  129TMC2    C5 2007   4.393   1.502   1.432  0.4417 -0.6741  0.6303
  129TMC2    C6 2008   4.373   1.587   1.538  0.2427 -0.0723 -0.4211
  129TMC2     C 2009   4.660   1.663   1.259  0.5294  0.1778  0.4786
  129TMC2     O 2010   4.703   1.562   1.207 -0.1599 -0.3569 -0.3957
  129TMC2     H 2011   4.631   1.805   1.472  0.6352 -0.5706 -1.6548
  129TMC2    H1 2012   4.488   1.460   1.257 -1.7782 -0.3731 -0.1875
  129TMC2    H2 2013   4.305   1.559   1.617  2.3624  1.1640  1.8395
  129TMC2    C7 2014   4.300   1.386   1.423 -0.2100  0.3947 -0.0631
  129TMC2    C8 2015   4.457   1.757   1.682  0.4666  0.4339  0.4278
  129TMC2    O1 2016   4.189   1.400   1.476 -0.6854  0.0215  0.5404
  129TMC2    O2 2017   4.349   1.746   1.736  0.2027 -0.2646 -0.3265
  129TMC2    O5 2018   4.575   1.736   1.740 -0.1868 -0.4999 -0.4512
  129TMC2    H5 2019   4.648   1.712   1.679  0.3550 -0.6716  0.2673
  130MPD2     C 2020   0.155   1.783   1.115  0.1563  0.3994 -0.1623
  130MPD2    C1 2021   0.049   1.856   1.164  0.2640  0.0745  0.1739
  130MPD2    C2 2022   0.053   1.994   1.152  0.3915 -0.1300  0.2570
  130MPD2    C3 2023   0.151   2.050   1.086 -0.0087 -0.5004  0.0975
  130MPD2    C4 2024   0.254   1.981   1.037 -0.1332 -0.2878  0.1763
  130MPD2    C5 2025   0.264   1.844   1.049  0.1689 -0.5715  0.2725
  130MPD2     H 2026   4.719   2.057   1.203 -2.1935 -0.8945 -2.4305
  130MPD2    H1 2027   0.333   2.035   0.987 -1.5670  0.4156 -1.3267
  130MPD2    H2 2028   0.153   1.676   1.129 -0.9485  0.6700  1.7135
  130MPD2    H3 2029   0.344   1.784   1.009 -0.9496 -1.6433 -0.3397
  130MPD2     N 2030   0.149   2.194   1.078 -0.1593  0.3664 -0.1989
  130MPD2    H5 2031   0.069   2.234   1.125 -0.2648  0.3819 -0.3914
  130MPD2    N1 2032   4.688   1.797   1.246  0.9951  0.5112  0.1415
  130MPD2    H7 2033   4.624   1.859   1.293 -0.9893 -1.4745  0.0724
  131TMC2    C1 2034   3.657   2.010   9.505 -0.0065 -0.1014 -0.4034
  131TMC2    C2 2035   3.710   1.985   9.629  0.4083  0.1774 -0.2360
  131TMC2    C3 2036   3.800   2.075   9.681 -0.6573  0.9353  0.6059
  131TMC2    C4 2037   3.697   2.108   9.424  0.4026 -0.4605 -0.5580
  131TMC2    C5 2038   3.792   2.192   9.485 -0.4337 -1.3356  0.2072
  131TMC2    C6 2039   3.850   2.182   9.608  0.7075 -0.1546  0.2231
  131TMC2     C 2040   3.569   1.905   9.448 -0.5551 -0.1696 -0.1335
  131TMC2     O 2041   3.578   1.792   9.500  0.1972 -0.3464  1.0154
  131TMC2     H 2042   3.669   1.905   9.689  0.2505  0.0242 -0.5459
  131TMC2    H1 2043   3.669   2.115   9.319 -0.8202 -0.5456 -0.2405
  131TMC2    H2 2044   3.923   2.252   9.648 -0.4472  0.6726  0.8903
  131TMC2    C7 2045   3.843   2.294   9.403  0.1944  0.4868 -0.1788
  131TMC2    C8 2046   3.858   2.049   9.819  0.4175 -0.7452 -0.1197
  131TMC2    O1 2047   3.823   2.287   9.282 -0.3192  0.0118 -0.0277
  131TMC2    O2 2048   3.831   1.954   9.889 -0.5107  0.5835 -0.3022
  131TMC2    O5 2049   3.918   2.164   9.860  0.4247 -0.2324  0.0201
  131TMC2    H5 2050   3.885   2.243   9.814  1.0092 -0.2628 -0.4505
  132MPD2     C 2051   3.365   1.958   9.145  0.2552 -0.4024 -0.0340
  132MPD2    C1 2052   3.410   1.890   9.257  0.3933 -0.5057 -0.7384
  132MPD2    C2 2053   3.379   1.759   9.267 -0.3230 -0.0059  0.4171
  132MPD2    C3 2054   3.298   1.696   9.169 -0.7676 -0.1684  0.2343
  132MPD2    C4 2055   3.261   1.768   9.055 -0.1280  0.9543  0.0005
  132MPD2    C5 2056   3.284   1.904   9.050 -0.1670 -0.4277  0.1623
  132MPD2     H 2057   3.416   1.699   9.349 -2.0457  1.2540  2.1459
  132MPD2    H1 2058   3.192   1.732   8.979 -1.8316  1.3199  1.3557
  132MPD2    H2 2059   3.385   2.064   9.138  0.6357 -0.5031 -0.4834
  132MPD2    H3 2060   3.255   1.961   8.962  1.5450 -0.2152 -0.2581
  132MPD2     N 2061   3.268   1.564   9.193 -0.3218  0.0377 -0.2096
  132MPD2    H5 2062   3.309   1.523   9.276 -0.4496 -0.3235 -0.3222
  132MPD2    N1 2063   3.498   1.954   9.342 -0.3041 -0.3466  0.4229
  132MPD2    H7 2064   3.513   2.054   9.335  0.4072 -0.3658  1.7568
  133TMC2    C1 2065   2.861   1.020   9.080  0.1004  0.6230  0.5551
  133TMC2    C2 2066   2.823   0.957   8.963  0.2075 -0.0133 -0.5239
  133TMC2    C3 2067   2.895   0.847   8.924 -0.1167  0.4703  0.0474
  133TMC2    C4 2068   2.954   0.958   9.160 -0.0757 -0.0963  0.0421
  133TMC2    C5 2069   3.019   0.847   9.121  0.1560 -0.2411 -0.6413
  133TMC2    C6 2070   3.001   0.791   8.993 -0.3749 -0.7043 -1.2205
  133TMC2     C 2071   2.844   1.162   9.104  0.3421 -0.4073 -0.3522
  133TMC2     O 2072   2.922   1.212   9.181 -0.2776  0.0494  0.3193
  133TMC2     H 2073   2.756   1.009   8.896  0.7862  0.8432 -0.4485
  133TMC2    H1 2074   2.978   1.001   9.257  2.2249 -0.4441 -0.3710
  133TMC2    H2 2075   3.064   0.719   8.943  1.6323  0.1975  0.0325
  133TMC2    C7 2076   3.104   0.786   9.216 -0.5851 -0.2725  0.3885
  133TMC2    C8 2077   2.888   0.825   8.778 -0.2728  0.1039  0.3798
  133TMC2    O1 2078   3.157   0.860   9.301 -0.9212  0.0395  0.0883
  133TMC2    O2 2079   2.866   0.912   8.692 -0.5430  0.5929  0.2790
  133TMC2    O5 2080   2.910   0.693   8.751 -0.1480  0.4411 -0.6072
  133TMC2    H5 2081   2.935   0.640   8.829 -0.2955  0.3795 -0.6022
  134MPD2     C 2082   2.525   1.328   9.036  0.0256 -0.0892 -0.8148
  134MPD2    C1 2083   2.660   1.332   9.070 -0.0094  0.3523  0.6858
  134MPD2    C2 2084   2.731   1.453   9.096  1.0693 -0.0672  0.0172
  134MPD2    C3 2085   2.662   1.576   9.090  0.3447  0.2427  0.3345
  134MPD2    C4 2086   2.530   1.565   9.062  0.3709  0.4895  0.1245
  134MPD2    C5 2087   2.459   1.445   9.035 -0.0671  0.3596 -0.1422
  134MPD2     H 2088   2.836   1.452   9.121  0.9281  0.6905  0.6601
  134MPD2    H1 2089   2.473   1.657   9.059  1.7470  1.3009 -0.6469
  134MPD2    H2 2090   2.462   1.241   9.028 -1.7591  1.1693 -0.5212
  134MPD2    H3 2091   2.354   1.442   9.011  0.2112 -0.5321 -1.2279
  134MPD2     N 2092   2.725   1.702   9.108 -0.2288 -0.3835 -0.5828
  134MPD2    H5 2093   2.658   1.776   9.121  1.3511  0.7165  1.2499
  134MPD2    N1 2094   2.720   1.205   9.063 -0.0134  0.2942 -0.2587
  134MPD2    H7 2095   2.661   1.131   9.028 -0.3068  1.3579 -2.0480
  135TMC2    C1 2096   4.111   3.925  10.155  0.3641 -0.3326  0.1387
  135TMC2    C2 2097   4.051   3.870  10.050  0.4609  0.5352  0.4180
  135TMC2    C3 2098   3.986   3.747  10.071  0.4700 -0.6210  0.4988
  135TMC2    C4 2099   4.108   3.874  10.282 -0.1224 -0.2218  0.1818
  135TMC2    C5 2100   4.041   3.760  10.297 -0.1566  0.3593 -0.0351
  135TMC2    C6 2101   3.978   3.692  10.192 -0.1636  0.0779 -0.0933
  135TMC2     C 2102   4.183   4.049  10.134  0.1078  0.5766 -0.0959
  135TMC2     O 2103   4.172   4.128  10.226 -0.5707 -0.4724  0.4276
  135TMC2     H 2104   4.063   3.907   9.949  0.0084  0.2442  0.2589
  135TMC2    H1 2105   4.164   3.929  10.357  0.8290  0.3147 -0.9299
  135TMC2    H2 2106   3.934   3.594  10.203  0.9486 -0.3196  0.8910
  135TMC2    C7 2107   4.092   3.683  10.408  0.6924 -0.0295  0.9451
  135TMC2    C8 2108   3.927   3.671   9.956 -0.7867  0.3058  0.2011
  135TMC2    O1 2109   4.197   3.719  10.463 -0.1993  0.3721 -0.4686
  135TMC2    O2 2110   3.932   3.550   9.932 -0.3482 -0.0705  0.2035
  135TMC2    O5 2111   3.894   3.769   9.870  0.0326 -0.1331 -0.5256
  135TMC2    H5 2112   3.858   3.842   9.925 -1.7211 -0.5321 -1.1362
  136MPD2     C 2113   4.354   4.276  10.044 -0.5100 -0.6136 -0.5605
  136MPD2    C1 2114   4.321   4.167   9.966  0.1892  0.0460  0.1809
  136MPD2    C2 2115   4.388   4.148   9.847  0.3931 -0.3273  0.1518
  136MPD2    C3 2116   4.487   4.236   9.805  0.2281 -0.6466  0.2540
  136MPD2    C4 2117   4.509   4.348   9.885 -0.4503 -0.2953 -0.3515
  136MPD2    C5 2118   4.443   4.366  10.000  0.3814 -0.2152 -0.6881
  136MPD2     H 2119   4.366   4.057   9.792 -2.3412  1.4615 -1.7639
  136MPD2    H1 2120   4.588   4.418   9.858  0.8644 -0.9352  1.8707
  136MPD2    H2 2121   4.299   4.298  10.134 -1.0863 -0.0125 -1.0559
  136MPD2    H3 2122   4.466   4.455  10.058  1.5362 -1.3396  0.5967
  136MPD2     N 2123   4.564   4.231   9.687  0.7197 -0.0289  0.0737
  136MPD2    H5 2124   4.629   4.307   9.674 -3.5148  3.3341 -1.6803
  136MPD2    N1 2125   4.249   4.054  10.018 -0.1229  0.1617 -0.1172
  136MPD2    H7 2126   4.256   3.964   9.971  2.5337  0.1768  0.2638
  137TMC2    C1 2127   0.010   3.337   9.290 -0.2530  0.1048  0.2291
  137TMC2    C2 2128   0.023   3.333   9.152 -0.6884 -0.4928 -0.9392
  137TMC2    C3 2129   0.008   3.446   9.078  1.3566 -0.1784  0.1899
  137TMC2    C4 2130   4.699   3.447   9.341  0.5472 -0.1436  0.7624
  137TMC2    C5 2131   4.677   3.563   9.267 -0.7509  0.2480 -0.2042
  137TMC2    C6 2132   4.705   3.566   9.130  0.9556  0.8358 -0.4197
  137TMC2     C 2133   4.690   3.226   9.350 -0.1254  0.0635 -0.3415
  137TMC2     O 2134   4.584   3.255   9.406  0.3064  0.9002 -0.0450
  137TMC2     H 2135   0.047   3.241   9.100  0.4592 -2.2313  2.6757
  137TMC2    H1 2136   4.693   3.445   9.449 -2.4115  1.2721  0.6093
  137TMC2    H2 2137   4.699   3.658   9.074  1.4270 -0.5482 -2.7499
  137TMC2    C7 2138   4.571   3.646   9.319  0.8169  1.1537  0.7822
  137TMC2    C8 2139   0.058   3.443   8.942  0.6724 -0.4533 -0.9733
  137TMC2    O1 2140   4.564   3.762   9.286 -0.1940  0.0466  0.0210
  137TMC2    O2 2141   0.138   3.361   8.899  0.2761  0.6718  0.5067
  137TMC2    O5 2142   4.711   3.514   8.873 -0.5232  0.2584 -0.4627
  137TMC2    H5 2143   4.634   3.558   8.914  0.3235  0.5217  0.8342
  138MPD2     C 2144   0.021   2.872   9.340 -0.3146  0.1863  0.2470
  138MPD2    C1 2145   4.705   2.989   9.385  0.1684  0.1679 -0.5040
  138MPD2    C2 2146   4.615   2.985   9.489  0.0024  0.0548 -0.1257
  138MPD2    C3 2147   4.594   2.868   9.561 -1.1452 -0.2941 -0.1666
  138MPD2    C4 2148   4.660   2.761   9.522  0.1557 -0.1298 -0.5845
  138MPD2    C5 2149   0.004   2.758   9.412 -0.0786 -0.8562  0.4023
  138MPD2     H 2150   4.571   3.073   9.535 -1.8746  0.1561 -2.1389
  138MPD2    H1 2151   4.649   2.664   9.570  0.9633 -0.1604 -0.4606
  138MPD2    H2 2152   0.077   2.867   9.248  2.6619  0.1281  2.0477
  138MPD2    H3 2153   0.064   2.672   9.384  2.2484  0.1544  2.3230
  138MPD2     N 2154   4.500   2.859   9.661 -0.0136 -0.7201 -0.2880
  138MPD2    H5 2155   4.433   2.934   9.676  0.6392 -1.0658  4.2746
  138MPD2    N1 2156   0.007   3.106   9.313  0.1182 -0.0033 -0.3014
  138MPD2    H7 2157   0.083   3.090   9.247 -0.8170 -2.7232 -0.7169
  139TMC2    C1 2158   0.742   0.661  13.422 -0.3624  0.4276  0.5562
  139TMC2    C2 2159   0.808   0.778  13.402 -0.0116  0.5506 -0.4918
  139TMC2    C3 2160   0.776   0.890  13.477 -0.1237  0.1168  0.1075
  139TMC2    C4 2161   0.639   0.655  13.513  0.3970 -0.2847  0.2490
  139TMC2    C5 2162   0.616   0.765  13.584 -0.2941  0.4051  0.7818
  139TMC2    C6 2163   0.679   0.888  13.573  0.3288  0.8389 -0.0916
  139TMC2     C 2164   0.740   0.560  13.314 -0.1211  0.4542  0.9146
  139TMC2     O 2165   0.694   0.449  13.338  0.1153  0.0851 -0.0269
  139TMC2     H 2166   0.895   0.776  13.338  0.2557  3.1161 -0.1951
  139TMC2    H1 2167   0.570   0.571  13.517 -1.7077  1.3988 -0.2151
  139TMC2    H2 2168   0.669   0.960  13.653 -3.2726  0.4278 -0.1572
  139TMC2    C7 2169   0.488   0.771  13.645  0.3878  0.0653 -0.1979
  139TMC2    C8 2170   0.820   1.022  13.452  0.1073 -0.0716 -0.4698
  139TMC2    O1 2171   0.425   0.874  13.642 -0.0871 -0.0782 -0.3039
  139TMC2    O2 2172   0.747   1.118  13.480  0.4014 -0.1086 -0.2512
  139TMC2    O5 2173   0.926   1.016  13.371  0.1673 -0.4863  0.8320
  139TMC2    H5 2174   0.973   0.930  13.371 -0.3981 -0.7966  1.6959
  140MPD2     C 2175   0.816   0.620  12.964  0.7095 -0.1161 -0.0818
  140MPD2    C1 2176   0.776   0.541  13.069  0.7419  0.6560  0.6573
  140MPD2    C2 2177   0.761   0.406  13.056  0.1030 -0.3667 -0.5959
  140MPD2    C3 2178   0.772   0.349  12.929 -0.3130 -0.0235  0.4140
  140MPD2    C4 2179   0.820   0.436  12.826 -0.9296  0.1414  0.0337
  140MPD2    C5 2180   0.848   0.563  12.847  0.4416  0.0421 -0.2085
  140MPD2     H 2181   0.719   0.347  13.137  0.8178  0.9967  0.7528
  140MPD2    H1 2182   0.838   0.409  12.722  0.3478  0.5871  0.1422
  140MPD2    H2 2183   0.825   0.727  12.975  0.4825 -0.1638  0.5363
  140MPD2    H3 2184   0.872   0.623  12.760  0.1632 -1.3249 -1.2304
  140MPD2     N 2185   0.737   0.220  12.914 -0.3375  0.0172  0.3464
  140MPD2    H5 2186   0.716   0.171  13.000  1.4716  2.0898  1.9633
  140MPD2    N1 2187   0.763   0.615  13.190 -0.3455  0.9247  0.4684
  140MPD2    H7 2188   0.778   0.715  13.192 -0.3657  0.9191  1.0131
  141TMC2    C1 2189   0.797   1.784  14.503  0.0133 -0.6295 -0.3984
  141TMC2    C2 2190   0.677   1.733  14.538  0.3585  0.2343 -0.2827
  141TMC2    C3 2191   0.628   1.746  14.668 -0.1678 -0.5427  0.7314
  141TMC2    C4 2192   0.873   1.850  14.595 -0.0527 -0.0894 -0.3970
  141TMC2    C5 2193   0.824   1.861  14.720 -0.8807  0.2109  0.1182
  141TMC2    C6 2194   0.700   1.814  14.759 -0.2078 -0.0236 -0.0396
  141TMC2     C 2195   0.815   1.807  14.365 -0.1799  0.4670  0.2242
  141TMC2     O 2196   0.716   1.815  14.292  0.4605 -0.4969 -0.1380
  141TMC2     H 2197   0.615   1.680  14.467  0.5035 -0.3632  0.0397
  141TMC2    H1 2198   0.964   1.898  14.560  0.6721 -0.7843  0.5385
  141TMC2    H2 2199   0.669   1.822  14.863 -0.0410 -0.7522  0.0723
  141TMC2    C7 2200   0.891   1.955  14.810 -0.4663  0.5238  0.1869
  141TMC2    C8 2201   0.509   1.667  14.706  0.5382 -0.2656  0.7542
  141TMC2    O1 2202   0.822   1.997  14.906 -0.2542  0.8915 -0.2496
  141TMC2    O2 2203   0.471   1.576  14.637 -0.5774  0.4830  0.1278
  141TMC2    O5 2204   0.434   1.738  14.795  0.2389 -0.2581  0.0564
  141TMC2    H5 2205   0.468   1.817  14.843  1.0039 -1.7507  1.9729
  142TMC2    C1 2206   3.850   1.034   9.620  0.3575  0.4962  0.2500
  142TMC2    C2 2207   3.972   0.985   9.665  0.7742 -0.2714 -0.3505
  142TMC2    C3 2208   4.081   1.050   9.606  0.4460 -0.7332 -0.1318
  142TMC2    C4 2209   3.836   1.126   9.521 -0.1001  0.4978  0.5086
  142TMC2    C5 2210   3.951   1.183   9.471  0.0721 -0.1525 -0.1978
  142TMC2    C6 2211   4.076   1.149   9.511 -0.1331  0.3929  0.2203
  142TMC2     C 2212   3.735   0.995   9.693 -0.8709  0.1171  0.8915
  142TMC2     O 2213   3.629   0.984   9.635 -0.3153 -0.4941  0.0863
  142TMC2     H 2214   3.981   0.910   9.743 -0.4528 -1.4938 -1.3770
  142TMC2    H1 2215   3.738   1.173   9.521 -0.9364 -1.2339  0.6677
  142TMC2    H2 2216   4.165   1.195   9.472 -1.5610  1.1741 -2.1858
  142TMC2    C7 2217   3.944   1.316   9.396 -0.1123 -0.0573 -1.2946
  142TMC2    C8 2218   4.217   1.029   9.657 -0.1053 -0.1403 -0.0541
  142TMC2    O1 2219   4.020   1.408   9.436 -0.2413 -0.4804  0.0205
  142TMC2    O2 2220   4.282   0.924   9.671 -0.3088  0.4912 -0.0198
  142TMC2    O5 2221   4.260   1.151   9.689 -0.0885 -0.2323 -0.7486
  142TMC2    H5 2222   4.192   1.222   9.684 -2.0459 -2.0243  0.7658
  143MPD2     C 2223   3.514   0.817  10.117 -0.4159 -0.6318  0.5499
  143MPD2    C1 2224   3.482   0.807   9.980 -0.1513  0.5058  0.0397
  143MPD2    C2 2225   3.570   0.860   9.888  0.9296  0.6415 -0.2331
  143MPD2    C3 2226   3.686   0.925   9.922  0.0428 -0.1953  0.2249
  143MPD2    C4 2227   3.720   0.935  10.057  0.5908  0.1363  0.1952
  143MPD2    C5 2228   3.630   0.887  10.149  0.6692  0.3226 -0.3270
  143MPD2     H 2229   3.553   0.850   9.782  0.2176 -2.0203  0.1165
  143MPD2    H1 2230   3.812   0.989  10.076 -0.7703  3.2396 -2.0688
  143MPD2    H2 2231   3.454   0.771  10.194 -1.5999  0.4706  0.2900
  143MPD2    H3 2232   3.661   0.892  10.253  3.8713  1.8607 -1.3369
  143MPD2     N 2233   3.765   0.985   9.828  0.4077 -0.6556  0.0412
  143MPD2    H5 2234   3.856   1.021   9.855 -0.2155 -0.2825  1.6405
  143MPD2    N1 2235   3.376   0.723   9.947 -0.8749  0.5898 -0.5231
  143MPD2    H7 2236   3.317   0.700  10.026  1.2378  0.3513  0.9891
  144TMC2    C1 2237   2.031   4.210   0.699  0.2798  0.2034 -0.1922
  144TMC2    C2 2238   2.064   4.082   0.672 -0.5325  0.8433  0.6175
  144TMC2    C3 2239   2.089   4.000   0.780 -0.3469  0.6993  0.5042
  144TMC2    C4 2240   2.016   4.251   0.830 -0.3073  0.6154 -0.9949
  144TMC2    C5 2241   2.033   4.162   0.941 -0.1039  0.2536  0.7401
  144TMC2    C6 2242   2.068   4.040   0.912  0.1343 -0.9400 -0.2369
  144TMC2     C 2243   2.017   4.295   0.575  0.4099  0.2629 -0.2143
  144TMC2     O 2244   2.070   4.245   0.477  0.1367 -0.3460 -0.1898
  144TMC2     H 2245   2.087   4.041   0.574 -2.2120  1.8133 -0.1996
  144TMC2    H1 2246   2.011   4.358   0.843  0.2818  0.4935  0.2502
  144TMC2    H2 2247   2.081   3.965   0.989  0.2239 -1.8218 -1.1125
  144TMC2    C7 2248   2.072   4.212   1.070 -0.2994 -0.9761  0.5005
  144TMC2    C8 2249   2.189   3.896   0.751 -0.0927 -0.9569 -0.9266
  144TMC2    O1 2250   2.135   4.139   1.144 -0.0266 -0.1795 -0.5784
  144TMC2    O2 2251   2.197   3.839   0.642 -0.1662 -0.5015  0.0384
  144TMC2    O5 2252   2.236   3.837   0.860 -0.1525 -0.4726  0.6594
  144TMC2    H5 2253   2.255   3.895   0.936 -1.1752 -0.1522  0.6671
  145MPD2     C 2254   1.825   4.667   0.297 -0.0707  0.0053 -0.0966
  145MPD2    C1 2255   1.856   4.541   0.262  0.0792  0.4441  0.3610
  145MPD2    C2 2256   1.911   4.457   0.353  0.1229 -0.0215  0.5253
  145MPD2    C3 2257   1.915   4.503   0.487 -0.0258  0.0337  0.1207
  145MPD2    C4 2258   1.878   4.629   0.517 -0.4031  0.4385 -0.1119
  145MPD2    C5 2259   1.849   4.717   0.419  0.1060  0.2327 -0.0423
  145MPD2     H 2260   1.938   4.355   0.327  1.1718  0.5093 -0.4665
  145MPD2    H1 2261   1.880   4.659   0.621  0.2854 -0.3446  0.1049
  145MPD2    H2 2262   1.786   4.730   0.218  0.1339 -0.9973 -0.9986
  145MPD2    H3 2263   1.831   0.083   0.443 -1.0963  0.6500 -2.6554
  145MPD2     N 2264   1.960   4.421   0.592  0.4604 -0.9304 -0.3596
  145MPD2    H5 2265   1.945   4.447   0.689 -0.7790 -0.6856 -0.6233
  145MPD2    N1 2266   1.841   4.493   0.126 -0.1752  0.0310  0.9535
  145MPD2    H7 2267   1.855   4.396   0.101 -0.0266  0.5049 -0.8208
  146TMC2    C1 2268   2.616   3.043  12.597 -0.7781  0.0963  0.2971
  146TMC2    C2 2269   2.489   2.987  12.593 -0.0578  0.3297  0.3316
  146TMC2    C3 2270   2.478   2.884  12.500 -0.5383  0.1000  0.1554
  146TMC2    C4 2271   2.717   3.004  12.509 -0.3136 -0.0825 -0.0095
  146TMC2    C5 2272   2.694   2.897  12.424  0.5619  0.1442 -0.5936
  146TMC2    C6 2273   2.571   2.839  12.409 -0.4569  0.0432 -0.5471
  146TMC2     C 2274   2.651   3.109  12.724  0.6006 -0.1695 -0.0583
  146TMC2     O 2275   2.562   3.125  12.805 -0.6459 -0.2475 -0.0894
  146TMC2     H 2276   2.409   3.035  12.648  0.0058  2.3756 -1.3600
  146TMC2    H1 2277   2.818   3.044  12.507 -0.4374  0.1734 -1.2127
  146TMC2    H2 2278   2.541   2.764  12.337 -0.4268 -1.7890  1.3647
  146TMC2    C7 2279   2.785   2.880  12.311 -0.7618 -0.2715  0.1401
  146TMC2    C8 2280   2.346   2.844  12.476 -0.1356  0.2163  0.0454
  146TMC2    O1 2281   2.734   2.861  12.204  0.1037 -0.6220  0.0207
  146TMC2    O2 2282   2.261   2.922  12.441  0.4557  0.1943  0.1103
  146TMC2    O5 2283   2.338   2.712  12.459  0.1404 -0.0454  0.2187
  146TMC2    H5 2284   2.407   2.676  12.520 -0.6742 -0.4847  0.8755
  147MPD2     C 2285   3.259   2.825  12.132 -0.4992  0.5243  0.9717
  147MPD2    C1 2286   3.274   2.853  12.269 -0.5671  0.2356  0.6622
  147MPD2    C2 2287   3.156   2.858  12.338 -0.1558  0.1188  0.5517
  147MPD2    C3 2288   3.032   2.860  12.276 -0.4098  0.2560  0.0029
  147MPD2    C4 2289   3.025   2.840  12.135  0.8577  0.0914 -0.4848
  147MPD2    C5 2290   3.142   2.836  12.063  0.4304 -0.9895  0.1477
  147MPD2     H 2291   3.158   2.866  12.446  0.8064 -1.8981  0.6890
  147MPD2    H1 2292   2.935   2.821  12.078 -0.4034  1.1159  1.1631
  147MPD2    H2 2293   3.343   2.817  12.064  1.4569  1.1062  3.3064
  147MPD2    H3 2294   3.147   2.809  11.959 -0.5032  2.3999 -0.7907
  147MPD2     N 2295   2.917   2.884  12.357 -0.4067  0.2373 -0.3126
  147MPD2    H5 2296   2.926   2.896  12.457  0.2052  0.8197 -0.4348
  147MPD2    N1 2297   3.403   2.864  12.327 -0.3113  0.0859 -0.2981
  147MPD2    H7 2298   3.476   2.847  12.259 -1.5870  0.2184 -1.6887
  148TMC2    C1 2299   3.195   2.030  10.319  0.3065  0.2467 -0.5057
  148TMC2    C2 2300   3.308   2.096  10.362  0.3352 -0.2171 -0.2346
  148TMC2    C3 2301   3.415   2.025  10.395  0.5452 -0.0852 -0.1752
  148TMC2    C4 2302   3.187   1.896  10.305  0.1802 -0.2456 -0.5901
  148TMC2    C5 2303   3.305   1.830  10.323 -0.3086 -0.1984 -0.4613
  148TMC2    C6 2304   3.417   1.890  10.372  0.1592  0.5932  0.2587
  148TMC2     C 2305   3.066   2.103  10.295  0.6939  0.2870  0.4412
  148TMC2     O 2306   3.070   2.221  10.324  0.8748 -0.1279  0.1845
  148TMC2     H 2307   3.301   2.203  10.375  3.3474 -0.2120  1.0745
  148TMC2    H1 2308   3.108   1.843  10.253 -0.6238 -0.4192  0.8042
  148TMC2    H2 2309   3.504   1.827  10.390  1.1386  1.6241 -0.7664
  148TMC2    C7 2310   3.304   1.678  10.307 -0.0664 -0.1408  0.3024
  148TMC2    C8 2311   3.546   2.088  10.375  0.1700 -0.4701  0.0213
  148TMC2    O1 2312   3.195   1.624  10.318 -0.2517  0.1484  0.2851
  148TMC2    O2 2313   3.639   2.033  10.319 -0.1023  0.1233 -0.2601
  148TMC2    O5 2314   3.555   2.179  10.472 -0.5256 -0.1248 -0.2528
  148TMC2    H5 2315   3.469   2.209  10.509 -1.9246  0.6225 -4.0652
  149MPD2     C 2316   2.828   2.213  10.137  0.0296  0.1817  0.1831
  149MPD2    C1 2317   2.849   2.078  10.157  0.0731 -0.7097 -0.3425
  149MPD2    C2 2318   2.771   1.987  10.080  0.1004 -0.3307 -0.2213
  149MPD2    C3 2319   2.670   2.038   9.997  0.2909 -0.9498  0.4113
  149MPD2    C4 2320   2.652   2.171   9.990 -0.2309  0.0563  0.1394
  149MPD2    C5 2321   2.723   2.260  10.065 -0.0442  0.6695 -0.3483
  149MPD2     H 2322   2.805   1.884  10.082  1.2888  0.0810  0.2574
  149MPD2    H1 2323   2.579   2.222   9.928  0.1663  0.8642  0.3295
  149MPD2    H2 2324   2.879   2.286  10.198  0.0452  1.5587 -1.4628
  149MPD2    H3 2325   2.700   2.366  10.060 -0.5046  0.5065 -1.9086
  149MPD2     N 2326   2.580   1.958   9.917  0.3160 -0.5140  0.1013
  149MPD2    H5 2327   2.513   2.003   9.856  1.9623  1.3396 -0.3570
  149MPD2    N1 2328   2.970   2.033  10.227 -0.5154 -0.0454 -0.3295
  149MPD2    H7 2329   3.002   1.939  10.209  0.1880  0.2093 -0.4221
  150TMC2    C1 2330   4.685   1.393  12.351 -0.6980 -0.5630  0.1970
  150TMC2    C2 2331   4.624   1.516  12.341  0.1856  0.2403  0.3761
  150TMC2    C3 2332   4.711   1.616  12.353  0.6689  0.3368 -0.4929
  150TMC2    C4 2333   0.081   1.371  12.381 -0.1283  0.2541  0.7253
  150TMC2    C5 2334   0.160   1.483  12.393  0.0465  0.4024 -0.9843
  150TMC2    C6 2335   0.108   1.607  12.378 -0.7401  0.8113 -0.1964
  150TMC2     C 2336   4.626   1.273  12.301  0.8685  0.2136  0.3800
  150TMC2     O 2337   4.662   1.166  12.349  0.4049 -0.4974  0.0806
  150TMC2     H 2338   4.521   1.529  12.309 -0.0677  0.7126  1.3598
  150TMC2    H1 2339   0.117   1.270  12.394 -0.0812  0.4509  2.1244
  150TMC2    H2 2340   0.174   1.693  12.378  0.9327 -0.4934  0.2381
  150TMC2    C7 2341   0.306   1.467  12.397  0.0966  0.3799  0.0533
  150TMC2    C8 2342   4.651   1.744  12.367  0.0768  0.0817 -0.7627
  150TMC2    O1 2343   0.369   1.567  12.433 -0.1253  0.3276  0.4277
  150TMC2    O2 2344   4.530   1.761  12.382  0.3082  0.6816  0.4123
  150TMC2    O5 2345   0.001   1.840  12.366 -0.3790  0.0080 -0.8645
  150TMC2    H5 2346   4.693   1.926  12.379  0.2030  0.2582 -0.4678
  151MPD2     C 2347   4.348   0.981  12.001  0.5198  0.0570 -0.5262
  151MPD2    C1 2348   4.396   1.083  11.928 -0.1248 -0.3521  0.6339
  151MPD2    C2 2349   4.455   1.195  11.990 -0.4276  0.2816 -0.0926
  151MPD2    C3 2350   4.486   1.191  12.130  0.1049 -0.2650  0.2252
  151MPD2    C4 2351   4.448   1.072  12.200 -0.8305  0.2656  0.4401
  151MPD2    C5 2352   4.369   0.979  12.137 -0.1727  0.5937 -0.0776
  151MPD2     H 2353   4.485   1.289  11.945  0.1187 -0.7002 -1.7519
  151MPD2    H1 2354   4.467   1.061  12.306 -0.6643 -0.3899  0.3406
  151MPD2    H2 2355   4.306   0.890  11.960 -1.8220  0.9873 -0.1725
  151MPD2    H3 2356   4.343   0.890  12.194 -2.2360 -0.0827 -2.0677
  151MPD2     N 2357   4.553   1.299  12.186  0.0793  0.0524  0.4315
  151MPD2    H5 2358   4.573   1.382  12.130 -0.4266 -2.1399 -2.9661
  151MPD2    N1 2359   4.372   1.075  11.793  0.0008  0.9279  0.3973
  151MPD2    H7 2360   4.347   0.988  11.748 -1.6379  0.2502  2.5905
  152TMC2    C1 2361   4.569   1.368  12.799  0.8325 -0.0242 -0.1192
  152TMC2    C2 2362   4.631   1.479  12.744 -0.0469  0.4416  1.0401
  152TMC2    C3 2363   0.020   1.505  12.788  0.3626 -0.8245  0.4431
  152TMC2    C4 2364   4.628   1.297  12.897 -0.0632 -0.3886  0.0594
  152TMC2    C5 2365   0.021   1.332  12.930 -0.4390  0.0788  0.4690
  152TMC2    C6 2366   0.085   1.440  12.888 -0.3688  0.9905  0.2695
  152TMC2     C 2367   4.475   1.308  12.713 -0.3494 -0.8194  0.6603
  152TMC2     O 2368   4.400   1.385  12.661 -0.3419  0.4261 -0.2029
  152TMC2     H 2369   4.588   1.530  12.659 -0.7720  0.1225  1.2196
  152TMC2    H1 2370   4.573   1.211  12.932 -1.3576  1.0583  1.5805
  152TMC2    H2 2371   0.172   1.487  12.933 -1.1347  1.0276  1.7237
  152TMC2    C7 2372   0.071   1.259  13.035 -0.6124  0.0266 -0.6720
  152TMC2    C8 2373   0.084   1.639  12.750  0.1199  0.2010 -0.5977
  152TMC2    O1 2374   0.002   1.177  13.093  0.7091  0.0680  0.4309
  152TMC2    O2 2375   0.005   1.729  12.720 -0.3283  0.5667 -0.0075
  152TMC2    O5 2376   0.213   1.624  12.714  0.1759 -0.0532  0.1121
  152TMC2    H5 2377   0.250   1.546  12.759 -2.1932 -1.4469 -0.3223
  153MPD2     C 2378   4.402   0.954  12.640 -0.2136  0.0188 -0.2147
  153MPD2    C1 2379   4.395   1.089  12.619 -0.2654  0.1078  0.2542
  153MPD2    C2 2380   4.309   1.143  12.527 -0.4581 -0.1656  0.3768
  153MPD2    C3 2381   4.220   1.060  12.460 -0.0357 -0.7355 -0.3699
  153MPD2    C4 2382   4.215   0.924  12.483  0.4199 -0.8041  0.1868
  153MPD2    C5 2383   4.315   0.877  12.565 -0.4129 -0.0197 -0.5077
  153MPD2     H 2384   4.322   1.246  12.497 -2.1662  0.0838  0.4739
  153MPD2    H1 2385   4.144   0.855  12.439  0.5237 -0.5253 -0.4251
  153MPD2    H2 2386   4.476   0.918  12.710 -1.7437 -0.4248  1.1479
  153MPD2    H3 2387   4.319   0.769  12.579 -0.4499  0.3425  2.2658
  153MPD2     N 2388   4.132   1.125  12.366 -1.2495  0.1959  0.6697
  153MPD2    H5 2389   4.146   1.226  12.358  1.1068 -0.2389 -0.9050
  153MPD2    N1 2390   4.485   1.173  12.697 -0.4449  0.8142  0.0620
  153MPD2    H7 2391   4.543   1.126  12.767 -2.8018  0.6243  1.8960
  154TMC2    C1 2392   2.171   1.160   0.324  0.5489 -0.0733  0.2645
  154TMC2    C2 2393   2.167   1.057   0.415  0.2469 -0.4811  0.6388
  154TMC2    C3 2394   2.226   0.940   0.386  0.7732 -0.0187 -0.2627
  154TMC2    C4 2395   2.218   1.128   0.197  0.0783  0.5231 -0.2545
  154TMC2    C5 2396   2.274   1.006   0.171 -0.0287 -0.9000 -0.7253
  154TMC2    C6 2397   2.294   0.918   0.277  0.0291 -0.0083 -0.3622
  154TMC2     C 2398   2.077   1.280   0.348 -0.2106 -0.6670  0.4303
  154TMC2     O 2399   2.016   1.307   0.453  0.6630 -0.0026  0.2711
  154TMC2     H 2400   2.116   1.073   0.510  0.1019 -0.1114  0.4995
  154TMC2    H1 2401   2.198   1.190   0.110 -0.3353 -1.7218 -1.7715
  154TMC2    H2 2402   2.342   0.827   0.245  0.1370 -0.3076  0.6381
  154TMC2    C7 2403   2.366   0.994   0.058  0.7237 -0.3352 -0.1714
  154TMC2    C8 2404   2.239   0.858   0.506  0.1334 -0.0870  0.2592
  154TMC2    O1 2405   2.375   0.884   0.000  0.0396 -0.0250 -0.0223
  154TMC2    O2 2406   2.173   0.886   0.608  0.2268 -0.4385  0.0532
  154TMC2    O5 2407   2.341   0.771   0.492 -0.5333  0.6394  0.6025
  154TMC2    H5 2408   2.373   0.755   0.401  0.5231  0.9257  0.9162
  155MPD2     C 2409   2.018   1.545   0.096  0.1184 -0.2796 -0.4458
  155MPD2    C1 2410   1.997   1.475   0.212  0.0435 -0.6143 -0.3774
  155MPD2    C2 2411   1.882   1.501   0.287 -0.4010  0.8809  0.0063
  155MPD2    C3 2412   1.798   1.606   0.259 -0.4812 -0.8610 -0.7336
  155MPD2    C4 2413   1.817   1.679   0.145 -0.1493 -0.2874 -0.4530
  155MPD2    C5 2414   1.926   1.651   0.073 -0.3962  0.2019 -0.6593
  155MPD2     H 2415   1.849   1.438   0.369  1.7690 -0.0291  0.1605
  155MPD2    H1 2416   1.753   1.757   0.107  1.3256  0.7095 -0.8838
  155MPD2    H2 2417   2.098   1.527   0.025  1.3968  0.4804  0.8052
  155MPD2    H3 2418   1.945   1.725  17.747  0.0914  0.7470 -0.0223
  155MPD2     N 2419   1.686   1.630   0.340 -0.3756  0.0251 -0.4929
  155MPD2    H5 2420   1.672   1.564   0.416 -0.3014 -1.1818 -1.5272
  155MPD2    N1 2421   2.078   1.359   0.234  0.2241 -0.2557  0.0174
  155MPD2    H7 2422   2.160   1.339   0.176  0.9935  2.5356  0.1755
  156TMC2    C1 2423   4.113   3.806  11.010 -0.7549 -1.0270 -0.1615
  156TMC2    C2 2424   3.999   3.764  10.967  0.3507  0.0641 -0.0543
  156TMC2    C3 2425   3.890   3.850  10.957  0.3345  0.5630  0.1813
  156TMC2    C4 2426   4.131   3.936  11.031 -1.1969  0.8821  0.7974
  156TMC2    C5 2427   4.027   4.024  11.012  0.0023  0.2707  0.0576
  156TMC2    C6 2428   3.904   3.978  10.986 -0.3609 -0.4588  0.2561
  156TMC2     C 2429   4.231   3.726  11.015  0.2562 -0.1215 -0.8338
  156TMC2     O 2430   4.337   3.781  10.985 -0.4166  0.2655  0.1155
  156TMC2     H 2431   3.986   3.658  10.947 -0.5539  0.5492 -2.0782
  156TMC2    H1 2432   4.217   3.983  11.078 -0.7627  1.7168 -0.7862
  156TMC2    H2 2433   3.823   4.043  10.954 -0.1919 -0.3948 -0.0465
  156TMC2    C7 2434   4.042   4.166  11.056  0.2134  0.2225  0.0987
  156TMC2    C8 2435   3.768   3.795  10.899  0.1965  0.1320 -0.7733
  156TMC2    O1 2436   4.154   4.214  11.057 -0.6300 -0.8133  0.4980
  156TMC2    O2 2437   3.771   3.689  10.840 -0.4719 -0.0883  0.5516
  156TMC2    O5 2438   3.665   3.847  10.967  0.1547  0.8715 -0.4353
  156TMC2    H5 2439   3.690   3.898  11.047  0.0912 -2.0643  1.4546
  157MPD2     C 2440   4.268   3.380  11.140  0.4684 -0.5637 -0.1109
  157MPD2    C1 2441   4.313   3.502  11.090  0.7683 -0.4384  0.0659
  157MPD2    C2 2442   4.448   3.523  11.085 -0.7913  0.7852  0.4022
  157MPD2    C3 2443   4.538   3.424  11.112  0.0919  0.3038  0.0118
  157MPD2    C4 2444   4.483   3.301  11.152 -0.3783 -0.1756 -0.3631
  157MPD2    C5 2445   4.355   3.280  11.181 -0.6463 -0.1560  0.6947
  157MPD2     H 2446   4.482   3.613  11.034  2.2038 -0.6143 -0.0926
  157MPD2    H1 2447   4.544   3.214  11.174  0.6223  0.1477 -1.9253
  157MPD2    H2 2448   4.163   3.358  11.156  0.5082  1.1305  2.4005
  157MPD2    H3 2449   4.321   3.188  11.228  0.2342 -0.5834  0.4914
  157MPD2     N 2450   4.670   3.446  11.084  0.1280 -0.3538 -0.2974
  157MPD2    H5 2451   4.690   3.539  11.049 -1.3463  0.1504  0.2232
  157MPD2    N1 2452   4.215   3.604  11.076 -0.1452 -0.7886  0.7105
  157MPD2    H7 2453   4.120   3.572  11.086  0.0589 -1.7251 -0.4225
  158TMC2    C1 2454   0.277   1.966  13.503 -1.1070  0.1830 -0.2994
  158TMC2    C2 2455   0.258   2.069  13.417 -0.0889  0.6098  0.3526
  158TMC2    C3 2456   0.147   2.072  13.337 -0.9317  0.0733 -0.4252
  158TMC2    C4 2457   0.184   1.865  13.523  0.2942 -0.6316 -0.6196
  158TMC2    C5 2458   0.076   1.870  13.436  0.2461  0.3670  0.2621
  158TMC2    C6 2459   0.051   1.972  13.343 -0.0387  0.4706 -0.5412
  158TMC2     C 2460   0.415   1.944  13.545 -0.1866 -0.1762 -0.1641
  158TMC2     O 2461   0.501   1.997  13.478 -0.0153 -0.0555 -0.5457
  158TMC2     H 2462   0.327   2.148  13.391  1.7338 -0.8658  0.6539
  158TMC2    H1 2463   0.201   1.788  13.598  0.1672 -1.0251 -0.9904
  158TMC2    H2 2464   4.718   1.951  13.265 -1.1788 -1.4127  0.9776
  158TMC2    C7 2465   4.689   1.820  13.481 -0.0925 -0.4572 -0.4766
  158TMC2    C8 2466   0.145   2.154  13.227  0.0603 -0.6120 -0.7493
  158TMC2    O1 2467   4.589   1.880  13.445 -0.1633  0.2537 -0.0058
  158TMC2    O2 2468   0.250   2.191  13.174 -0.3587 -0.1063  0.5465
  158TMC2    O5 2469   0.021   2.185  13.194  0.1097  0.5367  0.6914
  158TMC2    H5 2470   4.689   2.181  13.262  1.3154  0.9933  1.9592
  159MPD2     C 2471   0.780   1.688  13.808  0.0453  0.0367 -0.8351
  159MPD2    C1 2472   0.657   1.679  13.870 -0.5049  0.9582  0.3941
  159MPD2    C2 2473   0.547   1.740  13.819 -0.7802 -0.1864  0.4762
  159MPD2    C3 2474   0.553   1.809  13.702  0.6539 -0.0876 -0.4475
  159MPD2    C4 2475   0.676   1.824  13.637 -0.6917  0.2852  0.2593
  159MPD2    C5 2476   0.790   1.763  13.690 -0.2616  1.2817  0.3836
  159MPD2     H 2477   0.454   1.748  13.874 -0.8991  0.2392  0.2188
  159MPD2    H1 2478   0.687   1.882  13.546 -3.2724  0.1477 -0.1484
  159MPD2    H2 2479   0.868   1.647  13.856  1.0079  1.8139 -1.0861
  159MPD2    H3 2480   0.885   1.783  13.641 -2.0243 -0.4127 -3.7751
  159MPD2     N 2481   0.425   1.859  13.650 -0.1432  0.3852 -0.1545
  159MPD2    H5 2482   0.340   1.839  13.702 -0.0260  0.0331 -0.1029
  159MPD2    N1 2483   0.656   1.609  13.993  0.1427 -0.2839  0.7875
  159MPD2    H7 2484   0.748   1.574  14.014  1.6091  2.9802 -0.2166
  160TMC2    C1 2485   0.548   4.526   0.776 -0.3754 -0.0227 -0.7117
  160TMC2    C2 2486   0.543   4.391   0.789 -0.3023 -0.6401  0.0689
  160TMC2    C3 2487   0.658   4.330   0.837  0.3227 -0.4067  0.2314
  160TMC2    C4 2488   0.668   4.593   0.791  0.1250 -0.2650  0.0098
  160TMC2    C5 2489   0.780   4.527   0.839 -0.2320  0.5311  0.2087
  160TMC2    C6 2490   0.779   4.389   0.858 -0.3113  0.2105  0.0230
  160TMC2     C 2491   0.428   4.608   0.748  0.2160  0.2484 -0.4459
  160TMC2     O 2492   0.436   4.726   0.779 -0.2593 -0.5271 -0.1146
  160TMC2     H 2493   0.453   4.331   0.782 -1.4169  1.1350 -0.7325
  160TMC2    H1 2494   0.672   4.695   0.755  2.4166  0.5149  2.4809
  160TMC2    H2 2495   0.871   4.336   0.880  0.0650  0.2124 -1.5557
  160TMC2    C7 2496   0.903   4.567   0.779 -0.0532  0.4198 -0.1593
  160TMC2    C8 2497   0.662   4.188   0.860  0.5481  0.1901  0.1462
  160TMC2    O1 2498   0.973   4.474   0.743 -0.5802  0.1837 -0.1676
  160TMC2    O2 2499   0.712   4.142   0.960  0.3851  0.1673 -0.2700
  160TMC2    O5 2500   0.587   4.128   0.764  0.0025 -0.5801 -0.3219
  160TMC2    H5 2501   0.563   4.190   0.692 -1.8292 -1.7836 -0.7404
  161MPD2     C 2502   0.099   4.460   0.684  0.4764  0.0778 -0.0336
  161MPD2    C1 2503   0.185   4.570   0.689  0.0792 -0.0254  0.7203
  161MPD2    C2 2504   0.138   4.695   0.674 -0.4326 -0.5627 -0.2283
  161MPD2    C3 2505   0.010   4.718   0.641  0.4966 -0.5924 -0.4487
  161MPD2    C4 2506   4.665   4.611   0.629  0.1009  0.7833  0.4261
  161MPD2    C5 2507   4.707   4.481   0.654  0.2950  0.7849 -0.0792
  161MPD2     H 2508   0.210   0.036   0.694  0.9106 -1.7126 -0.5141
  161MPD2    H1 2509   4.560   4.623   0.607  0.4802  0.0740 -1.7998
  161MPD2    H2 2510   0.135   4.357   0.682  0.4074 -0.0166  3.6668
  161MPD2    H3 2511   4.654   4.389   0.630 -0.1813  1.5194 -1.8042
  161MPD2     N 2512   4.693   0.108   0.612 -0.0209 -0.4172 -0.8279
  161MPD2    H5 2513   4.593   0.113   0.594  0.0832  0.9429 -1.0477
  161MPD2    N1 2514   0.320   4.532   0.716 -0.0533  0.0391  0.1251
  161MPD2    H7 2515   0.334   4.433   0.729  1.0402  0.1453 -0.1971
  162TMC2    C1 2516   3.353   1.945   1.402 -0.5170 -0.6268  0.5554
  162TMC2    C2 2517   3.329   2.037   1.503 -0.2622  0.0626  0.5641
  162TMC2    C3 2518   3.259   2.003   1.613  0.1928  0.5691  0.2112
  162TMC2    C4 2519   3.284   1.830   1.409 -0.3631 -1.1769 -0.0791
  162TMC2    C5 2520   3.206   1.807   1.518  0.9501  0.3926 -0.1522
  162TMC2    C6 2521   3.189   1.893   1.622  0.5108  0.1188  0.2981
  162TMC2     C 2522   3.412   1.982   1.275 -0.2710  0.3957 -0.4458
  162TMC2     O 2523   3.375   1.927   1.175  0.4373 -0.1182 -0.4723
  162TMC2     H 2524   3.392   2.124   1.513  1.6900 -1.4701  1.5823
  162TMC2    H1 2525   3.274   1.771   1.319 -0.9540 -1.7204  0.3414
  162TMC2    H2 2526   3.134   1.868   1.712  0.4720  0.2310  0.3057
  162TMC2    C7 2527   3.138   1.682   1.518 -0.2087 -0.4133  0.4349
  162TMC2    C8 2528   3.211   2.100   1.711  0.7901  0.4521  0.4239
  162TMC2    O1 2529   3.034   1.672   1.581 -0.0954  0.3172 -0.0421
  162TMC2    O2 2530   3.150   2.062   1.813 -0.5273  0.8568 -0.3996
  162TMC2    O5 2531   3.207   2.229   1.655 -0.1051  0.3887  0.5925
  162TMC2    H5 2532   3.242   2.240   1.564 -0.9999  1.7147  0.4193
  163MPD2     C 2533   3.809   2.164   1.018  0.0877 -0.2465  1.1971
  163MPD2    C1 2534   3.686   2.122   0.979 -0.0008  0.5983  0.3047
  163MPD2    C2 2535   3.599   2.081   1.075 -0.3847 -0.6884 -0.3625
  163MPD2    C3 2536   3.633   2.079   1.207 -0.4867  0.1154 -0.0819
  163MPD2    C4 2537   3.752   2.133   1.251 -0.7189  0.5853 -0.6767
  163MPD2    C5 2538   3.838   2.174   1.150  0.2965 -0.2392 -0.6465
  163MPD2     H 2539   3.495   2.058   1.055 -0.4471 -0.4954 -0.2621
  163MPD2    H1 2540   3.783   2.148   1.354  1.5478  0.2784 -1.3203
  163MPD2    H2 2541   3.877   2.194   0.939 -0.5741  1.2684  1.1967
  163MPD2    H3 2542   3.936   2.207   1.181  0.9463 -1.9844 -0.8419
  163MPD2     N 2543   3.537   2.033   1.306  0.0089 -0.0330  0.2919
  163MPD2    H5 2544   3.572   2.030   1.401 -2.2566  0.2581  1.1307
  163MPD2    N1 2545   3.661   2.109   0.839  0.2360 -0.6915  0.3888
  163MPD2    H7 2546   3.729   2.140   0.771 -1.0334 -0.0671 -0.5924
  164TMC2    C1 2547   3.775   1.722  10.609  0.6161 -0.9367 -0.4769
  164TMC2    C2 2548   3.849   1.825  10.564  0.2313 -1.1279  0.6845
  164TMC2    C3 2549   3.804   1.951  10.590  0.5079  1.2061 -0.0369
  164TMC2    C4 2550   3.663   1.747  10.690 -0.2134  0.0953 -0.2738
  164TMC2    C5 2551   3.633   1.872  10.723 -0.3040  0.2645  0.3506
  164TMC2    C6 2552   3.691   1.977  10.666 -0.4727 -0.5466 -0.0520
  164TMC2     C 2553   3.789   1.593  10.551  0.1720 -0.8964 -0.1181
  164TMC2     O 2554   3.714   1.511  10.601 -0.5695 -0.0212 -0.7805
  164TMC2     H 2555   3.946   1.820  10.516 -0.0383 -1.7598  0.1995
  164TMC2    H1 2556   3.612   1.662  10.734  0.0272  0.8144  1.3985
  164TMC2    H2 2557   3.669   2.078  10.699  1.2841 -0.4454  0.8285
  164TMC2    C7 2558   3.512   1.905  10.794 -0.3728  0.2151 -0.2817
  164TMC2    C8 2559   3.869   2.068  10.546 -0.1990  0.9853  0.5248
  164TMC2    O1 2560   3.448   2.000  10.761 -0.6017 -0.0952 -0.2050
  164TMC2    O2 2561   3.863   2.176  10.598 -0.0834  0.5742  0.9618
  164TMC2    O5 2562   3.949   2.036  10.447 -0.3369  0.1120  0.3300
  164TMC2    H5 2563   3.926   1.951  10.404  1.1098  0.3073 -0.8295
  165TMC2    C1 2564   0.463   3.896   0.487 -0.5495  0.1374 -0.5236
  165TMC2    C2 2565   0.424   3.886   0.351  1.2372 -0.0990  0.4890
  165TMC2    C3 2566   0.513   3.922   0.261 -0.1738 -1.1288  0.0483
  165TMC2    C4 2567   0.592   3.913   0.529 -0.4036  0.4869  0.6677
  165TMC2    C5 2568   0.681   3.935   0.424 -0.2510 -0.0763  0.2927
  165TMC2    C6 2569   0.646   3.948   0.293 -0.2299 -0.0020 -0.6387
  165TMC2     C 2570   0.359   3.878   0.579 -0.3999 -0.0252 -0.3063
  165TMC2     O 2571   0.268   3.808   0.531 -0.0302  0.0988  0.8657
  165TMC2     H 2572   0.324   3.881   0.309  1.2200  0.6930  0.4260
  165TMC2    H1 2573   0.624   3.899   0.632  2.2577  0.5524 -0.1774
  165TMC2    H2 2574   0.705   4.006   0.223 -1.7384 -0.5263 -2.3485
  165TMC2    C7 2575   0.817   3.929   0.457  0.2399 -0.1492 -0.2889
  165TMC2    C8 2576   0.459   3.919   0.125 -0.1364  0.4872 -0.0694
  165TMC2    O1 2577   0.836   3.942   0.572  0.0342 -0.3077  0.0200
  165TMC2    O2 2578   0.350   3.966   0.103 -0.7628 -0.3760  0.3853
  165TMC2    O5 2579   0.560   3.894   0.038  0.4685  0.2645 -0.0491
  165TMC2    H5 2580   0.652   3.884   0.072  0.2658  1.6494  0.9138
  166MPD2     C 2581   0.199   3.806   1.060  0.6950  0.0535 -0.8197
  166MPD2    C1 2582   0.141   3.767   0.943  0.3878 -0.2861 -0.4568
  166MPD2    C2 2583   0.202   3.801   0.822 -0.2485 -0.8449 -0.1829
  166MPD2    C3 2584   0.327   3.874   0.822  1.0626 -0.7637  0.1011
  166MPD2    C4 2585   0.388   3.907   0.944  0.7648 -0.8763 -0.6330
  166MPD2    C5 2586   0.321   3.873   1.058 -0.5421  0.1271 -0.4953
  166MPD2     H 2587   0.155   3.776   0.728 -0.8251  0.9322 -0.3561
  166MPD2    H1 2588   0.484   3.957   0.944 -0.5414  1.6600 -0.1119
  166MPD2    H2 2589   0.152   3.792   1.157 -0.6619  3.0862 -1.0481
  166MPD2    H3 2590   0.367   3.893   1.154  1.3191  0.2263 -1.4074
  166MPD2     N 2591   0.396   3.914   0.708 -0.4628  0.5197 -0.5546
  166MPD2    H5 2592   0.486   3.958   0.723  0.8780 -2.4866  0.2809
  166MPD2    N1 2593   0.023   3.687   0.947 -0.7112 -0.3945 -0.2298
  166MPD2    H7 2594   4.717   3.687   1.038 -0.3932  0.3901 -0.0768
  167TMC2    C1 2595   3.207   1.849  12.508  0.0230  0.3966  0.3512
  167TMC2    C2 2596   3.094   1.846  12.590  0.5380 -0.1081  0.4695
  167TMC2    C3 2597   3.062   1.725  12.645  0.2276 -0.0601  0.1654
  167TMC2    C4 2598   3.286   1.743  12.483  0.4019  1.5559 -0.1480
  167TMC2    C5 2599   3.249   1.623  12.545  0.3494  0.5191 -0.0486
  167TMC2    C6 2600   3.139   1.614  12.622 -0.2048 -0.0244 -0.4947
  167TMC2     C 2601   3.236   1.974  12.447 -1.0189 -0.0811  0.0818
  167TMC2     O 2602   3.350   2.002  12.419 -0.1774 -0.7754  0.4167
  167TMC2     H 2603   3.046   1.938  12.623  0.2883 -0.0490 -0.0492
  167TMC2    H1 2604   3.374   1.738  12.421  0.2904 -0.5834 -0.1137
  167TMC2    H2 2605   3.115   1.526  12.681 -0.5675 -0.8487 -1.8518
  167TMC2    C7 2606   3.330   1.509  12.505 -0.5927  0.0991 -0.1390
  167TMC2    C8 2607   2.987   1.720  12.766 -0.2963  0.2894  0.5142
  167TMC2    O1 2608   3.296   1.401  12.561 -0.0720 -0.3839 -0.4925
  167TMC2    O2 2609   2.978   1.806  12.853 -0.4398  0.2420 -0.0620
  167TMC2    O5 2610   2.910   1.603  12.769 -0.7332  1.2889  0.1032
  167TMC2    H5 2611   2.912   1.543  12.691  0.6446 -1.3000  2.1120
  168MPD2     C 2612   3.218   2.218  12.281  0.3539  0.4589 -0.6534
  168MPD2    C1 2613   3.113   2.131  12.309 -0.2016 -0.2758  0.2204
  168MPD2    C2 2614   2.997   2.148  12.232 -0.1083 -0.5987 -0.6033
  168MPD2    C3 2615   2.994   2.233  12.125 -0.4332  0.2244  0.3151
  168MPD2    C4 2616   3.102   2.302  12.089 -0.3672  0.1784  0.2836
  168MPD2    C5 2617   3.218   2.304  12.172  0.1293 -0.6186 -0.4434
  168MPD2     H 2618   2.910   2.083  12.240  0.8087 -1.5915  1.2689
  168MPD2    H1 2619   3.091   2.363  12.000 -0.2948 -0.9238 -0.4746
  168MPD2    H2 2620   3.318   2.222  12.322 -0.1944  1.9008  0.5541
  168MPD2    H3 2621   3.315   2.345  12.147 -0.1552 -0.3575 -1.1012
  168MPD2     N 2622   2.884   2.229  12.032 -0.3053  0.0224 -0.3176
  168MPD2    H5 2623   2.900   2.268  11.940  0.1622 -0.1945 -0.3261
  168MPD2    N1 2624   3.120   2.026  12.399  0.2157 -0.4744  0.4905
  168MPD2    H7 2625   3.042   1.963  12.413  1.5518 -2.9925 -3.5837
  169MPD1     C 2626   4.041   1.721   8.932 -0.1350  0.1653 -0.5529
  169MPD1    C1 2627   4.165   1.781   8.935  0.4855 -0.2356 -0.2604
  169MPD1    C2 2628   4.274   1.700   8.962 -0.4273 -1.1601 -0.4839
  169MPD1    C3 2629   4.268   1.569   8.998 -0.1126 -0.4990  0.2805
  169MPD1    C4 2630   4.139   1.518   9.027 -0.2667  0.2542  0.0607
  169MPD1    C5 2631   4.035   1.593   8.984 -0.2526  0.1436 -0.0810
  169MPD1     H 2632   4.375   1.739   8.954 -0.7800 -0.0505  0.5359
  169MPD1    H1 2633   4.127   1.415   9.059 -1.7971  1.0621  2.1385
  169MPD1    H2 2634   3.945   1.762   8.903  1.5542  2.5948 -2.7133
  169MPD1    H3 2635   3.934   1.555   8.995  0.5763 -2.0750 -0.1585
  169MPD1     N 2636   4.388   1.501   9.020 -0.2669  0.3340  0.5150
  169MPD1    H5 2637   4.468   1.558   8.993 -2.0987  2.8550  0.4543
  169MPD1    N1 2638   4.181   1.902   8.876 -0.2237  0.3340 -0.0209
  169MPD1    H6 2639   4.091   1.947   8.894 -0.0067  0.8241 -0.1770
  169MPD1    H7 2640   4.246   1.963   8.924 -2.9819  2.4631  1.0695
  170MPD1     C 2641   4.442   3.878  13.141 -0.5404 -1.0340 -0.5290
  170MPD1    C1 2642   4.447   3.857  13.277  0.8250 -0.6040 -0.3623
  170MPD1    C2 2643   4.332   3.900  13.343 -0.3156 -0.5709 -1.0360
  170MPD1    C3 2644   4.213   3.940  13.285  1.0696  0.1931 -0.0375
  170MPD1    C4 2645   4.206   3.943  13.145  0.3025 -0.2421  0.2694
  170MPD1    C5 2646   4.324   3.907  13.079  0.4628  0.1701  0.2986
  170MPD1     H 2647   4.333   3.889  13.451 -0.4182  2.8083 -0.6827
  170MPD1    H1 2648   4.128   3.985  13.083  1.3577  0.2044 -0.7426
  170MPD1    H2 2649   4.532   3.879  13.082 -0.3511  1.2517 -0.2032
  170MPD1    H3 2650   4.333   3.932  12.974  1.3717  0.9734  0.5749
  170MPD1     N 2651   4.111   3.979  13.371  0.6654 -0.0215  0.2336
  170MPD1    H5 2652   4.122   3.979  13.472 -1.2096  1.1460  0.4515
  170MPD1    N1 2653   4.564   3.852  13.355  0.0979  0.0405 -0.4522
  170MPD1    H6 2654   4.543   3.816  13.448  2.7771 -1.7145 -0.5226
  170MPD1    H7 2655   4.622   3.785  13.304  0.0190 -0.7532  0.4915
  171MPD1     C 2656   2.787   0.565  15.212 -0.0781  0.1487 -0.5462
  171MPD1    C1 2657   2.788   0.431  15.182  0.6002 -0.2656  0.2921
  171MPD1    C2 2658   2.814   0.345  15.288  0.0239 -0.4879 -0.0470
  171MPD1    C3 2659   2.859   0.391  15.414 -0.2541 -0.5234 -0.0247
  171MPD1    C4 2660   2.871   0.528  15.434 -0.0816  0.0586 -0.6967
  171MPD1    C5 2661   2.832   0.614  15.332 -0.1446  0.5931  0.0085
  171MPD1     H 2662   2.787   0.241  15.280  3.0595 -1.2431 -0.4225
  171MPD1    H1 2663   2.893   0.579  15.527 -1.4609 -1.4443  0.4426
  171MPD1    H2 2664   2.748   0.634  15.138  3.1895  1.0907 -1.4075
  171MPD1    H3 2665   2.834   0.722  15.344 -1.9237  0.8434 -1.8859
  171MPD1     N 2666   2.894   0.298  15.528 -0.1158  0.3729 -0.1432
  171MPD1    H5 2667   2.916   0.342  15.617  0.4433  0.3967 -0.2891
  171MPD1    N1 2668   2.710   0.381  15.072 -0.3254 -0.1859  0.3844
  171MPD1    H6 2669   2.709   0.446  14.993 -0.8564  1.5033  1.7818
  171MPD1    H7 2670   2.748   0.295  15.034  0.7826 -0.9512  3.1999
  172MPD1     C 2671   2.712   0.002   0.734  0.0169  0.0274  0.2566
  172MPD1    C1 2672   2.591   0.057   0.771  0.1636  0.8529  0.3767
  172MPD1    C2 2673   2.486   0.057   0.688  0.2797  0.4411  0.4801
  172MPD1    C3 2674   2.499   0.016   0.555  0.1664  0.4890  0.2139
  172MPD1    C4 2675   2.623   4.711   0.514  0.2371 -0.3097 -0.1487
  172MPD1    C5 2676   2.729   4.709   0.603  0.4998  0.5609  0.4494
  172MPD1     H 2677   2.395   0.105   0.723  0.5884  1.7832 -0.5649
  172MPD1    H1 2678   2.645   4.695   0.409 -1.0663 -1.0078 -0.3191
  172MPD1    H2 2679   2.795   0.003   0.803 -0.1869 -2.1673  0.5397
  172MPD1    H3 2680   2.824   4.670   0.570 -0.3337 -1.1157 -0.0058
  172MPD1     N 2681   2.395   0.026   0.465 -0.2517 -0.2247  0.1731
  172MPD1    H5 2682   2.423   0.007   0.370  1.2635  0.7765  0.4191
  172MPD1    N1 2683   2.577   0.086   0.912  0.0437  0.1873  1.4763
  172MPD1    H6 2684   2.491   0.137   0.928  0.1135  0.9175 -0.4376
  172MPD1    H7 2685   2.658   0.123   0.961  0.8021 -0.0072  0.3825
  173MPD1     C 2686   3.029   4.427  13.616 -0.2631 -0.2381  0.1349
  173MPD1    C1 2687   2.923   4.349  13.668 -0.2291  0.4814  0.8413
  173MPD1    C2 2688   2.963   4.245  13.750  0.1413 -0.2635  0.4289
  173MPD1    C3 2689   3.095   4.217  13.774  0.1111  0.1282 -0.0469
  173MPD1    C4 2690   3.198   4.292  13.720  0.4012  0.5418 -0.8034
  173MPD1    C5 2691   3.159   4.398  13.646 -0.2875 -0.1112  0.1526
  173MPD1     H 2692   2.890   4.180  13.796 -1.9441  0.9706 -1.1451
  173MPD1    H1 2693   3.303   4.270  13.737  0.0750 -0.5014 -0.1362
  173MPD1    H2 2694   3.016   4.520  13.561 -1.1951 -1.5889 -1.9388
  173MPD1    H3 2695   3.240   4.466  13.625 -0.4067 -0.2977 -0.9200
  173MPD1     N 2696   3.108   4.107  13.862  0.2349 -0.4170  0.4089
  173MPD1    H5 2697   3.024   4.059  13.894 -0.5867  1.2728  0.7446
  173MPD1    N1 2698   2.782   4.376  13.666  0.1057 -0.3689 -0.2061
  173MPD1    H6 2699   2.720   4.296  13.672 -0.9207  0.5020  0.8315
  173MPD1    H7 2700   2.743   4.439  13.595 -0.3910 -0.7649 -0.2797
  174MPD1     C 2701   3.727   3.934  14.629 -0.4351 -0.7620  0.4616
  174MPD1    C1 2702   3.593   3.906  14.660  0.2744  0.0553 -0.1520
  174MPD1    C2 2703   3.503   3.904  14.558  0.5998 -0.3053 -0.4691
  174MPD1    C3 2704   3.543   3.918  14.426  0.0390  0.1860 -0.6827
  174MPD1    C4 2705   3.672   3.939  14.403 -0.2960  0.0612 -0.5206
  174MPD1    C5 2706   3.761   3.949  14.503  0.0979 -0.4272  0.2487
  174MPD1     H 2707   3.397   3.896  14.582  0.9126 -2.3464  0.2672
  174MPD1    H1 2708   3.709   3.943  14.301  0.9651 -0.7480 -0.0914
  174MPD1    H2 2709   3.804   3.933  14.705 -0.0381  1.5682  0.0859
  174MPD1    H3 2710   3.868   3.941  14.488 -0.3458 -3.0731 -1.3998
  174MPD1     N 2711   3.454   3.905  14.317  0.4131 -0.2534  0.2833
  174MPD1    H5 2712   3.483   3.917  14.221  0.9960  0.3285  0.5315
  174MPD1    N1 2713   3.548   3.890  14.793  0.3581 -0.0009  0.2765
  174MPD1    H6 2714   3.623   3.836  14.834  0.7300 -0.7010 -1.3239
  174MPD1    H7 2715   3.466   3.829  14.790 -0.8887  1.6799 -0.0284
  175MPD1     C 2716   1.874   0.235  14.917 -0.1438 -0.0526 -1.0703
  175MPD1    C1 2717   1.983   0.286  14.984  0.3666  0.0308 -0.1268
  175MPD1    C2 2718   1.965   0.317  15.116 -0.4235  0.2612  0.4170
  175MPD1    C3 2719   1.839   0.316  15.176  0.2961 -0.3146 -1.3313
  175MPD1    C4 2720   1.730   0.282  15.101 -0.3185  0.1500  0.0605
  175MPD1    C5 2721   1.751   0.238  14.975  0.5936  0.0708  0.1018
  175MPD1     H 2722   2.054   0.357  15.163  0.0684  0.0535 -0.3349
  175MPD1    H1 2723   1.633   0.288  15.149 -0.5666 -3.8524  0.0811
  175MPD1    H2 2724   1.890   0.180  14.824 -0.7220 -2.6066  0.3361
  175MPD1    H3 2725   1.674   0.194  14.913  2.8137 -1.7996 -1.3342
  175MPD1     N 2726   1.823   0.327  15.318  0.4253  0.4397 -0.5290
  175MPD1    H5 2727   1.726   0.321  15.348  0.3919 -0.0400 -0.7309
  175MPD1    N1 2728   2.111   0.283  14.921  0.6324  0.0247  0.4076
  175MPD1    H6 2729   2.171   0.358  14.956  0.7251 -1.1412  2.7467
  175MPD1    H7 2730   2.104   0.294  14.820 -0.7465  1.2090  0.6316
  176MPD1     C 2731   3.166   2.804   0.110 -0.3514  0.5267 -0.8370
  176MPD1    C1 2732   3.185   2.931   0.155 -0.0009  0.1358  0.2611
  176MPD1    C2 2733   3.274   3.010   0.083 -0.4931  0.2618 -0.1543
  176MPD1    C3 2734   3.349   2.963  17.730  0.0858  0.1886  0.5491
  176MPD1    C4 2735   3.336   2.828  17.696  0.4005  0.2633 -0.2894
  176MPD1    C5 2736   3.238   2.760   0.011  0.2658 -0.0733 -0.0833
  176MPD1     H 2737   3.285   3.115   0.108  1.0169 -0.0856  0.6114
  176MPD1    H1 2738   3.399   2.763  17.636 -0.6490 -1.3444  0.3897
  176MPD1    H2 2739   3.089   2.742   0.155  1.5756  0.4593  2.3965
  176MPD1    H3 2740   3.225   2.655  17.736  0.8448 -0.7509  2.4467
  176MPD1     N 2741   3.445   3.046  17.666  0.1146  0.1043 -0.2075
  176MPD1    H5 2742   3.459   3.140  17.701  1.3261 -0.0866 -0.1784
  176MPD1    N1 2743   3.091   2.989   0.237  0.5098  0.1467  0.6280
  176MPD1    H6 2744   3.139   3.052   0.301  0.9302  0.2657  0.1883
  176MPD1    H7 2745   3.030   2.924   0.287  0.9663 -0.2788  0.6237
  177MPD1     C 2746   0.195   2.725   8.704 -0.2360  0.1011  1.2372
  177MPD1    C1 2747   0.099   2.638   8.755  0.4547 -0.7913  0.1429
  177MPD1    C2 2748   4.732   2.698   8.821 -0.1009  0.0577 -0.2189
  177MPD1    C3 2749   0.004   2.832   8.856 -0.0360  0.1414 -0.7707
  177MPD1    C4 2750   0.115   2.904   8.815  0.3199  0.2468 -0.0524
  177MPD1    C5 2751   0.209   2.854   8.737  0.1935 -0.4990  0.3259
  177MPD1     H 2752   4.644   2.641   8.849 -0.8631  0.3206 -2.0846
  177MPD1    H1 2753   0.124   3.010   8.832 -1.0115  0.0332  1.9688
  177MPD1    H2 2754   0.277   2.688   8.644 -0.0698  1.9059  0.3523
  177MPD1    H3 2755   0.291   2.918   8.707 -0.1712 -1.1253 -2.0281
  177MPD1     N 2756   4.639   2.890   8.937 -0.4207  0.1161 -0.2235
  177MPD1    H5 2757   4.577   2.828   8.989 -0.9426  2.3052  1.7498
  177MPD1    N1 2758   0.090   2.503   8.712  0.2538 -0.7657 -0.2545
  177MPD1    H6 2759   0.184   2.464   8.710  0.4973 -0.2620  1.6341
  177MPD1    H7 2760   0.038   2.443   8.776  0.3555 -1.1733 -0.5502
  178MPD1     C 2761   0.264   3.083   0.432  0.0915  0.3253 -0.3365
  178MPD1    C1 2762   0.148   3.018   0.386 -0.1268 -0.3893  0.1228
  178MPD1    C2 2763   0.123   3.043   0.246  0.8940 -0.2545  0.7257
  178MPD1    C3 2764   0.190   3.140   0.177  0.0962 -0.3065 -0.3426
  178MPD1    C4 2765   0.291   3.214   0.235 -0.6500 -0.7428  0.6699
  178MPD1    C5 2766   0.326   3.181   0.364  0.2999 -0.4627 -0.1883
  178MPD1     H 2767   0.041   2.987   0.203  1.1029 -0.8262  1.0800
  178MPD1    H1 2768   0.347   3.292   0.185  0.2074 -1.1375  1.0215
  178MPD1    H2 2769   0.304   3.073   0.533 -0.4050  2.5421  0.0936
  178MPD1    H3 2770   0.405   3.232   0.418 -1.2932  1.3934  0.3850
  178MPD1     N 2771   0.168   3.156   0.036  0.2299  0.0783  0.6048
  178MPD1    H5 2772   0.237   3.208  17.733 -0.9260 -0.8471 -1.7698
  178MPD1    N1 2773   0.076   2.917   0.454 -0.2828 -0.3193 -0.2849
  178MPD1    H6 2774   0.100   2.919   0.553 -2.1243 -1.0717  0.1750
  178MPD1    H7 2775   4.713   2.926   0.449 -0.1868  0.3609 -1.1090
  179MPD1     C 2776   3.819   1.791  15.198  0.9526  0.2317  0.1679
  179MPD1    C1 2777   3.763   1.701  15.120  0.7151  0.1617 -0.0354
  179MPD1    C2 2778   3.757   1.570  15.166  0.0383 -0.8461 -0.2286
  179MPD1    C3 2779   3.810   1.542  15.294  0.4112 -0.8907  0.4683
  179MPD1    C4 2780   3.862   1.644  15.367  0.1833  0.2603  0.6869
  179MPD1    C5 2781   3.875   1.768  15.314 -0.3001  0.1013  0.2092
  179MPD1     H 2782   3.718   1.500  15.093 -1.8071 -1.4745  1.3477
  179MPD1    H1 2783   3.897   1.624  15.468  4.0379  1.2848 -0.4563
  179MPD1    H2 2784   3.816   1.896  15.171 -1.8056  0.2373  0.5325
  179MPD1    H3 2785   3.917   1.850  15.371  1.3648 -1.0808  0.6741
  179MPD1     N 2786   3.799   1.414  15.353  0.2959  0.0867  1.0488
  179MPD1    H5 2787   3.852   1.391  15.437  4.8450  1.1608 -1.4823
  179MPD1    N1 2788   3.682   1.732  15.006 -0.0704 -0.3968 -0.2488
  179MPD1    H6 2789   3.674   1.662  14.933 -1.1871 -0.0848 -0.4244
  179MPD1    H7 2790   3.707   1.820  14.962 -0.8953 -0.4508 -0.8187
  180MPD1     C 2791   3.696   2.535  15.171  0.1825  0.4704  0.9120
  180MPD1    C1 2792   3.801   2.588  15.115 -0.0268  0.1339  0.1865
  180MPD1    C2 2793   3.807   2.596  14.974  0.0868  0.2190 -0.5450
  180MPD1    C3 2794   3.703   2.555  14.896  0.0428 -0.2830  0.2510
  180MPD1    C4 2795   3.591   2.521  14.966 -0.8545 -0.7462 -0.2658
  180MPD1    C5 2796   3.584   2.503  15.099  0.7956 -0.8442 -0.5421
  180MPD1     H 2797   3.899   2.633  14.929  1.0892 -1.4429  0.1538
  180MPD1    H1 2798   3.509   2.486  14.905 -1.5199  1.0346 -0.3800
  180MPD1    H2 2799   3.693   2.524  15.279 -0.9439  0.1611  0.8495
  180MPD1    H3 2800   3.505   2.445  15.146 -0.0168  1.6722  1.1798
  180MPD1     N 2801   3.720   2.568  14.758  0.1098 -0.6344 -0.3784
  180MPD1    H5 2802   3.815   2.589  14.727 -0.6199  0.0165 -2.1648
  180MPD1    N1 2803   3.914   2.601  15.196  0.0222 -0.4349  0.0939
  180MPD1    H6 2804   3.881   2.616  15.291  0.8729 -0.5378  0.4053
  180MPD1    H7 2805   3.969   2.675  15.155  0.1123 -0.5632 -0.0194
  181MPD1     C 2806   0.028   4.493  10.150  0.7476  0.3052 -0.2607
  181MPD1    C1 2807   0.056   4.617  10.206  0.6273 -0.5190 -0.0548
  181MPD1    C2 2808   0.157   4.695  10.157 -0.9420  0.6415 -0.4367
  181MPD1    C3 2809   0.211   4.660  10.030 -0.0075 -0.3194 -0.3997
  181MPD1    C4 2810   0.166   4.544   9.971 -0.2547  0.0849 -0.2234
  181MPD1    C5 2811   0.069   4.464  10.029 -0.2127 -1.0787  1.0226
  181MPD1     H 2812   0.201   0.042  10.209  0.9005 -1.8127  2.0438
  181MPD1    H1 2813   0.200   4.516   9.872  0.4369 -1.1506  0.3606
  181MPD1    H2 2814   4.700   4.422  10.198 -0.8901  2.3108  0.4871
  181MPD1    H3 2815   0.047   4.373   9.975 -1.1439 -0.2170 -0.0542
  181MPD1     N 2816   0.318   4.720   9.964  0.1601  0.6508 -0.6725
  181MPD1    H5 2817   0.349   4.677   9.878  1.4302 -0.8630  0.5387
  181MPD1    N1 2818   4.735   4.644  10.332 -0.1189  1.0979 -0.3719
  181MPD1    H6 2819   4.641   4.607  10.335  0.4258 -0.2654 -0.1686
  181MPD1    H7 2820   4.736   0.007  10.344 -0.2640  1.0472  0.0631
  182MPD1     C 2821   1.391   3.992   1.268 -1.1650 -0.1700 -0.0971
  182MPD1    C1 2822   1.456   3.877   1.242 -0.2253 -0.0699  0.4326
  182MPD1    C2 2823   1.432   3.808   1.121 -0.2763 -0.1451  0.3516
  182MPD1    C3 2824   1.348   3.862   1.022  0.1033  0.8234 -0.0011
  182MPD1    C4 2825   1.297   3.989   1.052  0.2410 -1.1376  0.4998
  182MPD1    C5 2826   1.331   4.061   1.169 -0.3312  0.9310 -0.7925
  182MPD1     H 2827   1.490   3.716   1.111 -0.4205 -0.1952 -0.0440
  182MPD1    H1 2828   1.228   4.026   0.976 -1.8611 -0.8288  2.5801
  182MPD1    H2 2829   1.398   4.034   1.368 -2.8614  0.9004 -0.4250
  182MPD1    H3 2830   1.277   4.151   1.194 -1.1582  0.5034 -1.0370
  182MPD1     N 2831   1.318   3.798   0.899 -0.1854 -0.1223  0.1495
  182MPD1    H5 2832   1.241   3.841   0.850 -1.7149 -2.2463  0.6711
  182MPD1    N1 2833   1.516   3.817   1.355  0.3364 -0.4713 -0.3853
  182MPD1    H6 2834   1.557   3.887   1.417 -0.5404 -2.1623  2.0864
  182MPD1    H7 2835   1.595   3.753   1.342  0.9776  0.9397 -3.4911
  183MPD1     C 2836   2.140   4.279   9.523  0.2818 -0.0128  0.0997
  183MPD1    C1 2837   2.070   4.388   9.561  0.1681  0.5001  0.2329
  183MPD1    C2 2838   1.932   4.360   9.583  0.0789  0.4287  0.4661
  183MPD1    C3 2839   1.882   4.233   9.609  0.2892  0.0692  0.7609
  183MPD1    C4 2840   1.966   4.125   9.593 -0.6366 -0.2909 -0.0251
  183MPD1    C5 2841   2.087   4.151   9.541  0.1726 -0.5058 -0.2723
  183MPD1     H 2842   1.862   4.442   9.572  0.4382  0.7903  0.8797
  183MPD1    H1 2843   1.938   4.020   9.597  0.1136 -0.5223 -0.9526
  183MPD1    H2 2844   2.233   4.284   9.468 -0.3690  1.1224 -0.8937
  183MPD1    H3 2845   2.155   4.070   9.518 -0.0758  0.2227 -3.4959
  183MPD1     N 2846   1.742   4.217   9.636  0.2608 -0.0032 -0.7208
  183MPD1    H5 2847   1.683   4.299   9.648  0.2085 -0.2240  0.5287
  183MPD1    N1 2848   2.108   4.521   9.535  0.7295  0.0547 -0.0628
  183MPD1    H6 2849   2.055   4.589   9.589  1.3764  0.4824  0.0213
  183MPD1    H7 2850   2.208   4.537   9.544  0.3990  3.0507 -2.0479
  184MPD1     C 2851   4.643   3.406  10.104  0.3307  0.1724  0.7374
  184MPD1    C1 2852   4.586   3.281  10.136  0.0413  0.5503  0.2368
  184MPD1    C2 2853   4.634   3.166  10.073  0.7422 -0.0404 -0.2733
  184MPD1    C3 2854   4.712   3.177   9.955 -0.1046 -0.0357 -0.1311
  184MPD1    C4 2855   0.016   3.304   9.919 -0.1029  0.2626  0.3131
  184MPD1    C5 2856   4.720   3.416   9.991  0.3604  0.2672 -0.3620
  184MPD1     H 2857   4.595   3.068  10.099  2.7509 -0.8900 -0.4890
  184MPD1    H1 2858   0.076   3.316   9.830 -0.3493 -0.1229  0.0948
  184MPD1    H2 2859   4.640   3.495  10.166  2.2278  0.0067  1.0628
  184MPD1    H3 2860   0.028   3.509   9.961  1.1946 -0.1414 -0.3409
  184MPD1     N 2861   0.033   3.068   9.891 -0.7631  0.0266 -0.6138
  184MPD1    H5 2862   0.101   3.092   9.820  1.4920  0.1092  1.5892
  184MPD1    N1 2863   4.530   3.263  10.265  0.6231 -1.0496 -0.1230
  184MPD1    H6 2864   4.471   3.179  10.265 -1.8168  0.6622  0.1152
  184MPD1    H7 2865   4.477   3.343  10.299  0.8646 -0.8991 -0.1062
  185MPD1     C 2866   4.536   2.094   9.785 -0.4467 -0.2265  0.1591
  185MPD1    C1 2867   4.674   2.087   9.789  0.0313  0.0370 -0.6368
  185MPD1    C2 2868   0.005   2.208   9.805 -0.8575  0.4675 -0.4877
  185MPD1    C3 2869   4.672   2.331   9.803  0.2526  0.2020  0.9224
  185MPD1    C4 2870   4.533   2.329   9.810  0.0710 -0.1243  0.1948
  185MPD1    C5 2871   4.469   2.213   9.798 -0.2161 -0.1045 -0.2340
  185MPD1     H 2872   0.113   2.212   9.811 -0.8295  0.5470 -1.0759
  185MPD1    H1 2873   4.466   2.414   9.811 -1.2349 -1.1595  1.5448
  185MPD1    H2 2874   4.476   2.009   9.753  1.8969 -1.4869 -0.9716
  185MPD1    H3 2875   4.361   2.209   9.788 -0.2020  2.0508 -1.3306
  185MPD1     N 2876   4.726   2.463   9.805 -0.3047  0.0966  0.1043
  185MPD1    H5 2877   4.659   2.539   9.806 -0.6931 -0.2048 -2.4438
  185MPD1    N1 2878   0.001   1.969   9.742  0.7213 -0.5362 -0.1406
  185MPD1    H6 2879   4.680   1.889   9.761 -2.8978  1.9951 -0.5809
  185MPD1    H7 2880   0.090   1.953   9.788  0.3356 -0.3844  0.6656
  186MPD1     C 2881   4.019   1.655  15.767 -0.2358  0.1611 -0.7391
  186MPD1    C1 2882   4.096   1.571  15.849 -0.0423  0.5671  0.0212
  186MPD1    C2 2883   4.173   1.630  15.955  0.7089  0.7287 -0.0750
  186MPD1    C3 2884   4.168   1.772  15.973  0.3268 -0.0605  0.6983
  186MPD1    C4 2885   4.096   1.842  15.885  0.2739  0.2797 -0.9547
  186MPD1    C5 2886   4.027   1.793  15.780 -0.2804  0.2101  0.1154
  186MPD1     H 2887   4.228   1.565  16.022 -1.6712 -0.2256  0.9576
  186MPD1    H1 2888   4.106   1.950  15.891  0.7302  0.2689 -1.5338
  186MPD1    H2 2889   3.941   1.633  15.695 -0.7879 -0.9976  0.2190
  186MPD1    H3 2890   3.969   1.861  15.719  0.9489  0.8049 -0.3866
  186MPD1     N 2891   4.240   1.840  16.078 -0.8325  0.3689 -0.8478
  186MPD1    H5 2892   4.219   1.938  16.093 -0.1916  0.3928 -0.0848
  186MPD1    N1 2893   4.074   1.436  15.833  0.4398 -0.4022  0.3442
  186MPD1    H6 2894   4.019   1.425  15.748  1.8294  2.3272 -0.8999
  186MPD1    H7 2895   4.159   1.389  15.806 -1.0079 -2.3619 -0.7969
  187MPD1     C 2896   3.539   4.051   0.086 -0.2520 -0.5455 -0.5704
  187MPD1    C1 2897   3.460   3.947   0.036  0.1006 -0.1896  0.4635
  187MPD1    C2 2898   3.474   3.929  17.651  0.1321 -0.6421  0.2328
  187MPD1    C3 2899   3.563   3.995  17.569 -0.1375  0.4337  0.1446
  187MPD1    C4 2900   3.653   4.079  17.632  0.6790 -0.1501 -0.4395
  187MPD1    C5 2901   3.638   4.112   0.014 -0.5294  0.5591 -0.9010
  187MPD1     H 2902   3.413   3.853  17.604  0.1391 -1.0548  0.8827
  187MPD1    H1 2903   3.730   4.130  17.576  0.9139 -1.3511 -1.2205
  187MPD1    H2 2904   3.525   4.081   0.189 -2.2286 -0.7691 -0.7714
  187MPD1    H3 2905   3.712   4.175   0.060 -0.1759 -0.4651 -0.0802
  187MPD1     N 2906   3.577   3.978  17.429 -0.0205 -0.3354  0.2105
  187MPD1    H5 2907   3.654   4.030  17.387 -1.1706  1.8684  0.8333
  187MPD1    N1 2908   3.350   3.892   0.112  0.5650  0.0683 -0.3817
  187MPD1    H6 2909   3.365   3.876   0.211  1.8361  0.2995 -0.5373
  187MPD1    H7 2910   3.314   3.808   0.067 -3.5034  2.2167 -1.1974
  188MPD1     C 2911   3.294   2.801   9.898 -0.4413  0.3365  0.6703
  188MPD1    C1 2912   3.163   2.784   9.879  0.2478 -0.1276 -1.0491
  188MPD1    C2 2913   3.115   2.652   9.879 -0.0045 -0.0174  0.1280
  188MPD1    C3 2914   3.194   2.545   9.924  0.6467 -0.7418  0.6787
  188MPD1    C4 2915   3.327   2.576   9.952 -0.3964 -0.1971  0.4190
  188MPD1    C5 2916   3.377   2.697   9.924  0.4152  0.3133 -0.2907
  188MPD1     H 2917   3.011   2.644   9.849 -0.8737 -2.0335  3.6156
  188MPD1    H1 2918   3.397   2.495   9.970  1.7108  1.3896 -0.6156
  188MPD1    H2 2919   3.344   2.897   9.889 -0.9883  0.5176 -0.3544
  188MPD1    H3 2920   3.483   2.718   9.929  0.4701  0.2708 -1.1398
  188MPD1     N 2921   3.157   2.411   9.920  0.2718  0.4208 -0.2151
  188MPD1    H5 2922   3.240   2.353   9.933 -0.9901 -1.0095  1.5661
  188MPD1    N1 2923   3.096   2.894   9.819 -0.1135  0.5892  0.1876
  188MPD1    H6 2924   2.995   2.882   9.822 -0.1932  1.2394 -0.1096
  188MPD1    H7 2925   3.124   2.986   9.850  2.0080 -0.1831  0.5786
  189MPD1     C 2926   0.809   4.211  17.702 -0.3048  0.5179 -0.5802
  189MPD1    C1 2927   0.705   4.138  17.652  0.3461  0.2651  0.1120
  189MPD1    C2 2928   0.583   4.200  17.671  0.4243 -0.0846 -0.0192
  189MPD1    C3 2929   0.565   4.325  17.737 -0.3574 -0.0747 -0.1781
  189MPD1    C4 2930   0.680   4.392   0.028 -0.4138  0.7200 -0.0693
  189MPD1    C5 2931   0.801   4.327   0.009 -0.8149  0.2787 -0.3530
  189MPD1     H 2932   0.492   4.146  17.647  0.4800 -0.5503  0.8009
  189MPD1    H1 2933   0.674   4.489   0.077 -1.9075 -1.2374  3.6627
  189MPD1    H2 2934   0.911   4.179  17.681 -0.5794 -1.0257  0.4570
  189MPD1    H3 2935   0.892   4.382   0.030  0.6859 -2.3763  0.0556
  189MPD1     N 2936   0.432   4.378  17.747  0.2486  0.3972 -0.3830
  189MPD1    H5 2937   0.362   4.327  17.693 -1.0538  2.6769 -0.8374
  189MPD1    N1 2938   0.717   4.023  17.580 -0.3749  0.2881 -0.4966
  189MPD1    H6 2939   0.811   3.984  17.576 -0.6330 -0.3586 -0.2854
  189MPD1    H7 2940   0.644   3.952  17.579 -1.0512  0.9633  0.4823
  190MPD1     C 2941   3.619   2.958  15.447  0.2535 -0.1855 -0.0094
  190MPD1    C1 2942   3.662   2.901  15.563  0.6945 -0.6651  0.4361
  190MPD1    C2 2943   3.799   2.877  15.573 -0.4389  0.0434  0.3139
  190MPD1    C3 2944   3.892   2.887  15.469 -0.0374  0.0994  0.4226
  190MPD1    C4 2945   3.844   2.932  15.349 -0.4929  0.6211  0.4319
  190MPD1    C5 2946   3.708   2.964  15.344 -0.2232 -0.2236  0.0540
  190MPD1     H 2947   3.837   2.852  15.671 -0.8062 -0.5003  0.3169
  190MPD1    H1 2948   3.897   2.949  15.256 -1.0124 -0.2224 -0.0151
  190MPD1    H2 2949   3.517   2.990  15.427  0.7064  0.8805 -0.6825
  190MPD1    H3 2950   3.674   3.007  15.250  0.7051 -1.1568 -0.7109
  190MPD1     N 2951   4.023   2.847  15.493 -0.8116  0.2150  0.0106
  190MPD1    H5 2952   4.040   2.816  15.589 -2.1669 -0.8357 -0.0957
  190MPD1    N1 2953   3.571   2.905  15.672  0.7912 -0.0709 -0.0981
  190MPD1    H6 2954   3.474   2.886  15.648  0.1423  0.3579  2.2124
  190MPD1    H7 2955   3.596   2.863  15.761 -1.8821 -1.0862  0.1771
  191MPD1     C 2956   2.994   4.175  12.681 -0.2546 -0.5122 -0.7301
  191MPD1    C1 2957   2.932   4.146  12.564 -0.4034  0.2679 -0.5014
  191MPD1    C2 2958   2.905   4.243  12.473 -0.5486  1.0964 -0.7175
  191MPD1    C3 2959   2.952   4.371  12.492 -0.1066 -0.7882  0.5672
  191MPD1    C4 2960   3.018   4.404  12.611  0.1151  0.6457 -0.4366
  191MPD1    C5 2961   3.036   4.304  12.705  0.1344 -0.5811  0.3324
  191MPD1     H 2962   2.870   4.220  12.373 -1.6555  3.5582 -0.9072
  191MPD1    H1 2963   3.040   4.506  12.640  2.9090 -0.3080  0.8993
  191MPD1    H2 2964   3.011   4.098  12.755 -1.8821 -1.6752 -1.5736
  191MPD1    H3 2965   3.074   4.319  12.805  1.2337  2.5699 -0.5526
  191MPD1     N 2966   2.931   4.465  12.386  0.1514  0.1018 -0.3445
  191MPD1    H5 2967   2.890   4.429  12.301 -1.9996  0.8793  0.3460
  191MPD1    N1 2968   2.932   4.012  12.523  0.0689 -0.1731  0.9627
  191MPD1    H6 2969   2.928   3.953  12.606  2.9497 -0.9455  0.5507
  191MPD1    H7 2970   2.850   3.992  12.466  1.2521  0.3244 -0.9313
  192MPD1     C 2971   2.226   0.324  12.361 -0.3015  0.0984  0.2394
  192MPD1    C1 2972   2.239   0.192  12.329 -0.8842  0.8313  0.0403
  192MPD1    C2 2973   2.356   0.150  12.281  0.1631  0.6541  0.7440
  192MPD1    C3 2974   2.466   0.239  12.257  0.1551 -0.8391 -0.0997
  192MPD1    C4 2975   2.446   0.371  12.295 -0.1818  0.0966 -0.4573
  192MPD1    C5 2976   2.330   0.415  12.348 -0.3906  0.1443  0.1700
  192MPD1     H 2977   2.362   0.044  12.262  0.8411  0.7768  0.2821
  192MPD1    H1 2978   2.526   0.443  12.283 -0.0087 -0.1625 -0.8507
  192MPD1    H2 2979   2.134   0.370  12.395  0.9470  1.3203  1.9791
  192MPD1    H3 2980   2.312   0.521  12.363 -1.1176  0.2682 -1.4657
  192MPD1     N 2981   2.589   0.201  12.209 -0.0115 -0.0580  0.0800
  192MPD1    H5 2982   2.673   0.258  12.219  0.8081 -1.0856 -0.8619
  192MPD1    N1 2983   2.159   0.095  12.386  0.5543  0.1658 -0.7113
  192MPD1    H6 2984   2.063   0.124  12.407  0.5496  1.2546 -2.2755
  192MPD1    H7 2985   2.161   0.006  12.335 -0.0809 -0.0956 -0.2889
  193MPD1     C 2986   2.726   0.216  15.899 -0.1525 -0.5592 -0.0883
  193MPD1    C1 2987   2.780   0.340  15.899 -0.3102 -0.0868 -0.8773
  193MPD1    C2 2988   2.850   0.369  16.010 -0.3127  0.0443  0.3327
  193MPD1    C3 2989   2.870   0.294  16.124  0.0163 -0.3905  0.4705
  193MPD1    C4 2990   2.817   0.163  16.119  0.3840  0.3386 -0.2996
  193MPD1    C5 2991   2.742   0.133  16.010 -0.2075  0.0611  0.5136
  193MPD1     H 2992   2.903   0.464  16.011  0.1619 -0.2136 -0.7974
  193MPD1    H1 2993   2.834   0.090  16.197 -1.4952 -0.6658 -0.8277
  193MPD1    H2 2994   2.672   0.185  15.810  1.4259 -0.1253 -1.2004
  193MPD1    H3 2995   2.693   0.038  15.998  0.9169 -0.6456  1.4913
  193MPD1     N 2996   2.942   0.342  16.237 -0.3454  0.2807  0.6710
  193MPD1    H5 2997   2.957   0.278  16.315 -0.2312 -2.2899 -1.4720
  193MPD1    N1 2998   2.799   0.419  15.782 -0.2104  0.5227 -1.2836
  193MPD1    H6 2999   2.727   0.405  15.712 -1.8688  0.5447  0.3987
  193MPD1    H7 3000   2.809   0.518  15.803 -0.9312  0.1965  0.6116
  194MPD1     C 3001   1.069   2.682  16.720  0.6027  0.2284  0.5344
  194MPD1    C1 3002   0.975   2.611  16.649  0.4099  0.7199 -0.0226
  194MPD1    C2 3003   1.006   2.479  16.630  0.0445  0.0942  0.1416
  194MPD1    C3 3004   1.122   2.419  16.674  0.6607  0.4297 -1.0377
  194MPD1    C4 3005   1.224   2.497  16.719  0.2966  0.1579 -0.0440
  194MPD1    C5 3006   1.193   2.623  16.747 -0.8995 -0.1129  0.8380
  194MPD1     H 3007   0.932   2.416  16.582 -0.9795  1.2770  0.2038
  194MPD1    H1 3008   1.321   2.461  16.752  0.0820  0.4183  0.8548
  194MPD1    H2 3009   1.056   2.783  16.757  0.0208  0.8014 -1.2188
  194MPD1    H3 3010   1.271   2.686  16.787 -0.3681 -1.2188  1.5477
  194MPD1     N 3011   1.144   2.278  16.673  0.3004  0.3987 -0.0708
  194MPD1    H5 3012   1.228   2.244  16.718  0.3377  0.6366  0.0404
  194MPD1    N1 3013   0.840   2.656  16.647 -0.3498 -0.1959 -0.5963
  194MPD1    H6 3014   0.824   2.756  16.634  1.3510 -0.1645 -2.3844
  194MPD1    H7 3015   0.781   2.603  16.583 -0.6118 -1.4572  0.6834
  195MPD1     C 3016   2.718   4.391   0.682  0.5779 -0.2319 -0.0263
  195MPD1    C1 3017   2.832   4.350   0.738 -0.0997 -0.1925 -0.0630
  195MPD1    C2 3018   2.886   4.231   0.688 -0.0869  0.2221  0.0953
  195MPD1    C3 3019   2.836   4.149   0.586  0.0530  0.5394 -0.9055
  195MPD1    C4 3020   2.716   4.199   0.535 -0.4323 -0.2328  0.1666
  195MPD1    C5 3021   2.657   4.312   0.584  0.1787  0.2351  0.2437
  195MPD1     H 3022   2.977   4.194   0.735 -0.0442 -0.1686 -0.2976
  195MPD1    H1 3023   2.674   4.141   0.453  0.9824 -0.2075 -0.5682
  195MPD1    H2 3024   2.664   4.478   0.717 -1.6588 -2.7071  2.6485
  195MPD1    H3 3025   2.560   4.336   0.542 -0.4278 -2.4893  0.0975
  195MPD1     N 3026   2.901   4.036   0.524  0.4282  0.5124  0.1014
  195MPD1    H5 3027   2.843   3.993   0.452 -0.2177 -0.8297  1.4154
  195MPD1    N1 3028   2.907   4.437   0.814 -0.1765 -0.2550  0.1692
  195MPD1    H6 3029   3.001   4.414   0.846 -0.1375 -1.0385 -0.5315
  195MPD1    H7 3030   2.852   4.496   0.877 -0.4628 -1.4222  1.0058
  196MPD1     C 3031   2.085   2.902  17.730 -0.4039  0.3686 -0.2796
  196MPD1    C1 3032   2.199   2.972  17.730 -0.0229 -0.3488 -0.6295
  196MPD1    C2 3033   2.271   2.992   0.099 -0.1009 -0.1855  0.5117
  196MPD1    C3 3034   2.232   2.924   0.213  0.2005  0.8447 -0.7252
  196MPD1    C4 3035   2.112   2.863   0.216 -0.6309  0.5775  0.0324
  196MPD1    C5 3036   2.043   2.847   0.098 -0.7805 -0.3851  0.2479
  196MPD1     H 3037   2.358   3.056   0.095 -1.2873  1.4938  1.6472
  196MPD1    H1 3038   2.083   2.812   0.307 -0.9975  0.8735  0.0801
  196MPD1    H2 3039   2.026   2.874  17.644 -0.0296 -0.3614 -0.3020
  196MPD1    H3 3040   1.952   2.788   0.092 -1.9997  1.2607  2.5757
  196MPD1     N 3041   2.297   2.944   0.340  0.7412 -0.0814 -0.1608
  196MPD1    H5 3042   2.248   2.900   0.418 -2.0397  2.1880 -0.6389
  196MPD1    N1 3043   2.255   2.998  17.604  0.2478 -0.4283  0.1540
  196MPD1    H6 3044   2.202   3.019  17.520  0.3867  2.0500  0.6914
  196MPD1    H7 3045   2.306   3.085  17.617  0.7066  0.0677 -5.0761
  197MPD1     C 3046   1.942   0.119  17.434  0.0593  0.7687 -0.3480
  197MPD1    C1 3047   2.007   0.234  17.462  0.3611  0.3224  0.1933
  197MPD1    C2 3048   1.985   0.339  17.369  0.0687  0.1738 -0.7839
  197MPD1    C3 3049   1.914   0.324  17.247 -0.3844  0.0882 -0.1252
  197MPD1    C4 3050   1.861   0.198  17.221  0.5871  0.1627 -0.3354
  197MPD1    C5 3051   1.876   0.100  17.314 -0.1991  0.4104  0.1274
  197MPD1     H 3052   2.030   0.437  17.385  0.2587  0.2400 -1.7138
  197MPD1    H1 3053   1.797   0.184  17.134  1.4327  1.2855 -1.1407
  197MPD1    H2 3054   1.944   0.033  17.502 -0.9904  0.7622 -0.3260
  197MPD1    H3 3055   1.833   0.004  17.292 -0.5962  0.4795  0.6051
  197MPD1     N 3056   1.901   0.430  17.146  0.1896 -0.1355 -0.1759
  197MPD1    H5 3057   1.867   0.398  17.056  1.3769  0.7491 -0.9294
  197MPD1    N1 3058   2.070   0.260  17.584  0.1843 -0.4748  0.3265
  197MPD1    H6 3059   2.103   0.170  17.620  0.8435  0.0845  1.1388
  197MPD1    H7 3060   2.151   0.319  17.566  0.0713 -0.7750 -1.1898
  198MPD1     C 3061   3.781   3.668  15.515 -0.3194 -0.0823 -0.7462
  198MPD1    C1 3062   3.754   3.801  15.508  0.1317  1.1285 -0.7349
  198MPD1    C2 3063   3.809   3.891  15.600  0.2084 -0.1460  0.4846
  198MPD1    C3 3064   3.882   3.838  15.712  0.4188 -0.0698 -0.6406
  198MPD1    C4 3065   3.909   3.701  15.719 -0.9569  0.0816  0.6054
  198MPD1    C5 3066   3.860   3.623  15.620 -0.0392  0.6952 -0.9126
  198MPD1     H 3067   3.811   3.996  15.573  1.5687  0.1594  1.7730
  198MPD1    H1 3068   3.971   3.659  15.798 -0.2194  1.3378  0.6855
  198MPD1    H2 3069   3.744   3.587  15.453 -1.2572  0.7124 -1.2157
  198MPD1    H3 3070   3.881   3.516  15.619  1.2912  0.9223  2.3676
  198MPD1     N 3071   3.929   3.941  15.803  0.6291  0.1619 -0.1131
  198MPD1    H5 3072   3.906   4.036  15.777 -1.1413 -0.1437  0.3402
  198MPD1    N1 3073   3.707   3.855  15.388 -0.0335  0.1217  0.2058
  198MPD1    H6 3074   3.647   3.934  15.411 -0.5578  0.2908 -1.7971
  198MPD1    H7 3075   3.653   3.792  15.330  0.1881  0.2127 -0.0963
  199MPD1     C 3076   1.307   0.661   9.754  0.8759 -0.5463 -0.5152
  199MPD1    C1 3077   1.204   0.751   9.743  0.1883  0.2859  0.4891
  199MPD1    C2 3078   1.079   0.713   9.706 -0.2260 -0.7022 -0.1855
  199MPD1    C3 3079   1.055   0.580   9.680  0.0815 -0.3176  0.2808
  199MPD1    C4 3080   1.154   0.482   9.699  0.2156  0.3797  0.2880
  199MPD1    C5 3081   1.275   0.529   9.736 -0.0260 -0.7042 -0.3280
  199MPD1     H 3082   1.002   0.788   9.696 -0.8850 -1.4554 -0.7832
  199MPD1    H1 3083   1.142   0.378   9.673  1.7054  0.0316  1.0338
  199MPD1    H2 3084   1.405   0.685   9.792 -0.4458  1.8015  1.4176
  199MPD1    H3 3085   1.359   0.461   9.735  0.9165  0.4461  0.4869
  199MPD1     N 3086   0.931   0.542   9.626 -0.1578  0.2983 -0.0691
  199MPD1    H5 3087   0.917   0.441   9.629  0.4180  0.2263  0.2465
  199MPD1    N1 3088   1.231   0.878   9.793  0.3185 -0.0906  0.2699
  199MPD1    H6 3089   1.183   0.950   9.740 -0.4257 -1.7881 -1.3500
  199MPD1    H7 3090   1.330   0.900   9.780  0.0554  1.3827  0.7065
  200MPD1     C 3091   0.268   0.224  15.585 -0.2614 -0.0985  0.7545
  200MPD1    C1 3092   0.171   0.234  15.489  0.2190 -0.0044 -0.1314
  200MPD1    C2 3093   0.193   0.323  15.388  0.1798 -0.6076 -0.5172
  200MPD1    C3 3094   0.295   0.413  15.385  0.1741  0.5373  0.0992
  200MPD1    C4 3095   0.383   0.410  15.492  0.6389  0.3425  0.1656
  200MPD1    C5 3096   0.373   0.310  15.589  0.5363 -0.2168  0.3838
  200MPD1     H 3097   0.110   0.332  15.319 -0.7434  0.8752  0.7925
  200MPD1    H1 3098   0.460   0.485  15.503  0.9319  0.0669  0.0225
  200MPD1    H2 3099   0.268   0.148  15.663 -3.5053 -0.4912  0.3664
  200MPD1    H3 3100   0.448   0.288  15.664 -1.4334  1.2777  2.7544
  200MPD1     N 3101   0.313   0.496  15.273 -0.1148  0.1379 -0.0946
  200MPD1    H5 3102   0.238   0.485  15.205  0.7658  4.1604 -1.6883
  200MPD1    N1 3103   0.073   0.141  15.472 -0.3196 -0.0357  0.6192
  200MPD1    H6 3104   0.062   0.086  15.557  0.3446  0.5804  1.1073
  200MPD1    H7 3105   4.721   0.174  15.439 -0.2517  0.1688  0.6392
  201MPD1     C 3106   2.299   4.303  12.808  0.1441 -0.3603 -0.0260
  201MPD1    C1 3107   2.374   4.246  12.911 -0.3259 -0.2489  0.6521
  201MPD1    C2 3108   2.382   4.116  12.916  0.0274  0.3213  0.2402
  201MPD1    C3 3109   2.306   4.026  12.843 -0.2881  0.3341 -0.3491
  201MPD1    C4 3110   2.223   4.080  12.744  0.5843  0.0188 -0.2522
  201MPD1    C5 3111   2.229   4.221  12.724 -0.7303 -0.6061  0.0757
  201MPD1     H 3112   2.445   4.079  12.997  0.9374  1.0243 -0.1538
  201MPD1    H1 3113   2.174   4.014  12.673 -2.2263  1.4609  0.3399
  201MPD1    H2 3114   2.299   4.407  12.777 -3.1497  0.2807  2.1111
  201MPD1    H3 3115   2.162   4.272  12.656  2.2398  1.5403 -1.2197
  201MPD1     N 3116   2.337   3.886  12.865 -0.0345  0.5042 -0.2073
  201MPD1    H5 3117   2.413   3.866  12.928 -0.6373 -1.4829 -0.1193
  201MPD1    N1 3118   2.468   4.324  12.981  0.4084 -0.0214  0.0361
  201MPD1    H6 3119   2.417   4.412  12.987  0.2852 -0.1358  0.6673
  201MPD1    H7 3120   2.490   4.288  13.073 -2.5511  2.1890  1.6301
  202MPD1     C 3121   1.175   2.265   9.953  0.2889 -0.0092  0.2418
  202MPD1    C1 3122   1.092   2.359   9.894 -0.3260 -0.7283  0.4968
  202MPD1    C2 3123   1.153   2.483   9.875  0.4333  0.3389  0.4688
  202MPD1    C3 3124   1.273   2.520   9.934  0.5311  0.0671 -0.3163
  202MPD1    C4 3125   1.340   2.429  10.007 -0.0881 -0.1044 -0.2577
  202MPD1    C5 3126   1.292   2.298  10.010  0.0265  0.3779 -0.4331
  202MPD1     H 3127   1.092   2.556   9.823 -0.9410 -1.6311 -0.6650
  202MPD1    H1 3128   1.430   2.460  10.059 -1.8148 -0.2379  2.8288
  202MPD1    H2 3129   1.150   2.159   9.957 -0.4953  0.0966 -1.9992
  202MPD1    H3 3130   1.353   2.217  10.048  0.3059  0.4745 -0.6793
  202MPD1     N 3131   1.326   2.650   9.932  0.4017  0.1864 -0.2408
  202MPD1    H5 3132   1.413   2.661   9.983  1.6222 -1.4810 -1.9553
  202MPD1    N1 3133   1.002   2.299   9.805 -0.1108 -0.5100 -0.6093
  202MPD1    H6 3134   0.923   2.356   9.775 -1.0963 -2.1256 -1.0870
  202MPD1    H7 3135   0.969   2.208   9.836  0.1196  0.1929  1.7009
  203MPD1     C 3136   0.368   4.335  12.596 -0.0721  0.5670 -0.2590
  203MPD1    C1 3137   0.367   4.234  12.697 -0.2623 -0.6788 -0.4528
  203MPD1    C2 3138   0.463   4.130  12.679 -0.2267  0.0905  0.1299
  203MPD1    C3 3139   0.552   4.130  12.569 -0.4341 -0.0386 -0.4471
  203MPD1    C4 3140   0.567   4.245  12.500 -0.1075  0.0816 -0.3189
  203MPD1    C5 3141   0.478   4.343  12.510 -0.2607  0.1882 -0.0302
  203MPD1     H 3142   0.448   4.040  12.737  1.0114  0.6862  1.3776
  203MPD1    H1 3143   0.627   4.243  12.409  1.0268 -1.6522  0.4827
  203MPD1    H2 3144   0.289   4.410  12.593 -0.1058  0.5172 -0.6307
  203MPD1    H3 3145   0.485   4.418  12.432  0.4952 -0.0258 -0.1698
  203MPD1     N 3146   0.633   4.010  12.556 -1.0795  0.4049  0.3269
  203MPD1    H5 3147   0.595   3.933  12.609 -0.8102 -0.4957 -0.7795
  203MPD1    N1 3148   0.249   4.216  12.779 -0.1433 -0.5994  0.3394
  203MPD1    H6 3149   0.275   4.182  12.871  1.6995 -1.9651 -0.6870
  203MPD1    H7 3150   0.192   4.300  12.793  1.2589  0.0330  2.2565
  204MPD1     C 3151   0.675   1.179  17.207 -0.3946 -0.2590  0.2121
  204MPD1    C1 3152   0.766   1.155  17.106  0.5652  0.2022  0.5841
  204MPD1    C2 3153   0.787   1.029  17.057 -0.0994  0.7496 -0.2597
  204MPD1    C3 3154   0.712   0.929  17.110  0.5654 -0.4080 -0.3784
  204MPD1    C4 3155   0.609   0.951  17.204  0.4153 -0.1723  0.5033
  204MPD1    C5 3156   0.592   1.079  17.247 -0.0657  0.0532 -0.5351
  204MPD1     H 3157   0.873   1.007  16.995 -0.6471  0.0211 -0.7637
  204MPD1    H1 3158   0.539   0.877  17.242  0.6108 -1.6674 -2.0388
  204MPD1    H2 3159   0.663   1.279  17.248  1.0599 -0.0111  0.0278
  204MPD1    H3 3160   0.515   1.096  17.322  2.3931  1.7772  1.5741
  204MPD1     N 3161   0.744   0.794  17.075  0.0592  0.2549 -0.2615
  204MPD1    H5 3162   0.804   0.776  16.995 -0.9581  1.6885 -1.3608
  204MPD1    N1 3163   0.858   1.253  17.068  0.4598 -0.0392  0.4818
  204MPD1    H6 3164   0.899   1.253  16.975  0.6378  1.6623  0.5652
  204MPD1    H7 3165   0.826   1.345  17.100 -2.1471 -1.5017  2.0876
  205MPD1     C 3166   0.164   3.663  17.034 -0.3943  0.1039  0.0457
  205MPD1    C1 3167   0.143   3.799  17.037  0.1171  1.0169 -0.0341
  205MPD1    C2 3168   0.240   3.879  17.096  0.9490 -0.4596  0.3792
  205MPD1    C3 3169   0.342   3.827  17.169 -0.1028 -0.3091  0.1458
  205MPD1    C4 3170   0.348   3.691  17.180 -0.0838 -0.2268 -0.5214
  205MPD1    C5 3171   0.266   3.615  17.109  0.0910 -0.5055  0.0387
  205MPD1     H 3172   0.233   3.987  17.090  0.0081 -0.5910 -0.9891
  205MPD1    H1 3173   0.430   3.647  17.235 -1.5179  0.3870  2.0926
  205MPD1    H2 3174   0.111   3.593  16.970  0.4487  0.7616 -1.3766
  205MPD1    H3 3175   0.276   3.507  17.109 -0.2973 -0.5390 -0.4055
  205MPD1     N 3176   0.434   3.906  17.242 -0.3427 -0.6600 -0.1042
  205MPD1    H5 3177   0.511   3.857  17.287  0.0745 -0.0090 -0.1166
  205MPD1    N1 3178   0.048   3.862  16.948 -0.1510  0.1300  0.8871
  205MPD1    H6 3179   0.039   3.959  16.976 -1.6741  0.2363  0.0513
  205MPD1    H7 3180   4.696   3.815  16.943 -0.9257  1.7385 -0.2145
  206MPD1     C 3181   1.814   2.814  16.702 -0.8108  0.4167 -0.2920
  206MPD1    C1 3182   1.830   2.702  16.623  0.6327  0.0084  0.1763
  206MPD1    C2 3183   1.717   2.642  16.575  0.1375  0.0303 -0.8872
  206MPD1    C3 3184   1.594   2.708  16.580 -0.0849 -0.3976 -0.8014
  206MPD1    C4 3185   1.583   2.828  16.644  0.1754 -0.0497  0.6718
  206MPD1    C5 3186   1.690   2.881  16.696 -0.1615  0.0808 -0.1890
  206MPD1     H 3187   1.721   2.551  16.517  1.4574 -0.2256 -0.3970
  206MPD1    H1 3188   1.488   2.881  16.646 -0.7131 -1.5566 -1.4734
  206MPD1    H2 3189   1.899   2.861  16.750  0.8246 -2.0315 -0.7984
  206MPD1    H3 3190   1.697   2.982  16.736 -1.4720  0.0715  0.0468
  206MPD1     N 3191   1.474   2.665  16.522  0.7335 -0.0173  0.1961
  206MPD1    H5 3192   1.399   2.728  16.548 -1.0876 -2.4714  0.8961
  206MPD1    N1 3193   1.952   2.634  16.602  0.1768 -0.3830 -0.2679
  206MPD1    H6 3194   2.037   2.689  16.595 -0.2523  0.2956 -0.0875
  206MPD1    H7 3195   1.959   2.555  16.538  0.4043 -0.9840  0.5012
  207MPD1     C 3196   2.641   0.686   9.237 -0.1673  0.0808  0.0181
  207MPD1    C1 3197   2.653   0.555   9.280 -0.5421 -0.1665 -0.0846
  207MPD1    C2 3198   2.750   0.530   9.375  0.3877 -0.1773  0.2602
  207MPD1    C3 3199   2.827   0.634   9.431 -0.4866  1.0948 -0.1006
  207MPD1    C4 3200   2.816   0.762   9.376  0.4660 -0.2061 -0.3719
  207MPD1    C5 3201   2.720   0.787   9.282  0.7250 -0.2283  1.2846
  207MPD1     H 3202   2.758   0.430   9.416  0.3808 -0.4522 -0.4076
  207MPD1    H1 3203   2.869   0.844   9.422  1.9109 -0.4157 -1.6526
  207MPD1    H2 3204   2.554   0.712   9.177  0.9101  0.6860 -1.2826
  207MPD1    H3 3205   2.713   0.891   9.253 -1.1776 -0.3861  1.1683
  207MPD1     N 3206   2.920   0.613   9.534  0.5648 -0.2814 -0.2200
  207MPD1    H5 3207   2.979   0.690   9.564 -1.2632  0.8913  0.2927
  207MPD1    N1 3208   2.566   0.459   9.222 -0.3725 -0.7878  0.2346
  207MPD1    H6 3209   2.472   0.494   9.204  0.9339  1.5683 -1.9341
  207MPD1    H7 3210   2.568   0.368   9.268 -2.8211 -0.8303  0.2806
  208MPD1     C 3211   2.344   4.017  17.137  0.2643 -0.0478 -0.3379
  208MPD1    C1 3212   2.226   4.084  17.117 -0.2409  0.5032  0.9270
  208MPD1    C2 3213   2.105   4.028  17.155  0.1358 -0.0357 -0.6083
  208MPD1    C3 3214   2.104   3.911  17.233  0.0148  0.5360  0.0904
  208MPD1    C4 3215   2.225   3.855  17.266 -0.1204 -0.6259  0.0524
  208MPD1    C5 3216   2.343   3.914  17.222 -0.2843  0.3517 -0.1030
  208MPD1     H 3217   2.009   4.070  17.128 -0.8597 -2.9745 -1.5872
  208MPD1    H1 3218   2.244   3.769  17.329  1.4727 -0.5317 -0.3070
  208MPD1    H2 3219   2.439   4.059  17.107 -1.7277  3.4875 -1.6508
  208MPD1    H3 3220   2.434   3.867  17.259 -1.9715  0.0583  3.5979
  208MPD1     N 3221   1.979   3.847  17.252 -0.0529 -0.0925  0.0079
  208MPD1    H5 3222   1.899   3.889  17.206  1.9630  2.3506 -1.2461
  208MPD1    N1 3223   2.228   4.203  17.048 -0.7835  0.0625 -0.2450
  208MPD1    H6 3224   2.158   4.271  17.077  1.6571  2.3115  0.4158
  208MPD1    H7 3225   2.318   4.249  17.041 -0.5066 -0.8210 -2.4368
  209MPD1     C 3226   2.881   4.194  11.056  0.3168 -0.0282 -0.5881
  209MPD1    C1 3227   2.811   4.233  10.943 -0.1700 -0.1158  1.0787
  209MPD1    C2 3228   2.831   4.365  10.898  0.5967  0.2065  0.4431
  209MPD1    C3 3229   2.913   4.450  10.972  0.8061  0.2226 -0.1752
  209MPD1    C4 3230   2.981   4.403  11.079 -0.2834 -0.0876  0.5172
  209MPD1    C5 3231   2.964   4.281  11.122  0.2866  0.0020 -0.0378
  209MPD1     H 3232   2.774   4.401  10.813  0.4992 -2.6301 -0.7063
  209MPD1    H1 3233   3.051   4.462  11.138 -0.2186 -1.2486  1.5980
  209MPD1    H2 3234   2.860   4.100  11.105 -0.8003  1.3931  1.6541
  209MPD1    H3 3235   3.023   4.245  11.206  1.7871  2.1039 -0.2033
  209MPD1     N 3236   2.924   4.578  10.915  0.0086  0.4341 -0.1913
  209MPD1    H5 3237   2.884   4.598  10.825 -1.6581 -0.5176  0.3438
  209MPD1    N1 3238   2.721   4.148  10.877  0.5642 -0.6267 -0.6280
  209MPD1    H6 3239   2.719   4.054  10.916 -0.6553  0.0470  0.9342
  209MPD1    H7 3240   2.625   4.182  10.870  1.4911  2.4380  1.7865
  210MPD1     C 3241   3.118   0.892  10.833  0.2868  0.4229  0.2396
  210MPD1    C1 3242   3.052   0.819  10.934  0.7600 -0.2008  0.1547
  210MPD1    C2 3243   3.089   0.686  10.952  0.1206  0.4524  0.3754
  210MPD1    C3 3244   3.184   0.622  10.866 -0.4474 -0.3551  0.4595
  210MPD1    C4 3245   3.262   0.702  10.784  0.5494 -0.3558 -0.3371
  210MPD1    C5 3246   3.225   0.830  10.771 -0.2370 -0.1709  0.4641
  210MPD1     H 3247   3.027   0.629  11.020  0.2637  0.2026  0.2965
  210MPD1    H1 3248   3.342   0.679  10.715 -0.1739 -3.9770  0.0762
  210MPD1    H2 3249   3.087   0.995  10.820  1.9208  0.7576 -1.0170
  210MPD1    H3 3250   3.274   0.891  10.696 -0.9284  1.9074  1.7074
  210MPD1     N 3251   3.208   0.488  10.862  0.6456  0.1336  0.0651
  210MPD1    H5 3252   3.282   0.452  10.803 -0.2099 -1.4905 -0.0024
  210MPD1    N1 3253   2.935   0.858  10.996 -0.1839  0.5823 -0.2596
  210MPD1    H6 3254   2.917   0.824  11.090  0.0218 -1.7286 -1.0600
  210MPD1    H7 3255   2.921   0.959  10.991 -1.2412  0.5302  1.8598
  211MPD1     C 3256   1.344   3.900  15.712 -0.0170  0.7615  0.2955
  211MPD1    C1 3257   1.411   4.005  15.654  0.2964 -0.5164 -0.1172
  211MPD1    C2 3258   1.359   4.130  15.653  0.6508  0.5975 -0.5534
  211MPD1    C3 3259   1.234   4.148  15.717 -0.9367  0.0394 -0.1446
  211MPD1    C4 3260   1.164   4.045  15.756 -0.1588  0.5947 -0.8697
  211MPD1    C5 3261   1.213   3.916  15.749  0.1139 -0.1845 -0.5255
  211MPD1     H 3262   1.418   4.212  15.615 -1.2086  3.1750  2.0763
  211MPD1    H1 3263   1.065   4.056  15.800  0.3730  1.2868  0.1308
  211MPD1    H2 3264   1.391   3.803  15.728  0.3920  1.0585  0.8766
  211MPD1    H3 3265   1.147   3.836  15.781 -0.5791  1.2472  1.6266
  211MPD1     N 3266   1.178   4.279  15.712 -0.1685  0.7584 -0.1339
  211MPD1    H5 3267   1.245   4.351  15.685  2.4707 -1.1440  1.3496
  211MPD1    N1 3268   1.548   3.990  15.627 -0.2634 -0.0739 -0.3146
  211MPD1    H6 3269   1.561   3.895  15.591  0.5715 -0.0026 -0.1850
  211MPD1    H7 3270   1.581   4.045  15.548 -0.5494 -0.4103 -0.6712
  212MPD1     C 3271   0.680   2.551  16.350  0.5094  0.0080 -0.2146
  212MPD1    C1 3272   0.596   2.632  16.429  0.3188  0.0645 -0.2986
  212MPD1    C2 3273   0.533   2.569  16.542 -0.6960 -0.3737  0.7588
  212MPD1    C3 3274   0.580   2.445  16.593 -0.1912 -0.0851  0.2704
  212MPD1    C4 3275   0.662   2.369  16.512 -0.3699 -0.3195 -0.1862
  212MPD1    C5 3276   0.705   2.425  16.394  0.2991 -0.9308 -0.5713
  212MPD1     H 3277   0.447   2.611  16.592 -0.5981  0.6665  0.0418
  212MPD1    H1 3278   0.708   2.275  16.542 -0.3662 -0.6546 -1.2558
  212MPD1    H2 3279   0.717   2.579  16.252  1.4784  0.8654  0.3973
  212MPD1    H3 3280   0.762   2.361  16.327 -0.2189 -1.3044 -0.6626
  212MPD1     N 3281   0.531   2.385  16.713 -0.1398  0.6021  0.8634
  212MPD1    H5 3282   0.577   2.297  16.733 -0.5692  0.0981 -0.3486
  212MPD1    N1 3283   0.559   2.760  16.378  0.7803 -0.0832  0.2994
  212MPD1    H6 3284   0.636   2.801  16.326  0.1694  0.1999 -0.3809
  212MPD1    H7 3285   0.538   2.823  16.456 -2.2762  1.1211 -1.4966
  213MPD1     C 3286   3.481   2.574  15.471 -0.3765 -0.4204  0.3337
  213MPD1    C1 3287   3.355   2.515  15.490  0.4587 -0.2512  0.3503
  213MPD1    C2 3288   3.249   2.589  15.430  0.9263 -0.1315  0.5492
  213MPD1    C3 3289   3.268   2.691  15.341  0.4426  0.1412 -0.2058
  213MPD1    C4 3290   3.399   2.735  15.319  0.2466  0.4512 -0.4425
  213MPD1    C5 3291   3.503   2.675  15.383  0.0124  0.5774 -0.0080
  213MPD1     H 3292   3.145   2.569  15.455  1.0436  0.3689  1.4200
  213MPD1    H1 3293   3.417   2.804  15.238 -0.7769 -0.7919 -1.7165
  213MPD1    H2 3294   3.573   2.542  15.518  0.0557 -1.9234 -1.5523
  213MPD1    H3 3295   3.599   2.716  15.354 -0.1059  1.2622  0.5701
  213MPD1     N 3296   3.154   2.738  15.278  0.6214  0.2635 -0.3497
  213MPD1    H5 3297   3.066   2.690  15.296  0.7878  0.4335  0.9073
  213MPD1    N1 3298   3.340   2.444  15.614  0.1495  0.0223  0.4941
  213MPD1    H6 3299   3.421   2.385  15.628  1.4570  1.3971 -1.2165
  213MPD1    H7 3300   3.249   2.401  15.628  1.8457 -3.7703 -0.2441
  214MPD1     C 3301   2.355   2.359  14.871 -0.5284  0.1101  0.0135
  214MPD1    C1 3302   2.378   2.425  14.992 -0.4635  0.7051  0.3427
  214MPD1    C2 3303   2.493   2.508  14.989 -0.2588 -0.5639 -0.1319
  214MPD1    C3 3304   2.572   2.513  14.875  0.5087 -0.2370 -0.1202
  214MPD1    C4 3305   2.536   2.451  14.756 -0.7417 -0.2321 -0.1778
  214MPD1    C5 3306   2.420   2.379  14.757 -0.9904  0.1632 -0.0672
  214MPD1     H 3307   2.526   2.554  15.082  2.9975 -1.2048 -0.9657
  214MPD1    H1 3308   2.591   2.470  14.665 -1.8581  0.5613 -0.6882
  214MPD1    H2 3309   2.269   2.294  14.855 -1.4587  1.1245  0.8663
  214MPD1    H3 3310   2.392   2.333  14.663  0.3111 -0.3259 -0.2135
  214MPD1     N 3311   2.689   2.596  14.870  0.0169  0.0597  0.6048
  214MPD1    H5 3312   2.719   2.638  14.782  0.1175 -1.9336 -0.3072
  214MPD1    N1 3313   2.312   2.383  15.109  0.3864 -0.2578  0.1813
  214MPD1    H6 3314   2.317   2.452  15.184  1.0514 -0.4378  0.3019
  214MPD1    H7 3315   2.213   2.370  15.090 -0.0893  0.8121  1.8717
  215MPD1     C 3316   2.317   3.818  11.051 -0.0286 -0.0052  0.3498
  215MPD1    C1 3317   2.323   3.875  11.180  0.1426  0.0333  0.2168
  215MPD1    C2 3318   2.354   4.009  11.194 -0.4836 -0.3038  0.6590
  215MPD1    C3 3319   2.384   4.089  11.083  0.1368 -0.1422 -0.3893
  215MPD1    C4 3320   2.388   4.023  10.963  0.1315  0.5520  0.6868
  215MPD1    C5 3321   2.344   3.893  10.942  0.1796  0.2972  0.1740
  215MPD1     H 3322   2.344   4.048  11.294  0.4711 -1.0917  1.0630
  215MPD1    H1 3323   2.399   4.077  10.870 -0.6318 -1.4096 -0.5447
  215MPD1    H2 3324   2.295   3.714  11.029  1.2670  0.0714 -1.3744
  215MPD1    H3 3325   2.343   3.854  10.841  1.1227  2.1895 -0.5601
  215MPD1     N 3326   2.419   4.218  11.115  0.5285  0.3772  0.1321
  215MPD1    H5 3327   2.415   4.255  11.209  0.0241 -0.8500  0.5808
  215MPD1    N1 3328   2.314   3.792  11.292  0.0717  0.1379  0.0810
  215MPD1    H6 3329   2.264   3.842  11.365  0.9718 -0.6036  1.1997
  215MPD1    H7 3330   2.256   3.712  11.267  1.1856 -0.8772  0.7104
  216MPD1     C 3331   0.758   1.697  16.961  0.2751 -0.2304 -0.2844
  216MPD1    C1 3332   0.743   1.695  16.828  0.0618 -0.2617 -0.2226
  216MPD1    C2 3333   0.705   1.572  16.776 -0.6554  0.2643  0.0554
  216MPD1    C3 3334   0.640   1.480  16.848  0.1011  0.2536  0.4256
  216MPD1    C4 3335   0.637   1.497  16.985  0.7741 -0.4233  0.3823
  216MPD1    C5 3336   0.691   1.612  17.040  0.2239  0.3915  0.1579
  216MPD1     H 3337   0.710   1.558  16.668  0.2037 -0.7425  0.2340
  216MPD1    H1 3338   0.598   1.423  17.055 -2.9063  0.6789 -0.4938
  216MPD1    H2 3339   0.796   1.785  17.012  1.0611 -1.8503  1.9358
  216MPD1    H3 3340   0.696   1.627  17.147 -0.0159 -1.6296  0.4590
  216MPD1     N 3341   0.609   1.361  16.784  0.1538  0.6521 -0.1070
  216MPD1    H5 3342   0.643   1.349  16.689 -0.8521 -4.3964  0.1627
  216MPD1    N1 3343   0.836   1.775  16.759  0.2988  0.0080  0.4075
  216MPD1    H6 3344   0.794   1.788  16.667  0.2497  3.3202  0.8961
  216MPD1    H7 3345   0.849   1.867  16.801 -2.0687  0.1836  0.7886
  217MPD1     C 3346   0.464   4.699   9.140  0.0566 -0.5779  0.5246
  217MPD1    C1 3347   0.340   4.725   9.198 -0.7965  0.5426  0.4501
  217MPD1    C2 3348   0.260   4.619   9.228  0.4117  0.1023  0.0421
  217MPD1    C3 3349   0.296   4.487   9.207  0.4895  0.1146 -0.8934
  217MPD1    C4 3350   0.420   4.461   9.154 -0.2500  0.6863 -0.4779
  217MPD1    C5 3351   0.504   4.568   9.122 -0.6406 -0.6650 -0.1135
  217MPD1     H 3352   0.163   4.634   9.274 -0.7764  1.0412 -2.8009
  217MPD1    H1 3353   0.446   4.366   9.110 -1.2325  0.1027  0.1986
  217MPD1    H2 3354   0.533   0.035   9.103  2.4599 -1.5789  3.0071
  217MPD1    H3 3355   0.604   4.553   9.085 -0.4876 -0.3236  0.1574
  217MPD1     N 3356   0.221   4.375   9.243  0.1758  0.1707  0.4027
  217MPD1    H5 3357   0.274   4.289   9.234 -1.1715 -1.0051  3.5630
  217MPD1    N1 3358   0.284   0.114   9.187  0.4465 -0.1178 -0.2441
  217MPD1    H6 3359   0.351   0.189   9.202 -0.3752  0.6829 -0.6437
  217MPD1    H7 3360   0.211   0.118   9.258 -0.1340  1.5198 -0.9423
  218MPD1     C 3361   2.838   0.008  12.910 -0.2201 -1.1050 -0.0386
  218MPD1    C1 3362   2.793   4.655  12.991 -0.5914 -0.1175  1.0003
  218MPD1    C2 3363   2.717   4.555  12.935 -0.2147 -0.0803 -0.6909
  218MPD1    C3 3364   2.688   4.545  12.803 -0.6165 -0.0060 -0.0162
  218MPD1    C4 3365   2.744   4.645  12.721  0.7121  0.0130 -0.0264
  218MPD1    C5 3366   2.824   0.003  12.773  0.5874 -0.0852 -0.0604
  218MPD1     H 3367   2.678   4.480  13.003  0.6284  0.2531  0.1635
  218MPD1    H1 3368   2.726   4.649  12.614  0.3340 -0.0427  0.0326
  218MPD1    H2 3369   2.882   0.101  12.944  1.0859 -3.1928  3.9514
  218MPD1    H3 3370   2.861   0.074  12.700 -1.1864  1.7477  0.8296
  218MPD1     N 3371   2.606   4.433  12.746 -0.0459 -0.3672  0.3874
  218MPD1    H5 3372   2.575   4.363  12.814 -1.9935  0.7505  0.6541
  218MPD1    N1 3373   2.777   4.687  13.129  0.1339 -0.3453  0.7157
  218MPD1    H6 3374   2.867   4.728  13.155  0.1855 -0.3667  0.5751
  218MPD1    H7 3375   2.771   4.605  13.189  2.8909  1.4146  3.4186
  219MPD1     C 3376   2.676   3.852  11.850  0.2771 -0.3755 -0.2830
  219MPD1    C1 3377   2.652   3.987  11.867 -0.3944 -0.3095  0.2255
  219MPD1    C2 3378   2.596   4.032  11.982  0.0795  0.1163  0.3941
  219MPD1    C3 3379   2.568   3.942  12.081 -0.8157  0.4867 -0.4824
  219MPD1    C4 3380   2.582   3.807  12.059 -0.1205  0.3099 -0.6234
  219MPD1    C5 3381   2.639   3.763  11.943 -0.6076 -0.2177 -0.2752
  219MPD1     H 3382   2.573   4.136  12.002  1.4305  0.0060  2.5828
  219MPD1    H1 3383   2.549   3.735  12.133 -0.5313  0.6975 -0.4328
  219MPD1    H2 3384   2.715   3.818  11.755  0.3247  1.9887 -1.1036
  219MPD1    H3 3385   2.668   3.659  11.935  2.7057  0.7469 -0.7706
  219MPD1     N 3386   2.519   3.981  12.208 -0.1280  0.2660  0.0035
  219MPD1    H5 3387   2.517   3.904  12.273 -5.2233  1.5433  1.3936
  219MPD1    N1 3388   2.681   4.073  11.762  0.4379  0.1685  0.4102
  219MPD1    H6 3389   2.648   4.032  11.675 -1.0016 -1.6636  1.7954
  219MPD1    H7 3390   2.629   4.160  11.774 -0.0887 -0.0760 -0.1026
  220MPD1     C 3391   2.309   0.587   9.541 -0.2090  0.0950 -0.2865
  220MPD1    C1 3392   2.203   0.533   9.607 -0.7706 -0.1462  0.1910
  220MPD1    C2 3393   2.229   0.445   9.711 -0.3068  0.3313  0.2278
  220MPD1    C3 3394   2.363   0.418   9.747  0.0212 -0.1854 -0.8810
  220MPD1    C4 3395   2.466   0.465   9.668  0.3803 -0.3639 -0.5688
  220MPD1    C5 3396   2.435   0.553   9.564 -0.2088  0.2464  0.2312
  220MPD1     H 3397   2.155   0.412   9.782 -1.6799  1.2086 -0.8045
  220MPD1    H1 3398   2.570   0.446   9.691  0.1479 -0.9291  0.0280
  220MPD1    H2 3399   2.289   0.654   9.458 -1.9694  0.1291  0.1472
  220MPD1    H3 3400   2.516   0.598   9.508  0.2981  0.2708  0.9780
  220MPD1     N 3401   2.386   0.331   9.853  0.3505 -0.0151 -0.0914
  220MPD1    H5 3402   2.307   0.289   9.902  0.3954 -0.8735 -0.7704
  220MPD1    N1 3403   2.070   0.568   9.570  0.5148  0.5424  0.5888
  220MPD1    H6 3404   1.996   0.539   9.633 -0.4448  0.4538 -0.5891
  220MPD1    H7 3405   2.062   0.670   9.567 -1.4011  0.3863  0.9173
  221MPD1     C 3406   0.543   3.395  16.300 -0.5429 -0.0735  0.4752
  221MPD1    C1 3407   0.657   3.393  16.381 -0.2631 -0.0484 -0.3340
  221MPD1    C2 3408   0.772   3.348  16.327  0.3093 -0.2245 -0.2616
  221MPD1    C3 3409   0.796   3.342  16.190  0.2541  0.1665 -0.6773
  221MPD1    C4 3410   0.687   3.361  16.105  0.4624 -0.7016 -0.2087
  221MPD1    C5 3411   0.562   3.390  16.164  0.2036 -0.0679 -0.8663
  221MPD1     H 3412   0.858   3.330  16.390 -0.2804 -0.4215  0.4894
  221MPD1    H1 3413   0.693   3.366  15.997  0.1176 -1.3330 -0.2581
  221MPD1    H2 3414   0.449   3.420  16.348 -0.2076  0.9508  0.6057
  221MPD1    H3 3415   0.477   3.398  16.098 -0.1842 -0.6999 -0.4421
  221MPD1     N 3416   0.919   3.306  16.129 -0.0064  0.2614  0.5984
  221MPD1    H5 3417   0.928   3.297  16.028 -2.7784  0.3190  0.3600
  221MPD1    N1 3418   0.645   3.412  16.524  0.1038 -0.0032  0.4387
  221MPD1    H6 3419   0.575   3.485  16.539  0.6417  1.1024 -2.3538
  221MPD1    H7 3420   0.733   3.442  16.565 -0.2251  3.2385 -1.2060
  222MPD1     C 3421   4.228   1.568   0.635  0.6783 -0.2190  0.3998
  222MPD1    C1 3422   4.361   1.578   0.594 -0.1077  0.0222 -0.1580
  222MPD1    C2 3423   4.420   1.700   0.564 -0.4818  0.0804  0.2269
  222MPD1    C3 3424   4.353   1.819   0.574  0.3786  0.3190 -0.1846
  222MPD1    C4 3425   4.223   1.814   0.621 -0.0421  0.1642 -0.0644
  222MPD1    C5 3426   4.170   1.688   0.650 -0.1352 -0.3793 -0.1584
  222MPD1     H 3427   4.526   1.699   0.541 -0.3883  2.2961  0.5239
  222MPD1    H1 3428   4.162   1.901   0.639  2.9569  2.0695  0.9145
  222MPD1    H2 3429   4.190   1.472   0.666  0.3340 -0.3924 -0.5705
  222MPD1    H3 3430   4.071   1.685   0.693 -0.4554 -1.7100 -0.9905
  222MPD1     N 3431   4.401   1.938   0.517  0.3910  0.4807  0.2180
  222MPD1    H5 3432   4.345   2.023   0.520 -2.3771 -1.3352 -0.1432
  222MPD1    N1 3433   4.433   1.457   0.595  0.0069 -0.3591  0.0321
  222MPD1    H6 3434   4.505   1.463   0.523 -0.9161 -0.8128 -0.9275
  222MPD1    H7 3435   4.385   1.382   0.547  0.1317 -0.9263  0.7930
  223MPD1     C 3436   4.681   2.856   0.817 -1.2870  0.3121 -1.0814
  223MPD1    C1 3437   0.055   2.811   0.762 -0.0335 -0.0125  0.5756
  223MPD1    C2 3438   0.048   2.688   0.696 -0.1484 -0.2466 -0.0382
  223MPD1    C3 3439   4.665   2.612   0.702  0.0526 -0.0519 -0.0912
  223MPD1    C4 3440   4.554   2.664   0.763 -0.3294  0.0809 -0.2650
  223MPD1    C5 3441   4.559   2.788   0.813 -0.1763 -0.8450 -0.0417
  223MPD1     H 3442   0.128   2.649   0.635  0.8522  0.7214  0.6560
  223MPD1    H1 3443   4.460   2.610   0.769  0.3325 -1.1457 -0.8942
  223MPD1    H2 3444   4.662   2.954   0.859 -1.4063 -0.3313  0.3829
  223MPD1    H3 3445   4.472   2.842   0.849 -0.5806 -1.3302 -0.3048
  223MPD1     N 3446   4.658   2.494   0.620 -0.0537 -0.2696  0.2184
  223MPD1    H5 3447   4.738   2.464   0.564  0.7748  0.9140  0.7522
  223MPD1    N1 3448   0.160   2.903   0.743  0.7339  0.3723 -1.1773
  223MPD1    H6 3449   0.154   2.986   0.803  0.3428 -0.0046 -0.6928
  223MPD1    H7 3450   0.255   2.867   0.742  0.4686 -0.3390 -0.5739
  224MPD1     C 3451   1.844   3.905   9.202  0.1124  0.2306  0.1785
  224MPD1    C1 3452   1.796   4.025   9.242 -1.0923 -0.1139  0.2793
  224MPD1    C2 3453   1.658   4.038   9.243  0.4914 -0.1987  0.8738
  224MPD1    C3 3454   1.573   3.933   9.217  0.7409  0.0075  0.6789
  224MPD1    C4 3455   1.631   3.815   9.176  0.0080 -0.4557 -0.0440
  224MPD1    C5 3456   1.762   3.802   9.169  0.8040  0.7927 -0.9398
  224MPD1     H 3457   1.616   4.135   9.267  2.3510  0.7448  0.3124
  224MPD1    H1 3458   1.575   3.726   9.150  1.2695 -1.8959  2.1895
  224MPD1    H2 3459   1.951   3.888   9.194 -0.4210 -2.4986 -1.3087
  224MPD1    H3 3460   1.804   3.712   9.126  1.8218  0.0596  1.5808
  224MPD1     N 3461   1.435   3.942   9.233  0.7117  0.4300 -0.0288
  224MPD1    H5 3462   1.380   3.857   9.231  0.6191  0.4830  0.3109
  224MPD1    N1 3463   1.885   4.128   9.276 -0.4484  0.1009  0.5769
  224MPD1    H6 3464   1.865   4.168   9.368 -0.2603  3.4314 -0.8254
  224MPD1    H7 3465   1.981   4.096   9.275 -0.0345  1.2620  3.1130
  225MPD1     C 3466   2.627   0.732  12.543  0.3427 -0.8518 -0.1347
  225MPD1    C1 3467   2.599   0.607  12.597 -0.1861 -0.1763 -0.0391
  225MPD1    C2 3468   2.470   0.590  12.636  0.5632 -0.2039  0.3147
  225MPD1    C3 3469   2.367   0.670  12.594  0.0885 -0.2591 -0.0621
  225MPD1    C4 3470   2.395   0.795  12.542 -0.0947 -0.1397  0.1743
  225MPD1    C5 3471   2.524   0.817  12.509 -0.3690 -0.2706 -0.0107
  225MPD1     H 3472   2.442   0.498  12.685 -2.3058 -0.0845 -1.1065
  225MPD1    H1 3473   2.319   0.870  12.519  1.1504  1.1391  0.2200
  225MPD1    H2 3474   2.727   0.761  12.513 -0.2729  2.4319  0.9890
  225MPD1    H3 3475   2.553   0.909  12.460 -1.0264  0.0382  0.1793
  225MPD1     N 3476   2.230   0.633  12.601 -0.0969  0.5005 -0.2437
  225MPD1    H5 3477   2.167   0.707  12.572 -2.4297 -0.9864  0.9885
  225MPD1    N1 3478   2.707   0.519  12.627  0.9631 -0.3306 -0.3302
  225MPD1    H6 3479   2.684   0.422  12.609 -0.6389 -0.3142  1.5692
  225MPD1    H7 3480   2.785   0.541  12.565  1.1451  1.3029  0.4689
  226MPD1     C 3481   0.566   0.799   8.793 -0.1176  0.1827 -0.0197
  226MPD1    C1 3482   0.700   0.841   8.805  0.3519 -0.0373 -0.4553
  226MPD1    C2 3483   0.773   0.779   8.902  0.0782 -0.6821  0.2155
  226MPD1    C3 3484   0.733   0.667   8.963 -0.3853 -0.1981 -0.6658
  226MPD1    C4 3485   0.609   0.615   8.936  0.1949 -0.3610 -0.3970
  226MPD1    C5 3486   0.527   0.683   8.848  0.5162 -0.8894  0.2587
  226MPD1     H 3487   0.875   0.812   8.916 -0.6354  2.1653 -1.2096
  226MPD1    H1 3488   0.573   0.520   8.973 -1.7781  0.1114 -1.1056
  226MPD1    H2 3489   0.492   0.843   8.726  0.2585  0.1265 -0.4697
  226MPD1    H3 3490   0.427   0.646   8.827 -0.7332  2.7165 -0.0400
  226MPD1     N 3491   0.829   0.612   9.051  0.2901  0.1132 -0.3599
  226MPD1    H5 3492   0.916   0.661   9.068 -0.2501  1.3696 -1.2570
  226MPD1    N1 3493   0.738   0.962   8.754  0.3998 -0.6126 -0.1298
  226MPD1    H6 3494   0.838   0.973   8.741  0.2730  0.4155 -0.2476
  226MPD1    H7 3495   0.684   1.004   8.677 -1.9350  1.0023  2.3865
  227MPD1     C 3496   1.657   0.109   8.867 -0.4161  0.1600 -0.3233
  227MPD1    C1 3497   1.618   0.026   8.972  0.2037  0.0576 -0.0840
  227MPD1    C2 3498   1.500   0.069   9.033  0.5501 -0.5462 -0.8819
  227MPD1    C3 3499   1.445   0.192   9.009 -0.7296 -0.4544 -0.0401
  227MPD1    C4 3500   1.499   0.276   8.921  0.6770 -0.2236  0.3898
  227MPD1    C5 3501   1.600   0.233   8.840 -0.6761 -0.4985 -0.4755
  227MPD1     H 3502   1.436   0.001   9.088  1.4556 -0.1940  0.5869
  227MPD1    H1 3503   1.448   0.365   8.885  1.9586  0.9614  1.4612
  227MPD1    H2 3504   1.730   0.086   8.790  0.2245  0.5171  0.1763
  227MPD1    H3 3505   1.637   0.294   8.759 -1.8436 -0.9566 -1.3583
  227MPD1     N 3506   1.332   0.227   9.086  0.3977 -0.6337  0.1155
  227MPD1    H5 3507   1.282   0.153   9.134  0.0165  0.0715  0.8208
  227MPD1    N1 3508   1.666   4.633   8.973 -0.2214  0.1909 -0.0818
  227MPD1    H6 3509   1.765   4.633   8.951  0.3503 -1.4081  2.4625
  227MPD1    H7 3510   1.655   4.579   9.058 -0.7399  0.5012  0.0492
  228MPD1     C 3511   4.123   3.020  11.875  0.2167 -0.0856 -0.3806
  228MPD1    C1 3512   3.985   3.022  11.859 -0.0672  0.2570 -0.9495
  228MPD1    C2 3513   3.907   2.994  11.975 -0.7248 -0.3203  0.3820
  228MPD1    C3 3514   3.964   2.958  12.096 -0.4460  0.0421 -0.0439
  228MPD1    C4 3515   4.103   2.959  12.102  0.1603 -0.8288 -0.0789
  228MPD1    C5 3516   4.181   2.986  11.993  0.3534 -0.1135  0.1222
  228MPD1     H 3517   3.799   3.006  11.965 -0.7813 -1.6918 -0.6173
  228MPD1    H1 3518   4.157   2.910  12.183  1.0447  1.4067  0.6688
  228MPD1    H2 3519   4.175   3.050  11.785  0.5561  1.1573  0.2208
  228MPD1    H3 3520   4.288   2.970  11.998  0.5239  0.5215 -1.3329
  228MPD1     N 3521   3.880   2.943  12.210  0.0383  0.4696 -0.4395
  228MPD1    H5 3522   3.783   2.968  12.195 -0.3421  0.3435  1.9089
  228MPD1    N1 3523   3.917   3.075  11.746  0.0025  0.0882  0.4737
  228MPD1    H6 3524   3.969   3.059  11.659 -2.3922 -0.9266 -0.7719
  228MPD1    H7 3525   3.826   3.033  11.729  1.0457 -1.2933 -1.7002
  229MPD1     C 3526   3.795   2.199  14.735 -0.9578 -0.5917  0.4054
  229MPD1    C1 3527   3.792   2.083  14.658 -0.0403  0.4148  0.8892
  229MPD1    C2 3528   3.864   1.975  14.702  0.1271  0.2843 -0.0394
  229MPD1    C3 3529   3.936   1.977  14.822 -0.0641  0.2782 -0.0977
  229MPD1    C4 3530   3.934   2.096  14.897 -0.3157 -0.5668 -0.2048
  229MPD1    C5 3531   3.866   2.197  14.853 -0.2644  0.3810 -0.2588
  229MPD1     H 3532   3.846   1.880  14.654  1.7422  0.1883 -0.4334
  229MPD1    H1 3533   4.000   2.116  14.981 -0.5852 -4.8786  1.0540
  229MPD1    H2 3534   3.740   2.288  14.707  2.5874  0.6878 -2.4931
  229MPD1    H3 3535   3.865   2.287  14.913 -0.6934  1.5892 -2.0630
  229MPD1     N 3536   3.994   1.863  14.875 -0.3163 -0.4732 -0.5649
  229MPD1    H5 3537   4.061   1.883  14.949 -0.5373  1.2069 -0.8239
  229MPD1    N1 3538   3.729   2.080  14.534  0.2636 -0.0968 -0.3669
  229MPD1    H6 3539   3.705   1.984  14.510  0.3445 -0.5198  1.2683
  229MPD1    H7 3540   3.645   2.137  14.536  1.1798  1.2620 -0.5878
  230MPD1     C 3541   4.450   1.597  15.698 -0.6283  0.7897 -0.0159
  230MPD1    C1 3542   4.478   1.488  15.624  0.0567 -0.0330 -0.2250
  230MPD1    C2 3543   4.404   1.464  15.508  0.1367 -0.3582 -0.0245
  230MPD1    C3 3544   4.307   1.555  15.460  0.8820 -0.6847 -0.5278
  230MPD1    C4 3545   4.289   1.668  15.535  0.9102 -0.7397  0.0254
  230MPD1    C5 3546   4.352   1.686  15.658 -0.4500 -0.1881  0.6159
  230MPD1     H 3547   4.399   1.367  15.460 -0.6203  1.0523 -2.7772
  230MPD1    H1 3548   4.215   1.740  15.504 -0.4244 -1.8994  0.4837
  230MPD1    H2 3549   4.484   1.616  15.799 -0.8664  1.9748 -0.1605
  230MPD1    H3 3550   4.330   1.767  15.726 -1.5001  1.6534 -1.9152
  230MPD1     N 3551   4.255   1.535  15.330  0.9656 -0.2081 -0.0904
  230MPD1    H5 3552   4.278   1.452  15.277 -0.4946  0.4890 -1.8415
  230MPD1    N1 3553   4.568   1.385  15.666 -0.1343 -0.5768 -0.4676
  230MPD1    H6 3554   4.595   1.319  15.594  1.5357 -1.2613  0.7833
  230MPD1    H7 3555   4.644   1.430  15.717 -0.0427 -0.9396 -0.2795
  231MPD1     C 3556   2.513   2.864  15.338 -0.2602  0.6519 -0.2023
  231MPD1    C1 3557   2.389   2.916  15.310 -0.0157 -0.3689 -0.4028
  231MPD1    C2 3558   2.368   2.950  15.176  0.2232  0.2108 -0.0310
  231MPD1    C3 3559   2.479   2.948  15.083  0.2990  0.4052  0.7373
  231MPD1    C4 3560   2.599   2.889  15.125  0.3167  0.7682 -1.0215
  231MPD1    C5 3561   2.614   2.845  15.252  0.5313  0.2729 -0.4167
  231MPD1     H 3562   2.269   2.988  15.154 -0.0702 -0.0087  0.8940
  231MPD1    H1 3563   2.690   2.872  15.068  0.0425  1.1516 -1.5677
  231MPD1    H2 3564   2.541   2.827  15.436  0.5970  1.1727 -0.2538
  231MPD1    H3 3565   2.707   2.807  15.293  0.6726 -0.1500 -1.1274
  231MPD1     N 3566   2.466   3.004  14.954  0.1364 -0.2198 -0.4842
  231MPD1    H5 3567   2.374   3.043  14.934 -0.1840 -1.3146 -1.1403
  231MPD1    N1 3568   2.293   2.889  15.406  0.1236  0.3385 -0.0187
  231MPD1    H6 3569   2.221   2.959  15.393 -1.6161 -0.8016  3.3790
  231MPD1    H7 3570   2.333   2.886  15.500  0.4613  0.8423 -0.1462
  232MPD1     C 3571   3.810   1.694   0.621  0.3314  0.7333 -0.1466
  232MPD1    C1 3572   3.863   1.780   0.520 -0.3548  0.5393 -0.3687
  232MPD1    C2 3573   3.865   1.731   0.390  0.3055 -0.2899 -0.1355
  232MPD1    C3 3574   3.824   1.598   0.365 -0.8777  0.6878  0.2454
  232MPD1    C4 3575   3.779   1.522   0.467 -0.5104 -0.6875 -0.6440
  232MPD1    C5 3576   3.758   1.577   0.587  0.6415 -0.0748  1.1547
  232MPD1     H 3577   3.901   1.797   0.312  0.9651 -2.2464 -1.4970
  232MPD1    H1 3578   3.745   1.421   0.446 -2.5229  0.4035 -2.6551
  232MPD1    H2 3579   3.794   1.735   0.720  0.2398 -0.4710  0.3416
  232MPD1    H3 3580   3.713   1.509   0.658 -1.5164  0.7407  0.5531
  232MPD1     N 3581   3.833   1.552   0.227 -1.1736  1.0147 -1.2477
  232MPD1    H5 3582   3.850   1.620   0.154  1.5327  1.3727 -0.2819
  232MPD1    N1 3583   3.880   1.916   0.547  0.0390  0.0895  0.0380
  232MPD1    H6 3584   3.905   1.933   0.644  0.4091 -0.6310  0.0690
  232MPD1    H7 3585   3.952   1.949   0.483  1.0199 -0.5451  0.8012
  233MPD1     C 3586   4.419   3.237   0.484  0.0369 -0.3182  0.1610
  233MPD1    C1 3587   4.449   3.167   0.598 -0.5881 -0.1465  0.0737
  233MPD1    C2 3588   4.578   3.181   0.653 -0.2697 -0.2122  0.0637
  233MPD1    C3 3589   4.666   3.272   0.612  0.6918 -0.2580 -1.1748
  233MPD1    C4 3590   4.635   3.336   0.495 -0.0615  0.0253 -0.6944
  233MPD1    C5 3591   4.510   3.326   0.431  0.5528 -0.1667 -0.2810
  233MPD1     H 3592   4.584   3.137   0.752 -0.8558  0.7194  0.5148
  233MPD1    H1 3593   4.709   3.405   0.457 -1.9549  1.0674 -2.5330
  233MPD1    H2 3594   4.318   3.235   0.446  0.7606  0.1203 -1.7608
  233MPD1    H3 3595   4.487   3.384   0.343 -0.0321  1.9965  1.2748
  233MPD1     N 3596   0.041   3.309   0.684  0.3638 -0.1956  0.4537
  233MPD1    H5 3597   0.084   3.391   0.644  0.4434 -0.4369  0.0414
  233MPD1    N1 3598   4.373   3.054   0.644 -0.3573  0.7179  0.7497
  233MPD1    H6 3599   4.276   3.061   0.616  0.2670  1.2148 -1.3261
  233MPD1    H7 3600   4.376   3.036   0.744  0.3508 -0.0511  0.5963
  234MPD1     C 3601   0.312   2.480   9.173 -0.2916 -0.1323 -0.0886
  234MPD1    C1 3602   0.391   2.504   9.282  0.2079  0.2442  0.7628
  234MPD1    C2 3603   0.426   2.634   9.296  0.9211  0.3788  0.2412
  234MPD1    C3 3604   0.369   2.737   9.222  0.1437 -0.2570  0.0553
  234MPD1    C4 3605   0.275   2.707   9.128  0.2138  0.4665 -0.1581
  234MPD1    C5 3606   0.247   2.575   9.110 -0.1079  0.9876 -0.0489
  234MPD1     H 3607   0.489   2.661   9.379  0.7999 -0.5441  0.6322
  234MPD1    H1 3608   0.230   2.772   9.054 -0.8913  0.1508  0.2302
  234MPD1    H2 3609   0.289   2.378   9.144 -1.2504 -0.3736  1.5356
  234MPD1    H3 3610   0.181   2.547   9.029 -0.4880 -2.1245  1.3416
  234MPD1     N 3611   0.417   2.868   9.238 -0.4287  0.1676 -0.0654
  234MPD1    H5 3612   0.488   2.885   9.309 -1.4168  0.5498  0.8282
  234MPD1    N1 3613   0.459   2.399   9.351  0.2424  0.1045 -0.2667
  234MPD1    H6 3614   0.400   2.318   9.369  0.6767 -0.7221 -2.5883
  234MPD1    H7 3615   0.468   2.435   9.446 -3.4811 -0.9604  0.4810
  235MPD1     C 3616   3.547   0.577   8.944  0.1454 -0.3588  0.7647
  235MPD1    C1 3617   3.516   0.579   9.077 -0.0582 -0.7126 -0.2718
  235MPD1    C2 3618   3.484   0.701   9.131 -0.6394  0.6533  0.3043
  235MPD1    C3 3619   3.454   0.812   9.049 -0.3098 -0.8196 -0.1438
  235MPD1    C4 3620   3.480   0.812   8.917 -0.1597 -0.3161 -0.6681
  235MPD1    C5 3621   3.527   0.694   8.864  0.0096  0.3420 -0.1629
  235MPD1     H 3622   3.474   0.706   9.238 -1.3344 -4.2393  0.4400
  235MPD1    H1 3623   3.475   0.895   8.848  3.1218 -0.7740 -1.4829
  235MPD1    H2 3624   3.592   0.497   8.885 -3.1282 -1.0701 -0.7969
  235MPD1    H3 3625   3.565   0.700   8.763  0.7493  0.6146  0.1308
  235MPD1     N 3626   3.417   0.931   9.116  0.0499 -0.3327  0.0756
  235MPD1    H5 3627   3.422   0.921   9.217 -0.3124  1.6012  0.2873
  235MPD1    N1 3628   3.542   0.464   9.151  0.2535 -0.3443  0.1193
  235MPD1    H6 3629   3.512   0.376   9.109  0.3886 -0.9267  1.2314
  235MPD1    H7 3630   3.495   0.481   9.240  0.7677 -0.6872  0.4568
  236MPD1     C 3631   2.119   2.226   9.313 -0.5442 -0.4225  0.1222
  236MPD1    C1 3632   2.103   2.093   9.284 -0.3630 -0.3419 -0.1443
  236MPD1    C2 3633   2.145   2.001   9.377 -0.5708  0.4106  0.3613
  236MPD1    C3 3634   2.201   2.039   9.497  0.1358  0.1119 -0.0949
  236MPD1    C4 3635   2.206   2.173   9.531  0.8006  0.6624 -0.0189
  236MPD1    C5 3636   2.164   2.267   9.439  0.1592 -0.1362  0.0718
  236MPD1     H 3637   2.152   1.897   9.349  2.3619  0.3726  1.3072
  236MPD1    H1 3638   2.251   2.213   9.621  2.8305  2.5870 -1.8717
  236MPD1    H2 3639   2.086   2.297   9.239  2.1580  1.1948  0.4818
  236MPD1    H3 3640   2.165   2.371   9.469 -0.8440  0.2274 -1.1611
  236MPD1     N 3641   2.245   1.951   9.595 -0.0104 -0.9147 -0.1183
  236MPD1    H5 3642   2.289   2.003   9.670 -1.1953  0.8782 -0.6634
  236MPD1    N1 3643   2.076   2.060   9.146 -0.2372 -0.3005 -0.2901
  236MPD1    H6 3644   2.008   2.124   9.106 -2.4426 -1.3560  1.7857
  236MPD1    H7 3645   2.041   1.965   9.135 -3.3051  0.5243  2.5304
  237MPD1     C 3646   3.154   4.490  14.929  0.6422 -0.6391 -0.4562
  237MPD1    C1 3647   3.078   4.489  15.043 -0.2878 -0.1712 -0.5595
  237MPD1    C2 3648   2.965   4.410  15.045  0.2811 -0.1667  0.5946
  237MPD1    C3 3649   2.907   4.360  14.933  0.1349 -0.4382 -0.3209
  237MPD1    C4 3650   2.969   4.382  14.811 -0.0539  0.8099  0.8118
  237MPD1    C5 3651   3.097   4.440  14.817  0.1004 -0.2896 -0.4467
  237MPD1     H 3652   2.911   4.396  15.138 -1.1554 -3.5280 -0.7615
  237MPD1    H1 3653   2.939   4.345  14.714 -0.7258  1.1973  0.8778
  237MPD1    H2 3654   3.252   4.538  14.924 -1.2028  3.2657  0.3786
  237MPD1    H3 3655   3.149   4.449  14.722  3.0439  0.5013  1.2636
  237MPD1     N 3656   2.790   4.276  14.929 -0.0748  0.3504 -0.4981
  237MPD1    H5 3657   2.758   4.252  14.836  0.2634 -0.1096 -0.4952
  237MPD1    N1 3658   3.131   4.534  15.163  0.3417 -0.0379  0.4132
  237MPD1    H6 3659   3.196   4.611  15.151  0.4443 -0.0360  0.9588
  237MPD1    H7 3660   3.063   4.545  15.238 -2.5608  0.1683 -2.2466
  238MPD1     C 3661   4.487   2.598  14.848  0.3352  0.1142  0.5683
  238MPD1    C1 3662   4.521   2.689  14.749  0.1579  0.0520 -0.0146
  238MPD1    C2 3663   4.433   2.795  14.722  0.0875  0.5183 -0.2572
  238MPD1    C3 3664   4.347   2.834  14.822  0.3176 -0.6483  0.0799
  238MPD1    C4 3665   4.332   2.762  14.939  0.2530 -0.5340 -1.1646
  238MPD1    C5 3666   4.399   2.644  14.948 -0.2552 -0.0563 -0.3970
  238MPD1     H 3667   4.440   2.844  14.625 -0.6438 -2.3402 -1.7529
  238MPD1    H1 3668   4.262   2.783  15.019 -0.0611 -1.6594 -1.1462
  238MPD1    H2 3669   4.546   2.507  14.855  2.4083  1.5192  1.0550
  238MPD1    H3 3670   4.388   2.577  15.033  1.6731  1.4126  0.9929
  238MPD1     N 3671   4.248   2.937  14.814  0.0513  0.3311  0.1786
  238MPD1    H5 3672   4.185   2.948  14.893  0.8204 -3.3584  1.2997
  238MPD1    N1 3673   4.610   2.650  14.652 -0.1000  0.0796  0.3544
  238MPD1    H6 3674   4.660   2.725  14.605  1.2138 -1.2746 -0.4412
  238MPD1    H7 3675   4.683   2.590  14.690  0.2081  1.8244  2.4491
  239MPD1     C 3676   4.091   4.044  15.020 -0.5492  0.0158  0.7154
  239MPD1    C1 3677   4.184   4.075  14.921 -0.5021  0.5091  0.3373
  239MPD1    C2 3678   4.129   4.154  14.818 -1.2919  0.8573  0.5300
  239MPD1    C3 3679   3.992   4.180  14.791  0.0048  0.5962  0.0194
  239MPD1    C4 3680   3.907   4.123  14.886  0.3837 -0.2580 -0.3382
  239MPD1    C5 3681   3.954   4.061  15.001  0.6646  0.2280 -0.1396
  239MPD1     H 3682   4.200   4.193  14.746 -1.2875 -0.3566 -0.1323
  239MPD1    H1 3683   3.800   4.137  14.876  0.5659  1.9150  0.8254
  239MPD1    H2 3684   4.124   4.006  15.116  0.4024 -0.2535  0.2915
  239MPD1    H3 3685   3.881   4.024  15.072  1.8093  0.4571  1.1769
  239MPD1     N 3686   3.934   4.258  14.685 -0.0094 -0.7483 -0.0464
  239MPD1    H5 3687   3.836   4.283  14.692  0.5144  1.1370  0.6776
  239MPD1    N1 3688   4.319   4.072  14.955  0.1648 -0.0042  0.4417
  239MPD1    H6 3689   4.344   3.989  15.008  0.4447  1.0239  1.8963
  239MPD1    H7 3690   4.379   4.066  14.873 -0.5055 -1.3449  0.0376
  240MPD1     C 3691   3.984   3.637  13.366 -0.1015 -0.3114  0.1690
  240MPD1    C1 3692   3.849   3.651  13.379  0.4441  0.0695 -0.5517
  240MPD1    C2 3693   3.807   3.687  13.509  0.3731  0.0619 -0.2318
  240MPD1    C3 3694   3.893   3.675  13.623 -0.2952 -0.7010  0.0595
  240MPD1    C4 3695   4.022   3.643  13.601 -0.5017 -0.3313  0.6595
  240MPD1    C5 3696   4.065   3.621  13.475  0.5506 -0.4756  0.2318
  240MPD1     H 3697   3.707   3.720  13.535  0.3545 -1.2951  1.4614
  240MPD1    H1 3698   4.097   3.632  13.678 -0.9900  1.3940  1.3875
  240MPD1    H2 3699   4.034   3.636  13.270  0.0412  0.4573  0.2390
  240MPD1    H3 3700   4.171   3.597  13.465  1.1095  2.2522 -0.3921
  240MPD1     N 3701   3.833   3.704  13.744 -0.1351 -0.0932 -0.0359
  240MPD1    H5 3702   3.732   3.712  13.741 -0.1779 -0.9917 -0.8713
  240MPD1    N1 3703   3.766   3.683  13.264 -0.5577 -0.1358  0.6647
  240MPD1    H6 3704   3.666   3.691  13.282 -1.0111  1.3091 -2.6451
  240MPD1    H7 3705   3.783   3.615  13.190  0.4723 -0.4271  1.1635
  241MPD1     C 3706   4.233   3.788  14.698  0.4444 -0.3129 -0.1331
  241MPD1    C1 3707   4.103   3.753  14.718  0.1267 -0.3906 -0.0166
  241MPD1    C2 3708   4.024   3.736  14.605 -0.4756 -0.0661 -0.4862
  241MPD1    C3 3709   4.080   3.735  14.477  0.0445  1.4405 -0.9152
  241MPD1    C4 3710   4.209   3.768  14.460 -0.5265 -0.2430 -0.3855
  241MPD1    C5 3711   4.284   3.792  14.571 -0.6577  0.8506 -0.1133
  241MPD1     H 3712   3.918   3.714  14.618  0.0984 -3.0376 -0.8008
  241MPD1    H1 3713   4.262   3.776  14.366  2.1174  1.2981  1.2134
  241MPD1    H2 3714   4.308   3.790  14.776 -0.5141  0.3560  0.7599
  241MPD1    H3 3715   4.392   3.806  14.563 -0.5409 -0.1633 -0.3854
  241MPD1     N 3716   4.008   3.713  14.361 -0.2456  0.3528 -0.0521
  241MPD1    H5 3717   4.039   3.746  14.271 -0.4446  0.3725 -0.1138
  241MPD1    N1 3718   4.055   3.745  14.847 -0.4715  0.0794  0.1734
  241MPD1    H6 3719   4.091   3.819  14.907 -0.4500  1.1178 -1.1173
  241MPD1    H7 3720   3.955   3.763  14.852 -0.1322  1.7228  0.9927
  242MPD1     C 3721   3.578   1.386  15.677  0.0435  0.3313 -1.0394
  242MPD1    C1 3722   3.479   1.399  15.584  0.2689  0.2441 -0.3153
  242MPD1    C2 3723   3.454   1.526  15.529 -0.1924  0.6794  0.2080
  242MPD1    C3 3724   3.541   1.630  15.557  0.1649  0.3255 -0.0207
  242MPD1    C4 3725   3.641   1.608  15.646  0.5103  0.0906  0.5759
  242MPD1    C5 3726   3.663   1.488  15.708  0.1407  1.0638  0.1555
  242MPD1     H 3727   3.365   1.541  15.468  1.0896 -0.7632 -2.0003
  242MPD1    H1 3728   3.694   1.693  15.688  1.5360 -0.1390 -0.2567
  242MPD1    H2 3729   3.600   1.292  15.727  0.2653  1.3088  0.6889
  242MPD1    H3 3730   3.737   1.477  15.786  0.8470 -3.1105 -1.1107
  242MPD1     N 3731   3.535   1.763  15.503 -0.4305  0.0343  0.1450
  242MPD1    H5 3732   3.604   1.827  15.540 -1.2188  1.9651 -1.7811
  242MPD1    N1 3733   3.376   1.300  15.580 -0.0234  0.1976  0.6200
  242MPD1    H6 3734   3.355   1.282  15.482 -0.1713  0.3212  0.6280
  242MPD1    H7 3735   3.403   1.212  15.624 -0.5548  0.0864  0.7324
  243MPD1     C 3736   4.715   0.267  17.426  0.1542 -0.5949 -0.8837
  243MPD1    C1 3737   4.692   0.162  17.343 -0.1472 -0.0063  0.2747
  243MPD1    C2 3738   0.042   0.138  17.236  0.7302 -0.6211  0.3863
  243MPD1    C3 3739   0.137   0.232  17.202  0.3449 -0.6256  0.3867
  243MPD1    C4 3740   0.139   0.354  17.277  0.8776 -0.0931  0.4148
  243MPD1    C5 3741   0.058   0.374  17.386 -1.0227 -0.2968  0.4253
  243MPD1     H 3742   0.037   0.048  17.175  0.2171 -2.2068  2.7553
  243MPD1    H1 3743   0.210   0.432  17.249  0.3551 -0.0921 -0.8861
  243MPD1    H2 3744   4.651   0.287  17.512 -0.3855 -0.5170 -1.3003
  243MPD1    H3 3745   0.059   0.463  17.447  1.2169  0.8894 -1.3465
  243MPD1     N 3746   0.231   0.193  17.100  0.0896  0.4541 -0.4595
  243MPD1    H5 3747   0.207   0.105  17.056  2.0040  1.7271 -3.9878
  243MPD1    N1 3748   4.614   0.055  17.395  0.7911 -0.1666  0.2688
  243MPD1    H6 3749   4.528   0.091  17.435 -0.3562  0.6842 -2.9109
  243MPD1    H7 3750   4.604   4.721  17.323  2.2417 -0.5018  0.4113
  244MPD1     C 3751   0.800   4.150  16.930  0.2981  0.2300  0.9410
  244MPD1    C1 3752   0.888   4.254  16.918  0.2528 -0.0935  0.0743
  244MPD1    C2 3753   0.833   4.382  16.911  0.2533 -0.0608 -0.8088
  244MPD1    C3 3754   0.697   4.404  16.942 -0.1975  0.5588  0.3744
  244MPD1    C4 3755   0.608   4.299  16.963 -0.3921 -1.0465  0.1356
  244MPD1    C5 3756   0.665   4.175  16.960  1.0560 -0.2534 -0.1841
  244MPD1     H 3757   0.896   4.463  16.878 -0.4520  0.6431 -0.4342
  244MPD1    H1 3758   0.501   4.314  16.963 -0.3693 -0.8746 -0.4708
  244MPD1    H2 3759   0.824   4.045  16.922  0.0046  0.1129  1.5656
  244MPD1    H3 3760   0.597   4.092  16.978  1.0283 -0.4421 -1.1616
  244MPD1     N 3761   0.659   4.538  16.918  0.3038  0.2109 -0.0665
  244MPD1    H5 3762   0.734   4.604  16.896  0.4964  0.6110  1.8013
  244MPD1    N1 3763   1.020   4.227  16.891 -0.0152  0.0753 -0.3241
  244MPD1    H6 3764   1.035   4.144  16.948 -2.0870 -1.3541 -1.8710
  244MPD1    H7 3765   1.084   4.306  16.905 -1.1755  0.5586  2.1545
  245MPD1     C 3766   2.898   0.961  12.683  0.2931 -0.1128  0.7449
  245MPD1    C1 3767   2.926   0.897  12.806  0.4493  0.8829  0.3349
  245MPD1    C2 3768   2.853   0.927  12.920  0.0354 -0.1968  0.9528
  245MPD1    C3 3769   2.757   1.026  12.910 -0.0926  1.1396 -0.5505
  245MPD1    C4 3770   2.735   1.097  12.792  0.8155 -0.1564 -0.5624
  245MPD1    C5 3771   2.805   1.060  12.680 -1.0003 -0.2300  0.0727
  245MPD1     H 3772   2.874   0.873  13.012  0.0698 -2.5306 -0.4088
  245MPD1    H1 3773   2.669   1.183  12.789 -0.7638 -1.3694 -0.6279
  245MPD1    H2 3774   2.960   0.944  12.595 -1.4906  0.4290 -0.6204
  245MPD1    H3 3775   2.785   1.117  12.590  0.2925  0.8394  0.4568
  245MPD1     N 3776   2.690   1.065  13.028  0.1701 -0.4796  0.6346
  245MPD1    H5 3777   2.729   1.027  13.113 -1.5440 -1.9796  0.7489
  245MPD1    N1 3778   3.051   0.839  12.822 -0.3827 -0.5044  0.0145
  245MPD1    H6 3779   3.050   0.774  12.900 -2.2606 -0.5454 -0.0418
  245MPD1    H7 3780   3.099   0.801  12.740  2.0024 -0.4261  1.3686
  246MPD1     C 3781   3.251   0.369   9.460  0.5291  0.3419  0.4414
  246MPD1    C1 3782   3.142   0.333   9.380  0.6768 -0.2323 -0.1289
  246MPD1    C2 3783   3.110   0.433   9.289  0.3008 -0.9807  0.0106
  246MPD1    C3 3784   3.164   0.559   9.293 -0.2669 -0.3299 -0.0275
  246MPD1    C4 3785   3.262   0.584   9.374  0.1692 -0.1638  0.0829
  246MPD1    C5 3786   3.297   0.495   9.470  1.0957 -0.0616 -0.1043
  246MPD1     H 3787   3.033   0.408   9.217 -0.3207  2.3384 -0.4793
  246MPD1    H1 3788   3.291   0.688   9.387  0.9216  0.2272 -4.7033
  246MPD1    H2 3789   3.294   0.290   9.520  2.4292  0.8835 -0.2253
  246MPD1    H3 3790   3.376   0.515   9.542 -0.6656  1.0033  1.5289
  246MPD1     N 3791   3.093   0.651   9.211 -1.5931  0.6979 -0.1816
  246MPD1    H5 3792   3.031   0.606   9.144  0.8204 -1.6171 -0.8265
  246MPD1    N1 3793   3.116   0.194   9.353 -0.2147 -0.4537 -0.2684
  246MPD1    H6 3794   3.113   0.141   9.439  0.9045 -0.5650 -0.2986
  246MPD1    H7 3795   3.027   0.189   9.304 -0.2275 -1.3420 -0.1485
  247MPD1     C 3796   1.645   2.213  15.332  0.2197  0.8816  0.2063
  247MPD1    C1 3797   1.558   2.215  15.435 -0.1170  0.3168 -0.2099
  247MPD1    C2 3798   1.535   2.096  15.507  0.2121  0.1751  0.5411
  247MPD1    C3 3799   1.612   1.984  15.482 -0.3143 -0.1151 -0.2054
  247MPD1    C4 3800   1.712   1.994  15.392  0.1189  0.0049 -0.3792
  247MPD1    C5 3801   1.730   2.106  15.310  0.1770  0.4851 -0.1971
  247MPD1     H 3802   1.457   2.093  15.582 -0.0569 -2.3489  0.1608
  247MPD1    H1 3803   1.776   1.909  15.373 -0.6088 -0.0772 -2.5279
  247MPD1    H2 3804   1.661   2.302  15.272 -0.1235  1.6081  1.1962
  247MPD1    H3 3805   1.793   2.109  15.221 -0.1985 -1.7264 -0.5438
  247MPD1     N 3806   1.600   1.858  15.544  1.0928 -0.0562 -0.0140
  247MPD1    H5 3807   1.648   1.785  15.493 -0.9179 -1.5453  0.1980
  247MPD1    N1 3808   1.481   2.329  15.456 -0.1540  0.0626 -0.0414
  247MPD1    H6 3809   1.523   2.405  15.403 -1.2187  0.6997  0.0411
  247MPD1    H7 3810   1.475   2.349  15.555 -0.6714 -0.0507 -0.0493
  248MPD1     C 3811   2.626   1.204  17.425 -0.1098  0.1208  0.4697
  248MPD1    C1 3812   2.561   1.304  17.489 -0.5370  0.0016  0.1033
  248MPD1    C2 3813   2.489   1.272  17.605 -0.3507  0.3438  0.1384
  248MPD1    C3 3814   2.481   1.142  17.647 -0.6802 -0.1965  0.3089
  248MPD1    C4 3815   2.551   1.045  17.584  0.0687  0.0483 -0.1572
  248MPD1    C5 3816   2.622   1.080  17.476  0.0336 -1.0992 -0.0748
  248MPD1     H 3817   2.443   1.352  17.662 -0.0525  0.3387  0.3916
  248MPD1    H1 3818   2.539   0.940  17.609 -2.5913  0.6838  1.2969
  248MPD1    H2 3819   2.677   1.222  17.331  1.0201 -2.3802  0.5921
  248MPD1    H3 3820   2.671   1.002  17.419 -0.1445 -1.5739  0.4281
  248MPD1     N 3821   2.405   1.119   0.012  0.2878 -0.2320 -0.5242
  248MPD1    H5 3822   2.371   1.205   0.054  1.7351  1.0857 -2.0137
  248MPD1    N1 3823   2.582   1.440  17.457 -0.1561  0.4200 -0.4875
  248MPD1    H6 3824   2.498   1.487  17.491 -1.1336 -1.8879  0.2708
  248MPD1    H7 3825   2.597   1.459  17.358 -0.8627  0.8435 -0.5168
  249MPD1     C 3826   3.382   0.230  10.134  0.2539  0.4231  0.9423
  249MPD1    C1 3827   3.445   0.341  10.090 -0.2658 -0.4062  0.1301
  249MPD1    C2 3828   3.475   0.353   9.953  0.2883  0.2336 -0.0618
  249MPD1    C3 3829   3.432   0.251   9.864  0.1302  0.3132  0.4596
  249MPD1    C4 3830   3.356   0.146   9.921 -0.7125  0.2677 -0.0876
  249MPD1    C5 3831   3.339   0.127  10.055  0.1079  0.6537 -0.2018
  249MPD1     H 3832   3.528   0.443   9.925  1.2130 -0.3667 -0.2153
  249MPD1    H1 3833   3.327   0.063   9.859  2.6010 -3.1185  2.8924
  249MPD1    H2 3834   3.391   0.208  10.239 -0.4794 -0.0736  0.9027
  249MPD1    H3 3835   3.284   0.043  10.095 -0.0460  0.6033 -0.5170
  249MPD1     N 3836   3.486   0.250   9.733  0.0621 -0.1092 -0.0073
  249MPD1    H5 3837   3.542   0.329   9.704 -0.8440 -0.2708 -2.2031
  249MPD1    N1 3838   3.503   0.432  10.179 -0.5674  0.5220  0.3299
  249MPD1    H6 3839   3.513   0.529  10.150  0.8939  0.8491  1.9861
  249MPD1    H7 3840   3.466   0.414  10.272 -0.5275  1.7598  0.5820
  250MPD2     C 3841   4.696   4.456  12.551  0.2332  0.2796 -0.3234
  250MPD2    C1 3842   0.033   4.462  12.438 -0.2897  0.4569 -0.3757
  250MPD2    C2 3843   0.010   4.366  12.341  0.0206 -0.1101 -0.9187
  250MPD2    C3 3844   4.661   4.259  12.362 -0.2199 -0.6895  0.6997
  250MPD2    C4 3845   4.587   4.253  12.477  0.1577 -0.1761  0.4215
  250MPD2    C5 3846   4.605   4.352  12.575 -0.4912 -0.7466  0.3527
  250MPD2     H 3847   0.070   4.364  12.251 -0.5001  1.1171 -1.2923
  250MPD2    H1 3848   4.520   4.170  12.493 -0.0990  0.2212  1.4317
  250MPD2    H2 3849   4.697   4.532  12.628  0.9256 -0.9184  0.8582
  250MPD2    H3 3850   4.541   4.355  12.663 -1.4607  0.6423 -0.3997
  250MPD2     N 3851   4.638   4.162  12.264  0.1666  0.9151  0.6720
  250MPD2    H5 3852   4.556   4.105  12.277 -0.9572  2.2207 -0.6482
  250MPD2    N1 3853   0.135   4.561  12.431 -0.1858  0.4436  0.1177
  250MPD2    H7 3854   0.175   4.604  12.515  2.1044 -0.8816 -0.2874
  251TMC3    C1 3855   0.304   4.703  12.367  0.6525  0.3206 -0.2228
  251TMC3    C2 3856   0.304   0.035  12.486 -0.3669  0.0120  0.8313
  251TMC3    C3 3857   0.411   0.128  12.491  0.3152  0.4490 -0.0289
  251TMC3    C4 3858   0.395   4.724  12.262  0.0446  0.9411 -0.1130
  251TMC3    C5 3859   0.505   0.059  12.280  0.2825  0.2489 -0.7731
  251TMC3    C6 3860   0.513   0.141  12.397  0.9703  0.6531  0.2508
  251TMC3     C 3861   0.210   4.603  12.328 -0.5896  0.5481  0.3147
  251TMC3     O 3862   0.194   4.580  12.211  0.3295 -0.1913  0.4995
  251TMC3     H 3863   0.230   0.026  12.564  0.1111  0.1777  1.3000
  251TMC3    H1 3864   0.386   4.667  12.170 -0.2381 -0.4058  0.7574
  251TMC3    H2 3865   0.606   0.190  12.423  0.3722  0.8698  1.9838
  251TMC3    C7 3866   0.613   4.701  12.296  1.3102  0.0927 -0.0415
  251TMC3    C8 3867   0.417   0.213  12.605 -0.2423 -0.2415 -0.4612
  251TMC3    O1 3868   0.589   4.580  12.301 -0.6965 -0.6316  0.1692
  251TMC3    O2 3869   0.362   0.177  12.707 -0.2577  0.3127  0.4400
  252TMC3    C1 3870   4.539   1.316   9.048 -0.2429  0.2092 -0.2219
  252TMC3    C2 3871   4.637   1.409   9.068 -0.4967 -0.0864 -0.2145
  252TMC3    C3 3872   0.031   1.367   9.066  0.6113 -0.1719  0.3143
  252TMC3    C4 3873   4.561   1.178   9.038 -0.3032  0.0956 -0.1348
  252TMC3    C5 3874   4.695   1.136   9.026  0.3029  0.1708  0.5472
  252TMC3    C6 3875   0.059   1.240   9.029 -0.2620 -0.1237  0.0363
  252TMC3     C 3876   4.401   1.367   9.044  0.6616 -0.1785  0.4353
  252TMC3     O 3877   4.317   1.285   9.050  0.2070 -0.3822  0.2790
  252TMC3     H 3878   4.612   1.513   9.083  0.1711  0.0132  0.1971
  252TMC3    H1 3879   4.481   1.109   9.016 -2.0316  2.7924 -2.2370
  252TMC3    H2 3880   0.160   1.211   9.003 -1.4619 -1.2799 -3.3398
  252TMC3    C7 3881   4.715   0.996   8.999  0.1007  0.6273  0.1150
  252TMC3    C8 3882   0.131   1.469   9.085  0.1720 -0.1891  0.1020
  252TMC3    O1 3883   4.622   0.934   8.949 -0.0999  0.0842  0.0139
  252TMC3    O2 3884   0.100   1.586   9.057  0.0660  0.2298 -0.5590
  253MPD2     C 3885   1.950   4.147  14.664  0.5040  0.4943  0.7351
  253MPD2    C1 3886   1.832   4.196  14.711 -0.1977 -0.1393 -0.2197
  253MPD2    C2 3887   1.822   4.265  14.831 -0.5739 -0.1953  0.8817
  253MPD2    C3 3888   1.936   4.285  14.905  0.4784  0.1075  0.2332
  253MPD2    C4 3889   2.053   4.228  14.862 -0.2846  0.2149 -0.4968
  253MPD2    C5 3890   2.061   4.163  14.742  0.3834  0.8364  0.5693
  253MPD2     H 3891   1.727   4.311  14.855 -0.8843 -1.1962  1.5527
  253MPD2    H1 3892   2.144   4.245  14.919 -0.2568  1.0012 -0.7882
  253MPD2    H2 3893   1.972   4.122  14.561 -1.4496  3.2784 -0.3672
  253MPD2    H3 3894   2.154   4.120  14.708  0.1603 -1.3803  2.7304
  253MPD2     N 3895   1.931   4.357  15.030 -0.2564 -0.4294 -0.8049
  253MPD2    H5 3896   2.017   4.368  15.082 -1.5300  1.5354  0.8849
  253MPD2    N1 3897   1.712   4.188  14.629  0.6869  0.4134 -0.7415
  253MPD2    H7 3898   1.628   4.223  14.673  1.1548 -0.0959  0.5724
  254TMC3    C1 3899   1.862   4.493  15.197  0.1652  0.2832 -0.3768
  254TMC3    C2 3900   1.774   4.597  15.230 -0.2091  0.5236 -0.1424
  254TMC3    C3 3901   1.825   4.702  15.292 -0.2415 -0.4643  0.8271
  254TMC3    C4 3902   1.987   4.492  15.244 -0.4684  0.4190 -0.0814
  254TMC3    C5 3903   2.040   4.604  15.300  0.7162 -0.4434  0.8260
  254TMC3    C6 3904   1.958   4.714  15.312  0.1064 -0.3350  0.4845
  254TMC3     C 3905   1.822   4.412  15.092 -0.4596 -0.3705 -0.6413
  254TMC3     O 3906   1.710   4.425  15.046  0.0157  0.1084  0.2503
  254TMC3     H 3907   1.667   4.581  15.218  0.2729 -3.3507  0.6716
  254TMC3    H1 3908   2.053   4.407  15.251  3.3064  3.5294  1.8842
  254TMC3    H2 3909   1.982   0.057  15.379 -1.1522 -0.1040  0.6565
  254TMC3    C7 3910   2.129   4.580  15.414  0.3837  0.0590 -1.1859
  254TMC3    C8 3911   1.748   4.734  15.408  0.3318  0.0130  0.6665
  254TMC3    O1 3912   2.152   4.465  15.444 -0.8946 -0.0358 -0.5966
  254TMC3    O2 3913   1.809   0.006  15.514 -0.2382  0.1429  0.5165
  255MPD2     C 3914   3.780   2.440  10.371 -0.2505 -0.0993 -0.2034
  255MPD2    C1 3915   3.832   2.561  10.414  0.6307  0.1342  0.0407
  255MPD2    C2 3916   3.939   2.613  10.341 -0.3313  0.3337  0.6656
  255MPD2    C3 3917   3.981   2.555  10.223  0.6591 -0.3032 -0.2032
  255MPD2    C4 3918   3.922   2.436  10.180  0.1578 -0.5880  0.3322
  255MPD2    C5 3919   3.824   2.378  10.260 -0.3275  0.3306 -0.7400
  255MPD2     H 3920   3.990   2.704  10.371  0.4018  0.7291 -1.8072
  255MPD2    H1 3921   3.942   2.381  10.088  0.1967 -3.3284  1.9745
  255MPD2    H2 3922   3.700   2.392  10.427 -0.9372  1.1042 -0.1588
  255MPD2    H3 3923   3.768   2.288  10.235 -1.0644  0.6052 -0.0740
  255MPD2     N 3924   4.079   2.620  10.149  0.1700 -0.1161 -0.0293
  255MPD2    H5 3925   4.143   2.685  10.194 -0.8570  0.3511  0.7316
  255MPD2    N1 3926   3.766   2.640  10.508  0.0462 -0.2727  0.4201
  255MPD2    H7 3927   3.666   2.622  10.515  0.2648 -1.2684  0.8798
  256TMC3    C1 3928   3.721   2.830  10.645 -0.6688 -0.4910 -0.2908
  256TMC3    C2 3929   3.781   2.909  10.734  0.1795 -0.2544  0.1980
  256TMC3    C3 3930   3.722   3.030  10.756  0.0772 -0.5997 -0.2198
  256TMC3    C4 3931   3.609   2.860  10.574  0.5212  0.3973 -0.2238
  256TMC3    C5 3932   3.566   2.992  10.581  0.0129 -0.1480 -0.4574
  256TMC3    C6 3933   3.617   3.075  10.674  0.0441  0.6334 -0.3330
  256TMC3     C 3934   3.819   2.749  10.578  0.0836 -0.5011  1.1310
  256TMC3     O 3935   3.936   2.770  10.608  0.3176 -0.2074  0.0966
  256TMC3     H 3936   3.873   2.879  10.781 -0.5127 -1.0395  1.0565
  256TMC3    H1 3937   3.594   2.795  10.489  4.8263  0.4142 -1.0101
  256TMC3    H2 3938   3.568   3.166  10.704  0.1820  0.3884  0.6589
  256TMC3    C7 3939   3.583   3.061  10.453  0.3766  0.1222  0.3946
  256TMC3    C8 3940   3.820   3.124  10.793  0.0295 -0.3727 -0.3002
  256TMC3    O1 3941   3.654   2.992  10.383  0.2827  0.9355  0.0421
  256TMC3    O2 3942   3.889   3.100  10.889  0.4270 -0.0989 -0.3655
  257MPD2     C 3943   3.412   4.670  13.214  0.4742  0.0594  0.5596
  257MPD2    C1 3944   3.520   4.632  13.142 -0.4629 -0.6662  0.5771
  257MPD2    C2 3945   3.591   4.534  13.208 -0.0401 -0.0633  0.3293
  257MPD2    C3 3946   3.553   4.462  13.318  0.2438 -0.3513 -0.4362
  257MPD2    C4 3947   3.433   4.503  13.380  0.6446 -0.1385 -0.1841
  257MPD2    C5 3948   3.367   4.605  13.327 -0.0876 -0.4095 -0.0342
  257MPD2     H 3949   3.680   4.502  13.155  0.4593 -0.3734  1.3412
  257MPD2    H1 3950   3.389   4.457  13.468  0.3110 -0.4949 -0.5326
  257MPD2    H2 3951   3.363   0.024  13.187 -0.1334 -1.0522 -2.1359
  257MPD2    H3 3952   3.281   4.646  13.378 -1.2530 -0.8410 -1.6660
  257MPD2     N 3953   3.630   4.359  13.361  0.4671 -0.1438 -0.0371
  257MPD2    H5 3954   3.698   4.323  13.296  0.3876 -0.0199 -0.1868
  257MPD2    N1 3955   3.557   4.704  13.020  0.2542  0.0182 -0.4681
  257MPD2    H7 3956   3.495   0.041  12.991 -1.4812 -1.5049 -0.6573
  258TMC3    C1 3957   3.733   4.194  13.509 -0.0630  0.0094  0.3672
  258TMC3    C2 3958   3.798   4.130  13.411 -0.0182  0.2136  0.2182
  258TMC3    C3 3959   3.901   4.052  13.441  0.0749 -1.0983 -0.2464
  258TMC3    C4 3960   3.753   4.166  13.640  0.2357  0.3760 -0.6014
  258TMC3    C5 3961   3.856   4.081  13.665 -0.3935 -0.3437 -0.0688
  258TMC3    C6 3962   3.936   4.024  13.569 -0.2225  0.1039 -0.4140
  258TMC3     C 3963   3.624   4.293  13.480 -0.2320  0.2965 -0.2052
  258TMC3     O 3964   3.571   4.336  13.580 -0.5454  0.1697 -0.9210
  258TMC3     H 3965   3.788   4.159  13.307  0.6702 -0.5293 -0.0509
  258TMC3    H1 3966   3.697   4.221  13.714 -1.0112 -2.9714  0.9343
  258TMC3    H2 3967   3.992   3.935  13.597 -0.1952 -0.3240 -1.8262
  258TMC3    C7 3968   3.872   4.051  13.808  0.0932  0.0221  0.2136
  258TMC3    C8 3969   3.985   4.023  13.326  0.5529 -0.2014 -0.2214
  258TMC3    O1 3970   3.770   4.063  13.876  0.0822  0.4351 -0.2865
  258TMC3    O2 3971   3.942   4.041  13.213 -0.4071 -0.2908  0.0379
  259MPD2     C 3972   2.728   1.901   0.547 -1.1902 -0.4466  0.4288
  259MPD2    C1 3973   2.740   1.769   0.498 -0.3831 -0.2514  0.3844
  259MPD2    C2 3974   2.783   1.756   0.365  0.4006 -0.5302 -0.2660
  259MPD2    C3 3975   2.835   1.863   0.295  0.1821  0.1530 -0.0785
  259MPD2    C4 3976   2.827   1.988   0.349  0.0952  0.7162  0.3708
  259MPD2    C5 3977   2.764   2.006   0.467  0.5696 -0.8183  0.7541
  259MPD2     H 3978   2.801   1.654   0.333  1.1649 -0.6021  0.3962
  259MPD2    H1 3979   2.875   2.079   0.313  0.3986 -0.0117 -1.0618
  259MPD2    H2 3980   2.676   1.921   0.639  0.7318  3.7271  0.5918
  259MPD2    H3 3981   2.752   2.111   0.491  0.1621 -0.2165 -2.0204
  259MPD2     N 3982   2.901   1.829   0.173 -0.3434  0.1629 -0.0661
  259MPD2    H5 3983   2.888   1.731   0.150  1.0349  0.4318 -1.9909
  259MPD2    N1 3984   2.702   1.656   0.578 -0.4895  0.3450  0.6238
  259MPD2    H7 3985   2.658   1.687   0.665 -1.0199  0.9909  0.1280
  260TMC3    C1 3986   3.037   1.843  17.738  0.1352 -0.3053  0.1447
  260TMC3    C2 3987   3.128   1.922  17.671 -0.3470 -0.5393 -0.1240
  260TMC3    C3 3988   3.213   1.867  17.578 -0.4051  0.2690  0.3992
  260TMC3    C4 3989   3.046   1.706  17.735 -0.5774  0.1563 -0.6626
  260TMC3    C5 3990   3.143   1.661  17.652  0.3655 -0.5382  0.0656
  260TMC3    C6 3991   3.223   1.731  17.570  0.9606  0.2695  0.5152
  260TMC3     C 3992   2.963   1.915   0.088 -0.8267  0.4861 -0.3027
  260TMC3     O 3993   2.960   2.040   0.092 -0.6313  0.7532  0.1541
  260TMC3     H 3994   3.110   2.029  17.676 -0.3753 -0.5909  0.9720
  260TMC3    H1 3995   2.967   1.646   0.028  0.0210  0.9265  1.4343
  260TMC3    H2 3996   3.284   1.675  17.500 -0.5042 -0.1827 -0.4129
  260TMC3    C7 3997   3.175   1.518  17.663 -0.2835  0.0734 -0.1127
  260TMC3    C8 3998   3.326   1.952  17.547  0.0830 -0.5328 -0.7205
  260TMC3    O1 3999   3.191   1.449  17.562 -0.3530 -0.3896 -0.1453
  260TMC3    O2 4000   3.320   2.065  17.595 -0.5206 -0.1962 -0.0281
  261MPD2     C 4001   4.087   4.193  11.876  0.5518  0.6833 -0.7697
  261MPD2    C1 4002   4.203   4.258  11.906 -0.8009  0.7713  0.3493
  261MPD2    C2 4003   4.207   4.394  11.919 -0.1085  0.5249 -0.3690
  261MPD2    C3 4004   4.097   4.462  11.886 -0.3456 -0.0633 -0.6582
  261MPD2    C4 4005   3.981   4.402  11.855 -0.0018  0.4824  0.1290
  261MPD2    C5 4006   3.973   4.268  11.858 -0.3022 -0.3071  0.1620
  261MPD2     H 4007   4.303   4.438  11.945  0.8006 -0.9604 -1.1862
  261MPD2    H1 4008   3.888   4.452  11.831  1.1737  2.1184 -1.0129
  261MPD2    H2 4009   4.065   4.088  11.889 -1.5600  1.3900  1.4626
  261MPD2    H3 4010   3.871   4.230  11.862 -0.2853 -0.3462  0.2269
  261MPD2     N 4011   4.109   4.602  11.896  0.4297 -0.4623 -0.0137
  261MPD2    H5 4012   4.198   4.639  11.929 -0.8859  2.2356  0.4860
  261MPD2    N1 4013   4.319   4.182  11.941  0.2018 -0.3961 -0.3813
  261MPD2    H7 4014   4.392   4.231  11.994 -0.1452  1.4204 -1.5793
  262TMC3    C1 4015   4.050   0.099  11.894 -0.4869 -0.2296  0.6383
  262TMC3    C2 4016   3.997   0.203  11.808 -0.2498  0.4380  1.0720
  262TMC3    C3 4017   4.055   0.326  11.814  0.1160 -0.5935 -0.0133
  262TMC3    C4 4018   4.163   0.124  11.970 -0.4595 -0.4985 -0.2976
  262TMC3    C5 4019   4.208   0.255  11.978 -0.1927  0.0849 -0.0997
  262TMC3    C6 4020   4.162   0.353  11.896  0.0551  0.0809 -0.6892
  262TMC3     C 4021   4.012   4.696  11.868 -0.4296  0.2539 -0.0376
  262TMC3     O 4022   3.905   4.683  11.811 -0.3130 -0.0789 -0.1155
  262TMC3     H 4023   3.914   0.178  11.743 -0.7540 -0.5843  2.1215
  262TMC3    H1 4024   4.217   0.042  12.016  1.0489  1.0328  0.6735
  262TMC3    H2 4025   4.197   0.455  11.905  2.6505 -0.9386  0.7985
  262TMC3    C7 4026   4.326   0.289  12.061 -0.0775 -0.0014 -0.4446
  262TMC3    C8 4027   4.009   0.437  11.739  1.2751 -0.0603  0.2165
  262TMC3    O1 4028   4.356   0.212  12.150 -0.3670 -0.0621 -0.4195
  262TMC3    O2 4029   4.025   0.548  11.790  0.4002 -0.1109 -0.1373
  263MPD2     C 4030   1.469   4.011  11.143  0.0404 -0.7842 -0.0272
  263MPD2    C1 4031   1.389   3.991  11.256  0.3912 -0.1878  0.5027
  263MPD2    C2 4032   1.256   4.025  11.246  0.3574  0.5526  0.0750
  263MPD2    C3 4033   1.211   4.073  11.127  0.2547  0.2224 -0.7278
  263MPD2    C4 4034   1.293   4.086  11.012 -0.2105  0.1918  0.4933
  263MPD2    C5 4035   1.424   4.058  11.019 -1.1545 -0.1034 -0.4832
  263MPD2     H 4036   1.194   3.982  11.324  0.2296 -0.3315 -0.5142
  263MPD2    H1 4037   1.269   4.135  10.919 -0.9511 -1.5589 -0.2341
  263MPD2    H2 4038   1.574   3.983  11.149  0.0370  0.0132  3.5926
  263MPD2    H3 4039   1.486   4.068  10.931 -1.1904 -1.7434 -0.7056
  263MPD2     N 4040   1.075   4.104  11.119  0.2426  0.3780 -0.1211
  263MPD2    H5 4041   1.018   4.099  11.203  3.1640 -0.9752  1.7863
  263MPD2    N1 4042   1.446   3.942  11.373 -0.0473  0.3616  0.2910
  263MPD2    H7 4043   1.547   3.945  11.381  0.0873  0.5771 -1.3942
  264TMC3    C1 4044   0.865   4.159  11.023 -0.2115  0.1680  0.2841
  264TMC3    C2 4045   0.823   4.247  11.119  0.0961 -0.5259  0.6410
  264TMC3    C3 4046   0.720   4.338  11.094  0.0851 -0.3670 -0.2598
  264TMC3    C4 4047   0.812   4.161  10.903  0.1876  0.5514  0.3916
  264TMC3    C5 4048   0.722   4.257  10.867 -0.2481  0.2874  0.6506
  264TMC3    C6 4049   0.671   4.342  10.963 -0.4149 -0.3524  0.9788
  264TMC3     C 4050   1.009   4.132  11.004 -0.3003 -0.0059  0.1129
  264TMC3     O 4051   1.055   4.139  10.890 -0.2078  0.1608  0.0840
  264TMC3     H 4052   0.889   4.271  11.202  3.2901 -0.6677 -1.8508
  264TMC3    H1 4053   0.838   4.093  10.823 -1.0143  0.2137  0.2882
  264TMC3    H2 4054   0.605   4.419  10.926 -2.5931 -2.9881 -0.6131
  264TMC3    C7 4055   0.739   4.313  10.734 -0.3945 -0.2034 -0.4513
  264TMC3    C8 4056   0.729   4.463  11.163 -0.6924 -0.0017  0.2833
  264TMC3    O1 4057   0.663   4.407  10.708 -0.1748  0.0723 -0.2318
  264TMC3    O2 4058   0.709   4.569  11.104  0.1617  0.2469 -0.2317
  265MPD2     C 4059   3.123   4.215  15.687  0.0315  0.6591  0.3411
  265MPD2    C1 4060   3.069   4.305  15.598 -0.7080 -0.6063  0.0358
  265MPD2    C2 4061   3.034   4.267  15.472  0.6139 -0.0900 -0.4520
  265MPD2    C3 4062   3.044   4.136  15.427  0.0698 -0.2014 -0.1958
  265MPD2    C4 4063   3.098   4.046  15.524 -0.1231  0.7317  0.1451
  265MPD2    C5 4064   3.137   4.089  15.644 -0.1974  0.3752  0.3307
  265MPD2     H 4065   3.002   4.343  15.402  1.0641 -0.3824 -0.9697
  265MPD2    H1 4066   3.121   3.942  15.502 -0.5803  0.5539  0.5202
  265MPD2    H2 4067   3.161   4.227  15.788  1.0012 -1.3009  0.2058
  265MPD2    H3 4068   3.190   4.024  15.713  1.5052  0.3143 -1.0655
  265MPD2     N 4069   3.009   4.096  15.292  0.5252 -0.0938  0.6536
  265MPD2    H5 4070   2.999   4.167  15.221  1.7771 -0.0822  0.4831
  265MPD2    N1 4071   3.046   4.443  15.638 -0.4352  0.1049  0.3022
  265MPD2    H7 4072   3.032   4.506  15.559  2.2584 -0.7536 -0.8928
  266TMC3    C1 4073   3.053   4.651  15.748  0.0725 -0.0970 -0.8700
  266TMC3    C2 4074   3.116   4.724  15.843  0.0084  0.2407  0.5258
  266TMC3    C3 4075   3.107   0.122  15.843 -0.1646 -0.1201 -0.1628
  266TMC3    C4 4076   2.975   4.707  15.652 -0.2127 -0.9577  0.0730
  266TMC3    C5 4077   2.970   0.104  15.643 -0.2691  0.1818 -0.2045
  266TMC3    C6 4078   3.038   0.184  15.737 -0.4431 -0.3894  0.3513
  266TMC3     C 4079   3.055   4.505  15.760 -0.0238  0.2106 -0.5257
  266TMC3     O 4080   3.096   4.463  15.865  0.0182  0.4735 -0.5341
  266TMC3     H 4081   3.192   4.680  15.907  1.8474  1.1432 -1.0442
  266TMC3    H1 4082   2.911   4.647  15.588 -0.5102 -2.1610  1.4846
  266TMC3    H2 4083   3.034   0.292  15.734 -1.7276 -0.4791 -1.1425
  266TMC3    C7 4084   2.904   0.162  15.528 -0.3414  0.0515 -0.0211
  266TMC3    C8 4085   3.183   0.195  15.937 -0.8633  0.0498  0.8654
  266TMC3    O1 4086   2.884   0.081  15.437 -0.3764  0.4759  0.4978
  266TMC3    O2 4087   3.248   0.135  16.022 -0.3019  0.1896 -0.0805
  267MPD2     C 4088   1.305   1.087  16.679 -0.4576  1.2231 -0.3068
  267MPD2    C1 4089   1.242   1.025  16.782  0.4325  0.1907 -0.4253
  267MPD2    C2 4090   1.102   0.998  16.771  0.0997 -0.4304  0.9461
  267MPD2    C3 4091   1.032   1.026  16.652 -0.3224 -0.4648 -0.6116
  267MPD2    C4 4092   1.109   1.082  16.549  0.4952 -0.3051 -0.1106
  267MPD2    C5 4093   1.243   1.110  16.559  0.2354  0.3172 -0.0130
  267MPD2     H 4094   1.047   0.955  16.854 -0.2084 -1.3334  0.2781
  267MPD2    H1 4095   1.066   1.106  16.452 -0.6203  2.1700  1.0001
  267MPD2    H2 4096   1.410   1.114  16.693  0.4020 -2.7399  0.7119
  267MPD2    H3 4097   1.302   1.146  16.475  0.2757  0.1792 -0.0437
  267MPD2     N 4098   0.898   1.011  16.638  0.1030  0.4286 -0.1505
  267MPD2    H5 4099   0.860   1.046  16.550 -1.8678 -1.6770 -0.1412
  267MPD2    N1 4100   1.305   1.016  16.905 -0.2272 -0.1519  0.1941
  267MPD2    H7 4101   1.386   1.077  16.906 -0.6017  0.3398  0.9083
  268TMC3    C1 4102   1.337   1.016  17.132 -0.0665 -0.3204  0.6860
  268TMC3    C2 4103   1.415   1.122  17.124 -0.4096  0.6739  0.1286
  268TMC3    C3 4104   1.480   1.160  17.243 -0.5880 -0.2605  0.2523
  268TMC3    C4 4105   1.315   0.946  17.250  0.4596 -0.1051  0.3624
  268TMC3    C5 4106   1.386   0.978  17.365  0.2798 -0.0042 -0.0239
  268TMC3    C6 4107   1.464   1.090  17.359  0.5469 -0.0685 -0.1759
  268TMC3     C 4108   1.254   0.981  17.023  0.0361 -0.2211 -0.6573
  268TMC3     O 4109   1.156   0.915  17.042 -0.1813 -0.0481 -0.5481
  268TMC3     H 4110   1.425   1.182  17.034  1.3350 -0.6750 -0.5564
  268TMC3    H1 4111   1.238   0.871  17.263  0.0356 -0.0261 -1.6827
  268TMC3    H2 4112   1.508   1.121  17.453  1.1938 -0.5694 -0.3166
  268TMC3    C7 4113   1.321   0.958  17.496  0.6381 -0.5806  0.4019
  268TMC3    C8 4114   1.543   1.293  17.255 -0.1852  0.1847 -0.4484
  268TMC3    O1 4115   1.390   0.968  17.598  0.2088  0.0327  0.7605
  268TMC3    O2 4116   1.612   1.317  17.350 -0.2026  0.0209 -0.3098
  269MPD2     C 4117   1.060   0.355  15.299  0.1346  0.1130  0.2261
  269MPD2    C1 4118   0.934   0.357  15.347  0.3671  0.3499 -0.2529
  269MPD2    C2 4119   0.872   0.483  15.367 -0.2949  0.2175 -0.0885
  269MPD2    C3 4120   0.941   0.599  15.358  0.3510  0.0161  0.6006
  269MPD2    C4 4121   1.066   0.595  15.303  0.2411  0.3082 -0.1323
  269MPD2    C5 4122   1.123   0.474  15.280 -0.1226 -0.4988  0.3612
  269MPD2     H 4123   0.768   0.489  15.395 -0.7214 -2.9265 -1.0325
  269MPD2    H1 4124   1.130   0.680  15.282  1.9559 -0.6995  0.9102
  269MPD2    H2 4125   1.101   0.260  15.267 -0.1328  0.1659 -0.2751
  269MPD2    H3 4126   1.222   0.476  15.236 -0.5422  1.4484 -0.4851
  269MPD2     N 4127   0.873   0.722  15.389  0.1374 -0.0577  0.0214
  269MPD2    H5 4128   0.790   0.712  15.447 -0.1290 -1.9240 -0.6658
  269MPD2    N1 4129   0.870   0.230  15.364  0.2572 -0.3566 -0.0717
  269MPD2    H7 4130   0.916   0.155  15.314 -2.5597 -2.2267  0.1337
  270TMC3    C1 4131   0.702   0.080  15.376 -0.1366  0.5918  0.3001
  270TMC3    C2 4132   0.563   0.064  15.388  0.1912  0.1292  0.2138
  270TMC3    C3 4133   0.516   4.675  15.423 -0.0720 -0.4747 -0.0180
  270TMC3    C4 4134   0.792   4.720  15.366 -0.0821  0.0484  0.3990
  270TMC3    C5 4135   0.740   4.596  15.391  0.1997  0.2626 -0.9318
  270TMC3    C6 4136   0.610   4.575  15.433 -0.2798 -0.4094 -1.1610
  270TMC3     C 4137   0.741   0.210  15.411 -0.6670  0.3672 -0.5738
  270TMC3     O 4138   0.659   0.294  15.453 -0.6512  0.2901 -0.3446
  270TMC3     H 4139   0.491   0.144  15.399  0.5625  0.3701  0.8809
  270TMC3    H1 4140   0.900   4.728  15.357  0.0449 -1.7909  0.3114
  270TMC3    H2 4141   0.572   4.475  15.451  0.3941 -0.4013  0.3231
  270TMC3    C7 4142   0.826   4.476  15.401 -0.5104 -0.2604 -0.9451
  270TMC3    C8 4143   0.389   4.653  15.478  0.3044 -0.3262  0.7018
  270TMC3    O1 4144   0.946   4.492  15.396 -0.4350  0.2723  0.1598
  270TMC3    O2 4145   0.393   4.646  15.602  0.1236 -0.1123  0.1125
  271MPD2     C 4146   0.023   4.288  13.669  0.0779 -0.4466 -0.0210
  271MPD2    C1 4147   4.729   4.341  13.792 -0.0674 -0.4646  0.6712
  271MPD2    C2 4148   4.624   4.431  13.802  0.1000 -0.5237 -0.1359
  271MPD2    C3 4149   4.546   4.475  13.690  0.2760  0.1941 -0.0627
  271MPD2    C4 4150   4.590   4.423  13.565 -0.2228  0.8589 -0.0216
  271MPD2    C5 4151   4.694   4.331  13.558  0.0503  0.0177  0.7498
  271MPD2     H 4152   4.598   4.472  13.899 -0.3242 -0.0077 -0.4669
  271MPD2    H1 4153   4.531   4.432  13.474 -0.2702 -0.3698 -0.1177
  271MPD2    H2 4154   0.104   4.217  13.658  0.0611 -0.4115 -0.3723
  271MPD2    H3 4155   4.738   4.297  13.465 -1.8423 -0.2827 -0.0434
  271MPD2     N 4156   4.429   4.558  13.694  0.3002  0.1547 -0.0268
  271MPD2    H5 4157   4.396   4.562  13.598  4.1644  1.8178 -1.2674
  271MPD2    N1 4158   0.050   4.290  13.911 -1.0779  0.0272 -0.7796
  271MPD2    H7 4159   0.003   4.306  13.999  0.0656 -1.6692  0.1288
  272TMC3    C1 4160   0.230   4.220  14.050 -0.3147 -0.5195 -0.7980
  272TMC3    C2 4161   0.327   4.131  14.072  0.1072  1.0182 -0.3390
  272TMC3    C3 4162   0.382   4.119  14.196  0.1723  0.4549  0.3206
  272TMC3    C4 4163   0.183   4.296  14.153  0.1680  0.1191  0.0882
  272TMC3    C5 4164   0.242   4.280  14.276  0.1717 -0.1642 -0.6024
  272TMC3    C6 4165   0.339   4.192  14.302 -0.0820  0.1472 -0.2581
  272TMC3     C 4166   0.173   4.225  13.916 -0.0905 -0.3477 -0.6559
  272TMC3     O 4167   0.257   4.207  13.830  0.5542 -0.6880 -0.7714
  272TMC3     H 4168   0.337   4.064  13.987  0.9368 -1.7456  1.9492
  272TMC3    H1 4169   0.113   4.378  14.145 -0.6231 -0.8073 -2.4342
  272TMC3    H2 4170   0.363   4.166  14.404  0.4845 -0.3322 -0.5155
  272TMC3    C7 4171   0.169   4.335  14.390 -0.6030 -0.3932 -0.9252
  272TMC3    C8 4172   0.477   4.010  14.197  0.1625  0.0108 -0.0975
  272TMC3    O1 4173   0.046   4.333  14.368 -0.2029  0.1117 -0.2323
  272TMC3    O2 4174   0.463   3.929  14.112  0.7483  0.2228 -0.2353
  273MPD2     C 4175   1.197   2.792  11.662  0.6845 -0.1279  0.0931
  273MPD2    C1 4176   1.293   2.882  11.651 -0.1480 -0.0110  0.1062
  273MPD2    C2 4177   1.348   2.897  11.522 -0.9425 -0.6243  0.3113
  273MPD2    C3 4178   1.300   2.824  11.414 -0.2985 -0.1380  0.1681
  273MPD2    C4 4179   1.201   2.735  11.426  0.1560  0.7226  0.0481
  273MPD2    C5 4180   1.151   2.715  11.555  0.2190  0.5877  0.4159
  273MPD2     H 4181   1.413   2.983  11.506 -2.1363  0.3893  0.8359
  273MPD2    H1 4182   1.157   2.684  11.341 -0.0822  0.6472  0.2183
  273MPD2    H2 4183   1.152   2.771  11.759 -0.8649  0.3140 -0.5246
  273MPD2    H3 4184   1.078   2.636  11.571  0.4326  0.1664 -0.7142
  273MPD2     N 4185   1.376   2.844  11.293  0.1371  0.0200  0.2599
  273MPD2    H5 4186   1.450   2.913  11.300 -3.1093  3.3584  1.9152
  273MPD2    N1 4187   1.354   2.934  11.769  0.2994 -0.2814 -0.0042
  273MPD2    H7 4188   1.324   2.900  11.860  1.5081 -0.9973  0.1319
  274TMC3    C1 4189   1.410   2.874  11.063 -0.0879 -0.5333  0.4945
  274TMC3    C2 4190   1.329   2.928  10.956  0.0122  0.1011  0.0008
  274TMC3    C3 4191   1.375   3.044  10.905 -0.2057  0.2848 -0.4754
  274TMC3    C4 4192   1.521   2.939  11.111  0.4512 -1.1107  0.0600
  274TMC3    C5 4193   1.552   3.056  11.056 -0.0054  0.5258  0.1426
  274TMC3    C6 4194   1.477   3.104  10.952 -0.3406  0.1521  0.1643
  274TMC3     C 4195   1.340   2.795  11.164  0.2524  0.2624  0.2217
  274TMC3     O 4196   1.247   2.729  11.133 -0.4091  0.4866 -0.3241
  274TMC3     H 4197   1.231   2.884  10.940 -0.9804  2.5078 -0.5198
  274TMC3    H1 4198   1.589   2.900  11.185  1.5255  4.6919  2.1052
  274TMC3    H2 4199   1.491   3.209  10.928  0.4052 -0.0803 -0.4523
  274TMC3    C7 4200   1.605   3.156  11.141 -0.0782 -0.3177  0.1156
  274TMC3    C8 4201   1.270   3.123  10.852 -0.5956  0.8329  0.9767
  274TMC3    O1 4202   1.535   3.257  11.147 -0.0586  0.5218  0.3463
  274TMC3    O2 4203   1.273   3.241  10.885 -0.1046  0.4597  0.9018
  275MPD2     C 4204   1.599   0.731  14.180 -0.0598 -0.2683  0.0834
  275MPD2    C1 4205   1.603   0.614  14.254  0.5295  0.1845  0.0937
  275MPD2    C2 4206   1.491   0.531  14.263  0.5047 -0.2453 -0.3931
  275MPD2    C3 4207   1.375   0.569  14.193  0.3948 -0.7246 -0.5812
  275MPD2    C4 4208   1.368   0.681  14.112  0.9282 -0.2329 -0.1499
  275MPD2    C5 4209   1.482   0.765  14.117  1.0419  0.1345  0.1486
  275MPD2     H 4210   1.495   0.438  14.317 -0.0673 -1.4284 -2.3971
  275MPD2    H1 4211   1.282   0.715  14.056  0.9686  3.6213  2.1742
  275MPD2    H2 4212   1.682   0.799  14.167 -0.1361 -0.1074  0.4616
  275MPD2    H3 4213   1.493   0.855  14.058  2.0489 -0.6067 -0.8091
  275MPD2     N 4214   1.265   0.483  14.172  0.6903  0.2412  0.2322
  275MPD2    H5 4215   1.193   0.517  14.110  0.1971 -0.7647  0.2403
  275MPD2    N1 4216   1.719   0.577  14.327  0.5366 -0.2911  0.7268
  275MPD2    H7 4217   1.724   0.482  14.360 -0.6794 -0.5896  0.0364
  276TMC3    C1 4218   1.936   0.609  14.435 -0.1313  1.1344 -0.6614
  276TMC3    C2 4219   1.939   0.473  14.458  0.1571 -0.1997 -0.2430
  276TMC3    C3 4220   2.017   0.432  14.565 -0.0483  0.8636  1.0113
  276TMC3    C4 4221   1.996   0.702  14.517  0.4943 -0.2277  0.4845
  276TMC3    C5 4222   2.062   0.652  14.623  0.3841  0.5372 -0.3182
  276TMC3    C6 4223   2.080   0.523  14.654 -0.3464  0.6129 -0.0151
  276TMC3     C 4224   1.822   0.668  14.361 -0.8291  0.1194  0.3533
  276TMC3     O 4225   1.832   0.792  14.337 -0.1639 -0.0851  0.2290
  276TMC3     H 4226   1.903   0.391  14.397 -0.4729  0.0341 -0.1878
  276TMC3    H1 4227   1.986   0.809  14.511 -0.0433 -0.3819 -1.4370
  276TMC3    H2 4228   2.148   0.491  14.733  0.5581  1.7656 -0.3167
  276TMC3    C7 4229   2.137   0.752  14.709 -0.2086  0.0826  0.3460
  276TMC3    C8 4230   2.042   0.290  14.583  0.2407 -0.0095 -0.2868
  276TMC3    O1 4231   2.156   0.714  14.826 -0.1525  0.0022 -0.1701
  276TMC3    O2 4232   2.138   0.266  14.658  0.0416 -0.4458  0.1593
  277MPD2     C 4233   3.308   4.670  12.755  0.2846 -0.0358  0.3428
  277MPD2    C1 4234   3.243   4.735  12.860 -0.8683  0.2540  0.5824
  277MPD2    C2 4235   3.188   4.667  12.967  0.9352 -0.4698  0.1409
  277MPD2    C3 4236   3.212   4.531  12.982  0.4018  0.0541  0.1743
  277MPD2    C4 4237   3.278   4.464  12.881 -0.4534  0.2120 -0.6274
  277MPD2    C5 4238   3.307   4.533  12.763 -0.1604  0.4661  0.5462
  277MPD2     H 4239   3.135   4.713  13.049 -0.5624  0.2997 -1.2612
  277MPD2    H1 4240   3.286   4.356  12.877  1.6747  0.4462 -2.6761
  277MPD2    H2 4241   3.337   4.734  12.673 -0.9262  0.7317  0.5253
  277MPD2    H3 4242   3.342   4.485  12.673  0.6598  0.4645  0.8642
  277MPD2     N 4243   3.154   4.466  13.094 -0.6183 -0.7711 -0.7196
  277MPD2    H5 4244   3.105   4.530  13.156  0.6984 -1.4435  1.0230
  277MPD2    N1 4245   3.220   0.136  12.846  0.5716 -0.1893  0.4678
  277MPD2    H7 4246   3.227   0.187  12.759  0.3422  0.8248  1.0440
  278TMC3    C1 4247   3.069   4.282  13.220  0.3761  0.1585  0.6928
  278TMC3    C2 4248   3.087   4.160  13.279  0.2835  0.1957  1.1395
  278TMC3    C3 4249   2.986   4.112  13.363 -0.2519 -0.2670  0.3339
  278TMC3    C4 4250   2.958   4.351  13.243  0.1423  0.2122 -0.7339
  278TMC3    C5 4251   2.850   4.296  13.302 -0.2707 -0.7656  0.1242
  278TMC3    C6 4252   2.862   4.177  13.370  0.2348  0.1891  0.1545
  278TMC3     C 4253   3.160   4.330  13.116  0.0067  0.1446 -0.6532
  278TMC3     O 4254   3.242   4.251  13.077 -0.2259 -0.1396  0.4891
  278TMC3     H 4255   3.172   4.097  13.256 -0.5094  0.3500 -2.2697
  278TMC3    H1 4256   2.940   4.444  13.190  1.3995  0.3090 -0.9832
  278TMC3    H2 4257   2.775   4.136  13.419 -0.7748  0.0373 -1.7762
  278TMC3    C7 4258   2.728   4.374  13.306 -0.2292  0.9550  0.4364
  278TMC3    C8 4259   2.990   3.971  13.391  0.7850  0.2836 -0.1347
  278TMC3    O1 4260   2.732   4.497  13.304 -0.6804 -0.0344  0.0041
  278TMC3    O2 4261   3.099   3.928  13.414 -0.7216  0.4599  0.0118
  279MPD2     C 4262   2.464   4.453   0.025 -0.2447 -0.2393  0.7335
  279MPD2    C1 4263   2.373   4.542  17.724 -0.1557 -0.2080  0.4702
  279MPD2    C2 4264   2.408   4.602  17.601  0.1486  0.2426  0.0027
  279MPD2    C3 4265   2.526   4.564  17.538 -0.0299  0.3621 -0.2976
  279MPD2    C4 4266   2.625   4.503  17.604  0.0513 -0.2713  1.1937
  279MPD2    C5 4267   2.594   4.445  17.727 -0.2446  0.4577  0.0018
  279MPD2     H 4268   2.347   4.679  17.555  1.8320  0.1520 -2.3467
  279MPD2    H1 4269   2.723   4.503  17.558 -0.2088  1.3959  0.6387
  279MPD2    H2 4270   2.439   4.419   0.124  0.5554 -1.8350  0.3890
  279MPD2    H3 4271   2.667   4.394   0.038  0.4655  2.1179  0.5495
  279MPD2     N 4272   2.564   4.627  17.416  0.3208 -0.6027  0.7873
  279MPD2    H5 4273   2.658   4.620  17.379  0.9657  0.8570  2.1816
  279MPD2    N1 4274   2.260   4.564   0.052  0.6271 -0.4651 -0.6828
  279MPD2    H7 4275   2.258   4.517   0.142 -0.6171 -0.7184 -0.8384
  280TMC3    C1 4276   2.133   4.733   0.157  0.6031 -0.3566  0.0895
  280TMC3    C2 4277   2.199   4.721   0.277 -0.3339 -0.4639  0.0118
  280TMC3    C3 4278   2.196   0.077   0.371  0.1965  0.0569 -0.2354
  280TMC3    C4 4279   2.055   0.109   0.140 -0.0871  0.2657 -0.2025
  280TMC3    C5 4280   2.052   0.207   0.238 -0.2151 -0.1178 -0.7046
  280TMC3    C6 4281   2.124   0.197   0.352 -0.0066  0.2920 -0.7127
  280TMC3     C 4282   2.179   4.674   0.036 -0.1421  0.3252 -0.1954
  280TMC3     O 4283   2.158   0.003  17.690 -0.0646 -0.2005  0.0545
  280TMC3     H 4284   2.263   4.636   0.300 -0.2679 -0.3555  0.2274
  280TMC3    H1 4285   1.991   0.132   0.055  0.0996 -2.5153 -1.0792
  280TMC3    H2 4286   2.133   0.277   0.424 -2.4933 -0.4691  0.4467
  280TMC3    C7 4287   1.969   0.323   0.227  0.4097 -0.0203  0.0571
  280TMC3    C8 4288   2.268   0.060   0.492 -0.4825 -0.1899 -0.3997
  280TMC3    O1 4289   1.959   0.380   0.333  0.2942 -0.0429 -0.5391
  280TMC3    O2 4290   2.220   0.086   0.598  0.1791  0.0829  0.3025
  281TMC3    C1 4291   0.707   0.008  12.809  0.1897  0.0636 -0.2547
  281TMC3    C2 4292   0.787   4.658  12.750  0.3137 -0.2964 -0.1991
  281TMC3    C3 4293   0.742   4.523  12.752  0.2545 -0.5293  0.1750
  281TMC3    C4 4294   0.579   4.725  12.845  0.4095  0.1420  0.4281
  281TMC3    C5 4295   0.540   4.594  12.868  0.4062  0.0887 -0.0712
  281TMC3    C6 4296   0.626   4.495  12.813 -0.4605 -0.3857 -0.0836
  281TMC3     C 4297   0.746   0.148  12.796  0.0245 -0.1095  0.9483
  281TMC3     O 4298   0.780   0.195  12.688 -0.1560 -0.1523  0.0935
  281TMC3     H 4299   0.891   4.680  12.731  0.7695 -1.0108  1.5085
  281TMC3    H1 4300   0.525   0.076  12.875  0.8827 -0.0237  1.7592
  281TMC3    H2 4301   0.584   4.395  12.802  1.4012 -1.1148 -0.6099
  281TMC3    C7 4302   0.443   4.547  12.961 -0.5050 -0.8220  0.4455
  281TMC3    C8 4303   0.820   4.408  12.700  0.5836 -0.1522  0.0794
  281TMC3    O1 4304   0.333   4.591  12.957  0.2171 -0.6677  0.1882
  281TMC3    O2 4305   0.802   4.303  12.756  0.0162  0.2783  0.3330
  282MPD2     C 4306   3.271   1.432  14.726  0.3631  0.1542  0.7698
  282MPD2    C1 4307   3.158   1.510  14.750  0.0152  0.2521  0.8351
  282MPD2    C2 4308   3.091   1.566  14.640  0.3708  0.6532  0.0986
  282MPD2    C3 4309   3.124   1.528  14.507 -0.6134  0.0779 -0.1655
  282MPD2    C4 4310   3.236   1.449  14.489  0.4413 -0.3282  0.1845
  282MPD2    C5 4311   3.299   1.402  14.599  0.0250 -0.5879  1.0618
  282MPD2     H 4312   3.012   1.640  14.647 -1.2393 -0.9369 -1.2467
  282MPD2    H1 4313   3.267   1.407  14.394  0.7413 -1.8002  0.9382
  282MPD2    H2 4314   3.337   1.395  14.803 -2.3045 -4.8627  0.6991
  282MPD2    H3 4315   3.387   1.340  14.592 -1.1227 -2.1269  0.4077
  282MPD2     N 4316   3.042   1.562  14.403  1.0092  0.3424 -0.5919
  282MPD2    H5 4317   2.977   1.635  14.431  0.2244  0.3494 -2.4390
  282MPD2    N1 4318   3.120   1.544  14.881 -0.6921 -0.7204 -0.4212
  282MPD2    H7 4319   3.060   1.624  14.896  2.3061  1.2263  1.3240
  283TMC3    C1 4320   3.088   1.498  15.113  0.0449  0.1053  0.4628
  283TMC3    C2 4321   3.090   1.629  15.151  0.6806 -0.3008 -0.2943
  283TMC3    C3 4322   3.044   1.663  15.271  1.2388 -0.4462 -0.7064
  283TMC3    C4 4323   3.051   1.396  15.193  0.1063  0.0177  0.7182
  283TMC3    C5 4324   3.023   1.432  15.323  0.5339 -0.0953  0.1702
  283TMC3    C6 4325   3.025   1.562  15.366 -0.3859  0.3850 -0.1586
  283TMC3     C 4326   3.159   1.466  14.984  0.1759  1.3377  0.0236
  283TMC3     O 4327   3.210   1.354  14.986  0.0186 -0.1256 -0.3248
  283TMC3     H 4328   3.145   1.698  15.089  1.4042 -2.4058 -1.9812
  283TMC3    H1 4329   3.071   1.292  15.171 -1.3563  0.0637 -0.8566
  283TMC3    H2 4330   2.984   1.583  15.464  3.0799  0.0397  1.3347
  283TMC3    C7 4331   2.971   1.335  15.422  0.1205 -0.2223  0.1824
  283TMC3    C8 4332   3.059   1.802  15.319  1.2969  0.6988  0.6126
  283TMC3    O1 4333   2.983   1.349  15.544  0.1842 -0.3904 -0.4755
  283TMC3    O2 4334   3.083   1.822  15.436  0.4611  0.2011  0.1903
  284MPD2     C 4335   1.300   1.378  11.986  0.5962  0.3778 -0.2980
  284MPD2    C1 4336   1.335   1.271  11.910 -0.1946  0.1316 -0.8479
  284MPD2    C2 4337   1.390   1.158  11.966 -0.3457 -0.7829 -0.2528
  284MPD2    C3 4338   1.404   1.143  12.102  0.4854 -0.0028  0.7115
  284MPD2    C4 4339   1.367   1.250  12.177  0.3117  0.3603  0.1683
  284MPD2    C5 4340   1.316   1.361  12.120 -0.0361 -0.5023 -0.2708
  284MPD2     H 4341   1.418   1.081  11.895  0.6128 -0.4789 -0.1938
  284MPD2    H1 4342   1.383   1.254  12.284 -0.4782 -2.8877  0.4045
  284MPD2    H2 4343   1.273   1.477  11.951  3.8385  1.0952 -0.7346
  284MPD2    H3 4344   1.296   1.449  12.181  0.2308  0.1467 -1.1170
  284MPD2     N 4345   1.447   1.025  12.168 -0.7810  0.0659 -0.3175
  284MPD2    H5 4346   1.476   1.036  12.265 -0.5597  2.3062 -0.6311
  284MPD2    N1 4347   1.341   1.278  11.766  0.0564  0.3003  0.0472
  284MPD2    H7 4348   1.365   1.199  11.708  0.3154 -1.8169  3.0264
  285TMC3    C1 4349   1.359   1.381  11.552 -0.2829  0.0336  0.2894
  285TMC3    C2 4350   1.410   1.263  11.504  0.2446 -0.2784  0.8340
  285TMC3    C3 4351   1.421   1.253  11.372 -0.2879  0.0699  1.3096
  285TMC3    C4 4352   1.330   1.493  11.479 -0.2245 -0.2756 -1.5911
  285TMC3    C5 4353   1.341   1.477  11.345  0.0651 -0.8942  0.1865
  285TMC3    C6 4354   1.386   1.359  11.290  0.1476  1.0322  0.7092
  285TMC3     C 4355   1.343   1.399  11.692 -0.4653 -0.5755 -0.0692
  285TMC3     O 4356   1.324   1.514  11.726 -0.1022  0.4192  0.2381
  285TMC3     H 4357   1.438   1.184  11.572 -2.4491 -1.9849 -0.0145
  285TMC3    H1 4358   1.306   1.588  11.523  2.6263  0.1209 -0.8517
  285TMC3    H2 4359   1.381   1.354  11.182 -1.0275 -0.2803  0.8231
  285TMC3    C7 4360   1.348   1.606  11.273 -0.2282  0.3106  0.2676
  285TMC3    C8 4361   1.409   1.125  11.319 -0.2054 -0.4910  0.4112
  285TMC3    O1 4362   1.381   1.711  11.334 -0.1045  0.4248  0.2665
  285TMC3    O2 4363   1.372   1.048  11.403  0.5055 -0.1320  0.1910
  286MPD2     C 4364   1.779   4.104   1.243 -0.2446 -0.0047 -0.3945
  286MPD2    C1 4365   1.774   4.037   1.122 -0.4336 -0.3553  0.3720
  286MPD2    C2 4366   1.828   3.915   1.106  0.4754 -0.5138  0.1688
  286MPD2    C3 4367   1.923   3.864   1.196 -0.1827 -0.3906 -0.4363
  286MPD2    C4 4368   1.934   3.935   1.313 -0.0656  0.0301  0.4166
  286MPD2    C5 4369   1.866   4.054   1.341 -0.6577  0.3930  0.0825
  286MPD2     H 4370   1.810   3.858   1.016 -1.8027 -2.6890  2.0141
  286MPD2    H1 4371   2.011   3.905   1.383  1.6328  0.9041 -1.0559
  286MPD2    H2 4372   1.735   4.201   1.263 -1.1725 -1.3912  4.3723
  286MPD2    H3 4373   1.880   4.103   1.436 -0.4692  0.1834  0.1636
  286MPD2     N 4374   2.003   3.751   1.169 -0.1885  0.1262  0.2009
  286MPD2    H5 4375   2.059   3.721   1.249 -1.8580 -3.5926 -0.0154
  286MPD2    N1 4376   1.697   4.090   1.005 -0.5422  0.4821  0.0813
  286MPD2    H7 4377   1.676   4.024   0.931 -1.6554  2.0326 -0.9768
  287TMC3    C1 4378   2.112   3.575   1.055  0.0441  0.3659  0.7756
  287TMC3    C2 4379   2.105   3.492   0.947 -0.3220 -0.2089 -0.1902
  287TMC3    C3 4380   2.221   3.433   0.898 -0.4822 -0.2518 -0.0221
  287TMC3    C4 4381   2.229   3.616   1.100 -0.3511  0.5929  0.1514
  287TMC3    C5 4382   2.340   3.546   1.058 -0.5288  0.5661  0.1497
  287TMC3    C6 4383   2.336   3.450   0.960  0.4553 -0.8239  0.1857
  287TMC3     C 4384   2.015   3.686   1.053  0.4225  0.9392  0.5274
  287TMC3     O 4385   1.949   3.689   0.950 -0.1802  0.0292 -0.8201
  287TMC3     H 4386   2.008   3.468   0.905 -0.0203 -0.8580 -0.5068
  287TMC3    H1 4387   2.239   3.703   1.165  1.2542  0.8280 -0.3943
  287TMC3    H2 4388   2.422   3.391   0.929  3.7785  4.7729 -1.1999
  287TMC3    C7 4389   2.467   3.604   1.097  0.0144  0.0977  0.1592
  287TMC3    C8 4390   2.204   3.354   0.779 -0.2287 -0.6039 -0.4651
  287TMC3    O1 4391   2.463   3.706   1.167 -0.4324  0.6893  0.1079
  287TMC3    O2 4392   2.096   3.300   0.751 -0.3186 -0.1812 -0.7955
  288TMC3    C1 4393   3.259   3.832  14.192  0.3456 -0.8403  0.4711
  288TMC3    C2 4394   3.155   3.739  14.172  0.1880  0.2977 -0.0467
  288TMC3    C3 4395   3.078   3.751  14.057 -0.7022  0.1435 -0.8778
  288TMC3    C4 4396   3.287   3.928  14.103  0.3802 -0.0960 -0.3559
  288TMC3    C5 4397   3.206   3.934  13.997  0.3548 -0.4186 -0.5138
  288TMC3    C6 4398   3.099   3.850  13.974 -0.1829 -0.6514 -0.2172
  288TMC3     C 4399   3.328   3.831  14.321  0.5180  0.0968 -0.1980
  288TMC3     O 4400   3.281   3.756  14.407 -0.0904 -0.4831  0.2861
  288TMC3     H 4401   3.147   3.651  14.234  0.3303  0.9720  0.9229
  288TMC3    H1 4402   3.352   4.009  14.133  0.7952 -0.7526  0.5119
  288TMC3    H2 4403   3.035   3.864  13.888 -2.1454  1.2868  1.5595
  288TMC3    C7 4404   3.230   4.055  13.910 -0.0704  0.6830 -0.4063
  288TMC3    C8 4405   2.973   3.661  14.032  0.4476  0.0904 -0.6200
  288TMC3    O1 4406   3.341   4.103  13.920 -0.1358  0.2288 -0.2969
  288TMC3    O2 4407   2.902   3.667  13.929  0.0869  0.1300 -0.2790
  289MPD2     C 4408   3.288   3.371  14.238  0.1187 -0.0434 -0.3941
  289MPD2    C1 4409   3.335   3.442  14.132  0.7128  0.3836 -0.0445
  289MPD2    C2 4410   3.289   3.414  14.003 -0.1258 -0.3445 -0.6751
  289MPD2    C3 4411   3.187   3.325  13.988  0.1295 -0.1548  0.4655
  289MPD2    C4 4412   3.160   3.240  14.097 -0.3537  0.0859 -0.3756
  289MPD2    C5 4413   3.201   3.270  14.225  0.3016  0.9523 -0.7336
  289MPD2     H 4414   3.333   3.458  13.915  0.4222 -1.3639 -0.9190
  289MPD2    H1 4415   3.096   3.153  14.091  0.1497 -0.4079  1.3902
  289MPD2    H2 4416   3.341   3.391  14.330  0.6245 -0.2524 -0.6345
  289MPD2    H3 4417   3.166   3.216  14.312  0.4429 -0.5342 -1.5842
  289MPD2     N 4418   3.123   3.294  13.865  0.1255  0.4004 -0.5767
  289MPD2    H5 4419   3.062   3.213  13.868 -1.7978  1.8763  0.3417
  289MPD2    N1 4420   3.444   3.531  14.153 -0.8778  0.6110 -0.7869
  289MPD2    H7 4421   3.490   3.537  14.244 -2.0964  2.1042 -0.2719
  290TMC3    C1 4422   2.991   3.387  13.695 -0.7574 -0.2834  0.4677
  290TMC3    C2 4423   2.931   3.508  13.678  0.4310  0.0222 -0.1954
  290TMC3    C3 4424   2.823   3.508  13.593  0.1883 -0.1227 -0.6348
  290TMC3    C4 4425   2.936   3.269  13.652 -0.1572 -0.2480 -0.4196
  290TMC3    C5 4426   2.820   3.276  13.572 -0.0706  0.0442  0.3265
  290TMC3    C6 4427   2.764   3.395  13.541 -0.5069 -0.0089 -0.1626
  290TMC3     C 4428   3.122   3.387  13.762 -0.7893 -0.2771  1.2171
  290TMC3     O 4429   3.188   3.480  13.733 -0.0227 -0.1074  0.1988
  290TMC3     H 4430   2.991   3.597  13.690 -0.9726  1.3297 -2.6943
  290TMC3    H1 4431   2.993   3.177  13.660 -0.8234 -0.6438 -0.2764
  290TMC3    H2 4432   2.683   3.398  13.468 -1.0028  2.1088  0.4752
  290TMC3    C7 4433   2.751   3.163  13.514  0.2230  0.8915 -0.3431
  290TMC3    C8 4434   2.753   3.638  13.564  0.2116 -0.6315 -0.1928
  290TMC3    O1 4435   2.650   3.185  13.449 -0.7957 -0.2153 -0.1026
  290TMC3    O2 4436   2.662   3.637  13.483 -0.0580  0.2858 -0.5894
  291MPD2     C 4437   2.552   3.468  17.730  0.5272 -0.3355  0.1015
  291MPD2    C1 4438   2.644   3.384   0.043  0.0078 -0.1445 -0.1388
  291MPD2    C2 4439   2.732   3.437   0.137  0.8214  0.1623  0.3177
  291MPD2    C3 4440   2.736   3.577   0.160 -0.4667 -0.6495  0.1422
  291MPD2    C4 4441   2.641   3.652   0.099  0.0104 -0.0447 -0.3424
  291MPD2    C5 4442   2.554   3.603   0.000  0.0155  0.1156 -0.6887
  291MPD2     H 4443   2.798   3.365   0.184  0.2315  0.7420  2.0258
  291MPD2    H1 4444   2.636   3.759   0.111  0.2447 -0.0063 -0.5917
  291MPD2    H2 4445   2.480   3.422  17.663  1.0070 -2.1010  0.7861
  291MPD2    H3 4446   2.485   3.671  17.701 -0.5086  0.5193  0.5784
  291MPD2     N 4447   2.834   3.647   0.238 -0.4882 -0.6895 -0.5166
  291MPD2    H5 4448   2.818   3.746   0.250 -2.3210 -0.7862 -2.2011
  291MPD2    N1 4449   2.651   3.246   0.034 -0.4084 -0.3674  0.5856
  291MPD2    H7 4450   2.720   3.208   0.098  0.6914  0.3616 -0.1711
  292TMC3    C1 4451   2.612   3.017  17.740  0.3921  0.1539  0.6409
  292TMC3    C2 4452   2.693   2.987   0.102  0.2356 -0.5929 -0.5435
  292TMC3    C3 4453   2.706   2.859   0.144 -0.1959 -0.7392  0.2858
  292TMC3    C4 4454   2.545   2.921  17.673  0.3776 -0.1856  0.6257
  292TMC3    C5 4455   2.566   2.792  17.712 -0.1284 -0.9034  0.5158
  292TMC3    C6 4456   2.649   2.764   0.064  0.3786 -0.6403  0.3674
  292TMC3     C 4457   2.571   3.156  17.714 -0.2495  0.0408 -0.0178
  292TMC3     O 4458   2.475   3.175  17.644  0.5010  0.9699 -0.5900
  292TMC3     H 4459   2.725   3.061   0.175 -1.2538  0.7418 -1.2368
  292TMC3    H1 4460   2.495   2.948  17.580  2.8013 -2.4233 -1.3219
  292TMC3    H2 4461   2.673   2.661   0.087 -0.4103 -0.7507  0.6777
  292TMC3    C7 4462   2.503   2.682  17.651  0.2302  1.0802  0.1595
  292TMC3    C8 4463   2.729   2.828   0.280 -0.2734 -0.0810 -0.3908
  292TMC3    O1 4464   2.557   2.576  17.673 -0.2463  0.1725  0.0857
  292TMC3    O2 4465   2.819   2.887   0.338  0.5393 -0.6193  0.2010
  293MPD2     C 4466   3.850   4.128  12.612 -0.2610  1.1825 -0.0067
  293MPD2    C1 4467   3.767   4.243  12.623  0.5609 -0.2666 -0.4644
  293MPD2    C2 4468   3.802   4.338  12.716  0.7040  0.1735  0.0052
  293MPD2    C3 4469   3.920   4.332  12.796 -0.2241  0.5753 -0.3851
  293MPD2    C4 4470   3.997   4.221  12.776 -0.0587 -0.5431  0.1498
  293MPD2    C5 4471   3.960   4.119  12.691 -0.6186  0.7931 -0.1027
  293MPD2     H 4472   3.734   4.421  12.731 -1.1332 -0.9110 -2.2361
  293MPD2    H1 4473   4.091   4.207  12.829 -0.8107 -1.6225  1.1678
  293MPD2    H2 4474   3.835   4.037  12.556  0.6173  0.4310  0.9730
  293MPD2    H3 4475   4.026   4.033  12.684  0.7293  1.6498  1.9836
  293MPD2     N 4476   3.946   4.424  12.901 -0.3401 -0.6630  0.0695
  293MPD2    H5 4477   3.867   4.480  12.933 -0.7087 -1.3072  0.2745
  293MPD2    N1 4478   3.650   4.242  12.549  0.6720  0.6478  0.5793
  293MPD2    H7 4479   3.635   4.167  12.482  0.3476  0.2077  1.1416
  294TMC3    C1 4480   3.443   4.290  12.487  0.1476 -0.0819 -0.2978
  294TMC3    C2 4481   3.420   4.160  12.512  0.0164  0.1653 -0.0087
  294TMC3    C3 4482   3.330   4.095  12.424  0.0683 -0.5282  0.5160
  294TMC3    C4 4483   3.385   4.361  12.388 -0.2470 -0.0159 -0.1160
  294TMC3    C5 4484   3.297   4.292  12.307  0.4664  0.6787 -0.0911
  294TMC3    C6 4485   3.263   4.157  12.321  0.7725  0.3788  0.4322
  294TMC3     C 4486   3.564   4.346  12.541  0.4653  0.2712 -0.3703
  294TMC3     O 4487   3.572   4.464  12.561  0.4240  0.2299  0.3933
  294TMC3     H 4488   3.465   4.112  12.597 -2.2462 -0.8829  0.5923
  294TMC3    H1 4489   3.428   4.460  12.374 -2.1360  0.4951 -2.2811
  294TMC3    H2 4490   3.193   4.106  12.256  1.6123  0.1645 -0.3070
  294TMC3    C7 4491   3.255   4.356  12.182  0.6377 -0.1946 -0.4603
  294TMC3    C8 4492   3.282   3.970  12.471  0.2576 -0.2412  0.7146
  294TMC3    O1 4493   3.185   4.286  12.110  0.6793  0.0224  0.4806
  294TMC3    O2 4494   3.283   3.946  12.590 -0.4168  0.5559 -0.2369
  295MPD2     C 4495   0.602   3.151   0.780 -0.0102  0.0612 -0.3617
  295MPD2    C1 4496   0.563   3.026   0.730 -0.0592 -0.1220 -0.0387
  295MPD2    C2 4497   0.486   2.949   0.803 -0.0305 -0.2377  0.0868
  295MPD2    C3 4498   0.442   2.972   0.929  0.3565 -0.0385 -0.2850
  295MPD2    C4 4499   0.472   3.097   0.981  0.0017 -0.0741 -0.2170
  295MPD2    C5 4500   0.551   3.183   0.905  0.3631 -0.3843 -0.3854
  295MPD2     H 4501   0.468   2.856   0.751  2.5885 -1.4892  1.4269
  295MPD2    H1 4502   0.440   3.122   1.082  0.6938  0.5579 -0.1496
  295MPD2    H2 4503   0.649   3.231   0.723 -0.9329  0.9299  0.0816
  295MPD2    H3 4504   0.563   3.283   0.946  0.1168  0.1646 -1.6617
  295MPD2     N 4505   0.384   2.863   1.005  0.6053  0.0600  0.1559
  295MPD2    H5 4506   0.348   2.890   1.096 -2.8612 -0.4922 -1.0517
  295MPD2    N1 4507   0.569   2.990   0.592  0.7707 -0.2933  0.3508
  295MPD2    H7 4508   0.528   2.900   0.570 -1.8127  0.6556  1.2933
  296TMC3    C1 4509   0.285   2.650   1.044 -0.3051 -0.5141  0.2401
  296TMC3    C2 4510   0.168   2.695   1.103  0.0903 -0.3381 -0.2557
  296TMC3    C3 4511   0.072   2.593   1.131  0.2658 -0.3379  0.1075
  296TMC3    C4 4512   0.306   2.512   1.024 -0.7560  0.5935 -0.5656
  296TMC3    C5 4513   0.205   2.424   1.038 -0.0636  0.5467  0.1963
  296TMC3    C6 4514   0.088   2.459   1.095  0.1315  0.0008  0.2318
  296TMC3     C 4515   0.373   2.734   0.961  0.0173  0.1288 -0.0630
  296TMC3     O 4516   0.414   2.681   0.862  0.4379 -0.0310 -0.3847
  296TMC3     H 4517   0.156   2.801   1.118  2.8319 -0.2714  1.5479
  296TMC3    H1 4518   0.409   2.485   1.004 -0.3018  0.5497  1.7328
  296TMC3    H2 4519   0.008   2.390   1.119  0.1371 -0.6795 -1.7863
  296TMC3    C7 4520   0.235   2.280   1.018  0.2757 -0.1646  0.3076
  296TMC3    C8 4521   4.672   2.632   1.148  0.3430  0.2795 -0.2039
  296TMC3    O1 4522   0.335   2.252   0.955  0.1084  0.1510 -0.7916
  296TMC3    O2 4523   4.590   2.547   1.169 -0.4193 -0.1139  0.0541
  297MPD2     C 4524   2.227   0.147  16.039 -0.4799  0.1839 -0.5105
  297MPD2    C1 4525   2.218   0.255  15.952  0.0348 -0.1599  0.0262
  297MPD2    C2 4526   2.312   0.354  15.961 -0.4286  0.9704 -0.2454
  297MPD2    C3 4527   2.399   0.356  16.068  0.2045  0.0538  0.0784
  297MPD2    C4 4528   2.411   0.250  16.158  0.0928  0.3156 -0.3735
  297MPD2    C5 4529   2.318   0.148  16.143 -0.6665  0.5290 -0.9016
  297MPD2     H 4530   2.329   0.436  15.892  0.1221 -0.5417 -1.9154
  297MPD2    H1 4531   2.491   0.244  16.231 -0.9101 -1.1852  0.6180
  297MPD2    H2 4532   2.162   0.061  16.026 -0.5684  0.2218 -0.3271
  297MPD2    H3 4533   2.328   0.054  16.197 -3.2652  0.2625 -0.8733
  297MPD2     N 4534   2.472   0.475  16.084 -0.4784  0.3629 -0.1422
  297MPD2    H5 4535   2.455   0.556  16.025 -0.9664  0.7340  0.5057
  297MPD2    N1 4536   2.114   0.278  15.858 -0.2363 -0.7203  0.1451
  297MPD2    H7 4537   2.118   0.363  15.803  0.8786 -1.6677 -1.2221
  298TMC3    C1 4538   1.912   0.260  15.760 -0.3337  0.2923  0.2894
  298TMC3    C2 4539   1.966   0.296  15.640 -0.0238  0.8921 -0.1218
  298TMC3    C3 4540   1.884   0.351  15.547  1.6516 -0.8907  0.2097
  298TMC3    C4 4541   1.777   0.270  15.788 -0.3392  0.5734 -0.1310
  298TMC3    C5 4542   1.707   0.341  15.698  0.3763  0.0225  0.0721
  298TMC3    C6 4543   1.757   0.380  15.580 -0.3585 -0.1912 -0.5165
  298TMC3     C 4544   2.003   0.201  15.856 -0.1211 -0.2737 -0.4999
  298TMC3     O 4545   1.960   0.126  15.943  0.5989 -0.4421 -0.2203
  298TMC3     H 4546   2.068   0.266  15.616  0.0537  1.3177 -0.3197
  298TMC3    H1 4547   1.739   0.244  15.886  1.3149 -0.4780  0.2329
  298TMC3    H2 4548   1.711   0.436  15.500 -0.6393 -0.1533 -0.3282
  298TMC3    C7 4549   1.595   0.413  15.757 -0.2728  0.4921  0.1200
  298TMC3    C8 4550   1.922   0.336  15.414  0.0355  0.4784  0.5136
  298TMC3    O1 4551   1.590   0.424  15.879  0.0384  0.1293  0.3579
  298TMC3    O2 4552   2.042   0.332  15.395  0.6447 -0.4563 -0.3483
  299MPD2     C 4553   2.273   0.052  11.181 -0.0932 -0.0291 -0.0253
  299MPD2    C1 4554   2.296   0.132  11.074  1.1158 -0.2466 -0.3848
  299MPD2    C2 4555   2.249   0.097  10.953  0.1816  0.1027 -0.3576
  299MPD2    C3 4556   2.157   4.733  10.940 -0.4072 -0.0025 -0.1799
  299MPD2    C4 4557   2.137   4.656  11.049 -0.1973  0.2611 -0.6810
  299MPD2    C5 4558   2.198   4.680  11.169 -0.2271  0.0553 -0.4627
  299MPD2     H 4559   2.268   0.165  10.871 -1.7567 -0.3587 -1.1951
  299MPD2    H1 4560   2.071   4.570  11.050 -0.0665  0.2048  2.0402
  299MPD2    H2 4561   2.329   0.063  11.273 -0.0980 -1.0294  0.1037
  299MPD2    H3 4562   2.186   4.614  11.254  0.4834  3.2499  2.0559
  299MPD2     N 4563   2.080   4.703  10.824 -0.7601 -0.5295  0.1762
  299MPD2    H5 4564   2.009   4.632  10.835 -1.1673 -0.0114  0.8878
  299MPD2    N1 4565   2.374   0.245  11.092 -0.0153 -0.7944 -0.4912
  299MPD2    H7 4566   2.386   0.265  11.191 -0.9090 -1.2921 -0.2914
  300TMC3    C1 4567   2.000   4.733  10.611  0.0280  0.5164 -0.2780
  300TMC3    C2 4568   2.033   0.015  10.473 -0.3769  0.3968 -0.5288
  300TMC3    C3 4569   1.932   4.729  10.382  0.6670 -0.5609  0.0073
  300TMC3    C4 4570   1.877   4.692  10.651  0.4181  0.0837 -0.5383
  300TMC3    C5 4571   1.778   4.656  10.556 -0.6017 -0.0352 -0.3990
  300TMC3    C6 4572   1.808   4.683  10.425 -0.0523 -0.4430 -0.7472
  300TMC3     C 4573   2.100   0.030  10.704 -0.0599 -0.7981 -0.0095
  300TMC3     O 4574   2.170   0.121  10.666  0.5147  0.0577 -0.0966
  300TMC3     H 4575   2.130   0.058  10.450 -0.1565  0.2332  0.0930
  300TMC3    H1 4576   1.852   4.699  10.756 -0.5159  0.0269 -0.7553
  300TMC3    H2 4577   1.734   4.652  10.352 -0.7242 -0.7166  0.0519
  300TMC3    C7 4578   1.645   4.613  10.600 -0.1447  0.0169 -0.7180
  300TMC3    C8 4579   1.929   0.087  10.274 -0.0040 -0.1259 -0.0083
  300TMC3    O1 4580   1.575   4.544  10.529  0.3325 -0.6405 -0.3242
  300TMC3    O2 4581   2.005   0.183  10.282  0.5030 -0.2962 -0.3666
  301MPD2     C 4582   0.112   1.064   0.981 -0.4816  0.0941 -0.2273
  301MPD2    C1 4583   4.717   1.056   0.930 -0.1738  0.1936  0.5085
  301MPD2    C2 4584   4.680   0.934   0.880 -0.0315 -0.5758  0.4357
  301MPD2    C3 4585   0.030   0.825   0.853  0.4050  0.3666 -0.2902
  301MPD2    C4 4586   0.158   0.841   0.914  0.1137  0.2426  0.1064
  301MPD2    C5 4587   0.199   0.955   0.975 -0.4545 -1.2167  0.7915
  301MPD2     H 4588   4.574   0.925   0.858 -0.0393 -1.8203  0.9734
  301MPD2    H1 4589   0.227   0.757   0.917  2.1895  1.9282 -0.4409
  301MPD2    H2 4590   0.147   1.158   1.022 -2.2734  1.3633 -1.5947
  301MPD2    H3 4591   0.298   0.957   1.020 -0.2400 -1.4881  0.3284
  301MPD2     N 4592   4.732   0.704   0.799  0.2315  0.0184  0.3336
  301MPD2    H5 4593   0.067   0.634   0.801 -1.0966 -1.3658  0.6195
  301MPD2    N1 4594   4.624   1.167   0.925 -0.6169  0.9120  0.0812
  301MPD2    H7 4595   4.532   1.153   0.883 -0.8647  0.7800  0.6580
  302TMC3    C1 4596   4.588   0.546   0.691  0.1244 -0.1453  0.9535
  302TMC3    C2 4597   4.685   0.455   0.684  0.3834 -0.1708 -0.1693
  302TMC3    C3 4598   4.648   0.340   0.623 -0.7934  0.0792  0.0636
  302TMC3    C4 4599   4.463   0.529   0.640  0.1294  0.1643  0.3260
  302TMC3    C5 4600   4.441   0.421   0.562  0.0509 -0.5103 -0.1461
  302TMC3    C6 4601   4.528   0.317   0.557 -0.6015  0.2452  0.1018
  302TMC3     C 4602   4.619   0.687   0.728  0.2189 -0.0088 -1.1087
  302TMC3     O 4603   4.532   0.772   0.704 -0.3428  0.4721 -0.2951
  302TMC3     H 4604   0.047   0.472   0.720  0.3922 -1.0186  0.2195
  302TMC3    H1 4605   4.394   0.612   0.631  0.2503  0.2323 -0.0009
  302TMC3    H2 4606   4.514   0.227   0.499 -1.3994 -0.6373  1.6645
  302TMC3    C7 4607   4.346   0.426   0.452 -0.1300 -0.1749 -0.2122
  302TMC3    C8 4608   0.017   0.233   0.629 -0.1774  0.5097 -0.2674
  302TMC3    O1 4609   4.349   0.347   0.355 -0.0321 -0.3591  0.1874
  302TMC3    O2 4610   0.127   0.267   0.669 -0.2557 -0.8308 -0.1620
  303MPD2     C 4611   4.540   0.229  10.477 -0.1793 -0.7947 -0.5647
  303MPD2    C1 4612   4.455   0.119  10.465  0.3781 -0.4128 -0.7208
  303MPD2    C2 4613   4.426   0.070  10.336 -0.5824  0.1586 -0.4941
  303MPD2    C3 4614   4.499   0.125  10.227 -0.2804 -0.3113 -0.0719
  303MPD2    C4 4615   4.581   0.240  10.240 -0.3813 -0.6505  0.8887
  303MPD2    C5 4616   4.599   0.285  10.365 -0.5681 -0.1538  0.6392
  303MPD2     H 4617   4.355   4.727  10.341  0.2518 -0.6127 -1.1620
  303MPD2    H1 4618   4.624   0.281  10.149  0.0705 -1.2275  0.8412
  303MPD2    H2 4619   4.557   0.274  10.574 -0.5337 -1.1825 -0.3179
  303MPD2    H3 4620   4.671   0.365  10.379 -0.7642  0.4529 -1.9388
  303MPD2     N 4621   4.493   0.073  10.094 -0.1161 -0.3637  0.1021
  303MPD2    H5 4622   4.553   0.114  10.023 -0.1888 -0.0441  0.2273
  303MPD2    N1 4623   4.390   0.076  10.582  0.1588 -0.0462  0.2328
  303MPD2    H7 4624   4.375   0.133  10.665  0.4108 -0.3230  0.4697
  304TMC3    C1 4625   4.245   4.690  10.715  0.1152 -0.0192  0.8029
  304TMC3    C2 4626   4.160   0.058  10.720  0.2295 -0.3155 -0.7590
  304TMC3    C3 4627   4.038   0.030  10.769  0.2924 -0.6000  0.0439
  304TMC3    C4 4628   4.219   4.568  10.772  0.7557 -0.1707  0.4493
  304TMC3    C5 4629   4.094   4.550  10.820 -0.2657  0.3042  0.0790
  304TMC3    C6 4630   4.010   4.655  10.838 -0.0547  0.0884 -0.0571
  304TMC3     C 4631   4.336   4.691  10.605 -0.3583  0.6168 -0.4566
  304TMC3     O 4632   4.338   4.594  10.530  0.3347  0.0311 -0.0594
  304TMC3     H 4633   4.178   0.149  10.664 -1.9532 -0.4212 -1.6199
  304TMC3    H1 4634   4.284   4.485  10.745 -1.0253 -1.2339 -0.5658
  304TMC3    H2 4635   3.914   4.636  10.886 -0.6208  0.8127 -0.8849
  304TMC3    C7 4636   4.027   4.428  10.776  0.2472  0.3371 -0.5387
  304TMC3    C8 4637   3.936   0.076  10.679 -0.3182  0.2774 -0.5392
  304TMC3    O1 4638   3.908   4.443  10.752 -0.2667 -0.5442  1.0365
  304TMC3    O2 4639   3.918   0.192  10.661  0.4831  0.4245 -0.0986
  305MPD2     C 4640   3.083   1.993  13.733 -0.1588 -0.1647  0.3950
  305MPD2    C1 4641   3.126   1.860  13.752 -0.3767  0.2587 -0.0693
  305MPD2    C2 4642   3.101   1.768  13.651  0.5628  0.2659 -0.5764
  305MPD2    C3 4643   3.033   1.806  13.536 -0.5258 -0.3234  0.7525
  305MPD2    C4 4644   3.002   1.938  13.521 -0.5282  0.4009 -0.0508
  305MPD2    C5 4645   3.023   2.027  13.625  0.7089  0.4263  0.4124
  305MPD2     H 4646   3.148   1.670  13.653  0.2780  0.0359 -4.3156
  305MPD2    H1 4647   2.948   1.966  13.432  2.5577 -0.8033 -2.2728
  305MPD2    H2 4648   3.103   2.069  13.808 -0.1647 -1.8167  2.0763
  305MPD2    H3 4649   2.996   2.131  13.606 -0.3389  0.1535  0.4312
  305MPD2     N 4650   2.995   1.724  13.428  0.7032  0.1921 -0.2600
  305MPD2    H5 4651   2.952   1.769  13.347 -0.3339  1.7697  1.1740
  305MPD2    N1 4652   3.190   1.836  13.880  0.1990 -0.1593  0.1783
  305MPD2    H7 4653   3.198   1.921  13.935 -4.8293  0.3055  0.1806
  306TMC3    C1 4654   3.298   1.716  14.055  0.0886  0.2436 -0.0274
  306TMC3    C2 4655   3.364   1.604  14.091 -0.3403  0.3886  0.2340
  306TMC3    C3 4656   3.433   1.607  14.209 -0.0875  0.1598 -1.0732
  306TMC3    C4 4657   3.270   1.826  14.142  0.4751  0.8781 -0.5072
  306TMC3    C5 4658   3.361   1.829  14.245  0.7432 -0.1183  0.5023
  306TMC3    C6 4659   3.440   1.725  14.286  0.7199 -0.2831  0.4041
  306TMC3     C 4660   3.242   1.719  13.925 -0.1941 -0.3640 -0.3957
  306TMC3     O 4661   3.232   1.611  13.870 -0.3407  0.3964  0.6768
  306TMC3     H 4662   3.385   1.516  14.032  1.4973  0.5262  0.7052
  306TMC3    H1 4663   3.218   1.915  14.109 -0.4923  0.4391 -0.1692
  306TMC3    H2 4664   3.502   1.726  14.375  0.4241 -2.1698  0.6238
  306TMC3    C7 4665   3.356   1.960  14.317 -0.9019 -0.3657  0.2108
  306TMC3    C8 4666   3.504   1.484  14.253 -0.3091  0.3779 -0.3963
  306TMC3    O1 4667   3.305   2.052  14.252 -0.2211 -0.2483 -0.0505
  306TMC3    O2 4668   3.465   1.389  14.195 -0.0737  0.1803 -0.4014
  307MPD2     C 4669   1.291   4.306  17.744 -0.5536 -0.0405  0.2111
  307MPD2    C1 4670   1.220   4.418  17.714 -0.7797 -0.3850 -0.0642
  307MPD2    C2 4671   1.144   4.470   0.064 -0.0025  0.5574 -0.6331
  307MPD2    C3 4672   1.134   4.408   0.192 -0.6509 -0.6572 -0.3644
  307MPD2    C4 4673   1.204   4.298   0.223  0.5208  0.2296  0.4645
  307MPD2    C5 4674   1.285   4.246   0.119  0.7355  0.7660 -0.2390
  307MPD2     H 4675   1.084   4.559   0.048  0.3829  0.8166 -0.6280
  307MPD2    H1 4676   1.212   4.252   0.321  2.1802 -0.7782 -0.1372
  307MPD2    H2 4677   1.370   4.267  17.681  0.7686  1.4711  0.9607
  307MPD2    H3 4678   1.336   4.152   0.137  0.6448  0.6284 -0.7189
  307MPD2     N 4679   1.035   4.457   0.276  0.4448  0.4019  0.5762
  307MPD2    H5 4680   0.983   4.536   0.240 -0.0050 -0.7689 -1.3432
  307MPD2    N1 4681   1.213   4.485  17.586  0.3582  0.0490 -0.1658
  307MPD2    H7 4682   1.152   4.566  17.589  1.6202  0.9117  2.3513
  308TMC3    C1 4683   0.617   4.430   0.423 -0.9220 -0.4599  0.2583
  308TMC3    C2 4684   0.593   4.560   0.390  0.3419  0.9023 -0.0746
  308TMC3    C3 4685   0.705   4.640   0.389  0.1947 -0.7390  0.3745
  308TMC3    C4 4686   0.743   4.376   0.442  0.0412 -0.6541  0.2839
  308TMC3    C5 4687   0.857   4.458   0.431 -0.2134  0.3365  0.2699
  308TMC3    C6 4688   0.833   4.590   0.400  0.6909 -0.2034 -0.2828
  308TMC3     C 4689   0.503   4.336   0.433 -0.1733  0.1274  0.1851
  308TMC3     O 4690   0.525   4.245   0.507 -0.5864  0.2365 -0.0346
  308TMC3     H 4691   0.498   4.598   0.425 -0.0868  0.8034 -1.1253
  308TMC3    H1 4692   0.771   4.274   0.468  1.7353 -0.1582  0.3843
  308TMC3    H2 4693   0.916   4.659   0.398  0.4175  0.0649 -1.9632
  308TMC3    C7 4694   0.978   4.396   0.387 -0.1529 -0.7507 -0.3227
  308TMC3    C8 4695   0.678   0.034   0.439  0.1773  0.5505  0.4301
  308TMC3    O1 4696   1.000   4.290   0.447 -0.2247  0.4425  0.0877
  308TMC3    O2 4697   0.600   0.048   0.531  0.3617 -0.3730  0.7202
  309MPD2     C 4698   0.190   4.680  16.775  0.0973  0.1151 -0.6955
  309MPD2    C1 4699   0.159   0.069  16.741  0.2252  0.2745 -0.3213
  309MPD2    C2 4700   0.048   0.125  16.805  0.2076  0.4654 -0.5394
  309MPD2    C3 4701   4.705   0.053  16.893 -0.2279  0.0416  0.1541
  309MPD2    C4 4702   4.733   4.659  16.908 -0.7969  0.4289  0.0172
  309MPD2    C5 4703   0.111   4.605  16.861  0.8189  0.3602 -0.4887
  309MPD2     H 4704   0.034   0.230  16.779 -1.3267  0.7696  1.4687
  309MPD2    H1 4705   4.664   4.607  16.973 -0.3028  0.3718  0.5042
  309MPD2    H2 4706   0.271   4.625  16.726 -1.5489 -0.2864 -2.9683
  309MPD2    H3 4707   0.129   4.499  16.872 -1.6712 -0.1963 -1.6490
  309MPD2     N 4708   4.583   0.105  16.948  0.3614  0.5366 -0.4583
  309MPD2    H5 4709   4.535   0.049  17.018  1.6711  0.4969  0.4014
  309MPD2    N1 4710   0.222   0.135  16.636 -0.9327 -0.8353  0.5769
  309MPD2    H7 4711   0.175   0.221  16.611  2.1273  0.4476 -0.7883
  310TMC3    C1 4712   0.367   0.213  16.477  0.3601 -0.1122 -0.4108
  310TMC3    C2 4713   0.282   0.300  16.415 -1.0681 -0.7281 -0.1699
  310TMC3    C3 4714   0.319   0.390  16.315  0.1856 -0.3463 -1.4855
  310TMC3    C4 4715   0.497   0.212  16.428  0.5167 -0.1833  0.4431
  310TMC3    C5 4716   0.532   0.289  16.319 -0.8754  0.1482 -0.1656
  310TMC3    C6 4717   0.443   0.376  16.262 -0.0121 -0.1785  0.1939
  310TMC3     C 4718   0.338   0.106  16.575 -0.4990 -0.3225 -0.1238
  310TMC3     O 4719   0.416   0.013  16.598  0.5363 -0.2193  0.1792
  310TMC3     H 4720   0.186   0.312  16.464 -0.4450  1.5967  0.4433
  310TMC3    H1 4721   0.568   0.133  16.450  0.2484 -0.3248  0.8125
  310TMC3    H2 4722   0.477   0.441  16.182  1.2451  1.8381  2.3814
  310TMC3    C7 4723   0.662   0.272  16.252  0.9910 -0.0281  0.0307
  310TMC3    C8 4724   0.225   0.483  16.261  0.1471 -1.0237 -0.0986
  310TMC3    O1 4725   0.667   0.298  16.134 -1.0039  0.3799  0.1315
  310TMC3    O2 4726   0.112   0.448  16.284 -0.7530  0.2443  0.1878
  311MPD2     C 4727   1.614   1.383  12.747 -0.4629  0.1452  0.1333
  311MPD2    C1 4728   1.551   1.506  12.761 -0.6387  0.1274  0.0738
  311MPD2    C2 4729   1.438   1.518  12.833 -0.5083  0.2913 -0.4756
  311MPD2    C3 4730   1.381   1.403  12.883  0.3614 -0.7318  0.1536
  311MPD2    C4 4731   1.440   1.280  12.858  0.0411 -0.2583  0.1927
  311MPD2    C5 4732   1.559   1.273  12.799 -0.5549 -0.1258 -0.4421
  311MPD2     H 4733   1.401   1.618  12.857 -1.6596 -0.9822  3.0631
  311MPD2    H1 4734   1.413   1.184  12.899  2.0273  0.3726  2.9400
  311MPD2    H2 4735   1.713   1.368  12.706  0.0256  0.7050  1.1167
  311MPD2    H3 4736   1.604   1.175  12.791  0.3033  0.0058  2.5974
  311MPD2     N 4737   1.281   1.412  12.978  0.1124 -0.1487 -0.2521
  311MPD2    H5 4738   1.275   1.499  13.030 -0.1149  0.8783 -1.9925
  311MPD2    N1 4739   1.602   1.630  12.725  0.2072 -0.2107  0.7206
  311MPD2    H7 4740   1.556   1.717  12.749 -0.3401 -0.3756  0.3020
  312TMC3    C1 4741   1.080   1.348  13.098  0.2135 -0.5792  0.1400
  312TMC3    C2 4742   0.944   1.311  13.065 -0.6284  0.7160  0.8961
  312TMC3    C3 4743   0.853   1.309  13.163  0.0417  0.5657 -0.4369
  312TMC3    C4 4744   1.124   1.389  13.221  0.6152 -0.2448 -0.3069
  312TMC3    C5 4745   1.025   1.376  13.314  0.5408 -0.0460  0.2137
  312TMC3    C6 4746   0.894   1.347  13.291  0.2051  0.2554  0.0467
  312TMC3     C 4747   1.179   1.314  13.001 -0.3015  0.0429  0.1547
  312TMC3     O 4748   1.148   1.222  12.926  0.1554 -0.4105  0.5935
  312TMC3     H 4749   0.924   1.277  12.964  2.7382  1.6922 -0.1056
  312TMC3    H1 4750   1.226   1.414  13.247  0.0307  0.2312  1.5692
  312TMC3    H2 4751   0.824   1.366  13.371 -1.2463 -1.4845 -0.8002
  312TMC3    C7 4752   1.054   1.409  13.454 -0.5470 -0.6724  0.0039
  312TMC3    C8 4753   0.720   1.272  13.122 -0.1374 -0.0119  0.3973
  312TMC3    O1 4754   0.980   1.362  13.538  0.4660 -0.4138 -0.2961
  312TMC3    O2 4755   0.681   1.287  13.005  0.1434  0.5208 -0.0107
  313MPD2     C 4756   0.911   0.560  11.164  0.1733  0.6363 -0.2802
  313MPD2    C1 4757   0.966   0.566  11.033  0.4576 -0.0123 -0.2796
  313MPD2    C2 4758   1.004   0.449  10.971 -0.3470  0.6695  0.9308
  313MPD2    C3 4759   0.973   0.330  11.032 -0.4958 -0.1367 -0.1994
  313MPD2    C4 4760   0.919   0.325  11.160  0.3296  0.2121  0.4653
  313MPD2    C5 4761   0.893   0.438  11.231 -0.2884 -0.9496  0.0257
  313MPD2     H 4762   1.038   0.453  10.869 -2.0693  1.1813  0.3792
  313MPD2    H1 4763   0.876   0.235  11.202  0.3811  0.2318  0.5593
  313MPD2    H2 4764   0.886   0.646  11.224 -1.9499 -0.1746 -0.0059
  313MPD2    H3 4765   0.836   0.438  11.323 -4.1377  2.8885 -2.3553
  313MPD2     N 4766   1.018   0.221  10.955 -0.2225 -0.2551 -0.1629
  313MPD2    H5 4767   1.045   0.237  10.858 -0.5272  0.3401 -0.1475
  313MPD2    N1 4768   0.984   0.686  10.960 -0.2010  0.3408  0.3129
  313MPD2    H7 4769   1.006   0.672  10.862  0.9321 -0.8661  0.7416
  314TMC3    C1 4770   0.985   0.903  10.883  0.0461 -0.0019 -1.2390
  314TMC3    C2 4771   1.067   1.009  10.890  0.3586  0.1760 -0.5098
  314TMC3    C3 4772   1.077   1.071  10.769  0.8915 -0.4162 -0.2450
  314TMC3    C4 4773   0.883   0.876  10.791 -0.0901  0.1325  0.5216
  314TMC3    C5 4774   0.894   0.953  10.677 -0.3788 -0.5699 -1.0049
  314TMC3    C6 4775   0.990   1.054  10.665 -0.2709 -0.1945  0.0826
  314TMC3     C 4776   0.980   0.817  11.000  0.8775 -0.1046 -0.1434
  314TMC3     O 4777   0.982   0.869  11.108 -0.2462  0.1928 -0.2396
  314TMC3     H 4778   1.146   1.013  10.964  1.1791  0.2601 -1.3950
  314TMC3    H1 4779   0.805   0.801  10.798  0.1352 -0.1225  0.2638
  314TMC3    H2 4780   1.009   1.118  10.580 -4.1105  0.3053 -0.3592
  314TMC3    C7 4781   0.795   0.935  10.579  0.0955 -0.5981  0.3208
  314TMC3    C8 4782   1.207   1.129  10.735 -0.2194  0.0936 -0.6221
  314TMC3    O1 4783   0.723   0.834  10.596 -0.5794  0.5200 -0.1749
  314TMC3    O2 4784   1.260   1.182  10.827  0.2044  0.5863  0.0085
  315MPD2     C 4785   1.564   4.656  17.072  0.2224  0.1900 -0.0206
  315MPD2    C1 4786   1.562   4.701  17.203 -0.3469 -0.3272  0.7101
  315MPD2    C2 4787   1.534   0.094  17.221  0.6742  0.1586  0.5852
  315MPD2    C3 4788   1.528   0.186  17.116 -0.5014  0.1902 -0.3374
  315MPD2    C4 4789   1.519   0.138  16.990  0.2697 -0.3925  0.5464
  315MPD2    C5 4790   1.524   4.736  16.972 -0.2575 -0.1766 -0.0041
  315MPD2     H 4791   1.553   0.150  17.312  0.1382  0.7153  0.3542
  315MPD2    H1 4792   1.508   0.204  16.904  2.4135 -2.5728 -1.4192
  315MPD2    H2 4793   1.589   4.552  17.053  2.9607  0.3700  2.5124
  315MPD2    H3 4794   1.518   4.697  16.871 -0.2164  2.1415 -0.9010
  315MPD2     N 4795   1.530   0.323  17.145  0.7408 -0.1141 -0.0129
  315MPD2    H5 4796   1.555   0.337  17.242 -0.2096 -1.7744  0.4741
  315MPD2    N1 4797   1.608   4.620  17.309  0.1101 -0.1138  0.5775
  315MPD2    H7 4798   1.621   4.668  17.398  0.1879 -1.7467  1.4462
  316TMC3    C1 4799   1.553   0.554  17.116  0.3625 -0.6400  0.3190
  316TMC3    C2 4800   1.598   0.563  17.246 -0.4795  0.3526 -0.1386
  316TMC3    C3 4801   1.659   0.680  17.279  0.0831  0.1846  0.0696
  316TMC3    C4 4802   1.574   0.652  17.019 -0.2621  0.9093  0.5978
  316TMC3    C5 4803   1.641   0.756  17.064 -0.0967  0.2147 -0.0880
  316TMC3    C6 4804   1.689   0.775  17.194 -0.1529  0.0228 -0.2725
  316TMC3     C 4805   1.503   0.430  17.062 -0.0968 -0.3742 -0.0584
  316TMC3     O 4806   1.477   0.436  16.943  0.1370  0.3866  0.1122
  316TMC3     H 4807   1.565   0.500  17.328 -0.3907  0.3238 -0.1255
  316TMC3    H1 4808   1.525   0.648  16.923  0.1695 -3.4367  0.5797
  316TMC3    H2 4809   1.746   0.864  17.215 -2.3704  1.8307 -2.0014
  316TMC3    C7 4810   1.659   0.874  16.978 -0.5501 -0.6318  0.7670
  316TMC3    C8 4811   1.693   0.712  17.419  0.7061 -0.0488 -0.6952
  316TMC3    O1 4812   1.700   0.971  17.035 -0.6886 -0.4633  0.6884
  316TMC3    O2 4813   1.723   0.829  17.447 -0.0127  0.5670  0.0598
  317MPD2     C 4814   2.768   3.135  12.993 -0.4255  0.3880 -0.1876
  317MPD2    C1 4815   2.844   3.112  12.877 -0.2403 -0.4752 -0.1205
  317MPD2    C2 4816   2.978   3.087  12.888  0.1653  0.5162 -0.2120
  317MPD2    C3 4817   3.045   3.091  13.010  0.0894 -0.2914  0.2709
  317MPD2    C4 4818   2.972   3.125  13.122 -0.1731  0.6207 -0.3220
  317MPD2    C5 4819   2.842   3.153  13.108 -0.1128  0.9618  0.1206
  317MPD2     H 4820   3.036   3.058  12.801  1.0238 -0.0630  0.5576
  317MPD2    H1 4821   3.009   3.108  13.223 -0.7011  2.3179  0.1589
  317MPD2    H2 4822   2.662   3.158  12.989 -0.3605  1.0604  1.7074
  317MPD2    H3 4823   2.787   3.181  13.197 -2.2043 -0.6357 -0.6846
  317MPD2     N 4824   3.179   3.045  13.009  0.2187  0.7349  0.2766
  317MPD2    H5 4825   3.221   3.016  12.921  1.6496  1.6078  0.6604
  317MPD2    N1 4826   2.785   3.097  12.751  1.2263  0.3820  0.3263
  317MPD2    H7 4827   2.842   3.072  12.671 -0.5891 -0.7984 -0.6071
  318TMC3    C1 4828   3.395   2.993  13.107  0.0685  0.4248 -0.1026
  318TMC3    C2 4829   3.413   2.881  13.030 -0.2803 -0.2025  0.7112
  318TMC3    C3 4830   3.499   2.782  13.076  0.3848  0.3414  0.6234
  318TMC3    C4 4831   3.468   3.006  13.222 -0.0501  0.7538 -0.0002
  318TMC3    C5 4832   3.558   2.909  13.261  0.7144 -0.0777 -0.2552
  318TMC3    C6 4833   3.568   2.789  13.193 -0.7246  0.7393 -0.3538
  318TMC3     C 4834   3.266   3.061  13.118  0.4638  0.3892 -0.2929
  318TMC3     O 4835   3.242   3.110  13.228 -0.5882  0.0701 -0.4741
  318TMC3     H 4836   3.379   2.868  12.928  0.5106 -0.4417  0.4780
  318TMC3    H1 4837   3.461   3.094  13.285  0.9343  0.9637 -0.1788
  318TMC3    H2 4838   3.652   2.720  13.203 -0.7280  1.3867  3.9193
  318TMC3    C7 4839   3.622   2.925  13.390 -0.6027 -0.2013  0.2119
  318TMC3    C8 4840   3.437   2.649  13.070 -0.2386  0.4202 -0.2624
  318TMC3    O1 4841   3.612   3.031  13.454  0.1749  0.3067  0.1997
  318TMC3    O2 4842   3.509   2.555  13.096 -0.3627 -0.3895  0.1266
  319MPD2     C 4843   4.319   4.518  16.384 -0.2764 -0.2823 -0.4778
  319MPD2    C1 4844   4.254   4.422  16.455 -0.5638  0.4261 -0.1332
  319MPD2    C2 4845   4.141   4.369  16.401 -0.7766 -0.6599 -0.1682
  319MPD2    C3 4846   4.088   4.408  16.277 -0.1828  0.2666 -0.0146
  319MPD2    C4 4847   4.161   4.500  16.203  0.0377 -0.1983  0.2881
  319MPD2    C5 4848   4.284   4.545  16.254 -0.1732  0.5211  0.7220
  319MPD2     H 4849   4.076   4.305  16.459  0.0778  0.3172  1.8797
  319MPD2    H1 4850   4.128   4.548  16.112 -3.1884 -1.9202  0.5554
  319MPD2    H2 4851   4.399   4.581  16.421 -1.9387  0.7110  1.4390
  319MPD2    H3 4852   4.332   4.623  16.196 -1.5265 -0.0893 -1.2104
  319MPD2     N 4853   3.967   4.370  16.216  0.2354 -0.1488  0.1314
  319MPD2    H5 4854   3.934   4.419  16.133  1.0564 -0.0529 -0.1463
  319MPD2    N1 4855   4.300   4.385  16.583 -0.2629  0.2015 -0.4609
  319MPD2    H7 4856   4.246   4.318  16.637  0.6469 -0.6872 -0.6605
  320TMC3    C1 4857   3.774   4.235  16.202  0.1092 -0.3160  0.1305
  320TMC3    C2 4858   3.722   4.332  16.117  0.1347 -0.0585  0.3016
  320TMC3    C3 4859   3.630   4.284  16.028 -0.4259  0.0036 -0.0638
  320TMC3    C4 4860   3.737   4.105  16.200  0.0320  0.2386 -0.4871
  320TMC3    C5 4861   3.640   4.063  16.110  0.0879  0.4030 -0.2063
  320TMC3    C6 4862   3.592   4.154  16.018 -0.3935 -0.1159  0.3711
  320TMC3     C 4863   3.909   4.253  16.251 -0.1220 -0.8278  0.3273
  320TMC3     O 4864   3.952   4.166  16.326  0.4634 -0.3339 -0.2319
  320TMC3     H 4865   3.746   4.437  16.129 -0.0056  0.0786 -0.5694
  320TMC3    H1 4866   3.779   4.040  16.276 -2.2453 -0.0146  0.5732
  320TMC3    H2 4867   3.517   4.122  15.947 -1.0400  4.0126 -0.7842
  320TMC3    C7 4868   3.644   3.927  16.069  0.2080 -0.3455 -0.4069
  320TMC3    C8 4869   3.559   4.378  15.944 -0.3632 -0.4016  0.3949
  320TMC3    O1 4870   3.621   3.906  15.951  0.1922  0.1399  0.2294
  320TMC3    O2 4871   3.563   4.491  15.984  0.3759  0.6579 -0.6350
  321TMC3    C1 4872   4.400   4.404  16.794  0.2588 -0.7391 -0.2100
  321TMC3    C2 4873   4.379   4.265  16.834  0.4066 -0.7580 -0.7330
  321TMC3    C3 4874   4.326   4.245  16.960  0.1900 -0.1444 -0.2435
  321TMC3    C4 4875   4.392   4.502  16.890  0.5035  0.0931 -0.0534
  321TMC3    C5 4876   4.345   4.473  17.012  0.2280 -0.0161 -0.2233
  321TMC3    C6 4877   4.300   4.350  17.043  0.0220 -0.3158 -0.1350
  321TMC3     C 4878   4.396   4.448  16.658  0.3914  0.2611 -0.3322
  321TMC3     O 4879   4.465   4.546  16.633 -0.6124 -0.2329 -0.0120
  321TMC3     H 4880   4.415   4.177  16.783 -0.1173 -0.9583 -0.7638
  321TMC3    H1 4881   4.426   4.601  16.861 -2.2410  0.8886 -0.5722
  321TMC3    H2 4882   4.274   4.329  17.146  0.7951 -3.1268 -0.5049
  321TMC3    C7 4883   4.437   4.526  17.108 -0.0967 -0.1229 -0.1322
  321TMC3    C8 4884   4.377   4.124  17.038  0.1350 -0.2103  0.7061
  321TMC3    O1 4885   4.462   4.648  17.114  0.0443  0.2810 -0.6144
  321TMC3    O2 4886   4.380   4.142  17.157  0.2081  0.1257  0.8708
  322MPD2     C 4887   3.066   1.162  13.323 -0.0081  0.2356 -0.6407
  322MPD2    C1 4888   3.056   1.088  13.443  1.0335 -0.4890 -0.1809
  322MPD2    C2 4889   3.075   0.951  13.433 -0.9716  0.7138  0.1889
  322MPD2    C3 4890   3.106   0.887  13.310 -0.8666 -0.3462  0.3210
  322MPD2    C4 4891   3.118   0.969  13.200  0.0804 -0.5822  0.4472
  322MPD2    C5 4892   3.090   1.099  13.207 -0.3062 -0.8852 -0.4698
  322MPD2     H 4893   3.078   0.899  13.528 -0.9174  0.0311 -0.1860
  322MPD2    H1 4894   3.148   0.934  13.102 -1.2604 -0.2604 -0.0764
  322MPD2    H2 4895   3.058   1.270  13.328 -2.6259  0.0966 -2.1126
  322MPD2    H3 4896   3.100   1.154  13.114  0.5343 -1.7857 -0.9226
  322MPD2     N 4897   3.146   0.751  13.308 -0.0451 -0.3305 -0.0703
  322MPD2    H5 4898   3.164   0.713  13.401  0.6612 -1.2818 -0.6045
  322MPD2    N1 4899   3.038   1.157  13.567  0.7695  0.2085 -0.3009
  322MPD2    H7 4900   3.030   1.259  13.567 -0.0560  0.1415 -1.1571
  323TMC3    C1 4901   3.041   1.200  13.801 -0.1625  0.4735 -0.0948
  323TMC3    C2 4902   3.128   1.306  13.774 -0.4825 -0.4352 -0.2132
  323TMC3    C3 4903   3.235   1.328  13.859  0.2071 -0.6495 -0.2105
  323TMC3    C4 4904   3.046   1.139  13.925  0.1032 -0.3611  0.1409
  323TMC3    C5 4905   3.143   1.179  14.016 -0.5697  0.1449  0.1790
  323TMC3    C6 4906   3.243   1.261  13.981  0.0549 -0.3958  0.6625
  323TMC3     C 4907   3.016   1.105  13.694  0.0148  0.7102 -0.0552
  323TMC3     O 4908   3.008   0.991  13.736 -0.1601  0.2899 -0.6152
  323TMC3     H 4909   3.103   1.375  13.695  1.8012 -0.1550 -0.6914
  323TMC3    H1 4910   2.967   1.072  13.958 -0.5250 -1.2257 -3.1143
  323TMC3    H2 4911   3.328   1.288  14.042  1.3292 -0.3710 -1.1007
  323TMC3    C7 4912   3.154   1.100  14.139 -0.2733  0.3993 -0.1600
  323TMC3    C8 4913   3.364   1.343  13.792  0.4973  0.2090 -0.5336
  323TMC3    O1 4914   3.076   1.007  14.157  0.4929  0.4890  0.0152
  323TMC3    O2 4915   3.468   1.323  13.857  0.1298  0.6961  0.0419
  324MPD2     C 4916   0.056   1.585  14.193  0.0301 -0.3031 -0.1618
  324MPD2    C1 4917   0.075   1.720  14.156 -0.1690  0.7417  0.3495
  324MPD2    C2 4918   4.732   1.776  14.063  0.6999  1.2884  0.1583
  324MPD2    C3 4919   4.630   1.700  14.002  0.2081  0.2837  0.9465
  324MPD2    C4 4920   4.601   1.575  14.055 -0.4287  0.0536 -0.1298
  324MPD2    C5 4921   4.684   1.517  14.149  0.0153  0.3693  0.6728
  324MPD2     H 4922   0.017   1.881  14.049  1.3217  1.1320 -0.0114
  324MPD2    H1 4923   4.513   1.521  14.021 -0.9679 -1.3126  3.4014
  324MPD2    H2 4924   0.111   1.530  14.269  0.2695 -1.4513 -1.1699
  324MPD2    H3 4925   4.677   1.413  14.179  1.0049 -0.4655 -1.9254
  324MPD2     N 4926   4.539   1.755  13.907  0.2867  0.1554  0.7190
  324MPD2    H5 4927   4.449   1.710  13.893  0.7224 -0.3906 -0.3008
  324MPD2    N1 4928   0.171   1.804  14.212 -0.0310  0.5108  0.3015
  324MPD2    H7 4929   0.195   1.884  14.154 -0.3590 -0.4868 -1.2119
  325TMC3    C1 4930   4.449   1.921  13.776 -0.6569  0.3565  0.2932
  325TMC3    C2 4931   4.328   1.859  13.794 -0.9018  0.6862 -0.4859
  325TMC3    C3 4932   4.224   1.940  13.836 -0.7270  0.6796  0.2000
  325TMC3    C4 4933   4.455   2.059  13.773  0.6230 -0.3157 -0.5749
  325TMC3    C5 4934   4.350   2.132  13.821 -0.9120  0.7197 -0.3932
  325TMC3    C6 4935   4.230   2.077  13.857  0.3327  0.0921 -0.7287
  325TMC3     C 4936   4.569   1.866  13.829  0.6112 -0.6207 -0.0027
  325TMC3     O 4937   4.676   1.918  13.811  0.3122 -0.1672  0.1296
  325TMC3     H 4938   4.311   1.752  13.803  0.3977  0.6285  1.2529
  325TMC3    H1 4939   4.545   2.116  13.755  1.3282 -0.9417  0.9754
  325TMC3    H2 4940   4.150   2.147  13.882  1.2743  1.2932 -1.0889
  325TMC3    C7 4941   4.388   2.254  13.895  0.3494 -0.6194  0.1667
  325TMC3    C8 4942   4.092   1.891  13.819 -0.7237 -0.3331 -0.1507
  325TMC3    O1 4943   4.489   2.317  13.860  0.2977  0.5401  0.0715
  325TMC3    O2 4944   4.081   1.793  13.743  0.0510 -0.6355 -0.3392
  326MPD2     C 4945   1.080   3.695  11.248  0.0236 -0.2029 -0.1477
  326MPD2    C1 4946   1.129   3.695  11.115  0.0465 -0.1148  0.4783
  326MPD2    C2 4947   1.256   3.656  11.080 -0.2822 -0.7973  0.2092
  326MPD2    C3 4948   1.341   3.611  11.171  0.4942  0.3353  0.2497
  326MPD2    C4 4949   1.295   3.623  11.303 -0.3088  0.0624  0.2284
  326MPD2    C5 4950   1.170   3.667  11.338 -0.0088  0.2036  0.5577
  326MPD2     H 4951   1.286   3.655  10.976  1.9816  0.4578  0.8555
  326MPD2    H1 4952   1.348   3.579  11.386 -1.4733 -1.3660  0.2130
  326MPD2    H2 4953   0.984   3.719  11.291  0.8300  0.9166  1.0257
  326MPD2    H3 4954   1.150   3.671  11.445 -2.6877 -2.3693  0.1556
  326MPD2     N 4955   1.471   3.564  11.154  0.0428 -0.4546 -0.2526
  326MPD2    H5 4956   1.523   3.557  11.241  0.0900 -1.4510 -0.3510
  326MPD2    N1 4957   1.035   3.714  11.010 -0.3842  0.2372 -0.1577
  326MPD2    H7 4958   1.072   3.706  10.916  1.3534  1.0292  0.4694
  327TMC3    C1 4959   0.809   3.731  10.940 -0.5340  0.1131  0.7044
  327TMC3    C2 4960   0.697   3.804  10.926  0.8041 -0.5657 -0.1305
  327TMC3    C3 4961   0.595   3.763  10.841  0.0697 -0.2838  0.4091
  327TMC3    C4 4962   0.831   3.625  10.855  0.4119  0.7327  0.0637
  327TMC3    C5 4963   0.735   3.586  10.758  0.2089 -0.3466  0.8348
  327TMC3    C6 4964   0.611   3.652  10.761 -0.1253 -0.0216 -0.7615
  327TMC3     C 4965   0.913   3.773  11.030 -0.1890  0.4114 -0.1783
  327TMC3     O 4966   0.868   3.836  11.128  0.0731 -0.1523  0.2159
  327TMC3     H 4967   0.691   3.896  10.984  4.0919 -0.0850 -0.5563
  327TMC3    H1 4968   0.926   3.573  10.867  0.8264  1.8581  1.6858
  327TMC3    H2 4969   0.527   3.630  10.696  0.2382 -2.1301 -0.5146
  327TMC3    C7 4970   0.742   3.451  10.698 -0.1164 -0.5734  0.2939
  327TMC3    C8 4971   0.467   3.832  10.848 -0.6463 -0.0081 -0.2812
  327TMC3    O1 4972   0.679   3.438  10.595 -0.2478  0.9293  0.2680
  327TMC3    O2 4973   0.390   3.815  10.753 -0.0975  0.4962  0.0860
  328MPD2     C 4974   4.047   3.357  17.032 -0.3604 -0.3795 -0.1142
  328MPD2    C1 4975   3.912   3.336  17.054 -0.4241 -1.2572 -0.1753
  328MPD2    C2 4976   3.815   3.373  16.964  1.2467 -0.2447 -0.3169
  328MPD2    C3 4977   3.853   3.431  16.845 -0.6617  0.2023  0.5984
  328MPD2    C4 4978   3.988   3.466  16.826  0.5555 -0.6642  0.4464
  328MPD2    C5 4979   4.081   3.422  16.916 -0.1501 -0.0276 -0.2337
  328MPD2     H 4980   3.714   3.336  16.980  0.4440  3.1301  2.4286
  328MPD2    H1 4981   4.020   3.501  16.729  0.9779 -0.9251  0.4908
  328MPD2    H2 4982   4.114   3.319  17.108 -0.0097 -1.9465 -1.1966
  328MPD2    H3 4983   4.184   3.446  16.890  0.4868 -1.3497  1.0537
  328MPD2     N 4984   3.764   3.461  16.745  0.0758 -0.1503 -0.0267
  328MPD2    H5 4985   3.808   3.501  16.663  0.6458  0.3264  0.5060
  328MPD2    N1 4986   3.884   3.279  17.181 -0.1389 -0.2076 -0.1090
  328MPD2    H7 4987   3.964   3.270  17.243 -1.6596 -1.1583  1.7278
  329TMC3    C1 4988   3.759   3.208  17.366  0.0528  0.5309  1.1556
  329TMC3    C2 4989   3.827   3.275  17.463 -0.2095  0.0279 -1.0126
  329TMC3    C3 4990   3.782   3.256  17.591  0.0619 -1.4066 -0.0875
  329TMC3    C4 4991   3.654   3.127  17.383 -0.4409  1.0755  0.6668
  329TMC3    C5 4992   3.625   3.103  17.515  0.1948 -0.7956 -0.3523
  329TMC3    C6 4993   3.696   3.161  17.618 -0.1832 -0.4588 -0.0968
  329TMC3     C 4994   3.759   3.262  17.231 -0.4048  0.3353  0.4094
  329TMC3     O 4995   3.647   3.292  17.192  0.1724  0.0891 -0.0831
  329TMC3     H 4996   3.908   3.343  17.439 -0.6047  0.9577  0.3061
  329TMC3    H1 4997   3.608   3.078  17.298  0.3034  1.3799  0.0853
  329TMC3    H2 4998   3.672   3.136  17.720  1.4905  0.4378  0.4998
  329TMC3    C7 4999   3.515   3.009  17.554  0.1350  0.0767 -0.2842
  329TMC3    C8 5000   3.817   3.368  17.674  0.4826 -0.7723  0.4039
  329TMC3    O1 5001   3.495   2.917  17.474  0.4353 -0.1483 -0.3501
  329TMC3    O2 5002   3.891   3.457  17.635  0.0031 -1.0298  0.2043
  330TMC3    C1 5003   4.347   3.202   9.138 -0.6827  0.8118 -0.0483
  330TMC3    C2 5004   4.315   3.118   9.230  0.8068 -0.6677 -0.1032
  330TMC3    C3 5005   4.374   2.989   9.230  0.3246 -0.2262  0.6436
  330TMC3    C4 5006   4.454   3.172   9.058  0.0966  0.7316  0.1941
  330TMC3    C5 5007   4.516   3.047   9.053 -0.6488  0.2538 -0.6580
  330TMC3    C6 5008   4.471   2.953   9.139  0.5736  0.7562  0.6728
  330TMC3     C 5009   4.309   3.344   9.159  0.5106 -0.5238 -0.3481
  330TMC3     O 5010   4.393   3.431   9.129  0.3308  0.0303 -0.3002
  330TMC3     H 5011   4.249   3.152   9.309  0.7593  2.2231 -1.3927
  330TMC3    H1 5012   4.497   3.254   9.001  0.1650 -0.6811 -1.8166
  330TMC3    H2 5013   4.534   2.866   9.152 -0.6662 -0.2329  0.0481
  330TMC3    C7 5014   4.630   3.027   8.967 -0.0192  0.0664 -0.0169
  330TMC3    C8 5015   4.319   2.904   9.334 -0.1408 -0.1082 -0.3744
  330TMC3    O1 5016   4.666   3.126   8.902 -0.3620 -0.6765  1.0293
  330TMC3    O2 5017   4.231   2.959   9.406  0.1337  0.0086  0.1137
  331MPD2     C 5018   3.695   1.969  12.359 -1.2062 -0.4638 -0.8421
  331MPD2    C1 5019   3.797   1.964  12.261  0.2026 -0.6192 -0.8398
  331MPD2    C2 5020   3.838   1.837  12.227  0.3089  0.8278  0.1453
  331MPD2    C3 5021   3.807   1.725  12.293  0.2794  1.2341 -0.7904
  331MPD2    C4 5022   3.707   1.736  12.390 -0.5882  0.1305  0.5866
  331MPD2    C5 5023   3.650   1.858  12.415 -0.1315  0.0386 -0.1466
  331MPD2     H 5024   3.898   1.824  12.138 -3.0245 -0.1636 -1.9419
  331MPD2    H1 5025   3.658   1.650  12.434  0.4111 -0.3226  0.8223
  331MPD2    H2 5026   3.651   2.059  12.399 -0.2305 -0.3696  0.0503
  331MPD2    H3 5027   3.563   1.862  12.479  1.1028  0.1404  1.5235
  331MPD2     N 5028   3.861   1.601  12.249 -0.2593 -0.9808 -0.4282
  331MPD2    H5 5029   3.921   1.602  12.167 -0.8341 -2.1854 -0.8652
  331MPD2    N1 5030   3.841   2.082  12.198  0.0081 -0.4458  0.3197
  331MPD2    H7 5031   3.794   2.166  12.232  1.8296  0.6357  0.1547
  332TMC3    C1 5032   3.877   1.367  12.222 -0.2379  0.2971  0.4227
  332TMC3    C2 5033   3.905   1.383  12.086 -0.2578  0.6418 -0.8276
  332TMC3    C3 5034   3.955   1.279  12.011  0.3762  0.2020 -0.7184
  332TMC3    C4 5035   3.912   1.250  12.279 -0.4104 -0.0846 -0.2353
  332TMC3    C5 5036   3.966   1.150  12.209  0.1892 -0.2705  0.5465
  332TMC3    C6 5037   3.977   1.156  12.073  0.5029  0.0490  0.5500
  332TMC3     C 5038   3.824   1.476  12.300 -0.2916  0.2692 -0.0024
  332TMC3     O 5039   3.775   1.442  12.406 -0.0364  0.0489 -0.5493
  332TMC3     H 5040   3.874   1.471  12.031 -0.7677  0.6132 -0.5774
  332TMC3    H1 5041   3.889   1.238  12.384  0.1242  1.5374  0.0721
  332TMC3    H2 5042   4.007   1.066  12.020 -1.0763 -0.2218  0.1091
  332TMC3    C7 5043   4.043   1.060  12.287  0.4964  0.2876 -0.1033
  332TMC3    C8 5044   4.020   1.302  11.888 -0.3811  0.3338 -0.1266
  332TMC3    O1 5045   4.030   0.943  12.260 -0.6569 -0.6095  0.1307
  332TMC3    O2 5046   4.051   1.421  11.870 -0.2355 -0.0490  0.1610
  333MPD2     C 5047   4.237   1.959  10.523  0.7092 -0.6623  0.3776
  333MPD2    C1 5048   4.233   1.870  10.422 -0.6175  0.2630  0.4751
  333MPD2    C2 5049   4.214   1.740  10.456 -0.3671  0.1747  0.0110
  333MPD2    C3 5050   4.180   1.695  10.582 -0.0892  0.0903  0.0427
  333MPD2    C4 5051   4.176   1.790  10.681  0.5384  0.1944  0.4262
  333MPD2    C5 5052   4.207   1.921  10.650  0.5208 -0.3622 -0.2212
  333MPD2     H 5053   4.237   1.659  10.387 -0.0943  0.7763 -0.6147
  333MPD2    H1 5054   4.159   1.784  10.788 -2.4241  0.7830 -0.0246
  333MPD2    H2 5055   4.268   2.061  10.504  0.5957 -0.5105  0.9962
  333MPD2    H3 5056   4.223   1.993  10.729  1.2115 -0.4361 -0.2919
  333MPD2     N 5057   4.170   1.553  10.596  0.7760 -0.7112  0.3780
  333MPD2    H5 5058   4.186   1.493  10.515  0.7216  0.5030 -0.5351
  333MPD2    N1 5059   4.284   1.908  10.300 -0.5550  0.0061 -0.5323
  333MPD2    H7 5060   4.330   1.999  10.299 -0.6664  0.0618 -0.7606
  334TMC3    C1 5061   4.404   1.848  10.123  0.2010 -0.0871  0.1271
  334TMC3    C2 5062   4.493   1.743  10.117 -0.9672 -0.0248  0.0309
  334TMC3    C3 5063   4.629   1.762  10.096 -0.8069 -0.1390  0.5219
  334TMC3    C4 5064   4.456   1.976  10.114  0.4000 -0.0958 -0.2441
  334TMC3    C5 5065   4.592   1.992  10.087  1.0358  0.0453 -0.3401
  334TMC3    C6 5066   4.682   1.886  10.085  0.5166  0.2639  0.3130
  334TMC3     C 5067   4.283   1.823  10.192  0.5935 -0.5436 -0.5415
  334TMC3     O 5068   4.226   1.717  10.172  0.5299 -0.3029 -0.2436
  334TMC3     H 5069   4.457   1.643  10.139 -0.6447  0.0381  0.8568
  334TMC3    H1 5070   4.388   2.059  10.127 -0.2594 -0.8771  1.3242
  334TMC3    H2 5071   0.051   1.898  10.075  0.7248 -1.3458  0.6726
  334TMC3    C7 5072   4.660   2.114  10.140 -0.1663  0.0583  0.6502
  334TMC3    C8 5073   4.710   1.659  10.159  0.2926 -0.0705 -0.1885
  334TMC3    O1 5074   0.023   2.088  10.209 -0.3288 -0.2897 -0.4957
  334TMC3    O2 5075   4.670   1.541  10.166  0.1204 -0.4307  0.0659
  335TMC3    C1 5076   0.072   3.124  17.570 -0.4225  0.5522 -0.0795
  335TMC3    C2 5077   4.683   3.135  17.503 -0.3151  0.4035  0.6558
  335TMC3    C3 5078   4.686   3.179  17.370 -0.0040 -0.8375 -0.0735
  335TMC3    C4 5079   0.189   3.162  17.509 -0.3182 -0.0756  0.8584
  335TMC3    C5 5080   0.175   3.210  17.381 -0.1062 -0.0731  0.2416
  335TMC3    C6 5081   0.061   3.214  17.307 -0.4083 -0.7969 -0.3229
  335TMC3     C 5082   0.067   3.094  17.714  0.0824  0.4530  0.5253
  335TMC3     O 5083   4.699   3.053   0.004 -0.4211 -0.0384  0.1291
  335TMC3     H 5084   4.587   3.122  17.553  0.4097 -0.2736  1.8756
  335TMC3    H1 5085   0.286   3.136  17.549 -0.5816 -0.0351  1.5193
  335TMC3    H2 5086   0.062   3.257  17.208  2.2421 -0.3835 -0.1353
  335TMC3    C7 5087   0.293   3.239  17.295 -0.4883 -0.0926 -0.1979
  335TMC3    C8 5088   4.570   3.141  17.295  0.0134  0.2077 -0.4348
  335TMC3    O1 5089   0.279   3.248  17.175  0.8429  0.0837  0.1792
  335TMC3    O2 5090   4.572   3.178  17.176 -0.2836  0.4126  0.3499
  336MPD2     C 5091   3.926   0.907  15.923  0.4158 -0.0950 -0.0196
  336MPD2    C1 5092   3.869   0.841  15.816  0.7997 -0.2002  0.4293
  336MPD2    C2 5093   3.884   0.703  15.808 -0.4265 -0.8083 -0.5354
  336MPD2    C3 5094   3.940   0.632  15.913 -0.1133  0.3745  0.3134
  336MPD2    C4 5095   3.994   0.704  16.021  0.2285 -0.1979  0.1588
  336MPD2    C5 5096   3.976   0.840  16.023 -0.0128  0.3315 -0.2359
  336MPD2     H 5097   3.832   0.664  15.722 -2.0381  0.7824 -0.2764
  336MPD2    H1 5098   4.045   0.667  16.110  1.0936 -1.0210 -0.6769
  336MPD2    H2 5099   3.931   1.015  15.931 -1.2961  0.0232 -0.4577
  336MPD2    H3 5100   4.018   0.896  16.106 -0.9634 -0.7809  1.0118
  336MPD2     N 5101   3.943   0.492  15.914  0.1885  0.4966  0.3558
  336MPD2    H5 5102   3.976   0.440  15.994 -1.2417 -0.1545  0.5132
  336MPD2    N1 5103   3.816   0.906  15.704 -0.1508 -0.5659  0.3653
  336MPD2    H7 5104   3.761   0.855  15.636  0.2591  1.0184 -1.1696
  337TMC3    C1 5105   3.738   1.068  15.570  0.1311  0.3974  0.7468
  337TMC3    C2 5106   3.653   0.975  15.522 -0.2270  0.1465  0.5980
  337TMC3    C3 5107   3.593   0.988  15.403  0.8615  0.5505 -0.0287
  337TMC3    C4 5108   3.765   1.183  15.501 -0.3319  0.0795  0.4117
  337TMC3    C5 5109   3.717   1.197  15.378 -0.3340  0.1339 -0.0108
  337TMC3    C6 5110   3.633   1.095  15.325  0.4426  0.1346 -0.1186
  337TMC3     C 5111   3.815   1.041  15.686  0.6210  0.5815  0.3821
  337TMC3     O 5112   3.862   1.136  15.745 -0.3942  0.0444 -0.6340
  337TMC3     H 5113   3.614   0.893  15.582 -2.7743  1.1524  0.3328
  337TMC3    H1 5114   3.840   1.248  15.544  0.2681  0.5627 -1.3508
  337TMC3    H2 5115   3.600   1.094  15.222  2.2521  0.7262 -0.7064
  337TMC3    C7 5116   3.720   1.318  15.296  0.1509  0.2747 -0.0150
  337TMC3    C8 5117   3.469   0.918  15.366  0.0391  0.5588  0.3345
  337TMC3    O1 5118   3.636   1.320  15.207  0.1812  0.8148  0.0128
  337TMC3    O2 5119   3.442   0.808  15.421 -0.2136  0.5525 -0.4154
  338MPD2     C 5120   4.101   0.185   0.713 -0.1431 -0.0507  0.2846
  338MPD2    C1 5121   4.089   0.197   0.578 -0.7275 -0.0228 -0.4252
  338MPD2    C2 5122   3.990   0.277   0.522  0.3169  0.5953  0.2821
  338MPD2    C3 5123   3.902   0.345   0.607 -0.0147  0.9255  0.1376
  338MPD2    C4 5124   3.919   0.321   0.746 -0.6279  0.2357  0.6008
  338MPD2    C5 5125   4.017   0.245   0.799 -0.2008 -0.0350 -0.4840
  338MPD2     H 5126   3.980   0.284   0.415  2.3792 -2.0218 -0.0810
  338MPD2    H1 5127   3.860   0.368   0.823  0.3528  2.1026  0.2438
  338MPD2    H2 5128   4.164   0.117   0.769 -0.6070 -1.4576 -0.9274
  338MPD2    H3 5129   4.016   0.216   0.904 -0.1465  2.3939  0.2085
  338MPD2     N 5130   3.801   0.424   0.557 -0.3007 -0.4217 -0.3172
  338MPD2    H5 5131   3.812   0.436   0.456 -0.5207 -0.2759 -0.3241
  338MPD2    N1 5132   4.158   0.112   0.489  0.0434  0.2022  0.4310
  338MPD2    H7 5133   4.129   0.110   0.392  0.3674  0.3137  0.3303
  339TMC3    C1 5134   3.590   0.514   0.526 -0.2964  0.4476 -0.0661
  339TMC3    C2 5135   3.462   0.519   0.574 -0.7506  1.1656 -0.6220
  339TMC3    C3 5136   3.361   0.566   0.494  0.2511 -0.9419 -0.0767
  339TMC3    C4 5137   3.626   0.552   0.398 -0.5351 -0.2163 -0.3514
  339TMC3    C5 5138   3.520   0.591   0.320  0.0093  0.7472 -0.2519
  339TMC3    C6 5139   3.391   0.591   0.364 -0.1375 -0.2268 -0.1347
  339TMC3     C 5140   3.691   0.458   0.620  0.7382  0.2924  0.5567
  339TMC3     O 5141   3.656   0.430   0.733  0.3560 -0.7110  0.2066
  339TMC3     H 5142   3.438   0.463   0.664 -1.6686  0.1099 -1.5300
  339TMC3    H1 5143   3.724   0.574   0.358  0.0253 -0.8516  0.6980
  339TMC3    H2 5144   3.310   0.619   0.298 -0.2439 -0.4198 -0.0850
  339TMC3    C7 5145   3.554   0.668   0.204  0.1702  0.1819 -0.8372
  339TMC3    C8 5146   3.224   0.528   0.523  0.6403 -0.4440 -0.5577
  339TMC3    O1 5147   3.490   0.774   0.191 -0.5760  0.1731 -0.2756
  339TMC3    O2 5148   3.149   0.520   0.428 -0.7464  0.5066  0.0346
  340MPD2     C 5149   3.673   3.473  10.170  1.0363  0.0635  0.1379
  340MPD2    C1 5150   3.715   3.345  10.155 -0.3578  0.4651  0.2107
  340MPD2    C2 5151   3.683   3.256  10.255 -0.0363 -0.2525 -0.2237
  340MPD2    C3 5152   3.598   3.289  10.353  0.6793 -0.4445  0.0309
  340MPD2    C4 5153   3.561   3.419  10.370  0.0383  0.9080 -0.0385
  340MPD2    C5 5154   3.607   3.507  10.278 -0.3309  0.4519  0.0880
  340MPD2     H 5155   3.731   3.158  10.256  1.4980  0.4966 -1.2017
  340MPD2    H1 5156   3.489   3.443  10.448  0.5676 -1.2825  1.1073
  340MPD2    H2 5157   3.701   3.552  10.102 -0.1929 -0.6997 -1.2627
  340MPD2    H3 5158   3.565   3.606  10.292  0.3003  0.6693  0.4234
  340MPD2     N 5159   3.563   3.197  10.456 -0.2964  0.1412  0.0488
  340MPD2    H5 5160   3.506   3.239  10.528 -0.5310 -0.6655  0.3287
  340MPD2    N1 5161   3.806   3.310  10.046  0.1566 -0.3513 -0.0178
  340MPD2    H7 5162   3.850   3.382   9.991  1.4498  0.4440  2.0445
  341TMC3    C1 5163   3.922   3.154   9.910 -0.1795 -0.5675  0.3057
  341TMC3    C2 5164   3.910   3.024   9.866  0.4082  0.0796  0.0548
  341TMC3    C3 5165   3.945   3.001   9.736  0.3271 -0.3011 -0.2900
  341TMC3    C4 5166   3.961   3.249   9.830 -0.4283 -0.1525 -0.4214
  341TMC3    C5 5167   4.011   3.220   9.705  0.1508 -0.8300 -0.1405
  341TMC3    C6 5168   4.012   3.095   9.655 -0.0577 -0.1319  0.2360
  341TMC3     C 5169   3.813   3.180  10.003  0.7920 -0.3727 -0.1256
  341TMC3     O 5170   3.749   3.088  10.040  0.2312 -0.2894  0.7083
  341TMC3     H 5171   3.879   2.944   9.931  1.0452 -1.2261 -1.2336
  341TMC3    H1 5172   3.978   3.349   9.868  1.8820 -0.3566 -0.8992
  341TMC3    H2 5173   4.060   3.075   9.560  1.9733 -1.0629  1.4439
  341TMC3    C7 5174   4.098   3.309   9.632  0.7590  0.1062 -0.2861
  341TMC3    C8 5175   3.913   2.868   9.681 -0.2119 -0.2391  0.0625
  341TMC3    O1 5176   4.169   3.257   9.549 -0.4833 -0.4725 -0.3219
  341TMC3    O2 5177   3.872   2.786   9.761  0.8575 -0.4638 -0.0630
  342MPD2     C 5178   2.139   1.373  17.415 -0.4570 -0.2976 -0.3965
  342MPD2    C1 5179   2.243   1.380  17.325  0.0647 -0.2859 -0.1101
  342MPD2    C2 5180   2.291   1.496  17.268 -0.1892 -0.1733  0.4429
  342MPD2    C3 5181   2.223   1.613  17.299 -0.9823  0.4230 -0.5734
  342MPD2    C4 5182   2.119   1.602  17.389 -0.4749  0.5471 -0.5404
  342MPD2    C5 5183   2.072   1.486  17.436  0.0373  0.0759 -0.3482
  342MPD2     H 5184   2.357   1.495  17.182  1.6605  0.3686  1.8646
  342MPD2    H1 5185   2.055   1.686  17.412 -0.1902  1.3459 -2.6581
  342MPD2    H2 5186   2.100   1.280  17.455  0.7229 -0.4144  0.4832
  342MPD2    H3 5187   1.986   1.483  17.501  1.0581 -0.5663  0.9678
  342MPD2     N 5188   2.259   1.738  17.257  0.5817  0.3829 -0.1227
  342MPD2    H5 5189   2.208   1.812  17.305  1.5647 -0.2805  1.9533
  342MPD2    N1 5190   2.298   1.266  17.265  0.5861  0.0526  0.1078
  342MPD2    H7 5191   2.356   1.283  17.184  0.2826 -0.1970 -0.1650
  343TMC3    C1 5192   2.340   1.035  17.222 -0.7951  0.1217  0.7065
  343TMC3    C2 5193   2.456   1.073  17.157  0.3939  0.1656 -0.6860
  343TMC3    C3 5194   2.520   0.980  17.082  0.1271 -0.4770  0.2650
  343TMC3    C4 5195   2.289   0.907  17.212  0.1286  0.0421  0.3973
  343TMC3    C5 5196   2.363   0.821  17.138 -0.6663  0.1555 -0.6276
  343TMC3    C6 5197   2.471   0.852  17.065 -0.4105  0.7226 -0.2920
  343TMC3     C 5198   2.278   1.136  17.311  0.7542  0.8946 -0.1977
  343TMC3     O 5199   2.208   1.095  17.404  0.6185  0.2615  0.1678
  343TMC3     H 5200   2.492   1.174  17.171  0.9018 -0.5302  3.0848
  343TMC3    H1 5201   2.217   0.877  17.288 -0.5606 -1.3650 -0.8102
  343TMC3    H2 5202   2.521   0.773  17.010 -1.9929 -1.2746  1.1194
  343TMC3    C7 5203   2.326   0.682  17.140  0.1427  0.3246  0.6022
  343TMC3    C8 5204   2.662   1.018  17.055 -0.3926  1.0760  0.3693
  343TMC3    O1 5205   2.333   0.610  17.040  0.4240  0.3746  0.1513
  343TMC3    O2 5206   2.712   1.102  17.132  0.2937  0.1875  0.2567
  344MPD2     C 5207   2.595   1.055  11.041 -0.4253  0.3364 -0.2327
  344MPD2    C1 5208   2.590   0.941  10.962 -0.5568  0.2877  0.2550
  344MPD2    C2 5209   2.652   0.942  10.845  0.6895 -0.6132  0.2589
  344MPD2    C3 5210   2.738   1.048  10.805  0.1110  0.4514  0.1947
  344MPD2    C4 5211   2.740   1.161  10.885 -0.0783  0.3339  0.3569
  344MPD2    C5 5212   2.664   1.165  10.990 -0.4158 -0.3671  0.3091
  344MPD2     H 5213   2.642   0.857  10.779  2.0053 -0.6706  0.1486
  344MPD2    H1 5214   2.802   1.243  10.852  0.4547  0.3372  1.3724
  344MPD2    H2 5215   2.570   1.051  11.146 -0.1892 -0.7466 -0.2134
  344MPD2    H3 5216   2.684   1.247  11.058 -0.0586  0.4874 -0.8272
  344MPD2     N 5217   2.821   1.047  10.684  0.1560 -0.0715 -0.4268
  344MPD2    H5 5218   2.888   1.123  10.678 -2.6696  2.3691 -0.4543
  344MPD2    N1 5219   2.529   0.821  11.006  0.3126  0.2502 -0.8760
  344MPD2    H7 5220   2.534   0.753  10.931 -5.1095 -0.4560 -0.5919
  345TMC3    C1 5221   2.940   0.936  10.499  0.1495 -0.2221  0.2565
  345TMC3    C2 5222   3.045   1.024  10.523 -0.2765 -0.0575 -0.3570
  345TMC3    C3 5223   3.150   1.008  10.435  0.1815  0.6860 -0.0529
  345TMC3    C4 5224   2.935   0.846  10.401  0.0470 -0.8412  0.4328
  345TMC3    C5 5225   3.042   0.838  10.318  0.2638 -0.2207 -0.1967
  345TMC3    C6 5226   3.155   0.918  10.335 -0.5844  0.3539 -0.1709
  345TMC3     C 5227   2.818   0.948  10.582  0.6347  0.4236 -0.4559
  345TMC3     O 5228   2.713   0.896  10.544  0.2737  0.7830  0.5579
  345TMC3     H 5229   3.055   1.108  10.590  1.7792 -0.6710  0.0962
  345TMC3    H1 5230   2.846   0.789  10.377 -0.4198 -0.6602  1.7408
  345TMC3    H2 5231   3.244   0.901  10.275 -1.2081  0.6169 -1.1720
  345TMC3    C7 5232   3.028   0.794  10.182 -0.5316 -0.8829  0.1187
  345TMC3    C8 5233   3.208   1.139  10.403 -0.3551  0.4539  0.5277
  345TMC3    O1 5234   3.121   0.814  10.106 -0.4648 -0.0388 -0.3018
  345TMC3    O2 5235   3.120   1.220  10.395  0.1975 -0.2498 -0.1541
  346MPD2     C 5236   3.279   2.308  13.839  0.4008  0.7122  0.0372
  346MPD2    C1 5237   3.416   2.288  13.823 -0.1751  0.3200  0.7812
  346MPD2    C2 5238   3.502   2.352  13.913  0.3500 -0.4457 -0.1008
  346MPD2    C3 5239   3.444   2.422  14.021 -0.3341 -0.1454 -0.0013
  346MPD2    C4 5240   3.309   2.425  14.038  0.3381  0.0253 -0.7296
  346MPD2    C5 5241   3.231   2.373  13.943 -0.1886  0.0130 -0.9168
  346MPD2     H 5242   3.608   2.331  13.907  0.8953  1.4957  2.5572
  346MPD2    H1 5243   3.262   2.489  14.112 -1.2465 -1.5217 -0.3776
  346MPD2    H2 5244   3.209   2.242  13.790 -0.2756  0.6697  1.0620
  346MPD2    H3 5245   3.123   2.383  13.944 -0.1517  0.3953 -0.6541
  346MPD2     N 5246   3.532   2.494  14.110 -0.3743  0.1165  0.5070
  346MPD2    H5 5247   3.630   2.494  14.083 -0.2303 -2.7612  0.9921
  346MPD2    N1 5248   3.461   2.223  13.709  0.2424  0.5734  0.4996
  346MPD2    H7 5249   3.391   2.164  13.664 -0.0504  0.4649  1.0908
  347TMC3    C1 5250   3.611   2.598  14.306  0.7180  0.2864 -0.3576
  347TMC3    C2 5251   3.733   2.565  14.268 -0.0719  0.0708 -0.1314
  347TMC3    C3 5252   3.817   2.521  14.368  0.3558  0.1669 -0.9674
  347TMC3    C4 5253   3.571   2.611  14.438  0.2197 -0.2551 -0.3385
  347TMC3    C5 5254   3.666   2.568  14.527 -1.2620 -0.4479 -0.1117
  347TMC3    C6 5255   3.791   2.523  14.498 -0.5035  0.3427 -0.6637
  347TMC3     C 5256   3.498   2.568  14.220  0.2227 -0.3456  0.2676
  347TMC3     O 5257   3.386   2.594  14.261  0.4111 -0.0702 -0.4737
  347TMC3     H 5258   3.767   2.570  14.165  2.8361 -0.2720  0.8374
  347TMC3    H1 5259   3.469   2.641  14.458  0.3582 -0.1465  0.1795
  347TMC3    H2 5260   3.854   2.482  14.576  1.1380  0.3552 -1.9733
  347TMC3    C7 5261   3.619   2.572  14.665  0.1380 -0.9079  0.5478
  347TMC3    C8 5262   3.941   2.469  14.315  0.7799  0.3090 -0.1099
  347TMC3    O1 5263   3.495   2.572  14.688 -0.6161 -0.2181 -0.2359
  347TMC3    O2 5264   3.989   2.359  14.347 -0.5335  0.4876  0.2937
  348MPD2     C 5265   1.233   2.320  11.934 -0.3388 -0.0728 -0.0372
  348MPD2    C1 5266   1.358   2.290  11.883 -0.0786  0.0059 -0.1082
  348MPD2    C2 5267   1.387   2.320  11.749 -1.3289 -0.1522 -0.2343
  348MPD2    C3 5268   1.294   2.383  11.673 -0.1250 -0.8629  0.5248
  348MPD2    C4 5269   1.170   2.411  11.723  0.2090 -0.2979  0.8323
  348MPD2    C5 5270   1.142   2.374  11.853 -0.9556 -0.5947  0.9195
  348MPD2     H 5271   1.486   2.302  11.708 -0.4227 -2.1229  2.7985
  348MPD2    H1 5272   1.091   2.450  11.660 -0.5634 -0.4760  1.6883
  348MPD2    H2 5273   1.197   2.287  12.031 -2.0609  1.1441 -0.2669
  348MPD2    H3 5274   1.044   2.400  11.892 -1.1819 -0.3143  0.1753
  348MPD2     N 5275   1.333   2.404  11.542 -0.1064 -0.2503 -0.2286
  348MPD2    H5 5276   1.433   2.409  11.523  0.1560  0.3198  1.2602
  348MPD2    N1 5277   1.456   2.215  11.962 -0.1812 -0.7363 -0.0694
  348MPD2    H7 5278   1.547   2.199  11.919 -1.2699 -1.6930 -2.0572
  349TMC3    C1 5279   1.555   2.086  12.130 -0.7530  0.2518 -0.1355
  349TMC3    C2 5280   1.526   1.956  12.162 -0.0321  0.2885  0.0506
  349TMC3    C3 5281   1.586   1.853  12.094  0.3194 -0.3554  0.2103
  349TMC3    C4 5282   1.658   2.108  12.048 -0.1363  0.3434 -0.1056
  349TMC3    C5 5283   1.718   1.997  11.986  0.3835 -0.1499 -0.3802
  349TMC3    C6 5284   1.682   1.871  12.000  0.0278 -0.0147 -0.3196
  349TMC3     C 5285   1.439   2.155  12.087 -0.0858 -0.2161 -0.0224
  349TMC3     O 5286   1.331   2.150  12.142  0.8621  0.0145  0.3381
  349TMC3     H 5287   1.455   1.949  12.244  0.1482  1.1990  0.2883
  349TMC3    H1 5288   1.688   2.206  12.012  1.2407 -1.1445 -3.0345
  349TMC3    H2 5289   1.729   1.791  11.944 -1.4609  0.3472 -2.0620
  349TMC3    C7 5290   1.806   2.020  11.870 -0.5004 -1.1082  0.6642
  349TMC3    C8 5291   1.582   1.726  12.160 -0.0526 -0.1853 -0.3762
  349TMC3    O1 5292   1.800   1.937  11.781  0.6830  0.5278 -1.0199
  349TMC3    O2 5293   1.570   1.740  12.283 -0.0300 -0.1926 -0.1503
  350MPD2     C 5294   1.067   0.268  10.122 -0.0726 -0.3728 -0.5564
  350MPD2    C1 5295   0.953   0.215  10.176 -0.6885  0.4641 -0.0971
  350MPD2    C2 5296   0.949   0.167  10.304 -0.0791 -0.1952 -0.0460
  350MPD2    C3 5297   1.073   0.155  10.367 -0.7519 -0.1735 -0.0588
  350MPD2    C4 5298   1.185   0.225  10.321  0.3117 -0.5143 -0.1474
  350MPD2    C5 5299   1.180   0.286  10.195 -0.7637  0.1529  0.3321
  350MPD2     H 5300   0.859   0.116  10.337 -1.0200  2.3025  1.2217
  350MPD2    H1 5301   1.281   0.228  10.372  0.2076  0.5799 -0.0079
  350MPD2    H2 5302   1.091   0.305  10.023  0.4499  3.2034  0.9226
  350MPD2    H3 5303   1.270   0.323  10.147 -1.1526  1.7125  0.8250
  350MPD2     N 5304   1.075   0.080  10.495  0.6648  0.4105  0.3979
  350MPD2    H5 5305   0.984   0.047  10.525  2.0726 -0.9007  3.0972
  350MPD2    N1 5306   0.838   0.210  10.099 -0.2089  0.2007 -0.1931
  350MPD2    H7 5307   0.762   0.152  10.133 -1.6235  0.0230 -3.6590
  351TMC3    C1 5308   0.713   0.212   9.898 -0.7529  0.2384  0.2566
  351TMC3    C2 5309   0.745   0.124   9.803 -0.1430 -0.0955 -0.2800
  351TMC3    C3 5310   0.682   0.005   9.801 -0.1231 -0.7779  0.0845
  351TMC3    C4 5311   0.603   0.193   9.969 -0.5859  0.1311  1.1839
  351TMC3    C5 5312   0.534   0.074   9.961  0.5278  0.3811 -0.2525
  351TMC3    C6 5313   0.574   4.713   9.877 -0.6600 -0.0454  0.3751
  351TMC3     C 5314   0.827   0.266   9.971  0.7258  0.2869  0.0363
  351TMC3     O 5315   0.902   0.321   9.899 -0.0156 -0.4754  0.1468
  351TMC3     H 5316   0.833   0.140   9.741  0.3559  1.1118  0.7434
  351TMC3    H1 5317   0.559   0.262  10.041  1.0338  1.1708  1.1860
  351TMC3    H2 5318   0.525   4.617   9.888  1.7856 -0.8964  3.7801
  351TMC3    C7 5319   0.403   0.073  10.023  0.1584 -0.3890  0.2576
  351TMC3    C8 5320   0.741   4.645   9.711  0.2892 -0.3758  0.5012
  351TMC3    O1 5321   0.394   0.140  10.125  0.2867  0.1353  0.2075
  351TMC3    O2 5322   0.731   4.525   9.741 -0.1210  0.0933 -0.3704
  352MPD2     C 5323   4.640   2.164   0.835  0.2211  0.6621  0.3961
  352MPD2    C1 5324   4.536   2.143   0.924  0.4497  0.4288  0.6130
  352MPD2    C2 5325   4.501   2.012   0.955  0.1450  0.0503 -0.1952
  352MPD2    C3 5326   4.567   1.907   0.895  1.0621 -0.1238  0.4661
  352MPD2    C4 5327   4.663   1.936   0.797 -0.2520  0.1039 -0.3058
  352MPD2    C5 5328   4.709   2.063   0.776  0.0222 -0.1910 -0.4809
  352MPD2     H 5329   4.436   1.989   1.038  0.4136 -1.0521 -0.2965
  352MPD2    H1 5330   4.710   1.858   0.739 -2.4972 -0.0732 -1.9088
  352MPD2    H2 5331   4.670   2.263   0.802 -0.2906  0.6473 -0.1251
  352MPD2    H3 5332   0.053   2.082   0.709  0.0354 -0.2521 -0.4821
  352MPD2     N 5333   4.533   1.778   0.921  0.0641  0.3051 -0.4536
  352MPD2    H5 5334   4.605   1.712   0.891  0.6717  0.7275  0.0910
  352MPD2    N1 5335   4.470   2.255   0.974 -0.2951 -0.3424 -0.1840
  352MPD2    H7 5336   4.507   2.346   0.947 -0.1613 -0.6350 -0.9839
  353TMC3    C1 5337   4.413   1.590   0.988  0.0856  0.1854  0.8242
  353TMC3    C2 5338   4.528   1.512   0.971 -0.2042  0.1117  0.5294
  353TMC3    C3 5339   4.525   1.377   0.969  0.7189  0.1934  0.8764
  353TMC3    C4 5340   4.287   1.530   0.988  0.6264  1.1034 -0.0401
  353TMC3    C5 5341   4.288   1.396   0.981  1.0725 -0.0741 -0.4696
  353TMC3    C6 5342   4.400   1.317   0.976  0.1967 -0.3061 -0.1317
  353TMC3     C 5343   4.415   1.733   0.984  0.1881  0.1106 -0.3150
  353TMC3     O 5344   4.316   1.795   1.019 -0.3594  0.8752 -0.4612
  353TMC3     H 5345   4.624   1.559   0.985 -0.5594  0.8583  0.4889
  353TMC3    H1 5346   4.199   1.589   1.010 -0.5462 -0.9791  0.8572
  353TMC3    H2 5347   4.390   1.212   1.003  1.1002 -0.4069 -0.1702
  353TMC3    C7 5348   4.166   1.315   0.966  0.3467  0.3017 -0.5374
  353TMC3    C8 5349   4.644   1.293   0.968 -0.7006 -0.0050  0.3195
  353TMC3    O1 5350   4.171   1.209   0.902  0.2520  0.5075  0.6672
  353TMC3    O2 5351   0.008   1.339   1.024  0.1013 -0.3681 -0.8703
  354TMC3    C1 5352   1.197   3.201  13.506 -0.0848  0.4870 -0.1233
  354TMC3    C2 5353   1.107   3.273  13.440 -0.3241 -0.6377  0.2280
  354TMC3    C3 5354   1.125   3.292  13.305 -0.0011  0.4684 -0.6116
  354TMC3    C4 5355   1.310   3.154  13.448 -0.2327 -0.9432 -0.0074
  354TMC3    C5 5356   1.331   3.184  13.317 -0.4652 -0.4399  0.2233
  354TMC3    C6 5357   1.235   3.252  13.243 -0.4358  0.6534 -0.1853
  354TMC3     C 5358   1.161   3.163  13.642  0.0620  0.4725 -0.5820
  354TMC3     O 5359   1.051   3.199  13.684  0.1094  0.7804  0.2513
  354TMC3     H 5360   1.010   3.303  13.480  1.6461  3.4292  1.9732
  354TMC3    H1 5361   1.391   3.113  13.507  0.5156 -0.5740 -0.7743
  354TMC3    H2 5362   1.243   3.273  13.136  0.5680 -0.2541 -0.2882
  354TMC3    C7 5363   1.465   3.183  13.272 -0.3222 -0.0101 -0.1780
  354TMC3    C8 5364   1.028   3.356  13.216 -0.3967  1.3419 -0.3613
  354TMC3    O1 5365   1.549   3.162  13.360 -0.2140 -0.5824  0.1283
  354TMC3    O2 5366   1.023   3.326  13.099 -0.2131 -0.2160 -0.1021
  355MPD2     C 5367   1.324   4.139  11.910 -0.3836 -0.2008 -0.9091
  355MPD2    C1 5368   1.459   4.158  11.890  0.3241  0.3602  0.3054
  355MPD2    C2 5369   1.533   4.072  11.965  0.0337  0.3358 -1.0048
  355MPD2    C3 5370   1.484   3.994  12.067  0.1312  0.3271  0.5224
  355MPD2    C4 5371   1.349   3.988  12.086  0.4674 -0.0391  1.0471
  355MPD2    C5 5372   1.273   4.056  11.999  0.2784 -0.3550 -0.6683
  355MPD2     H 5373   1.639   4.073  11.942  0.1886  2.6899 -0.1126
  355MPD2    H1 5374   1.305   3.925  12.162  1.5622 -1.0075  0.8838
  355MPD2    H2 5375   1.246   4.186  11.851 -1.4973 -1.3892 -0.3906
  355MPD2    H3 5376   1.164   4.058  12.005  0.1565 -2.6170 -2.2446
  355MPD2     N 5377   1.568   3.914  12.149  0.0413  0.5309 -0.3621
  355MPD2    H5 5378   1.512   3.842  12.196 -2.9665  1.5893 -2.3325
  355MPD2    N1 5379   1.509   4.249  11.791 -0.6546 -0.2985 -0.1434
  355MPD2    H7 5380   1.447   4.319  11.754  1.0257  0.5963 -1.3090
  356TMC3    C1 5381   1.749   4.071  12.177 -0.1541  0.9002  0.1316
  356TMC3    C2 5382   1.857   4.116  12.106 -0.6386  0.3949  0.1358
  356TMC3    C3 5383   1.894   4.251  12.102 -0.7468 -0.1215  0.4467
  356TMC3    C4 5384   1.683   4.161  12.254 -0.3347 -0.5190 -0.3437
  356TMC3    C5 5385   1.727   4.292  12.255  0.1351  0.2064 -0.8969
  356TMC3    C6 5386   1.832   4.344  12.178 -0.0241 -0.4584  0.1422
  356TMC3     C 5387   1.704   3.935  12.170 -0.4268 -0.6088 -0.4420
  356TMC3     O 5388   1.784   3.848  12.201 -0.7373  0.0034 -0.7098
  356TMC3     H 5389   1.899   4.041  12.039  0.8237 -0.0328  1.5288
  356TMC3    H1 5390   1.595   4.124  12.305 -0.2027  1.1863  1.0926
  356TMC3    H2 5391   1.864   4.447  12.168 -1.0588 -0.3896 -2.3232
  356TMC3    C7 5392   1.634   4.378  12.318 -0.5156  0.3829  0.1021
  356TMC3    C8 5393   1.973   4.297  11.985 -0.3091  0.0526 -0.2284
  356TMC3    O1 5394   1.531   4.329  12.359 -0.2982 -0.1988 -0.4721
  356TMC3    O2 5395   2.065   4.226  11.948 -0.1040  0.6056 -0.4449
  357MPD2     C 5396   0.779   3.561   0.313  0.0691 -0.5405 -0.4415
  357MPD2    C1 5397   0.817   3.559   0.440  0.4813  0.4776 -0.5101
  357MPD2    C2 5398   0.719   3.546   0.540 -0.1652 -0.3745  0.8436
  357MPD2    C3 5399   0.586   3.537   0.501 -0.0618 -0.4078  0.0196
  357MPD2    C4 5400   0.559   3.543   0.369 -0.2120 -0.0672 -0.3247
  357MPD2    C5 5401   0.650   3.544   0.275 -0.6410 -0.7641  0.0325
  357MPD2     H 5402   0.749   3.546   0.644  1.0121  0.6657  0.5012
  357MPD2    H1 5403   0.460   3.560   0.327  0.5366 -1.2634 -2.5786
  357MPD2    H2 5404   0.855   3.566   0.236  0.1111  0.6964 -0.3149
  357MPD2    H3 5405   0.618   3.533   0.172 -0.1943 -1.6056 -0.0110
  357MPD2     N 5406   0.482   3.520   0.595  0.1971 -0.2712 -0.2845
  357MPD2    H5 5407   0.387   3.517   0.560 -0.2464 -2.1024  1.0968
  357MPD2    N1 5408   0.955   3.581   0.481 -0.1248 -0.3078 -0.3120
  357MPD2    H7 5409   1.027   3.590   0.409  1.1825  0.5079  1.1036
  358TMC3    C1 5410   1.144   3.617   0.610 -0.5696 -0.5431  0.3056
  358TMC3    C2 5411   1.225   3.578   0.497  0.5697  0.4583 -0.8441
  358TMC3    C3 5412   1.362   3.563   0.516  0.0728  0.1440 -0.7872
  358TMC3    C4 5413   1.200   3.646   0.732  0.5707  0.4699 -0.2335
  358TMC3    C5 5414   1.341   3.642   0.736  0.2365  0.3077 -0.0577
  358TMC3    C6 5415   1.415   3.585   0.640 -1.3893 -0.7110 -0.4218
  358TMC3     C 5416   1.003   3.589   0.611 -0.4408  0.2013 -0.1884
  358TMC3     O 5417   0.951   3.576   0.720 -0.1115 -0.2667  0.1000
  358TMC3     H 5418   1.189   3.560   0.396  1.6172 -0.3503 -1.0762
  358TMC3    H1 5419   1.142   3.675   0.819  0.5711 -2.8298  0.8779
  358TMC3    H2 5420   1.522   3.599   0.651 -1.4930 -1.8149  1.8592
  358TMC3    C7 5421   1.401   3.702   0.847 -0.1450 -0.0608  0.0903
  358TMC3    C8 5422   1.443   3.546   0.403  0.4311  0.1279  0.0901
  358TMC3    O1 5423   1.518   3.673   0.874 -0.2300 -0.1298  0.0726
  358TMC3    O2 5424   1.382   3.552   0.297 -0.3020  0.6808  0.1679
  359MPD2     C 5425   1.433   2.556  12.366 -0.2580  0.7407 -0.2265
  359MPD2    C1 5426   1.371   2.613  12.258 -0.2344  0.0073  0.5242
  359MPD2    C2 5427   1.249   2.556  12.209  0.0794 -0.4281 -0.5157
  359MPD2    C3 5428   1.190   2.452  12.275 -0.6347 -0.1329 -0.4838
  359MPD2    C4 5429   1.260   2.390  12.372  0.4778 -0.1097  0.3291
  359MPD2    C5 5430   1.375   2.442  12.418  0.3754 -0.4642  0.0440
  359MPD2     H 5431   1.217   2.605  12.117  0.5651  0.5411 -0.1727
  359MPD2    H1 5432   1.217   2.301  12.418  0.6814 -0.0428  0.6524
  359MPD2    H2 5433   1.524   2.590  12.415  1.0337 -0.6945 -1.6298
  359MPD2    H3 5434   1.419   2.401  12.508  0.0397  0.2550  0.5318
  359MPD2     N 5435   1.068   2.388  12.235 -0.4573  0.8763 -0.4800
  359MPD2    H5 5436   1.048   2.306  12.291 -0.7896  1.8252  0.7969
  359MPD2    N1 5437   1.422   2.734  12.193  0.1767  0.3490 -0.8523
  359MPD2    H7 5438   1.354   2.789  12.142 -1.3435 -1.6148 -0.9608
  360TMC3    C1 5439   1.571   2.898  12.109  0.0039  0.2051 -0.3008
  360TMC3    C2 5440   1.678   2.981  12.132 -0.1834 -0.0896 -0.1429
  360TMC3    C3 5441   1.698   3.081  12.040  0.1589  0.3984 -0.0904
  360TMC3    C4 5442   1.488   2.912  12.002 -0.2268 -0.0857  0.1363
  360TMC3    C5 5443   1.518   3.004  11.913  0.2454 -0.6373  0.6208
  360TMC3    C6 5444   1.625   3.090  11.925 -0.2085 -0.1730  0.0306
  360TMC3     C 5445   1.553   2.784  12.194  0.3850 -0.1181 -0.1863
  360TMC3     O 5446   1.649   2.744  12.263  0.1553  0.1224  0.3831
  360TMC3     H 5447   1.754   2.957  12.205 -1.5809 -0.4532  1.1864
  360TMC3    H1 5448   1.415   2.836  11.974  0.2605  0.0359 -1.4601
  360TMC3    H2 5449   1.646   3.170  11.855 -0.4936 -0.1538 -0.0306
  360TMC3    C7 5450   1.476   2.985  11.778 -0.3288  0.2032  0.2787
  360TMC3    C8 5451   1.836   3.125  12.014  0.2059 -0.5957  0.4821
  360TMC3    O1 5452   1.551   3.029  11.695 -0.0497  0.7609 -0.1098
  360TMC3    O2 5453   1.883   3.199  12.097  0.3916 -0.1245  0.0595
  361MPD2     C 5454   3.547   2.111  17.126  0.2144 -0.2302 -0.7201
  361MPD2    C1 5455   3.514   2.012  17.034  0.6074 -0.0919  0.1048
  361MPD2    C2 5456   3.592   1.891  17.017  0.3987  0.3536  0.2489
  361MPD2    C3 5457   3.704   1.871  17.097  0.5504  0.2038  0.0567
  361MPD2    C4 5458   3.744   1.976  17.180  0.1772 -0.1263  0.4328
  361MPD2    C5 5459   3.665   2.092  17.190  0.6267 -0.1418 -0.1829
  361MPD2     H 5460   3.554   1.809  16.957  3.1016  0.9051 -2.2192
  361MPD2    H1 5461   3.831   1.965  17.243 -0.7337 -0.7334  1.5997
  361MPD2    H2 5462   3.491   2.203  17.140  2.5433  1.0380  0.2897
  361MPD2    H3 5463   3.697   2.159  17.269 -2.9945  0.4141  0.8007
  361MPD2     N 5464   3.774   1.746  17.104  0.6305 -0.3150  0.5891
  361MPD2    H5 5465   3.841   1.738  17.179 -1.5344 -0.3918  2.5319
  361MPD2    N1 5466   3.394   2.039  16.966 -0.2913 -0.4030 -0.0661
  361MPD2    H7 5467   3.344   2.123  16.990  1.3753  0.5564  0.0671
  362TMC3    C1 5468   3.234   2.033  16.797 -0.4011  0.1899 -0.6405
  362TMC3    C2 5469   3.110   2.007  16.851  0.8282  0.3318 -0.7624
  362TMC3    C3 5470   3.003   2.008  16.763  0.1535  0.0285 -0.5765
  362TMC3    C4 5471   3.246   2.066  16.662  0.2344 -0.3590 -0.8561
  362TMC3    C5 5472   3.137   2.072  16.578  0.3339  0.5663  0.1860
  362TMC3    C6 5473   3.009   2.040  16.625 -0.0228  0.5680  0.4068
  362TMC3     C 5474   3.349   1.967  16.851  0.1639  0.2713 -0.2615
  362TMC3     O 5475   3.396   1.875  16.787  0.0914  0.5861 -0.0403
  362TMC3     H 5476   3.096   1.979  16.955  2.4568 -0.0306 -0.6425
  362TMC3    H1 5477   3.347   2.081  16.625  1.7235 -0.4855  3.1536
  362TMC3    H2 5478   2.927   2.031  16.555  1.4697  0.5142 -1.3503
  362TMC3    C7 5479   3.168   2.116  16.441 -0.2202 -0.4258 -0.5310
  362TMC3    C8 5480   2.872   1.997  16.821  0.1296  0.2587 -0.2560
  362TMC3    O1 5481   3.262   2.194  16.422  0.4849 -0.1911 -0.0624
  362TMC3    O2 5482   2.839   1.895  16.872  0.9871  0.2527  0.0021
  363TMC3    C1 5483   1.532   4.125   9.656  0.3220 -0.2906  0.7725
  363TMC3    C2 5484   1.462   4.028   9.718 -0.8619 -0.3518 -0.0672
  363TMC3    C3 5485   1.329   4.052   9.730  0.1058 -0.7308 -0.2632
  363TMC3    C4 5486   1.479   4.242   9.608  0.5915  0.0232  1.0067
  363TMC3    C5 5487   1.348   4.263   9.629 -0.2220  0.0918  0.4051
  363TMC3    C6 5488   1.270   4.167   9.686  0.4534  0.6418 -0.3754
  363TMC3     C 5489   1.678   4.097   9.646  0.1240 -0.3252 -0.4283
  363TMC3     O 5490   1.709   3.978   9.629  0.1191  0.0201  0.1257
  363TMC3     H 5491   1.515   3.940   9.750  1.0034  1.4178  1.6916
  363TMC3    H1 5492   1.538   4.322   9.565  0.8114  0.1697  1.5813
  363TMC3    H2 5493   1.168   4.189   9.715  0.5378 -0.1803  0.5522
  363TMC3    C7 5494   1.293   4.387   9.593  0.1255  0.5112  0.1671
  363TMC3    C8 5495   1.236   3.957   9.791 -0.0244  0.6214  0.3219
  363TMC3    O1 5496   1.340   4.441   9.493 -0.3137 -0.6016  0.3675
  363TMC3    O2 5497   1.124   3.997   9.825  0.6099  0.3883 -0.2168
  364MPD2     C 5498   0.309   4.277  11.014  0.0073 -0.3510  0.4628
  364MPD2    C1 5499   0.305   4.217  10.890 -0.0236 -0.2242 -0.5098
  364MPD2    C2 5500   0.330   4.082  10.886  0.1037 -0.3142  0.7635
  364MPD2    C3 5501   0.385   4.016  10.994 -0.0342  0.3762 -0.0483
  364MPD2    C4 5502   0.386   4.076  11.116  0.4844  0.0419 -0.0059
  364MPD2    C5 5503   0.347   4.204  11.124 -0.9639 -0.2599 -0.3035
  364MPD2     H 5504   0.351   4.041  10.788 -3.5839  1.1162 -0.6450
  364MPD2    H1 5505   0.420   4.021  11.203  2.5226 -1.8714 -2.0328
  364MPD2    H2 5506   0.277   4.379  11.033 -1.2243 -0.7124  0.3486
  364MPD2    H3 5507   0.344   4.254  11.220  2.7500 -0.6940  0.0420
  364MPD2     N 5508   0.455   3.898  10.972  0.6398 -0.0746 -0.2229
  364MPD2    H5 5509   0.508   3.863  11.052 -2.3503 -2.4687  0.7263
  364MPD2    N1 5510   0.297   4.300  10.776  0.5470  0.4171 -0.6558
  364MPD2    H7 5511   0.277   4.398  10.794  0.0586  0.7242 -2.8971
  365TMC3    C1 5512   0.325   4.368  10.548  0.0498  0.4747  0.0983
  365TMC3    C2 5513   0.384   4.346  10.431  0.4211  0.3586 -0.4046
  365TMC3    C3 5514   0.406   4.458  10.351  0.4289 -0.5790  0.0088
  365TMC3    C4 5515   0.270   4.491  10.585 -0.0035  0.8897  0.0067
  365TMC3    C5 5516   0.291   4.601  10.503 -0.3175 -0.3384  0.6919
  365TMC3    C6 5517   0.368   4.586  10.388 -0.4713  0.0945 -0.2142
  365TMC3     C 5518   0.330   4.263  10.649 -0.4124  0.0542  0.5135
  365TMC3     O 5519   0.372   4.157  10.608  0.0716 -0.0921  0.9616
  365TMC3     H 5520   0.422   4.248  10.404 -1.8896 -0.8918  0.8860
  365TMC3    H1 5521   0.206   4.501  10.672  2.1448  1.9096  1.4877
  365TMC3    H2 5522   0.407   4.661  10.320 -0.9995 -0.5721 -1.2524
  365TMC3    C7 5523   0.267   4.734  10.541  0.1977 -0.2457  0.4130
  365TMC3    C8 5524   0.449   4.435  10.206  0.1035 -0.5800 -0.1804
  365TMC3    O1 5525   0.326   0.083  10.484 -0.0709  0.1054  0.0619
  365TMC3    O2 5526   0.529   4.521  10.161  0.6037  0.0449  0.4217
  366MPD2     C 5527   3.585   4.691  15.186  0.7036 -0.1917 -0.0792
  366MPD2    C1 5528   3.663   0.056  15.142 -0.3786 -0.0988  0.0955
  366MPD2    C2 5529   3.779   0.029  15.068  0.4774 -0.5103  0.2678
  366MPD2    C3 5530   3.817   4.635  15.044  0.3195 -0.5702 -0.5368
  366MPD2    C4 5531   3.739   4.535  15.096 -0.6649 -0.1377 -0.3461
  366MPD2    C5 5532   3.619   4.561  15.158  0.5828  1.0509 -0.6476
  366MPD2     H 5533   3.829   0.106  15.011 -0.0285 -1.8265 -1.9477
  366MPD2    H1 5534   3.764   4.432  15.071 -0.1122  0.0471 -0.5287
  366MPD2    H2 5535   3.494   4.709  15.241  1.5581 -0.6318  1.4845
  366MPD2    H3 5536   3.549   4.481  15.179  2.9006 -0.5051  1.1416
  366MPD2     N 5537   3.929   4.616  14.964  0.7078  0.2640  0.0309
  366MPD2    H5 5538   3.960   4.700  14.917 -0.1894  0.4649 -0.2016
  366MPD2    N1 5539   3.632   0.189  15.166  0.1757  0.1645  0.1199
  366MPD2    H7 5540   3.708   0.257  15.159  1.3407 -1.1265  0.3837
  367TMC3    C1 5541   3.520   0.382  15.172  0.0573 -0.2078  0.0069
  367TMC3    C2 5542   3.599   0.444  15.257 -0.8667  0.1189 -0.1216
  367TMC3    C3 5543   3.614   0.580  15.247 -0.0218 -0.0982  0.3439
  367TMC3    C4 5544   3.459   0.455  15.076  0.8151 -0.8818  0.1458
  367TMC3    C5 5545   3.472   0.587  15.062 -0.1469  0.3794  0.0917
  367TMC3    C6 5546   3.555   0.658  15.153 -0.0816  0.6776 -0.3275
  367TMC3     C 5547   3.508   0.238  15.162  0.1658 -0.0914 -0.0454
  367TMC3     O 5548   3.408   0.186  15.120  0.2747 -0.3869  0.3589
  367TMC3     H 5549   3.666   0.379  15.311 -1.2950  1.0886  1.5745
  367TMC3    H1 5550   3.406   0.392  15.005  0.5664 -1.1655  0.5801
  367TMC3    H2 5551   3.566   0.765  15.148  0.6350  0.5867 -0.7112
  367TMC3    C7 5552   3.401   0.658  14.959 -0.1253 -0.8293 -0.0757
  367TMC3    C8 5553   3.713   0.635  15.332  0.4116  0.0826  0.5198
  367TMC3    O1 5554   3.439   0.775  14.933  0.2272 -0.2381  0.1970
  367TMC3    O2 5555   3.711   0.592  15.444 -0.2732  0.1230 -0.2245
  368MPD2     C 5556   4.575   1.546  13.172  0.0254  0.0026  0.1811
  368MPD2    C1 5557   4.598   1.672  13.116  1.0787 -0.3165  0.7331
  368MPD2    C2 5558   4.724   1.724  13.112 -0.4487 -0.4722 -0.0815
  368MPD2    C3 5559   0.093   1.664  13.176  0.6831 -0.0168 -0.1562
  368MPD2    C4 5560   0.067   1.547  13.247 -0.2020 -0.3997  0.9140
  368MPD2    C5 5561   4.680   1.489  13.240 -1.2644 -0.3656 -0.3807
  368MPD2     H 5562   0.005   1.820  13.067  0.6022 -0.7854 -0.3068
  368MPD2    H1 5563   0.147   1.515  13.312  0.0003  0.1679  0.9380
  368MPD2    H2 5564   4.478   1.499  13.177  0.0870 -0.2973 -1.5423
  368MPD2    H3 5565   4.665   1.402  13.303 -2.3564  0.5327  0.6093
  368MPD2     N 5566   0.230   1.708  13.181 -0.9545 -0.4666 -0.2192
  368MPD2    H5 5567   0.302   1.651  13.226 -1.0266 -1.2191 -1.0468
  368MPD2    N1 5568   4.499   1.735  13.038  0.4970  0.0005 -0.1636
  368MPD2    H7 5569   4.425   1.672  13.005  0.0740  1.3529 -1.7931
  369TMC3    C1 5570   4.383   1.887  12.909  0.5416  0.5447  1.0103
  369TMC3    C2 5571   4.408   1.985  12.819 -0.4428 -0.2414  0.4036
  369TMC3    C3 5572   4.298   2.061  12.780 -0.4142  0.4592 -0.5607
  369TMC3    C4 5573   4.255   1.879  12.967  0.4696 -0.6504  0.3033
  369TMC3    C5 5574   4.156   1.960  12.930  0.5265  0.3267  0.1148
  369TMC3    C6 5575   4.168   2.054  12.831  0.1478 -0.1458 -0.3270
  369TMC3     C 5576   4.497   1.863  12.991  0.4436  0.7357 -0.0843
  369TMC3     O 5577   4.560   1.962  13.025 -0.2317 -0.0983 -0.0344
  369TMC3     H 5578   4.499   1.978  12.761 -2.2788  1.2702 -2.6380
  369TMC3    H1 5579   4.240   1.809  13.049  1.0409  1.0754  1.8757
  369TMC3    H2 5580   4.081   2.114  12.807  0.9773  0.9347 -0.6314
  369TMC3    C7 5581   4.035   1.960  13.006  0.1649  0.4159 -0.6198
  369TMC3    C8 5582   4.339   2.164  12.683 -0.1140 -0.1670 -0.0573
  369TMC3    O1 5583   4.007   1.854  13.063  0.0073 -0.5410  0.4765
  369TMC3    O2 5584   4.440   2.145  12.619  0.3699 -0.1778  0.4775
  370TMC3    C1 5585   4.506   2.698  16.231 -0.6535  0.7191 -1.3540
  370TMC3    C2 5586   4.431   2.678  16.348 -0.1659  0.3344 -0.3619
  370TMC3    C3 5587   4.337   2.577  16.346  0.7003  0.7991 -0.8871
  370TMC3    C4 5588   4.497   2.616  16.126  0.7635 -0.3662 -1.0254
  370TMC3    C5 5589   4.398   2.517  16.126 -0.0478 -0.1039 -0.3207
  370TMC3    C6 5590   4.316   2.501  16.234 -0.3898 -0.2040  0.5300
  370TMC3     C 5591   4.636   2.769  16.242 -0.8899  0.8237  0.7590
  370TMC3     O 5592   4.672   2.784  16.358  0.4828 -0.7680  1.1281
  370TMC3     H 5593   4.455   2.736  16.436 -0.2361  0.9782 -0.7691
  370TMC3    H1 5594   4.564   2.628  16.042  0.5801 -1.1209 -1.2801
  370TMC3    H2 5595   4.235   2.430  16.235  1.2533 -2.0910 -0.2416
  370TMC3    C7 5596   4.388   2.404  16.037  0.3372 -0.0827 -0.1883
  370TMC3    C8 5597   4.321   2.502  16.464  0.0659 -0.0892 -0.1623
  370TMC3    O1 5598   4.277   2.356  16.013  1.6451 -0.8750 -0.7600
  370TMC3    O2 5599   4.343   2.383  16.456  0.0821 -0.2786  0.0271
  371TMC3    C1 5600   0.810   0.956  15.375  0.0642  0.1339  0.7408
  371TMC3    C2 5601   0.698   0.933  15.465  0.6559  0.8222  0.0296
  371TMC3    C3 5602   0.616   1.035  15.499 -0.4983 -0.6669 -0.6133
  371TMC3    C4 5603   0.852   1.083  15.342  0.1554 -0.1069  0.2735
  371TMC3    C5 5604   0.770   1.180  15.396 -0.0023 -0.5055 -0.1395
  371TMC3    C6 5605   0.650   1.161  15.452 -0.7918  0.4474  0.9732
  371TMC3     C 5606   0.900   0.843  15.331 -0.4454 -0.2585 -0.0156
  371TMC3     O 5607   0.981   0.863  15.240  0.0737 -0.1177  0.4214
  371TMC3     H 5608   0.683   0.831  15.501  0.5669  0.7634 -0.1738
  371TMC3    H1 5609   0.945   1.089  15.288 -0.2969 -3.3433 -0.8985
  371TMC3    H2 5610   0.582   1.244  15.465 -1.0497  0.7126 -2.0498
  371TMC3    C7 5611   0.817   1.317  15.394 -0.6836 -0.1860 -0.1112
  371TMC3    C8 5612   0.566   1.026  15.635  0.2356  0.4457 -0.0784
  371TMC3    O1 5613   0.737   1.406  15.424  0.1403 -0.3596 -0.4287
  371TMC3    O2 5614   0.508   0.925  15.670  0.0449 -0.2006 -0.4326
  372MPD2     C 5615   4.466   1.626  13.544 -0.0907 -0.3961  0.8219
  372MPD2    C1 5616   4.595   1.615  13.588 -0.0780  0.7120 -0.1073
  372MPD2    C2 5617   4.624   1.516  13.683  0.6281  0.4433 -0.2297
  372MPD2    C3 5618   4.521   1.432  13.732  0.0536  0.2246 -0.1825
  372MPD2    C4 5619   4.391   1.452  13.685  0.4667 -0.2450 -0.4296
  372MPD2    C5 5620   4.367   1.556  13.594 -0.7929  0.3382  0.9121
  372MPD2     H 5621   4.729   1.503  13.704  0.5330 -0.1261 -0.1007
  372MPD2    H1 5622   4.307   1.394  13.721  1.7703 -0.7942  1.7818
  372MPD2    H2 5623   4.433   1.703  13.476  0.7611 -0.1942  0.6396
  372MPD2    H3 5624   4.266   1.565  13.557  0.1224  2.6282 -1.0151
  372MPD2     N 5625   4.558   1.342  13.826 -0.4332  0.4924 -0.4977
  372MPD2    H5 5626   4.657   1.322  13.828 -0.3060  1.1168 -0.3327
  372MPD2    N1 5627   4.705   1.700  13.546 -0.4599  0.1271  0.0050
  372MPD2    H7 5628   0.063   1.670  13.553 -1.3351 -3.3175 -2.6749
  373TMC3    C1 5629   4.558   1.172  13.979 -0.5953  0.6764 -0.5543
  373TMC3    C2 5630   4.537   1.157  14.113  0.4801  0.7633  0.0644
  373TMC3    C3 5631   4.598   1.052  14.178  0.3843 -0.2847  1.1964
  373TMC3    C4 5632   4.652   1.101  13.910  0.4618  0.1776 -0.0385
  373TMC3    C5 5633   4.717   1.008  13.984  0.2207 -0.1169 -0.8388
  373TMC3    C6 5634   4.695   0.974  14.114  0.7401  0.1656  0.7392
  373TMC3     C 5635   4.478   1.266  13.902 -0.1649 -0.2837 -1.0702
  373TMC3     O 5636   4.369   1.300  13.952  0.0955  0.2550 -0.2785
  373TMC3     H 5637   4.463   1.225  14.154 -0.4738 -0.9638  1.2326
  373TMC3    H1 5638   4.642   1.097  13.802  2.6873  0.8342 -0.2669
  373TMC3    H2 5639   0.013   0.901  14.171  1.3953 -0.9124 -1.3034
  373TMC3    C7 5640   0.065   0.928  13.900  0.5076  0.1866 -0.1804
  373TMC3    C8 5641   4.630   1.081  14.316 -0.2231  0.7178  0.3560
  373TMC3    O1 5642   0.150   0.984  13.832 -0.2672 -0.1477 -0.2992
  373TMC3    O2 5643   4.732   1.026  14.360 -0.5741  0.0927  0.0319
  374TMC3    C1 5644   0.088   2.848   9.834  0.4655 -0.0282  0.0274
  374TMC3    C2 5645   0.173   2.897   9.734 -0.0857  0.4023 -0.2377
  374TMC3    C3 5646   0.239   2.813   9.652  0.5160 -0.4943  0.3755
  374TMC3    C4 5647   0.078   2.714   9.859  0.1596  0.1512 -0.4123
  374TMC3    C5 5648   0.157   2.631   9.780 -0.2001  0.3539  0.2696
  374TMC3    C6 5649   0.240   2.677   9.684 -0.3261  0.0594 -0.0452
  374TMC3     C 5650   4.730   2.938   9.900  0.0435 -0.4401  0.6975
  374TMC3     O 5651   4.654   2.880   9.969  0.1280  0.1323 -0.2673
  374TMC3     H 5652   0.188   3.003   9.718 -0.3973  0.1996 -1.8854
  374TMC3    H1 5653   0.006   2.675   9.929 -0.9805  2.5735 -0.2392
  374TMC3    H2 5654   0.278   2.598   9.621 -0.1992  0.9110 -1.0337
  374TMC3    C7 5655   0.121   2.488   9.785 -0.3717  0.6261  0.9836
  374TMC3    C8 5656   0.368   2.859   9.616 -1.0237  0.2472 -0.3207
  374TMC3    O1 5657   0.215   2.413   9.764  0.0929  0.2117 -0.0624
  374TMC3    O2 5658   0.376   2.961   9.547 -0.4283 -0.0896 -0.0756
  375MPD2     C 5659   1.426   3.127  16.503 -1.0037  0.0371 -0.0537
  375MPD2    C1 5660   1.309   3.066  16.461 -0.7379 -0.4619 -0.2899
  375MPD2    C2 5661   1.317   2.979  16.343 -0.0016  0.3144 -0.1641
  375MPD2    C3 5662   1.440   2.955  16.282  0.2359  0.1380 -0.6716
  375MPD2    C4 5663   1.551   3.015  16.333  0.2940  0.0418 -0.5249
  375MPD2    C5 5664   1.541   3.098  16.437  0.1680 -0.4950 -0.1957
  375MPD2     H 5665   1.231   2.921  16.313  0.5706 -0.9127  0.5335
  375MPD2    H1 5666   1.650   3.006  16.291  0.0361 -1.9851 -0.7163
  375MPD2    H2 5667   1.438   3.211  16.570 -1.1371 -0.3942  0.5051
  375MPD2    H3 5668   1.628   3.156  16.466 -0.4005 -0.1667  0.8527
  375MPD2     N 5669   1.458   2.866  16.171  0.4351  0.3557 -0.6506
  375MPD2    H5 5670   1.553   2.837  16.154  0.3454 -1.7324  2.3660
  375MPD2    N1 5671   1.185   3.091  16.527 -0.5123  0.4753  0.2030
  375MPD2    H7 5672   1.102   3.068  16.474 -1.4606 -1.9695  2.7110
  376TMC3    C1 5673   1.409   2.697  16.025  0.3304 -0.0989 -0.3154
  376TMC3    C2 5674   1.518   2.628  16.070  0.3650 -0.1734 -0.4082
  376TMC3    C3 5675   1.590   2.552  15.981 -0.1094  0.4537  0.3139
  376TMC3    C4 5676   1.380   2.694  15.893 -0.1522  0.0619 -0.1429
  376TMC3    C5 5677   1.459   2.625  15.811  0.2107  0.5506 -0.5375
  376TMC3    C6 5678   1.567   2.551  15.849 -0.0564 -0.3935  0.2698
  376TMC3     C 5679   1.355   2.811  16.092 -0.4643  0.5557  0.1762
  376TMC3     O 5680   1.234   2.843  16.078 -0.0469 -0.5724  0.0467
  376TMC3     H 5681   1.543   2.628  16.175  0.9022  0.1904 -0.5316
  376TMC3    H1 5682   1.308   2.766  15.857  0.0545  0.4782  0.2638
  376TMC3    H2 5683   1.647   2.524  15.781 -1.3838  0.0658 -1.4811
  376TMC3    C7 5684   1.427   2.615  15.670 -0.4946  0.0575 -0.0282
  376TMC3    C8 5685   1.727   2.529  16.018 -0.1270 -0.2322  0.0217
  376TMC3    O1 5686   1.519   2.599  15.587  0.2669  0.3195  0.7292
  376TMC3    O2 5687   1.807   2.596  15.957  0.6326  0.0113  0.1028
  377MPD2     C 5688   4.186   2.171  12.334 -0.7707 -0.0870 -0.0781
  377MPD2    C1 5689   4.106   2.282  12.340  0.1296  0.3156 -0.6584
  377MPD2    C2 5690   4.006   2.282  12.432 -0.6483 -0.4979 -0.1348
  377MPD2    C3 5691   3.974   2.170  12.509 -0.2923  0.6355  0.1752
  377MPD2    C4 5692   4.051   2.060  12.497 -0.3583  0.0524 -0.4158
  377MPD2    C5 5693   4.161   2.064  12.416  0.1937 -0.3168 -0.6733
  377MPD2     H 5694   3.943   2.370  12.426  0.9376  0.6532  0.3728
  377MPD2    H1 5695   4.037   1.981  12.569  1.7457  1.0491  1.1096
  377MPD2    H2 5696   4.280   2.155  12.284  0.1760  1.1313  1.3018
  377MPD2    H3 5697   4.240   1.989  12.413  0.6619  0.1272  0.6338
  377MPD2     N 5698   3.862   2.161  12.599 -0.6097  0.4942  0.8252
  377MPD2    H5 5699   3.833   2.069  12.630 -1.3741  1.2569  2.3768
  377MPD2    N1 5700   4.139   2.392  12.258  0.6027  0.2983 -0.5586
  377MPD2    H7 5701   4.227   2.375  12.212  0.3907 -0.9380 -0.5117
  378TMC3    C1 5702   4.043   2.665  11.906 -0.4673  0.2276  0.5327
  378TMC3    C2 5703   4.002   2.627  12.032 -0.6084  0.0696 -0.8663
  378TMC3    C3 5704   4.104   2.580  12.116 -0.3780 -0.5374 -0.1226
  378TMC3    C4 5705   4.174   2.668  11.860  0.6884  0.1920  0.6190
  378TMC3    C5 5706   4.270   2.619  11.949 -0.5935  0.2807 -0.0636
  378TMC3    C6 5707   4.233   2.573  12.073  0.1759 -0.1745  0.0347
  378TMC3     C 5708   3.939   2.685  11.814  0.6886  0.1793  0.0657
  378TMC3     O 5709   3.823   2.697  11.856  0.5346  0.5673  0.3902
  378TMC3     H 5710   3.897   2.623  12.060 -0.2564  0.3858  0.4981
  378TMC3    H1 5711   4.195   2.716  11.766 -1.0199  1.0827  0.6888
  378TMC3    H2 5712   4.311   2.522  12.129  0.6285  1.1027  0.5599
  378TMC3    C7 5713   4.388   2.562  11.897  0.0094  0.5609 -0.4107
  378TMC3    C8 5714   4.066   2.508  12.240 -0.6252 -0.1423 -0.1083
  378TMC3    O1 5715   4.458   2.507  11.978  0.0220 -0.6278  0.4513
  378TMC3    O2 5716   3.953   2.534  12.285  0.0710  0.0334  0.3602
  379MPD2     C 5717   0.010   0.903  16.063  0.2678 -0.4762 -0.7943
  379MPD2    C1 5718   4.697   0.779  16.088  0.5108 -0.6167 -0.0849
  379MPD2    C2 5719   0.039   0.667  16.122  0.0363  0.2646 -0.3050
  379MPD2    C3 5720   0.181   0.685  16.143  0.0340  0.2441 -0.0074
  379MPD2    C4 5721   0.230   0.812  16.111 -0.2004 -0.2320  0.4337
  379MPD2    C5 5722   0.151   0.912  16.069 -0.6577  0.1493 -0.4642
  379MPD2     H 5723   4.738   0.566  16.130  1.1586 -0.1092  0.5533
  379MPD2    H1 5724   0.334   0.838  16.094  0.2648 -0.5633  2.8673
  379MPD2    H2 5725   4.684   0.986  16.036  0.9598  0.2160 -0.3227
  379MPD2    H3 5726   0.202   1.000  16.031 -0.2123  0.3034  0.4675
  379MPD2     N 5727   0.273   0.585  16.195 -0.1991  0.3009  0.1358
  379MPD2    H5 5728   0.374   0.595  16.188 -0.2212  1.4409  1.3689
  379MPD2    N1 5729   4.560   0.766  16.071  0.5263  0.2063 -0.1154
  379MPD2    H7 5730   4.509   0.835  16.018  1.9156 -0.2039 -1.9840
  380TMC3    C1 5731   4.374   0.625  16.013  0.0126 -0.0484 -0.1773
  380TMC3    C2 5732   4.347   0.493  15.998 -0.3357  0.6716  0.6096
  380TMC3    C3 5733   4.314   0.441  15.873  0.3048  0.2492 -0.2332
  380TMC3    C4 5734   4.347   0.714  15.913 -0.2635  0.3311 -0.0740
  380TMC3    C5 5735   4.286   0.655  15.800 -0.2729 -0.5103  0.2211
  380TMC3    C6 5736   4.273   0.524  15.773 -0.0648  0.7772  0.2713
  380TMC3     C 5737   4.488   0.651  16.104  0.1272 -0.5590  0.3322
  380TMC3     O 5738   4.514   0.561  16.185 -0.1439  0.5965 -0.6014
  380TMC3     H 5739   4.354   0.420  16.077  1.8100 -0.1230 -0.3022
  380TMC3    H1 5740   4.342   0.818  15.943 -1.0120  0.2609  0.0417
  380TMC3    H2 5741   4.254   0.486  15.674 -0.6991  1.7069  0.0389
  380TMC3    C7 5742   4.266   0.744  15.686  0.5394 -0.2156 -0.1439
  380TMC3    C8 5743   4.404   0.352  15.811  0.0188 -0.7203  0.0891
  380TMC3    O1 5744   4.316   0.858  15.702  0.7859  0.3573 -0.0271
  380TMC3    O2 5745   4.416   0.341  15.688  0.6257  0.2461  0.3589
  381TMC3    C1 5746   4.365   1.883  16.271 -0.1053 -0.7505 -0.7355
  381TMC3    C2 5747   4.414   2.003  16.230 -0.1753  0.2068  0.8192
  381TMC3    C3 5748   4.435   2.094  16.334 -0.1584  0.3496  0.2857
  381TMC3    C4 5749   4.322   1.856  16.397  0.4084  0.8532  0.1948
  381TMC3    C5 5750   4.334   1.955  16.489  1.0930 -0.5568 -0.1951
  381TMC3    C6 5751   4.397   2.069  16.464 -0.2817  0.4266 -0.2819
  381TMC3     C 5752   4.314   1.783  16.178  0.3642 -0.5167  0.2670
  381TMC3     O 5753   4.327   1.669  16.210  0.4721  0.2129  0.3857
  381TMC3     H 5754   4.448   2.035  16.132 -1.8024  0.9192  0.4888
  381TMC3    H1 5755   4.302   1.751  16.416  1.5351  0.8623  1.4772
  381TMC3    H2 5756   4.439   2.126  16.547 -2.0099  0.8526  0.2951
  381TMC3    C7 5757   4.315   1.915  16.626  0.1314  0.4807 -0.1673
  381TMC3    C8 5758   4.563   2.160  16.315  0.1296  0.0936 -0.2017
  381TMC3    O1 5759   4.333   1.796  16.636  0.0361  0.0189 -0.2439
  381TMC3    O2 5760   4.643   2.091  16.254  1.1603 -0.3915 -0.0942
  382MPD2     C 5761   3.778   4.463  16.611  0.2430  0.1371  0.4031
  382MPD2    C1 5762   3.724   4.511  16.728 -0.3902 -0.3382  0.0798
  382MPD2    C2 5763   3.674   4.423  16.821 -0.6338  0.3575  1.0783
  382MPD2    C3 5764   3.675   4.286  16.793 -0.2817  0.3730  0.1716
  382MPD2    C4 5765   3.738   4.237  16.682 -0.4526  0.4295  0.4226
  382MPD2    C5 5766   3.791   4.324  16.595  0.0439 -0.0513  0.2515
  382MPD2     H 5767   3.637   4.463  16.915  1.8525  1.3820  1.6058
  382MPD2    H1 5768   3.750   4.131  16.663  2.0037  0.4926  1.6680
  382MPD2    H2 5769   3.824   4.528  16.537  0.0936 -1.2159 -0.8747
  382MPD2    H3 5770   3.845   4.292  16.507 -1.4443 -3.5953  0.6235
  382MPD2     N 5771   3.628   4.187  16.878  0.2447 -0.5212  0.8488
  382MPD2    H5 5772   3.650   4.090  16.861 -0.1517 -0.6265  0.9325
  382MPD2    N1 5773   3.722   4.649  16.760  0.0600  0.0803 -0.2225
  382MPD2    H7 5774   3.655   4.675  16.832 -1.0731  2.0736 -1.9850
  383TMC3    C1 5775   3.499   4.095  17.047 -0.8891 -0.4486 -0.5145
  383TMC3    C2 5776   3.451   4.010  16.955  0.0074  0.1035  0.0457
  383TMC3    C3 5777   3.431   3.883  16.995  0.3344 -0.5428 -0.2158
  383TMC3    C4 5778   3.551   4.064  17.166 -0.1906  0.3512 -0.5600
  383TMC3    C5 5779   3.519   3.932  17.204  0.3366 -0.0270 -0.5829
  383TMC3    C6 5780   3.454   3.845  17.121  0.0705 -0.7898  0.3045
  383TMC3     C 5781   3.548   4.220  16.990 -0.3358 -0.0073 -0.0574
  383TMC3     O 5782   3.517   4.324  17.043 -0.2785  0.2844 -0.0090
  383TMC3     H 5783   3.419   4.056  16.862 -0.1605  2.8448  1.4668
  383TMC3    H1 5784   3.581   4.144  17.232  0.9527  0.2923 -1.0024
  383TMC3    H2 5785   3.419   3.751  17.162 -0.1719 -2.3230 -3.4596
  383TMC3    C7 5786   3.492   3.900  17.346  0.8544  0.0145 -0.1618
  383TMC3    C8 5787   3.338   3.809  16.912  0.4339 -0.9261  0.4013
  383TMC3    O1 5788   3.403   3.821  17.380  0.3407 -0.3709  0.0228
  383TMC3    O2 5789   3.271   3.863  16.822 -0.0516 -0.7682 -0.4062
  384MPD2     C 5790   0.244   0.829  12.567  0.1257  0.4980  0.3127
  384MPD2    C1 5791   0.222   0.696  12.549  0.1633  0.7327  0.6988
  384MPD2    C2 5792   0.243   0.637  12.432 -0.2566  0.1146 -0.1507
  384MPD2    C3 5793   0.291   0.712  12.328 -0.5617 -0.1905 -0.3545
  384MPD2    C4 5794   0.323   0.845  12.343 -0.0426 -0.8819  0.7001
  384MPD2    C5 5795   0.298   0.902  12.466  0.1572  0.2527 -0.3987
  384MPD2     H 5796   0.216   0.532  12.424 -0.7338  0.2093  0.1975
  384MPD2    H1 5797   0.362   0.906  12.262 -1.9083 -1.0533 -0.3401
  384MPD2    H2 5798   0.214   0.885  12.656 -0.7462 -0.1250  0.4115
  384MPD2    H3 5799   0.321   1.006  12.482  0.5748  0.0372  0.4222
  384MPD2     N 5800   0.299   0.661  12.195  0.4164 -0.2022 -0.2567
  384MPD2    H5 5801   0.317   0.726  12.119 -2.4883 -0.0729 -0.8016
  384MPD2    N1 5802   0.166   0.614  12.644 -0.1224 -0.4491  0.0772
  384MPD2    H7 5803   0.155   0.518  12.613  1.2507 -0.5850  0.0131
  385TMC3    C1 5804   0.308   0.501  12.028  0.0445 -0.7405 -0.0836
  385TMC3    C2 5805   0.232   0.583  11.946  0.5631 -0.3049  0.4481
  385TMC3    C3 5806   0.144   0.531  11.851  0.2531  0.4898 -0.5086
  385TMC3    C4 5807   0.292   0.363  12.010 -1.3063 -0.3265  0.2191
  385TMC3    C5 5808   0.197   0.315  11.921 -0.2063  0.0821 -0.2666
  385TMC3    C6 5809   0.129   0.397  11.831 -0.5985 -0.2274 -0.0622
  385TMC3     C 5810   0.293   0.529  12.167  0.1235  0.5412 -0.2142
  385TMC3     O 5811   0.280   0.433  12.242  0.5007  0.4980  0.5272
  385TMC3     H 5812   0.238   0.691  11.957  1.5771 -0.3222  0.1067
  385TMC3    H1 5813   0.345   0.295  12.077  1.5374  1.3159 -0.3514
  385TMC3    H2 5814   0.059   0.348  11.763 -3.7457  2.1038  1.5352
  385TMC3    C7 5815   0.132   0.199  11.978  0.0100 -0.2849  0.0956
  385TMC3    C8 5816   0.104   0.632  11.752  0.6620  0.0992 -0.4456
  385TMC3    O1 5817   0.054   0.134  11.906 -0.5078  0.3829 -0.2077
  385TMC3    O2 5818   0.161   0.742  11.752 -0.1153  0.4595  0.4043
  386TMC3    C1 5819   0.756   1.822  11.509 -0.4021 -0.3755  0.5309
  386TMC3    C2 5820   0.760   1.877  11.381 -0.2500  0.5067  0.3018
  386TMC3    C3 5821   0.705   1.994  11.364  0.2763 -0.3362  0.2248
  386TMC3    C4 5822   0.693   1.884  11.614 -1.0030  0.2955 -0.3048
  386TMC3    C5 5823   0.644   2.012  11.590 -0.2560  0.7966  0.0947
  386TMC3    C6 5824   0.646   2.063  11.464  0.1059  1.1536  0.9661
  386TMC3     C 5825   0.797   1.687  11.538  0.4416  0.3162  0.5268
  386TMC3     O 5826   0.749   1.630  11.635 -0.5550  0.6159  0.2040
  386TMC3     H 5827   0.819   1.836  11.299 -2.3992  0.4294 -1.2065
  386TMC3    H1 5828   0.692   1.830  11.708 -0.0002  1.5258  0.4031
  386TMC3    H2 5829   0.588   2.154  11.446 -0.7723  0.5383  0.6625
  386TMC3    C7 5830   0.556   2.076  11.688  0.1807 -0.0474  0.1201
  386TMC3    C8 5831   0.677   2.057  11.232  0.1626  0.0027  0.4979
  386TMC3    O1 5832   0.486   2.176  11.658  0.1430 -0.0376  0.4400
  386TMC3    O2 5833   0.686   2.180  11.232  0.4392 -0.1689 -0.5020
  387MPD2     C 5834   2.575   1.883   9.471 -0.3281  0.6388 -0.2808
  387MPD2    C1 5835   2.684   1.838   9.546 -0.2518  0.0361 -0.1888
  387MPD2    C2 5836   2.718   1.705   9.531  0.0962  0.7481 -0.1412
  387MPD2    C3 5837   2.640   1.615   9.465  0.3712 -0.5786  0.2903
  387MPD2    C4 5838   2.536   1.667   9.388 -0.0801 -0.0673 -0.4677
  387MPD2    C5 5839   2.507   1.798   9.387 -0.1937  0.1962  0.2724
  387MPD2     H 5840   2.800   1.660   9.586  2.1885  5.8964  1.0113
  387MPD2    H1 5841   2.476   1.593   9.336  1.8945 -3.3966  2.0031
  387MPD2    H2 5842   2.537   1.984   9.472  0.5438  0.9730 -0.5819
  387MPD2    H3 5843   2.417   1.839   9.342  0.3502  0.3360 -0.6962
  387MPD2     N 5844   2.685   1.481   9.471 -0.1350 -0.1659 -0.0587
  387MPD2    H5 5845   2.776   1.468   9.513 -0.1787  0.7270  0.2975
  387MPD2    N1 5846   2.774   1.915   9.622 -0.0695  0.0510  0.5342
  387MPD2    H7 5847   2.858   1.872   9.660  0.1455 -0.6248 -0.6858
  388TMC3    C1 5848   2.882   2.082   9.736  0.6744  0.1004  0.5317
  388TMC3    C2 5849   2.917   2.208   9.755  0.4026  0.2873 -0.0466
  388TMC3    C3 5850   3.022   2.241   9.833 -0.1069  0.4730  0.1472
  388TMC3    C4 5851   2.955   1.975   9.793 -0.1947  0.0868 -0.5420
  388TMC3    C5 5852   3.071   2.009   9.857  0.0088 -0.6960 -0.4709
  388TMC3    C6 5853   3.106   2.140   9.873 -0.1323 -0.2428  0.3253
  388TMC3     C 5854   2.772   2.050   9.640 -0.6060  0.3502 -0.3024
  388TMC3     O 5855   2.699   2.135   9.592  0.1497 -0.0456 -0.0714
  388TMC3     H 5856   2.858   2.284   9.706 -0.7267 -0.5748 -0.0506
  388TMC3    H1 5857   2.923   1.872   9.803  2.0150 -0.7443 -2.0670
  388TMC3    H2 5858   3.186   2.152   9.945  1.1887  0.8157 -1.3343
  388TMC3    C7 5859   3.150   1.899   9.913  0.1123 -0.4987  0.1255
  388TMC3    C8 5860   3.030   2.377   9.879  0.3023  0.6334  0.0900
  388TMC3    O1 5861   3.200   1.892  10.026  0.1839  0.0892 -0.5419
  388TMC3    O2 5862   2.934   2.446   9.851  0.1741  0.7019  0.5723
  389MPD2     C 5863   1.781   1.219  10.563 -0.4832 -0.4460 -0.3534
  389MPD2    C1 5864   1.764   1.079  10.548 -0.4545  0.1704 -0.9623
  389MPD2    C2 5865   1.756   1.000  10.667 -0.1814  0.3923  0.5338
  389MPD2    C3 5866   1.765   1.054  10.792 -0.1268 -0.2675  0.2291
  389MPD2    C4 5867   1.757   1.192  10.800  0.1039 -0.6238  0.3901
  389MPD2    C5 5868   1.769   1.271  10.689  0.1566  0.1065  0.3717
  389MPD2     H 5869   1.758   0.893  10.655  1.1179  0.4418  0.2894
  389MPD2    H1 5870   1.751   1.231  10.901 -0.4593 -0.5359  0.3245
  389MPD2    H2 5871   1.789   1.288  10.480 -1.0978  1.0911  0.8685
  389MPD2    H3 5872   1.765   1.379  10.697  0.6457  0.1463  0.0927
  389MPD2     N 5873   1.776   0.992  10.919 -0.3925  0.2128 -0.0907
  389MPD2    H5 5874   1.776   1.051  11.001 -1.8704 -0.9234  0.7219
  389MPD2    N1 5875   1.753   1.026  10.411 -0.1102 -0.1381 -0.0419
  389MPD2    H7 5876   1.727   1.088  10.335  0.0144 -1.5854 -1.2708
  390TMC3    C1 5877   1.787   0.811  11.062  0.3333 -0.6482  0.1804
  390TMC3    C2 5878   1.748   0.684  11.096 -0.0976  0.2149  0.1579
  390TMC3    C3 5879   1.742   0.644  11.224 -0.3487  0.3546  0.2956
  390TMC3    C4 5880   1.833   0.893  11.163 -0.0378  0.1291  0.4345
  390TMC3    C5 5881   1.832   0.849  11.293  0.8272 -0.5241 -0.6068
  390TMC3    C6 5882   1.785   0.727  11.325  0.2167 -0.3762 -0.8505
  390TMC3     C 5883   1.786   0.856  10.926 -0.1729  0.1671  0.2305
  390TMC3     O 5884   1.780   0.766  10.840 -0.2060  0.1055 -0.3022
  390TMC3     H 5885   1.703   0.617  11.024  2.1881  0.0535 -1.1413
  390TMC3    H1 5886   1.888   0.982  11.136 -1.6438  1.0949  0.3290
  390TMC3    H2 5887   1.779   0.693  11.428 -1.6671 -1.4631 -1.3253
  390TMC3    C7 5888   1.909   0.920  11.392 -0.0012  0.6809 -0.3978
  390TMC3    C8 5889   1.700   0.509  11.255 -0.2411  0.2590 -0.8014
  390TMC3    O1 5890   1.997   0.992  11.359 -0.7206  0.5393  0.5212
  390TMC3    O2 5891   1.739   0.410  11.190  0.1377  0.1739 -0.1780
  391MPD2     C 5892   0.919   2.141  10.888  0.4043 -0.2994  0.2372
  391MPD2    C1 5893   1.021   2.236  10.873 -0.6319  0.1352  1.3873
  391MPD2    C2 5894   1.035   2.317  10.763 -0.2609  0.0597 -0.1249
  391MPD2    C3 5895   0.946   2.308  10.659  0.5039 -0.4994 -0.1219
  391MPD2    C4 5896   0.848   2.206  10.665 -0.1083  0.0034 -0.2913
  391MPD2    C5 5897   0.833   2.128  10.779 -0.3346  0.5010 -0.1719
  391MPD2     H 5898   1.120   2.384  10.760  1.5342 -2.0280  4.1427
  391MPD2    H1 5899   0.774   2.199  10.587 -0.5635  2.2748 -0.0612
  391MPD2    H2 5900   0.929   2.077  10.975  1.6034  0.8887  0.9865
  391MPD2    H3 5901   0.750   2.058  10.785 -0.0284  0.3813  2.9145
  391MPD2     N 5902   0.969   2.397  10.549  0.4695  0.1800 -0.3448
  391MPD2    H5 5903   1.026   2.476  10.575  0.8140 -0.2123  0.0732
  391MPD2    N1 5904   1.121   2.231  10.971 -0.2768  0.1787 -0.5998
  391MPD2    H7 5905   1.089   2.182  11.054 -0.7155 -0.1193 -0.9389
  392TMC3    C1 5906   0.958   2.479  10.329 -0.8122 -0.1644  0.6688
  392TMC3    C2 5907   0.896   2.484  10.207  0.5202  0.4053  0.9855
  392TMC3    C3 5908   0.927   2.590  10.127  0.0924  0.2491  0.4180
  392TMC3    C4 5909   1.055   2.569  10.368 -0.1662  0.0169 -0.2881
  392TMC3    C5 5910   1.088   2.666  10.279 -0.3227 -0.4755  0.2669
  392TMC3    C6 5911   1.021   2.685  10.156 -0.4112 -0.0170 -0.0354
  392TMC3     C 5912   0.906   2.391  10.428  0.2384 -0.2439 -0.0800
  392TMC3     O 5913   0.836   2.300  10.388 -0.0960 -0.0152 -0.0849
  392TMC3     H 5914   0.817   2.412  10.191 -1.8888  3.1102  0.7889
  392TMC3    H1 5915   1.116   2.559  10.457  0.9292 -0.1233 -1.0490
  392TMC3    H2 5916   1.063   2.747  10.078 -3.2282  2.0662  0.0986
  392TMC3    C7 5917   1.193   2.757  10.320  0.5515  0.1782  0.5765
  392TMC3    C8 5918   0.840   2.619  10.013 -0.2489 -0.0198 -0.0691
  392TMC3    O1 5919   1.268   2.722  10.411  0.0091  0.0247 -0.6870
  392TMC3    O2 5920   0.745   2.546   9.988 -0.0491 -0.1069  0.0562
  393TMC3    C1 5921   0.482   0.561  10.193  0.1411  0.2733 -0.9869
  393TMC3    C2 5922   0.357   0.608  10.177  0.1057  0.7228 -0.5135
  393TMC3    C3 5923   0.258   0.600  10.275  0.5303  0.5373  0.3219
  393TMC3    C4 5924   0.513   0.504  10.315 -0.0381 -0.2170  0.6941
  393TMC3    C5 5925   0.411   0.498  10.410  0.5044  0.4052  0.1355
  393TMC3    C6 5926   0.283   0.542  10.392  0.7465 -0.1236 -0.6288
  393TMC3     C 5927   0.589   0.592  10.092  0.1943 -0.8943  0.3174
  393TMC3     O 5928   0.709   0.594  10.121 -0.3394  0.6424 -0.6348
  393TMC3     H 5929   0.338   0.663  10.085 -0.3318 -1.0496 -1.4928
  393TMC3    H1 5930   0.607   0.456  10.339 -0.8328 -1.5305  1.1492
  393TMC3    H2 5931   0.210   0.544  10.473 -0.2823 -1.0230 -1.5344
  393TMC3    C7 5932   0.444   0.484  10.554  0.0154 -0.0182 -0.4126
  393TMC3    C8 5933   0.114   0.609  10.243  0.2624 -0.1259 -0.4685
  393TMC3    O1 5934   0.383   0.558  10.629 -0.2713  0.1271  0.1433
  393TMC3    O2 5935   0.028   0.564  10.321 -0.8835 -0.3059  0.5307
  394TMC3    C1 5936   1.781   0.891  10.219 -0.4067  0.1537 -0.2476
  394TMC3    C2 5937   1.737   0.773  10.167  0.5843  0.0869  0.1983
  394TMC3    C3 5938   1.721   0.764  10.041 -0.3321 -0.1238 -0.3374
  394TMC3    C4 5939   1.810   0.995  10.135 -0.9473  0.1627  0.1940
  394TMC3    C5 5940   1.787   0.987  10.000  0.1699 -0.2297 -0.3536
  394TMC3    C6 5941   1.740   0.867   9.950  0.8090  0.3949  0.5085
  394TMC3     C 5942   1.775   0.901  10.367  0.3469  0.4440  0.6833
  394TMC3     O 5943   1.797   0.803  10.437 -0.1745  0.1923 -0.1338
  394TMC3     H 5944   1.708   0.694  10.236 -2.1731 -0.2961 -1.3936
  394TMC3    H1 5945   1.874   1.074  10.172 -0.9730 -0.2541  1.1218
  394TMC3    H2 5946   1.730   0.863   9.842 -3.7522  0.3907  0.9549
  394TMC3    C7 5947   1.879   1.069   9.916  0.6113 -0.2609 -0.1547
  394TMC3    C8 5948   1.705   0.631   9.980  0.8313 -0.0654 -0.0539
  394TMC3    O1 5949   1.864   1.188   9.912 -0.3518 -0.1001  0.2969
  394TMC3    O2 5950   1.661   0.629   9.868 -0.1533 -0.3660 -0.3060
  395TMC3    C1 5951   1.883   2.046  14.755  0.1542  0.0911 -0.3186
  395TMC3    C2 5952   1.750   2.054  14.780  0.4152 -0.3355 -0.1984
  395TMC3    C3 5953   1.685   2.176  14.761 -0.0677 -0.4472 -0.1898
  395TMC3    C4 5954   1.955   2.155  14.706 -0.0452 -0.1143  0.9431
  395TMC3    C5 5955   1.889   2.272  14.668  0.1124 -0.0735  0.0755
  395TMC3    C6 5956   1.760   2.284  14.714 -1.2428  0.0128 -0.5715
  395TMC3     C 5957   1.954   1.969  14.854  0.0409 -0.0479  0.0156
  395TMC3     O 5958   1.911   1.858  14.871  0.5148 -0.1495  0.4009
  395TMC3     H 5959   1.699   1.968  14.822  0.2564  0.1065  0.5208
  395TMC3    H1 5960   2.056   2.140  14.669 -0.8956 -0.7372 -1.1253
  395TMC3    H2 5961   1.708   2.378  14.701  0.4025  1.1408  0.9332
  395TMC3    C7 5962   1.965   2.394  14.636 -0.0435  0.5112  0.1677
  395TMC3    C8 5963   1.574   2.194  14.854 -0.4362 -1.1251  0.5300
  395TMC3    O1 5964   1.926   2.506  14.663  0.2583  0.1921  0.4734
  395TMC3    O2 5965   1.576   2.297  14.918  0.0999 -0.7326  0.7242
  396MPD2     C 5966   1.825   3.746  16.491 -0.0614  0.5803 -0.4112
  396MPD2    C1 5967   1.918   3.815  16.565 -0.4229 -0.8124 -0.3150
  396MPD2    C2 5968   1.977   3.927  16.514 -0.0264  0.3339 -0.0122
  396MPD2    C3 5969   1.965   3.968  16.386 -0.6578 -0.6261  0.1456
  396MPD2    C4 5970   1.864   3.907  16.311  0.1979  0.0579  0.0435
  396MPD2    C5 5971   1.786   3.800  16.369  1.2776 -0.1142 -0.7269
  396MPD2     H 5972   2.046   3.980  16.578 -0.8074  0.5073  0.6912
  396MPD2    H1 5973   1.834   3.950  16.216 -0.3345  0.2191  0.2842
  396MPD2    H2 5974   1.781   3.649  16.514  2.5381 -0.9918 -2.0305
  396MPD2    H3 5975   1.711   3.756  16.304  0.6573  1.2051 -0.9019
  396MPD2     N 5976   2.047   4.065  16.340 -0.7847  0.3352 -0.3829
  396MPD2    H5 5977   2.114   4.105  16.405  0.1585 -0.9687 -0.5522
  396MPD2    N1 5978   1.943   3.768  16.695 -0.8778  0.1756 -0.3699
  396MPD2    H7 5979   1.901   3.677  16.709 -1.9024  0.5216 -1.2594
  397TMC3    C1 5980   2.005   3.743  16.917  0.7645  0.1292  0.5436
  397TMC3    C2 5981   2.128   3.729  16.963 -0.0528 -1.0290 -0.2343
  397TMC3    C3 5982   2.187   3.607  16.988 -0.7614 -0.4984 -0.5473
  397TMC3    C4 5983   1.926   3.630  16.906  0.1328 -0.5170  0.4697
  397TMC3    C5 5984   1.974   3.515  16.961  0.5371  0.4633 -0.0852
  397TMC3    C6 5985   2.105   3.497  17.002  0.3488  0.2015  0.0327
  397TMC3     C 5986   2.007   3.829  16.801 -0.2552 -0.1211 -0.4918
  397TMC3     O 5987   2.068   3.935  16.791 -0.0895 -0.6506 -0.4160
  397TMC3     H 5988   2.185   3.822  16.960  0.3852 -1.3201 -0.9877
  397TMC3    H1 5989   1.819   3.641  16.890  0.0704  0.4769  1.6597
  397TMC3    H2 5990   2.145   3.403  17.040  1.4499  0.4864 -0.4362
  397TMC3    C7 5991   1.876   3.415  16.988  0.0168  0.3987 -0.2838
  397TMC3    C8 5992   2.317   3.597  17.049 -0.5204  0.2565 -0.2182
  397TMC3    O1 5993   1.795   3.389  16.901  0.1045  0.2431 -0.6507
  397TMC3    O2 5994   2.322   3.531  17.155 -0.0471 -0.6642 -0.3544
  398MPD2     C 5995   0.130   0.454  17.729  0.1836 -0.0437  0.2982
  398MPD2    C1 5996   0.241   0.376  17.728 -0.5705 -0.2197  0.0227
  398MPD2    C2 5997   0.360   0.439  17.703  0.8156 -0.2515 -0.2560
  398MPD2    C3 5998   0.365   0.572  17.667  0.8837  0.5286  0.3727
  398MPD2    C4 5999   0.250   0.644  17.657 -0.1379  0.3086 -0.4694
  398MPD2    C5 6000   0.128   0.584  17.690 -0.1108  1.3802  0.7567
  398MPD2     H 6001   0.455   0.388  17.695  2.3006  2.0987  2.5425
  398MPD2    H1 6002   0.234   0.745  17.622  0.7218  0.4073 -0.5804
  398MPD2    H2 6003   0.034   0.409  17.750  0.6014 -1.7142 -1.3248
  398MPD2    H3 6004   0.034   0.638  17.682 -0.9493  0.2001  2.6781
  398MPD2     N 6005   0.492   0.633  17.648 -0.3787  0.2869  0.5393
  398MPD2    H5 6006   0.572   0.571  17.659 -0.0621  0.5531 -0.2061
  398MPD2    N1 6007   0.240   0.234  17.745  0.1129  0.1716 -0.2058
  398MPD2    H7 6008   0.332   0.192   0.003  0.1823  0.2966 -0.3320
  399TMC3    C1 6009   0.142   0.015  17.735  0.3844 -0.3450  0.7282
  399TMC3    C2 6010   0.264   4.702   0.007  0.0820 -0.1139  0.0151
  399TMC3    C3 6011   0.277   4.562   0.011 -0.3979  0.1286  0.4106
  399TMC3    C4 6012   0.032   4.675  17.707  0.0675  0.2724  0.1840
  399TMC3    C5 6013   0.041   4.536  17.704  0.5000  0.2438  0.7340
  399TMC3    C6 6014   0.162   4.482  17.736  0.1831  0.0276  0.3439
  399TMC3     C 6015   0.122   0.156   0.007 -0.1886  0.1959 -0.2413
  399TMC3     O 6016   0.002   0.183   0.026 -0.3678  0.1763 -0.4739
  399TMC3     H 6017   0.341   0.032   0.043 -0.4113  0.6776 -0.4424
  399TMC3    H1 6018   4.680   4.730  17.685 -0.6895  0.3703  3.5262
  399TMC3    H2 6019   0.171   4.374  17.734  2.1338  0.1880  0.8250
  399TMC3    C7 6020   4.678   4.450  17.652 -0.0950 -0.3256  0.3313
  399TMC3    C8 6021   0.403   4.507   0.049  0.0739 -0.2693 -0.5281
  399TMC3    O1 6022   4.692   4.330  17.665 -0.0800 -0.2915 -0.1390
  399TMC3    O2 6023   0.470   4.577   0.128  0.7614  0.3937  0.7791
  400TMC3    C1 6024   3.550   3.512  16.659  0.1586  0.9626 -0.0069
  400TMC3    C2 6025   3.431   3.464  16.616 -0.2438 -0.7744  0.6719
  400TMC3    C3 6026   3.348   3.538  16.543 -0.1356  0.1785  0.0070
  400TMC3    C4 6027   3.589   3.646  16.642  0.0335  0.2417  0.7935
  400TMC3    C5 6028   3.503   3.721  16.567  0.1530  0.0653  0.3525
  400TMC3    C6 6029   3.384   3.672  16.529  0.8456 -0.0583 -0.2716
  400TMC3     C 6030   3.631   3.426  16.732  0.1868 -0.4625  0.3396
  400TMC3     O 6031   3.572   3.331  16.789  0.3921 -0.0216  0.4910
  400TMC3     H 6032   3.390   3.364  16.616 -0.6908 -0.5879  0.9761
  400TMC3    H1 6033   3.682   3.691  16.675  1.8630 -2.2868 -0.9538
  400TMC3    H2 6034   3.316   3.739  16.479  0.5283  0.7589  1.2618
  400TMC3    C7 6035   3.534   3.861  16.540 -0.2923 -0.0151  0.3040
  400TMC3    C8 6036   3.215   3.496  16.497 -0.0882  0.0010 -0.0243
  400TMC3    O1 6037   3.627   3.890  16.473 -0.5558  0.0341  0.1552
  400TMC3    O2 6038   3.126   3.582  16.491  0.1896 -1.1579  0.2104
  401MPD2     C 6039   1.506   2.436   0.714 -0.6799  0.2297  0.0523
  401MPD2    C1 6040   1.613   2.351   0.718 -0.4738 -0.2804  0.1761
  401MPD2    C2 6041   1.591   2.219   0.686  0.4181  0.1972 -0.3045
  401MPD2    C3 6042   1.461   2.178   0.662 -0.0067  0.1368  0.1472
  401MPD2    C4 6043   1.351   2.265   0.658 -0.0795 -0.1191  0.5806
  401MPD2    C5 6044   1.381   2.394   0.684 -0.0409  0.8553 -0.2170
  401MPD2     H 6045   1.681   2.159   0.694  1.7485  2.6626  3.3083
  401MPD2    H1 6046   1.247   2.243   0.638 -0.2368  0.8516  0.2990
  401MPD2    H2 6047   1.515   2.540   0.743  1.7743 -0.0608  0.3458
  401MPD2    H3 6048   1.301   2.467   0.682 -1.1318 -0.3141  1.3324
  401MPD2     N 6049   1.448   2.039   0.636 -0.4445 -0.1879  0.1492
  401MPD2    H5 6050   1.528   1.984   0.609  0.1511  0.9082 -0.3376
  401MPD2    N1 6051   1.736   2.395   0.759 -0.0709  0.3506 -0.3738
  401MPD2    H7 6052   1.798   2.316   0.776  1.1019  1.5424  0.8824
  402TMC3    C1 6053   1.348   1.845   0.557  0.3102  0.0708  0.2108
  402TMC3    C2 6054   1.310   1.741   0.643 -0.4751 -0.6238  0.4954
  402TMC3    C3 6055   1.359   1.621   0.592  0.0529  0.6619  0.0199
  402TMC3    C4 6056   1.427   1.840   0.451  0.4597  0.0995 -0.1968
  402TMC3    C5 6057   1.474   1.717   0.405 -0.1640  0.4355  0.6852
  402TMC3    C6 6058   1.437   1.610   0.482 -0.2990  0.7394  0.1321
  402TMC3     C 6059   1.326   1.972   0.616  0.4663  0.6886 -0.0708
  402TMC3     O 6060   1.210   1.999   0.641  0.2134  0.8615  0.4285
  402TMC3     H 6061   1.283   1.756   0.746 -0.2204  2.2743  0.1258
  402TMC3    H1 6062   1.439   1.929   0.391 -0.0818  1.2490  1.3983
  402TMC3    H2 6063   1.483   1.513   0.463  1.4549  0.9813  3.1193
  402TMC3    C7 6064   1.590   1.726   0.320  0.2170 -0.1208  0.4096
  402TMC3    C8 6065   1.380   1.518   0.693  0.9816  0.1347 -1.1272
  402TMC3    O1 6066   1.600   1.827   0.254 -0.1835  0.2076  0.3365
  402TMC3    O2 6067   1.475   1.447   0.675  0.3003 -0.0416  0.3323
  403MPD2     C 6068   4.577   0.095  13.109 -0.1276 -0.2962 -0.2078
  403MPD2    C1 6069   4.514   0.026  13.206  0.3030  0.3708 -0.7515
  403MPD2    C2 6070   4.589   4.710  13.309 -0.4556  0.8095  0.8334
  403MPD2    C3 6071   4.731   4.725  13.311 -0.3001 -0.2104 -0.6463
  403MPD2    C4 6072   0.045   0.061  13.207  0.2394  0.7504  0.0839
  403MPD2    C5 6073   4.708   0.120  13.116  0.1612 -0.1923 -0.1378
  403MPD2     H 6074   4.546   4.666  13.398  0.2668 -1.9060 -0.1547
  403MPD2    H1 6075   0.151   0.083  13.215  0.2545  1.2982 -1.5490
  403MPD2    H2 6076   4.514   0.125  13.026  1.4003  3.2214 -0.0833
  403MPD2    H3 6077   0.012   0.195  13.050  1.6182  0.3059  1.3502
  403MPD2     N 6078   0.064   4.666  13.419  0.3259 -0.4750 -0.0532
  403MPD2    H5 6079   0.006   4.627  13.492  1.7463 -1.0473  0.7786
  403MPD2    N1 6080   4.370   0.013  13.194  0.7096  0.3772  0.7733
  403MPD2    H7 6081   4.320   0.065  13.124 -0.5808 -2.6398 -0.5341
  404TMC3    C1 6082   4.159   4.660  13.228  0.3747 -0.2828 -0.5737
  404TMC3    C2 6083   4.061   4.637  13.324 -0.3047  0.2191 -0.1387
  404TMC3    C3 6084   3.957   4.558  13.293 -0.4212 -0.1678  0.0485
  404TMC3    C4 6085   4.154   4.595  13.111  0.2169 -0.8217  0.2532
  404TMC3    C5 6086   4.055   4.511  13.080 -0.0225  0.2750 -1.3805
  404TMC3    C6 6087   3.951   4.499  13.165 -0.1895  0.3265 -0.1983
  404TMC3     C 6088   4.294   4.676  13.287 -0.1236 -0.3545 -0.2786
  404TMC3     O 6089   4.326   4.605  13.381 -0.0732 -0.1550 -0.3866
  404TMC3     H 6090   4.083   4.680  13.421  1.6346  0.8732 -0.8726
  404TMC3    H1 6091   4.246   4.596  13.054  0.2873 -2.5653  0.3568
  404TMC3    H2 6092   3.882   4.416  13.157 -1.2247  0.9923  1.7413
  404TMC3    C7 6093   4.069   4.424  12.967  0.4904 -0.3130 -0.2333
  404TMC3    C8 6094   3.967   4.454  13.391 -0.3379  0.7678  0.1194
  404TMC3    O1 6095   4.180   4.395  12.928  0.1355  0.0092  0.4785
  404TMC3    O2 6096   4.028   4.356  13.355  0.2456  0.3318 -0.0960
  405MPD2     C 6097   0.216   1.271  15.080  0.0322  0.7032  0.1136
  405MPD2    C1 6098   0.207   1.163  15.000  0.3506 -0.0381  0.7831
  405MPD2    C2 6099   0.096   1.160  14.915  0.5845 -0.3085  0.3195
  405MPD2    C3 6100   0.001   1.257  14.917 -0.7794  0.3922 -0.2503
  405MPD2    C4 6101   0.009   1.366  14.995 -0.6133  0.1719 -0.2437
  405MPD2    C5 6102   0.119   1.371  15.073  0.4394 -0.5201  0.2831
  405MPD2     H 6103   0.084   1.070  14.856  1.4775 -0.5119  0.4577
  405MPD2    H1 6104   4.676   1.448  15.001 -0.0813  0.6240 -0.1523
  405MPD2    H2 6105   0.292   1.284  15.156  0.9659 -1.4832 -0.4259
  405MPD2    H3 6106   0.121   1.458  15.138  1.2657 -0.5386  0.2920
  405MPD2     N 6107   4.625   1.224  14.841 -0.2900  0.8066 -0.1391
  405MPD2    H5 6108   4.637   1.148  14.775 -1.0249  1.3726 -0.9309
  405MPD2    N1 6109   0.304   1.065  15.003  0.1232  0.6483 -0.0721
  405MPD2    H7 6110   0.390   1.092  15.049 -0.3829  0.6916  0.8449
  406TMC3    C1 6111   4.245   1.194  14.591 -0.1442 -0.7160 -0.5630
  406TMC3    C2 6112   4.275   1.063  14.567 -0.1484 -0.1306 -0.8935
  406TMC3    C3 6113   4.372   1.012  14.647  0.7330 -0.4365 -0.4259
  406TMC3    C4 6114   4.309   1.272  14.687  0.0221 -0.0165  0.7490
  406TMC3    C5 6115   4.417   1.220  14.753  0.7805 -0.4987  0.5757
  406TMC3    C6 6116   4.451   1.089  14.727  0.0131  0.7725  0.1448
  406TMC3     C 6117   4.171   1.275  14.488 -0.2886  0.6745  0.2147
  406TMC3     O 6118   4.158   1.392  14.515  0.0524 -0.0833  0.7326
  406TMC3     H 6119   4.209   1.000  14.507 -0.5544 -0.7924  0.2455
  406TMC3    H1 6120   4.283   1.377  14.700  1.2681  0.3969 -0.1700
  406TMC3    H2 6121   4.486   1.031  14.812 -4.0025 -0.2187  1.1612
  406TMC3    C7 6122   4.513   1.301  14.825  0.4355  0.3954 -0.3448
  406TMC3    C8 6123   4.400   0.871  14.625 -0.1212 -0.3464  0.2105
  406TMC3    O1 6124   4.480   1.405  14.881  0.1944  0.0733 -0.5952
  406TMC3    O2 6125   4.326   0.806  14.551  0.0191 -0.4348 -0.2251
  407MPD2     C 6126   2.500   2.396   9.235 -0.1944  0.0238  0.1217
  407MPD2    C1 6127   2.563   2.337   9.341  0.6604  0.4180  0.2306
  407MPD2    C2 6128   2.533   2.385   9.469 -0.5501  0.2741  0.3993
  407MPD2    C3 6129   2.451   2.498   9.478 -0.3470 -0.2163 -0.1476
  407MPD2    C4 6130   2.402   2.563   9.364 -0.3997  0.1194  0.5296
  407MPD2    C5 6131   2.430   2.506   9.243 -0.1310  0.3948 -0.4470
  407MPD2     H 6132   2.555   2.327   9.559 -1.6237 -1.5389 -0.5017
  407MPD2    H1 6133   2.350   2.658   9.363  1.6950  1.2611  1.2689
  407MPD2    H2 6134   2.513   2.369   9.131  1.0047  2.4033 -0.3467
  407MPD2    H3 6135   2.407   2.557   9.150  0.1786 -0.1481 -0.8211
  407MPD2     N 6136   2.417   2.554   9.606  0.5929 -0.4339  0.3649
  407MPD2    H5 6137   2.372   2.645   9.599 -0.1243 -0.8803 -0.7706
  407MPD2    N1 6138   2.653   2.231   9.324  0.4626 -0.5129  0.3854
  407MPD2    H7 6139   2.681   2.195   9.415  0.2382 -1.1047  0.2208
  408TMC3    C1 6140   2.800   2.079   9.228  0.1834  0.3844  0.3045
  408TMC3    C2 6141   2.895   2.090   9.329  0.0528 -0.0266 -0.8773
  408TMC3    C3 6142   2.968   1.983   9.365 -0.0988 -0.3892  0.6533
  408TMC3    C4 6143   2.793   1.961   9.152  1.3791 -0.7188  0.2670
  408TMC3    C5 6144   2.872   1.855   9.197  0.3249  0.0992  1.0229
  408TMC3    C6 6145   2.954   1.858   9.307 -0.2980  0.1401  0.3481
  408TMC3     C 6146   2.699   2.178   9.205 -0.2534 -0.1181  0.1894
  408TMC3     O 6147   2.668   2.197   9.089 -0.1875 -0.4226  0.3372
  408TMC3     H 6148   2.915   2.191   9.364 -0.6395 -0.4131  0.6122
  408TMC3    H1 6149   2.727   1.961   9.066 -0.6525  2.9012  1.8179
  408TMC3    H2 6150   3.012   1.773   9.339 -0.6727 -0.6325 -1.0102
  408TMC3    C7 6151   2.857   1.729   9.134  0.7403  0.2448  0.5563
  408TMC3    C8 6152   3.078   1.996   9.459  0.0931 -0.1660  0.4250
  408TMC3    O1 6153   2.946   1.649   9.150 -0.2445  0.2542 -0.0452
  408TMC3    O2 6154   3.096   1.893   9.527  0.0962 -0.1126 -0.4006
  409MPD2     C 6155   2.079   3.080  16.856 -0.3435  0.2665 -1.0933
  409MPD2    C1 6156   2.219   3.062  16.883 -0.4743  0.5133  0.8005
  409MPD2    C2 6157   2.307   3.153  16.831  0.6007 -0.5628 -0.9033
  409MPD2    C3 6158   2.268   3.262  16.744 -0.1268 -0.1460  0.0648
  409MPD2    C4 6159   2.135   3.273  16.716  0.0703  0.0562 -0.7772
  409MPD2    C5 6160   2.041   3.188  16.773 -0.6632 -0.0601  0.2503
  409MPD2     H 6161   2.411   3.132  16.853 -0.0540 -1.2979  1.5502
  409MPD2    H1 6162   2.093   3.345  16.646 -4.7724 -3.5335 -1.5589
  409MPD2    H2 6163   2.007   3.003  16.882 -0.1537  0.6639  0.6433
  409MPD2    H3 6164   1.938   3.207  16.746 -0.8143 -0.8979  0.2402
  409MPD2     N 6165   2.354   3.361  16.688  0.0178  0.4020  0.0119
  409MPD2    H5 6166   2.314   3.430  16.625  1.5741  0.1107 -1.3117
  409MPD2    N1 6167   2.271   2.954  16.955 -0.3089  0.3436  0.6053
  409MPD2    H7 6168   2.368   2.954  16.985 -0.2896  1.1062  0.5371
  410TMC3    C1 6169   2.560   3.468  16.647  0.9201 -1.1882 -0.1234
  410TMC3    C2 6170   2.666   3.530  16.714  0.5719 -0.2993 -0.1629
  410TMC3    C3 6171   2.739   3.622  16.645  0.6745  0.0502 -0.3247
  410TMC3    C4 6172   2.549   3.482  16.513 -0.4322 -0.1832  0.2600
  410TMC3    C5 6173   2.625   3.573  16.445 -0.1343  0.1849 -0.1021
  410TMC3    C6 6174   2.730   3.641  16.511  0.0910 -0.0055  0.5302
  410TMC3     C 6175   2.480   3.375  16.732 -0.2799  0.4564 -0.2953
  410TMC3     O 6176   2.544   3.339  16.832  0.4597  0.3538 -0.1265
  410TMC3     H 6177   2.673   3.529  16.822 -1.2175 -0.5313 -0.0600
  410TMC3    H1 6178   2.474   3.417  16.468 -1.0452  0.9995 -0.4156
  410TMC3    H2 6179   2.814   3.686  16.460  0.2573 -0.9056  0.0002
  410TMC3    C7 6180   2.613   3.572  16.302  0.3846 -0.3855  0.6063
  410TMC3    C8 6181   2.870   3.642  16.704 -0.7794  0.3593 -0.6188
  410TMC3    O1 6182   2.515   3.511  16.258  0.0068 -0.4008  0.0399
  410TMC3    O2 6183   2.928   3.746  16.671 -0.4253  0.0165  0.5324
  411MPD2     C 6184   2.513   3.290  13.913  0.8287 -0.3814 -0.0836
  411MPD2    C1 6185   2.450   3.277  14.036 -0.1522 -0.0171 -0.7718
  411MPD2    C2 6186   2.406   3.152  14.073  0.9089 -0.1867 -0.2373
  411MPD2    C3 6187   2.419   3.043  13.992 -0.1392  0.6065 -0.3011
  411MPD2    C4 6188   2.490   3.052  13.873 -0.1740 -0.3794 -0.0162
  411MPD2    C5 6189   2.533   3.181  13.837 -0.6387  0.2724 -1.0087
  411MPD2     H 6190   2.357   3.141  14.169  2.4352  0.3186  0.5959
  411MPD2    H1 6191   2.504   2.982  13.792 -1.1126 -1.9451  1.1847
  411MPD2    H2 6192   2.559   3.383  13.882  0.7457 -0.8230 -1.5146
  411MPD2    H3 6193   2.601   3.191  13.754  0.3369  0.9686 -0.1267
  411MPD2     N 6194   2.368   2.913  14.033 -0.3810  0.1157 -0.0028
  411MPD2    H5 6195   2.369   2.842  13.961 -1.6308 -0.5667  0.6491
  411MPD2    N1 6196   2.440   3.394  14.117 -0.0057 -0.4583  0.3313
  411MPD2    H7 6197   2.473   3.481  14.076 -0.5424 -0.5494 -0.2961
  412TMC3    C1 6198   2.248   2.751  14.148 -0.4153 -0.7543 -0.2465
  412TMC3    C2 6199   2.118   2.751  14.174 -0.1781  0.1250 -0.4455
  412TMC3    C3 6200   2.044   2.674  14.085  0.0878 -0.0607  0.4828
  412TMC3    C4 6201   2.310   2.680  14.044  0.0838 -0.1370  0.1930
  412TMC3    C5 6202   2.234   2.624  13.954 -0.8324  0.3359 -0.0294
  412TMC3    C6 6203   2.102   2.608  13.973 -0.2207 -0.9024  0.1754
  412TMC3     C 6204   2.300   2.885  14.149 -0.0120  0.2412 -0.0535
  412TMC3     O 6205   2.268   2.963  14.238 -0.5567 -0.3167 -0.0615
  412TMC3     H 6206   2.080   2.818  14.250  1.0048 -0.0609  0.3133
  412TMC3    H1 6207   2.417   2.671  14.029 -0.0056 -1.7581  0.5253
  412TMC3    H2 6208   2.031   2.568  13.901  0.0332  1.3572 -1.3269
  412TMC3    C7 6209   2.267   2.688  13.826  0.0531 -0.1220 -0.4050
  412TMC3    C8 6210   1.927   2.753  14.059 -0.2465 -0.0865  0.3506
  412TMC3    O1 6211   2.388   2.704  13.810 -0.1458 -0.4783  0.0845
  412TMC3    O2 6212   1.912   2.780  13.940  0.6120  0.4679 -0.2182
  413MPD2     C 6213   3.959   2.206  15.622  0.2644  0.8159  0.5309
  413MPD2    C1 6214   3.937   2.175  15.487 -0.2744  0.1119  0.3555
  413MPD2    C2 6215   4.038   2.117  15.412  0.7433  0.5123  0.4777
  413MPD2    C3 6216   4.164   2.093  15.472  0.0900 -0.0316  0.0521
  413MPD2    C4 6217   4.183   2.131  15.605 -0.5129 -0.0862 -0.6413
  413MPD2    C5 6218   4.083   2.189  15.676 -0.2257  0.5785 -1.0213
  413MPD2     H 6219   4.016   2.082  15.312 -2.0813 -0.1729  1.3305
  413MPD2    H1 6220   4.273   2.107  15.660 -0.6158  0.8004 -0.0889
  413MPD2    H2 6221   3.879   2.241  15.686  0.2755  1.0356  0.4248
  413MPD2    H3 6222   4.099   2.208  15.781 -0.2834 -0.5643 -0.8075
  413MPD2     N 6223   4.262   2.018  15.399  0.4524 -0.6468  0.3247
  413MPD2    H5 6224   4.233   1.991  15.305  0.3038 -0.4684  0.3203
  413MPD2    N1 6225   3.801   2.179  15.436  0.0463  0.4953 -0.2524
  413MPD2    H7 6226   3.730   2.200  15.505 -1.0354 -3.2065 -0.2377
  414TMC3    C1 6227   4.469   1.928  15.351 -0.4466  1.0508  0.6590
  414TMC3    C2 6228   4.532   1.813  15.377  0.6292  0.5026  0.4435
  414TMC3    C3 6229   4.539   1.721  15.280 -0.8163 -0.4951  0.2442
  414TMC3    C4 6230   4.435   1.961  15.224  0.5212 -0.6026  0.4249
  414TMC3    C5 6231   4.445   1.867  15.131 -0.5213 -0.7563 -0.3273
  414TMC3    C6 6232   4.495   1.743  15.153 -0.5706 -0.0828  0.5309
  414TMC3     C 6233   4.382   1.985  15.444  0.3847  0.2345 -0.1342
  414TMC3     O 6234   4.429   2.013  15.553 -0.2533  0.5627 -0.1514
  414TMC3     H 6235   4.547   1.788  15.482  0.0655 -1.1308  0.1444
  414TMC3    H1 6236   4.386   2.055  15.201 -1.2359 -1.7985 -0.7328
  414TMC3    H2 6237   4.505   1.677  15.067  1.2121 -0.8728  1.3511
  414TMC3    C7 6238   4.387   1.913  15.006  0.6250 -0.0133  0.0336
  414TMC3    C8 6239   4.621   1.601  15.295 -0.5526 -0.8418  0.2417
  414TMC3    O1 6240   4.272   1.956  15.020 -0.1797  0.8109  0.0937
  414TMC3    O2 6241   4.577   1.510  15.221  0.1624 -0.0070 -0.2765
  415TMC3    C1 6242   4.403   4.698   9.910  0.0851  0.0427 -0.2560
  415TMC3    C2 6243   4.526   4.691   9.858 -0.0516  0.6173 -0.0825
  415TMC3    C3 6244   4.538   4.650   9.727  0.3991 -0.0689  0.4059
  415TMC3    C4 6245   4.292   4.640   9.856  0.3505 -0.6371 -0.0196
  415TMC3    C5 6246   4.310   4.591   9.730 -0.2808  0.8925 -0.0963
  415TMC3    C6 6247   4.434   4.587   9.664  0.1041 -1.1116 -1.0852
  415TMC3     C 6248   4.392   4.727  10.052 -0.4300 -0.1197  0.0072
  415TMC3     O 6249   4.292   4.691  10.112  0.6373 -0.1887  0.4864
  415TMC3     H 6250   4.619   4.719   9.907  1.4936 -2.7727 -1.0985
  415TMC3    H1 6251   4.192   4.648   9.898 -0.2328  2.9831 -2.0201
  415TMC3    H2 6252   4.459   4.541   9.569 -0.5286 -0.7501 -1.4266
  415TMC3    C7 6253   4.220   4.485   9.684  0.7425 -0.4667 -0.3312
  415TMC3    C8 6254   4.673   4.614   9.683 -0.2122  0.0831  0.0214
  415TMC3    O1 6255   4.230   4.453   9.570 -0.1478 -0.1805  0.2223
  415TMC3    O2 6256   4.704   4.497   9.678  0.0533 -0.4261  0.7909
  416MPD2     C 6257   1.911   3.291  11.531  0.5153  0.2815  0.1425
  416MPD2    C1 6258   1.795   3.353  11.486  0.1446  0.4287  0.1663
  416MPD2    C2 6259   1.734   3.294  11.379 -0.2598  0.7340  0.0156
  416MPD2    C3 6260   1.794   3.191  11.303  0.2449  0.2137  0.3881
  416MPD2    C4 6261   1.919   3.154  11.341  0.1790 -0.5601 -0.2771
  416MPD2    C5 6262   1.974   3.199  11.452  0.6919 -0.7559 -0.9277
  416MPD2     H 6263   1.633   3.329  11.357 -0.5674 -0.8815 -1.1303
  416MPD2    H1 6264   1.979   3.083  11.286  2.2197  0.5950  0.4357
  416MPD2    H2 6265   1.956   3.323  11.624 -0.9380 -1.2698  1.3687
  416MPD2    H3 6266   2.075   3.179  11.487  1.1865  2.3399 -0.5717
  416MPD2     N 6267   1.722   3.123  11.196  0.3060  0.5236 -0.1211
  416MPD2    H5 6268   1.771   3.042  11.160  2.1588  2.5891 -2.2964
  416MPD2    N1 6269   1.741   3.455  11.565  0.6211  0.2475  0.8453
  416MPD2    H7 6270   1.792   3.475  11.651  1.9447  0.5230  0.0036
  417TMC3    C1 6271   1.618   3.653  11.594  0.3868 -0.0386 -0.3029
  417TMC3    C2 6272   1.581   3.630  11.723  0.2458 -1.0013  0.1252
  417TMC3    C3 6273   1.487   3.712  11.782  0.5166  0.2027 -0.1628
  417TMC3    C4 6274   1.567   3.757  11.521  0.8060  0.7034 -0.3592
  417TMC3    C5 6275   1.474   3.840  11.581 -0.1126 -0.6236 -0.0820
  417TMC3    C6 6276   1.435   3.821  11.709  0.2287 -0.3581 -0.3008
  417TMC3     C 6277   1.637   3.531  11.520 -0.0668 -1.3319 -0.1095
  417TMC3     O 6278   1.582   3.534  11.411  0.3907  0.2319  0.4674
  417TMC3     H 6279   1.615   3.537  11.767  1.3199 -0.7329 -0.1382
  417TMC3    H1 6280   1.609   3.780  11.423  0.4770 -0.9901 -0.8954
  417TMC3    H2 6281   1.358   3.884  11.753  1.6191  0.2778  1.2283
  417TMC3    C7 6282   1.383   3.909  11.490 -0.3056  0.6023  0.1261
  417TMC3    C8 6283   1.414   3.686  11.905 -0.3839  0.3599  0.0286
  417TMC3    O1 6284   1.271   3.929  11.527  0.0225  0.2355 -0.0817
  417TMC3    O2 6285   1.309   3.742  11.917 -0.2524  0.2725 -0.0222
  418TMC3    C1 6286   0.859   0.759  17.547  0.0289  0.5369 -0.4157
  418TMC3    C2 6287   0.736   0.820  17.546  0.9148 -0.7979 -0.0703
  418TMC3    C3 6288   0.656   0.806  17.655 -0.5492 -0.0607  0.0868
  418TMC3    C4 6289   0.904   0.689  17.655 -0.3979 -0.1858  0.3872
  418TMC3    C5 6290   0.830   0.683   0.017 -0.6020  0.7132 -0.0478
  418TMC3    C6 6291   0.702   0.731   0.014  0.2225 -0.0247 -0.0996
  418TMC3     C 6292   0.943   0.752  17.430  0.4805 -0.0948  0.6855
  418TMC3     O 6293   0.946   0.844  17.350 -0.3052 -0.1208 -0.1604
  418TMC3     H 6294   0.694   0.860  17.454 -1.9302 -2.4320  0.5319
  418TMC3    H1 6295   1.011   0.673  17.656  0.0281  2.6323  1.2130
  418TMC3    H2 6296   0.633   0.713   0.095  1.5162  0.9073  1.2170
  418TMC3    C7 6297   0.864   0.578   0.111 -0.5564 -0.1707  0.2418
  418TMC3    C8 6298   0.514   0.765  17.623  0.2289  0.5301 -0.2154
  418TMC3    O1 6299   0.942   0.496   0.075  0.0283 -0.4402  0.0656
  418TMC3    O2 6300   0.445   0.850  17.576 -0.6111  0.2195 -0.0570
  419MPD2     C 6301   3.666   3.214  12.436  0.1013 -0.4456  0.1243
  419MPD2    C1 6302   3.569   3.296  12.391  0.0979 -0.0623  0.2617
  419MPD2    C2 6303   3.514   3.393  12.473  0.2030  0.4290  0.4391
  419MPD2    C3 6304   3.568   3.420  12.592  0.3653  0.8688  0.4471
  419MPD2    C4 6305   3.676   3.347  12.635 -0.7656 -0.4138  0.0051
  419MPD2    C5 6306   3.725   3.249  12.551  0.0732 -0.2396 -0.5386
  419MPD2     H 6307   3.428   3.447  12.436  1.1725 -0.2601 -2.8642
  419MPD2    H1 6308   3.722   3.373  12.730 -3.5952  0.1827  1.2268
  419MPD2    H2 6309   3.719   3.139  12.378  0.8711 -2.1970  3.0530
  419MPD2    H3 6310   3.804   3.184  12.586 -0.5436 -1.0988 -0.7307
  419MPD2     N 6311   3.496   3.518  12.673  0.7527  0.2991 -0.2227
  419MPD2    H5 6312   3.422   3.575  12.634  0.4452 -1.0364 -1.6061
  419MPD2    N1 6313   3.515   3.283  12.263  0.4302  0.7385  0.1630
  419MPD2    H7 6314   3.441   3.350  12.242 -0.4408 -0.5822 -1.0002
  420TMC3    C1 6315   3.446   3.650  12.868  0.3128  0.3688 -0.0950
  420TMC3    C2 6316   3.310   3.656  12.846  0.1556  0.1305 -0.4104
  420TMC3    C3 6317   3.236   3.750  12.917  0.0117  0.1833  0.4110
  420TMC3    C4 6318   3.503   3.728  12.970  0.1366  1.0343  0.5683
  420TMC3    C5 6319   3.418   3.806  13.046 -1.3644  0.1207 -0.5352
  420TMC3    C6 6320   3.283   3.825  13.018 -0.4394 -0.2910  0.9376
  420TMC3     C 6321   3.533   3.561  12.803 -0.4667 -0.0834  1.1841
  420TMC3     O 6322   3.631   3.525  12.871  0.0681 -0.0290  0.0162
  420TMC3     H 6323   3.264   3.611  12.759 -2.4296  2.6289 -0.3283
  420TMC3    H1 6324   3.607   3.723  12.998  0.2587  2.1779  0.2997
  420TMC3    H2 6325   3.214   3.893  13.067 -0.6887 -0.8762  1.4096
  420TMC3    C7 6326   3.447   3.761  13.173 -0.3056  0.4079  0.1555
  420TMC3    C8 6327   3.096   3.776  12.882  0.0358  0.2134  0.4872
  420TMC3    O1 6328   3.488   3.650  13.183 -0.6717  0.3153  0.2577
  420TMC3    O2 6329   3.051   3.887  12.902 -0.6047 -0.6061 -0.2773
  421TMC3    C1 6330   0.252   4.595  13.555  0.4312  0.0445 -0.4178
  421TMC3    C2 6331   0.168   4.609  13.664  0.2829 -0.1829  0.1688
  421TMC3    C3 6332   0.227   4.578  13.789 -0.5646 -0.3591  0.3457
  421TMC3    C4 6333   0.369   4.522  13.563  0.2920  0.5793 -0.2815
  421TMC3    C5 6334   0.402   4.460  13.681 -0.0999 -0.7076 -0.4123
  421TMC3    C6 6335   0.341   4.494  13.798  0.1194 -0.0314  1.1662
  421TMC3     C 6336   0.203   4.648  13.429  0.5901  0.4070  0.3604
  421TMC3     O 6337   0.288   4.674  13.346  0.0976  0.2394 -0.4070
  421TMC3     H 6338   0.076   4.667  13.665  0.6052  0.2941  1.8009
  421TMC3    H1 6339   0.422   4.491  13.474  0.5501 -1.0629  0.4331
  421TMC3    H2 6340   0.383   4.465  13.893 -1.4253  1.2292  2.2377
  421TMC3    C7 6341   0.525   4.387  13.681  0.2195 -0.2164 -0.7855
  421TMC3    C8 6342   0.197   4.643  13.915  0.1041 -0.2277  0.7782
  421TMC3    O1 6343   0.607   4.410  13.599 -0.4640  0.0644  0.1803
  421TMC3    O2 6344   0.271   4.625  14.012  0.6890 -0.6207  0.2117
  422TMC3    C1 6345   1.856   1.919  12.467  0.3459  0.2158  0.6096
  422TMC3    C2 6346   1.877   2.009  12.566 -0.1647  0.0844  0.1351
  422TMC3    C3 6347   1.834   1.981  12.693  0.3225 -0.0278  0.2699
  422TMC3    C4 6348   1.809   1.792  12.490 -0.0174  0.1631  0.2425
  422TMC3    C5 6349   1.744   1.773  12.611  0.6121 -0.4753  0.5610
  422TMC3    C6 6350   1.761   1.860  12.716 -0.1668  0.5285 -0.5448
  422TMC3     C 6351   1.931   1.946  12.339  0.3496  0.0215  0.1457
  422TMC3     O 6352   1.993   2.053  12.329 -0.2785  0.5174 -0.4393
  422TMC3     H 6353   1.938   2.097  12.550 -0.9318  0.9957  2.1675
  422TMC3    H1 6354   1.795   1.724  12.407 -2.4963  1.3315 -0.2984
  422TMC3    H2 6355   1.733   1.827  12.815  0.8435  2.5783  0.4244
  422TMC3    C7 6356   1.706   1.641  12.633  0.3719  0.3490  0.4866
  422TMC3    C8 6357   1.890   2.045  12.803 -0.0435  0.0428  0.3466
  422TMC3    O1 6358   1.761   1.560  12.560  0.2128  0.1733  0.4699
  422TMC3    O2 6359   1.942   2.150  12.770  0.6246  0.4650  1.2274
  423MPD2     C 6360   4.175   2.769   0.599  0.3738 -0.0692 -0.1220
  423MPD2    C1 6361   4.203   2.636   0.613 -0.5281  0.1853  0.0713
  423MPD2    C2 6362   4.239   2.559   0.508 -0.4106  0.2377 -0.0081
  423MPD2    C3 6363   4.239   2.607   0.374  0.1291 -0.2989  0.0796
  423MPD2    C4 6364   4.218   2.742   0.359  0.0631  0.2031 -0.0687
  423MPD2    C5 6365   4.184   2.817   0.472 -0.1739  0.2116 -0.2763
  423MPD2     H 6366   4.260   2.453   0.518  0.7008  0.3609 -1.0229
  423MPD2    H1 6367   4.208   2.785   0.260  0.8382  2.1221  0.6813
  423MPD2    H2 6368   4.153   2.835   0.682  1.2419  0.3377 -0.2106
  423MPD2    H3 6369   4.135   2.914   0.464  0.8201  0.8056  0.9298
  423MPD2     N 6370   4.263   2.533   0.254 -0.0900 -0.3542 -0.5283
  423MPD2    H5 6371   4.278   2.577   0.164 -3.0762  2.4696  0.3442
  423MPD2    N1 6372   4.204   2.572   0.734 -0.1152  0.3537 -0.0988
  423MPD2    H7 6373   4.241   2.478   0.739  1.7775  1.1375  0.4999
  424TMC3    C1 6374   4.176   2.537   0.972 -0.0608 -0.7246  0.1371
  424TMC3    C2 6375   4.290   2.462   0.975 -0.1857 -0.4247 -0.5128
  424TMC3    C3 6376   4.308   2.380   1.086  0.5535  0.0205 -0.0180
  424TMC3    C4 6377   4.102   2.556   1.084 -0.9541 -0.9156 -0.4122
  424TMC3    C5 6378   4.124   2.476   1.192 -0.0908  0.4230  0.2852
  424TMC3    C6 6379   4.227   2.391   1.195 -0.2314 -0.4331  0.2186
  424TMC3     C 6380   4.146   2.616   0.857  0.5908 -0.5144  0.1241
  424TMC3     O 6381   4.079   2.719   0.875 -0.6998 -0.4865  0.0428
  424TMC3     H 6382   4.349   2.453   0.884  3.0810 -0.6229  1.6323
  424TMC3    H1 6383   4.027   2.635   1.086 -1.1093 -1.1290  1.7576
  424TMC3    H2 6384   4.251   2.333   1.283 -2.7929 -2.4657 -0.4154
  424TMC3    C7 6385   4.032   2.466   1.306  0.2497 -0.4207 -0.3803
  424TMC3    C8 6386   4.358   2.251   1.057 -0.4420 -0.5396 -0.2567
  424TMC3    O1 6387   4.066   2.417   1.414  0.0962 -0.5076 -0.1426
  424TMC3    O2 6388   4.321   2.157   1.134 -0.3655 -0.1648  0.3155
  425MPD2     C 6389   3.202   1.953  17.245 -0.6637  0.2717 -0.1653
  425MPD2    C1 6390   3.124   1.852  17.191  0.0151 -0.0806 -0.7906
  425MPD2    C2 6391   2.994   1.870  17.177 -0.5411 -0.5390  0.0152
  425MPD2    C3 6392   2.935   1.984  17.216 -0.2925 -0.7228  0.7784
  425MPD2    C4 6393   3.005   2.080  17.290 -0.4107  0.1831 -0.4244
  425MPD2    C5 6394   3.142   2.062  17.302 -0.1640 -0.1728  0.2431
  425MPD2     H 6395   2.934   1.792  17.133 -0.8202  0.3192 -1.1368
  425MPD2    H1 6396   2.956   2.170  17.326 -0.3325  0.4968 -1.1054
  425MPD2    H2 6397   3.310   1.948  17.248 -0.7907 -1.4181  1.9184
  425MPD2    H3 6398   3.198   2.135  17.360 -1.0342  0.1280  0.7121
  425MPD2     N 6399   2.802   1.983  17.187 -0.7588  0.9092 -0.0174
  425MPD2    H5 6400   2.778   1.903  17.130 -2.9083 -0.2404  2.5130
  425MPD2    N1 6401   3.177   1.741  17.121  0.2879 -0.2488 -0.3681
  425MPD2    H7 6402   3.110   1.699  17.059  0.9367 -0.1185 -1.1577
  426TMC3    C1 6403   3.336   1.576  17.087  0.5579  0.0655 -0.1745
  426TMC3    C2 6404   3.324   1.584  16.953 -0.2848 -0.0846  0.5607
  426TMC3    C3 6405   3.363   1.479  16.877  0.1134  0.2133 -0.0254
  426TMC3    C4 6406   3.383   1.463  17.139 -0.6919 -0.1805 -0.0706
  426TMC3    C5 6407   3.411   1.352  17.064 -0.6233  0.4605  0.0944
  426TMC3    C6 6408   3.400   1.353  16.924  0.2568 -0.5569  0.3143
  426TMC3     C 6409   3.294   1.683  17.168  0.5821 -0.4663 -0.5000
  426TMC3     O 6410   3.338   1.688  17.282  0.2024  0.4450 -0.4649
  426TMC3     H 6411   3.281   1.675  16.915  1.7904  0.5324 -0.3466
  426TMC3    H1 6412   3.401   1.458  17.246  1.5728  1.1884 -0.3806
  426TMC3    H2 6413   3.402   1.260  16.867 -1.6458 -1.2856  1.4356
  426TMC3    C7 6414   3.395   1.223  17.120 -0.1072 -0.3019  0.4252
  426TMC3    C8 6415   3.344   1.482  16.741  0.2391 -0.2898 -0.9955
  426TMC3    O1 6416   3.471   1.131  17.101 -0.4340 -0.2407 -0.0120
  426TMC3    O2 6417   3.341   1.373  16.688 -0.6273  0.0142  0.5555
  427MPD2     C 6418   1.660   3.432  14.736  0.1938 -0.2011 -0.1673
  427MPD2    C1 6419   1.631   3.472  14.867 -0.0811  0.8340 -0.0834
  427MPD2    C2 6420   1.510   3.528  14.899  0.4415 -0.1134 -0.6129
  427MPD2    C3 6421   1.414   3.533  14.798  0.0104  0.5274  0.2778
  427MPD2    C4 6422   1.441   3.501  14.667  0.2513 -0.0705 -0.0685
  427MPD2    C5 6423   1.565   3.454  14.634  0.5939  0.0348 -0.2991
  427MPD2     H 6424   1.494   3.562  15.000  0.2438 -0.8167 -0.4074
  427MPD2    H1 6425   1.365   3.499  14.590 -0.0307  0.9319  0.1824
  427MPD2    H2 6426   1.748   3.375  14.711  0.7546  1.0717 -1.0568
  427MPD2    H3 6427   1.581   3.416  14.534  0.1552 -0.3569 -0.2173
  427MPD2     N 6428   1.281   3.592  14.821 -0.2896 -0.1780  0.1422
  427MPD2    H5 6429   1.225   3.604  14.737 -0.1271 -0.7381 -0.0485
  427MPD2    N1 6430   1.720   3.451  14.980  0.4788 -0.5366 -0.5112
  427MPD2    H7 6431   1.670   3.472  15.066 -1.5748  0.2617 -1.8917
  428TMC3    C1 6432   1.901   3.367  15.113 -0.0488  0.5164  0.2207
  428TMC3    C2 6433   1.851   3.253  15.178  0.2496 -0.1634 -0.0070
  428TMC3    C3 6434   1.941   3.171  15.239  0.4650 -0.5943  0.5026
  428TMC3    C4 6435   2.032   3.393  15.104 -1.1181 -0.7509 -0.8977
  428TMC3    C5 6436   2.120   3.316  15.175 -0.4037 -0.2639  0.4489
  428TMC3    C6 6437   2.074   3.211  15.250 -0.4314  0.7347 -0.5138
  428TMC3     C 6438   1.847   3.398  14.986 -0.0910 -0.3700 -0.3600
  428TMC3     O 6439   1.922   3.384  14.891 -0.1315 -0.2210  0.3213
  428TMC3     H 6440   1.745   3.230  15.177  0.2259 -0.0965  1.8984
  428TMC3    H1 6441   2.056   3.484  15.049  0.6464 -0.5373  0.2077
  428TMC3    H2 6442   2.140   3.143  15.302 -2.9404  0.0085  1.7304
  428TMC3    C7 6443   2.264   3.336  15.164 -0.4680  0.4582 -1.0675
  428TMC3    C8 6444   1.910   3.052  15.315 -0.0855 -0.0026 -0.3125
  428TMC3    O1 6445   2.339   3.306  15.258 -0.1056  0.1155 -0.6209
  428TMC3    O2 6446   1.998   2.968  15.316 -0.6205  0.3924  0.4772
  429MPD2     C 6447   2.638   3.978  17.427 -0.6380  0.3332  0.5609
  429MPD2    C1 6448   2.776   3.964  17.416  0.2984  0.8656  0.3008
  429MPD2    C2 6449   2.850   4.057  17.342  0.1637 -0.4595 -0.2472
  429MPD2    C3 6450   2.787   4.167  17.284  0.6080 -0.5309  0.1261
  429MPD2    C4 6451   2.655   4.178  17.293  0.4837  0.0687 -0.2228
  429MPD2    C5 6452   2.583   4.089  17.370 -0.2074  0.0114 -0.0840
  429MPD2     H 6453   2.953   4.037  17.314 -0.1604  0.7280 -2.3128
  429MPD2    H1 6454   2.597   4.252  17.239  0.6918  0.6620  0.3604
  429MPD2    H2 6455   2.568   3.932  17.496  0.2480 -2.0209 -0.1198
  429MPD2    H3 6456   2.477   4.104  17.383 -0.8709 -4.0122 -0.9659
  429MPD2     N 6457   2.852   4.259  17.203 -0.0255 -0.5370  0.0849
  429MPD2    H5 6458   2.952   4.255  17.213 -0.1780  0.8536  2.3673
  429MPD2    N1 6459   2.833   3.850  17.470  0.8911  0.1508  0.1927
  429MPD2    H7 6460   2.934   3.846  17.469  0.8597  0.2201 -3.5624
  430TMC3    C1 6461   2.898   4.448  17.065  0.1921 -0.1141  0.0189
  430TMC3    C2 6462   2.845   4.543  16.981  0.1320  0.3504  0.8326
  430TMC3    C3 6463   2.898   4.566  16.859  0.0799 -0.3837  0.5814
  430TMC3    C4 6464   3.010   4.378  17.021  0.8166  0.1316 -0.8288
  430TMC3    C5 6465   3.061   4.409  16.895 -0.6948 -0.3844 -0.0793
  430TMC3    C6 6466   3.004   4.496  16.810 -1.0598 -0.1407 -0.0262
  430TMC3     C 6467   2.800   4.367  17.130 -0.0056  0.1572 -0.3311
  430TMC3     O 6468   2.685   4.394  17.105 -0.0631  0.3517 -0.6300
  430TMC3     H 6469   2.751   4.587  17.012 -0.5674 -0.5364 -0.0565
  430TMC3    H1 6470   3.054   4.302  17.084 -0.1563 -0.3569 -0.7401
  430TMC3    H2 6471   3.052   4.523  16.717 -0.8225  1.1678  0.4750
  430TMC3    C7 6472   3.136   4.301  16.842 -0.8084 -0.8957  0.7434
  430TMC3    C8 6473   2.813   4.626  16.754 -0.1084  0.9367 -0.0312
  430TMC3    O1 6474   3.146   4.189  16.893 -0.4089 -0.0492 -0.0046
  430TMC3    O2 6475   2.717   4.685  16.803 -0.5995 -0.5426  0.6289
  431MPD2     C 6476   3.166   3.689  12.508 -0.4935  0.3554 -0.2685
  431MPD2    C1 6477   3.220   3.739  12.386  0.7626  0.1056  0.1647
  431MPD2    C2 6478   3.236   3.654  12.276  0.0301  0.3841  0.1234
  431MPD2    C3 6479   3.200   3.525  12.290 -0.9195  1.0538  0.5827
  431MPD2    C4 6480   3.156   3.475  12.407  0.1585  0.1794 -0.0957
  431MPD2    C5 6481   3.145   3.554  12.517 -0.0644 -0.2663  0.6182
  431MPD2     H 6482   3.265   3.692  12.179 -1.5128  0.1136 -0.4443
  431MPD2    H1 6483   3.133   3.370  12.415  1.2539 -0.1046 -0.7421
  431MPD2    H2 6484   3.137   3.756  12.588 -0.4597  0.0901 -0.0335
  431MPD2    H3 6485   3.117   3.496  12.605  2.2607  1.7559  2.7089
  431MPD2     N 6486   3.210   3.427  12.189  0.0428  0.0342 -0.3519
  431MPD2    H5 6487   3.173   3.333  12.203  2.1832 -0.5215  1.4169
  431MPD2    N1 6488   3.264   3.876  12.372 -0.0683 -0.0392  0.3463
  431MPD2    H7 6489   3.304   3.895  12.281 -0.5653  1.2753  0.4081
  432TMC3    C1 6490   3.282   3.315  11.992  0.6304 -1.2427  0.4907
  432TMC3    C2 6491   3.337   3.348  11.870 -0.1718 -0.1117 -0.0609
  432TMC3    C3 6492   3.457   3.290  11.834  0.1426  0.0886 -0.1954
  432TMC3    C4 6493   3.346   3.234  12.076 -0.5616  0.3711 -0.2353
  432TMC3    C5 6494   3.466   3.190  12.051 -0.0087  0.2841 -0.4994
  432TMC3    C6 6495   3.523   3.213  11.929  0.3238  0.6523 -0.3278
  432TMC3     C 6496   3.244   3.444  12.051  0.4171  0.5931 -0.8293
  432TMC3     O 6497   3.278   3.543  11.987  0.4492 -0.1494  0.1697
  432TMC3     H 6498   3.276   3.405  11.800  0.5712  0.6799 -0.0605
  432TMC3    H1 6499   3.306   3.204  12.172  1.4269  1.7137  1.0201
  432TMC3    H2 6500   3.630   3.199  11.915  0.4473  1.4789 -0.1915
  432TMC3    C7 6501   3.564   3.201  12.167  0.7988  0.1120 -0.4573
  432TMC3    C8 6502   3.543   3.360  11.740 -0.2936 -0.3039 -0.1702
  432TMC3    O1 6503   3.662   3.131  12.157 -0.2499  0.0152 -0.1378
  432TMC3    O2 6504   3.665   3.345  11.757 -0.2646 -0.0792  0.0720
  433MPD2     C 6505   2.140   2.726  10.658  0.4284  0.1901 -0.3609
  433MPD2    C1 6506   2.228   2.621  10.693  0.5050  0.3067 -0.0544
  433MPD2    C2 6507   2.289   2.621  10.818  0.1348 -0.2119  0.3389
  433MPD2    C3 6508   2.265   2.725  10.906  0.3557  0.0943 -0.1951
  433MPD2    C4 6509   2.184   2.829  10.870 -0.4652 -0.5238 -0.2043
  433MPD2    C5 6510   2.125   2.828  10.750  0.4592 -0.3742 -0.9961
  433MPD2     H 6511   2.353   2.537  10.842 -1.2392 -1.4077 -0.1623
  433MPD2    H1 6512   2.177   2.911  10.941  2.3734  0.5877 -1.2276
  433MPD2    H2 6513   2.089   2.734  10.563  0.5346  0.8174 -0.3612
  433MPD2    H3 6514   2.073   2.917  10.716  0.2382 -0.1108  0.0076
  433MPD2     N 6515   2.342   2.719  11.033  0.5980 -0.3871  0.6792
  433MPD2    H5 6516   2.404   2.640  11.051  0.2652 -1.1004 -1.2891
  433MPD2    N1 6517   2.242   2.516  10.595 -0.2051  0.1001 -0.0875
  433MPD2    H7 6518   2.190   2.524  10.508 -0.0511 -0.2858 -0.2175
  434TMC3    C1 6519   2.295   2.308  10.495  0.3732 -0.3318 -0.4410
  434TMC3    C2 6520   2.317   2.180  10.525 -0.5133 -1.0331 -0.0783
  434TMC3    C3 6521   2.411   2.105  10.457  0.3031  0.2019 -0.1318
  434TMC3    C4 6522   2.354   2.367  10.385 -0.5601 -0.3126 -0.1662
  434TMC3    C5 6523   2.434   2.286  10.311  0.5493  0.4643  0.1774
  434TMC3    C6 6524   2.472   2.161  10.349 -0.6028  0.1862 -0.4444
  434TMC3     C 6525   2.306   2.395  10.614  0.1561 -0.3268  0.5813
  434TMC3     O 6526   2.343   2.340  10.715 -0.0502 -0.0832  0.3998
  434TMC3     H 6527   2.271   2.141  10.614 -0.8997  1.2986  0.7361
  434TMC3    H1 6528   2.308   2.456  10.344  1.1277  1.2132  1.2877
  434TMC3    H2 6529   2.540   2.113  10.279  0.2909 -1.0333  1.2553
  434TMC3    C7 6530   2.412   2.306  10.170 -0.9391  0.3870  0.3706
  434TMC3    C8 6531   2.461   1.984  10.521  0.2333 -0.2729 -0.4483
  434TMC3    O1 6532   2.416   2.424  10.132 -0.1951  0.2150 -0.4315
  434TMC3    O2 6533   2.404   1.954  10.625 -0.4040 -0.2555  0.1147
  435MPD2     C 6534   0.139   2.642  15.354  0.3477 -0.4111  0.0710
  435MPD2    C1 6535   0.075   2.612  15.471 -0.7191  0.1327  0.3150
  435MPD2    C2 6536   0.128   2.555  15.583  0.4160 -0.6025  0.2686
  435MPD2    C3 6537   0.262   2.530  15.571  0.1328  0.2242 -0.1900
  435MPD2    C4 6538   0.330   2.551  15.456 -0.3511 -1.2700  0.2704
  435MPD2    C5 6539   0.271   2.597  15.341  0.0499  0.5080  0.9230
  435MPD2     H 6540   0.071   2.542  15.674  0.5568  0.3225  0.4844
  435MPD2    H1 6541   0.432   2.516  15.447  0.3633  1.0471 -0.3460
  435MPD2    H2 6542   0.084   2.694  15.277  1.0298 -0.3792 -0.3988
  435MPD2    H3 6543   0.326   2.615  15.250 -0.7922  0.6464  0.4328
  435MPD2     N 6544   0.323   2.491  15.689 -0.0867 -0.0210  0.5997
  435MPD2    H5 6545   0.270   2.475  15.774 -1.2593 -0.1907 -0.1659
  435MPD2    N1 6546   4.688   2.661  15.499  1.0143 -0.1769 -0.8283
  435MPD2    H7 6547   4.650   2.650  15.592 -0.0748 -0.7054 -1.3347
  436TMC3    C1 6548   4.377   2.854  15.665  0.1492  0.2357 -0.0290
  436TMC3    C2 6549   4.487   2.799  15.613  0.1074  0.3211 -0.1114
  436TMC3    C3 6550   4.475   2.761  15.483  0.4920  0.0328  0.1903
  436TMC3    C4 6551   4.253   2.869  15.603 -0.6350 -0.5116  0.5609
  436TMC3    C5 6552   4.250   2.824  15.473 -0.1410 -0.0696 -0.3225
  436TMC3    C6 6553   4.360   2.776  15.411 -0.1072  0.0481  0.4021
  436TMC3     C 6554   4.382   2.863  15.817  0.1290  0.2302  0.1328
  436TMC3     O 6555   4.491   2.854  15.866  0.4190  0.2129  0.8166
  436TMC3     H 6556   4.579   2.789  15.670 -0.1522 -1.5177 -0.0172
  436TMC3    H1 6557   4.177   2.929  15.650 -0.2793 -0.9257  1.6745
  436TMC3    H2 6558   4.354   2.732  15.312  0.4545  1.1030 -0.0952
  436TMC3    C7 6559   4.123   2.834  15.402  0.5390  0.3757 -0.0370
  436TMC3    C8 6560   4.599   2.720  15.413 -0.8525 -1.1112  0.5943
  436TMC3    O1 6561   4.114   2.821  15.279 -0.3750  0.2291 -0.3890
  436TMC3    O2 6562   4.607   2.739  15.293 -0.2186  0.3988 -0.2095
  437TMC3    C1 6563   2.936   4.673  12.263  0.7940  0.6078 -0.1153
  437TMC3    C2 6564   2.801   4.682  12.240  0.5015  0.4015 -0.1679
  437TMC3    C3 6565   2.763   0.051  12.164  0.1605 -0.2568 -0.5817
  437TMC3    C4 6566   3.033   0.019  12.220  0.3877  0.1896  0.4228
  437TMC3    C5 6567   2.986   0.124  12.149 -0.9538 -0.1217 -0.6431
  437TMC3    C6 6568   2.854   0.146  12.127  0.1887  0.2317  0.2419
  437TMC3     C 6569   2.979   4.591  12.381  0.0307 -0.7383 -0.2699
  437TMC3     O 6570   3.062   4.645  12.447 -0.2221  0.1498  0.0323
  437TMC3     H 6571   2.728   4.617  12.287  0.5303 -0.0907 -0.8105
  437TMC3    H1 6572   3.135   4.720  12.224 -0.0120 -0.9125  0.4753
  437TMC3    H2 6573   2.834   0.235  12.068 -0.7711  1.4319  2.3785
  437TMC3    C7 6574   3.076   0.238  12.121  0.2247 -0.1078  0.3276
  437TMC3    C8 6575   2.622   0.077  12.159  0.2673  0.3540  0.4402
  437TMC3    O1 6576   3.057   0.316  12.028  0.3136  0.1787 -0.1981
  437TMC3    O2 6577   2.546   4.728  12.115  0.4467 -0.0140 -0.0414
  438MPD2     C 6578   1.209   0.603  16.403  0.1523 -0.1726 -0.2223
  438MPD2    C1 6579   1.201   0.472  16.447  0.9567 -0.2143  0.2950
  438MPD2    C2 6580   1.121   0.456  16.565 -0.3647  0.5990 -0.7954
  438MPD2    C3 6581   1.067   0.563  16.639 -0.4229  0.5176  0.1233
  438MPD2    C4 6582   1.097   0.691  16.597  0.4456  0.7065  0.2164
  438MPD2    C5 6583   1.166   0.711  16.481 -0.1890 -0.0832 -0.0689
  438MPD2     H 6584   1.098   0.354  16.594 -0.7453  1.0972  0.6790
  438MPD2    H1 6585   1.079   0.775  16.663  1.7691  0.2627  1.1621
  438MPD2    H2 6586   1.267   0.629  16.316 -0.3574  0.9316 -0.2278
  438MPD2    H3 6587   1.196   0.809  16.446  2.9758  0.0450  2.9111
  438MPD2     N 6588   0.982   0.548  16.755  0.5416  0.3732 -0.0767
  438MPD2    H5 6589   0.953   0.632  16.804 -1.5452 -0.4793  0.1358
  438MPD2    N1 6590   1.255   0.369  16.368  0.0792  1.3311 -0.4557
  438MPD2    H7 6591   1.253   0.283  16.423 -2.4291  0.7451 -1.4755
  439TMC3    C1 6592   1.389   0.248  16.209 -0.3365 -0.4847  0.5937
  439TMC3    C2 6593   1.411   0.229  16.079  0.0039  0.7398  0.0206
  439TMC3    C3 6594   1.470   0.112  16.041  0.1388  0.2205 -0.1794
  439TMC3    C4 6595   1.421   0.161  16.310  0.1989  0.0584 -1.2038
  439TMC3    C5 6596   1.486   0.052  16.266  0.5282 -0.5098  0.5623
  439TMC3    C6 6597   1.513   0.027  16.131 -0.2789  0.5564 -0.3336
  439TMC3     C 6598   1.324   0.368  16.244 -1.2352  0.5817  0.5824
  439TMC3     O 6599   1.324   0.460  16.163 -0.0432  0.4625  0.0368
  439TMC3     H 6600   1.380   0.297  16.001 -5.1741 -0.6083  0.8830
  439TMC3    H1 6601   1.421   0.195  16.413 -0.4068 -2.7941 -0.2737
  439TMC3    H2 6602   1.578   4.684  16.104  0.0637  0.1957  1.5705
  439TMC3    C7 6603   1.568   4.724  16.368 -0.8022 -0.7074  0.1232
  439TMC3    C8 6604   1.507   0.077  15.901 -1.2794 -0.8896  0.5040
  439TMC3    O1 6605   1.555   0.020  16.486 -0.0829  0.0359  0.1257
  439TMC3    O2 6606   1.601   0.002  15.885  0.0655  0.1064 -0.4013
  440MPD2     C 6607   4.121   0.980  14.910  0.1566  0.1672  0.4046
  440MPD2    C1 6608   4.195   1.062  14.990 -0.6612  0.0520  0.1851
  440MPD2    C2 6609   4.304   1.020  15.057  0.4425  0.2050  0.5793
  440MPD2    C3 6610   4.350   0.895  15.037  0.1080  0.4254  0.1382
  440MPD2    C4 6611   4.272   0.807  14.963 -1.1601  0.6353  0.1192
  440MPD2    C5 6612   4.148   0.842  14.911 -0.6196 -0.9733  0.1250
  440MPD2     H 6613   4.372   1.088  15.108  0.4724  0.5371  0.0918
  440MPD2    H1 6614   4.310   0.710  14.933  0.5927  1.0458  1.0114
  440MPD2    H2 6615   4.037   1.016  14.853  0.0956 -0.2684  0.2174
  440MPD2    H3 6616   4.087   0.769  14.859 -0.3127 -0.0804 -1.4853
  440MPD2     N 6617   4.475   0.853  15.084  0.1995 -0.7351  0.0986
  440MPD2    H5 6618   4.501   0.756  15.069  0.1769 -0.4506 -1.7233
  440MPD2    N1 6619   4.163   1.202  14.995 -0.3960  0.1412  0.1183
  440MPD2    H7 6620   4.228   1.257  15.050 -2.2745  1.3657  1.1078
  441TMC3    C1 6621   4.682   0.864  15.191  0.6038  1.2129  0.3906
  441TMC3    C2 6622   0.045   0.953  15.220 -0.2272 -0.1819  0.9308
  441TMC3    C3 6623   0.136   0.922  15.323 -0.5388 -0.4245  0.2302
  441TMC3    C4 6624   4.658   0.750  15.270 -0.4993 -0.2154 -0.1641
  441TMC3    C5 6625   0.012   0.725  15.372  1.1145 -0.1284 -0.1511
  441TMC3    C6 6626   0.115   0.811  15.402 -0.3621 -0.0232  0.2600
  441TMC3     C 6627   4.572   0.939  15.147  0.2402  0.1812  0.0981
  441TMC3     O 6628   4.577   1.057  15.168  0.1280  0.2688 -0.3241
  441TMC3     H 6629   0.062   1.027  15.143  1.1906 -1.7136 -0.2130
  441TMC3    H1 6630   4.571   0.687  15.253 -0.2481 -0.3772 -0.8607
  441TMC3    H2 6631   0.193   0.802  15.477 -0.8712  0.6782  0.8677
  441TMC3    C7 6632   4.702   0.642  15.478 -0.3471  0.5712  0.1549
  441TMC3    C8 6633   0.196   1.033  15.377  0.7840 -0.2169  0.0182
  441TMC3    O1 6634   4.595   0.584  15.464  0.5292  0.1765 -0.0122
  441TMC3    O2 6635   0.288   1.014  15.458 -0.1038  0.1016 -0.0870
  442MPD2     C 6636   3.018   1.254  16.637  0.0342 -0.1845 -0.4755
  442MPD2    C1 6637   2.882   1.229  16.637  0.4948 -0.5519 -0.0594
  442MPD2    C2 6638   2.839   1.118  16.569  0.3138  0.0865 -0.5414
  442MPD2    C3 6639   2.927   1.039  16.497  0.1201 -0.1881 -0.0185
  442MPD2    C4 6640   3.059   1.067  16.503  0.9324  0.1142  0.1493
  442MPD2    C5 6641   3.106   1.175  16.574  0.2062  0.5912  0.2687
  442MPD2     H 6642   2.732   1.102  16.565  0.2545  0.5670 -0.8475
  442MPD2    H1 6643   3.125   1.008  16.441  2.2344  0.9260  0.7699
  442MPD2    H2 6644   3.057   1.346  16.678 -0.7809  0.1627 -0.4807
  442MPD2    H3 6645   3.209   1.207  16.568 -0.1931  1.7816 -0.0399
  442MPD2     N 6646   2.891   0.933  16.412  0.1400 -0.0568  0.3518
  442MPD2    H5 6647   2.961   0.892  16.351  0.2019 -2.3380  1.9557
  442MPD2    N1 6648   2.785   1.320  16.695 -0.1545 -0.6798  0.1585
  442MPD2    H7 6649   2.688   1.290  16.697  1.0985 -4.7921 -0.5569
  443TMC3    C1 6650   2.699   1.522  16.766 -0.8651  0.4564 -0.5155
  443TMC3    C2 6651   2.664   1.598  16.658 -0.2273 -0.3877 -0.4744
  443TMC3    C3 6652   2.531   1.640  16.659  0.6929 -0.1208 -0.0983
  443TMC3    C4 6653   2.605   1.467  16.853  0.4314 -0.2669  0.6976
  443TMC3    C5 6654   2.481   1.518  16.858  0.2861 -0.0811  0.6358
  443TMC3    C6 6655   2.444   1.607  16.761 -0.8356 -0.8158  0.9571
  443TMC3     C 6656   2.817   1.446  16.729 -0.9595  0.8045 -0.2916
  443TMC3     O 6657   2.898   1.512  16.671 -0.1478  0.2057 -0.1575
  443TMC3     H 6658   2.728   1.627  16.576  2.5049 -0.1821  1.7596
  443TMC3    H1 6659   2.635   1.404  16.936  3.1347  0.5169  0.3201
  443TMC3    H2 6660   2.339   1.623  16.743 -0.4070 -0.2873 -1.0674
  443TMC3    C7 6661   2.376   1.423  16.908 -0.2130  0.6840  0.0262
  443TMC3    C8 6662   2.470   1.625  16.533  0.1484 -0.2742 -0.1775
  443TMC3    O1 6663   2.412   1.316  16.947  0.0942  0.3195  0.0145
  443TMC3    O2 6664   2.369   1.554  16.512 -0.7455 -0.6128  0.1820
  444MPD2     C 6665   2.959   1.025  16.962  0.1247  0.4577 -0.2476
  444MPD2    C1 6666   2.859   0.945  16.907  0.0813  0.4168 -0.0290
  444MPD2    C2 6667   2.892   0.866  16.802  0.2732  0.9666 -0.2404
  444MPD2    C3 6668   3.023   0.858  16.753 -0.4294  0.4141  0.0112
  444MPD2    C4 6669   3.122   0.942  16.805  0.2090  0.2015  0.1429
  444MPD2    C5 6670   3.086   1.027  16.903 -0.2339  1.0665  0.2409
  444MPD2     H 6671   2.820   0.789  16.776  1.8002 -0.2999 -0.7733
  444MPD2    H1 6672   3.226   0.937  16.776  0.5007  1.0117  1.0569
  444MPD2    H2 6673   2.937   1.090  17.045 -0.2755 -0.1908  0.1540
  444MPD2    H3 6674   3.163   1.093  16.941  1.7948 -1.3049  0.2479
  444MPD2     N 6675   3.049   0.760  16.651  0.2284  0.4828  0.2053
  444MPD2    H5 6676   2.966   0.711  16.619 -0.4089 -0.9369  4.0691
  444MPD2    N1 6677   2.722   0.948  16.948 -0.6617 -0.3309 -0.0057
  444MPD2    H7 6678   2.659   0.888  16.896 -0.3484 -1.6277  1.1413
  445TMC3    C1 6679   3.174   0.624  16.509 -0.5297 -0.0587 -0.1539
  445TMC3    C2 6680   3.059   0.586  16.442 -0.1996 -0.0191 -0.2111
  445TMC3    C3 6681   3.066   0.470  16.377  0.5175 -0.4000 -0.1160
  445TMC3    C4 6682   3.289   0.546  16.512 -0.1066  0.1333  0.7995
  445TMC3    C5 6683   3.283   0.425  16.445 -0.4102 -0.2905 -0.1152
  445TMC3    C6 6684   3.173   0.382  16.377 -0.0961 -0.3003 -0.6066
  445TMC3     C 6685   3.170   0.745  16.589 -0.0361  0.3779 -0.1278
  445TMC3     O 6686   3.282   0.783  16.628 -0.2197  0.2191 -0.1879
  445TMC3     H 6687   2.969   0.646  16.433 -1.1275 -0.9692  2.4953
  445TMC3    H1 6688   3.381   0.578  16.560 -0.4028  0.7322  0.9577
  445TMC3    H2 6689   3.180   0.292  16.316 -2.3843 -1.7620  1.3128
  445TMC3    C7 6690   3.409   0.363  16.421 -0.0625 -0.0665 -0.1885
  445TMC3    C8 6691   2.982   0.469  16.265 -0.4927 -0.7103 -0.0095
  445TMC3    O1 6692   3.511   0.432  16.442 -0.2245 -0.3985 -0.0268
  445TMC3    O2 6693   2.959   0.574  16.215 -0.4892 -0.2545  0.2906
  446MPD2     C 6694   2.033   1.955  11.064 -0.4693  0.5705  0.1133
  446MPD2    C1 6695   2.051   1.949  10.925  0.2514 -0.4143 -0.9832
  446MPD2    C2 6696   2.177   1.968  10.879  0.1339  0.3051  0.1793
  446MPD2    C3 6697   2.276   2.012  10.960  0.1830 -0.3706  0.4271
  446MPD2    C4 6698   2.250   2.024  11.092  0.9799 -0.8772 -0.0975
  446MPD2    C5 6699   2.136   1.987  11.146 -0.6258  1.1055  0.2844
  446MPD2     H 6700   2.196   1.957  10.772  0.0339 -1.3048  0.3280
  446MPD2    H1 6701   2.337   2.053  11.151  1.4771  0.8251 -1.6615
  446MPD2    H2 6702   1.942   1.928  11.115 -0.0031 -1.6879 -0.2437
  446MPD2    H3 6703   2.122   1.997  11.253  1.2342  0.2128  0.6096
  446MPD2     N 6704   2.404   2.051  10.903  1.0332  0.1984 -0.1824
  446MPD2    H5 6705   2.414   2.047  10.802  1.1067  0.9491 -0.2106
  446MPD2    N1 6706   1.955   1.907  10.834 -0.5287  0.3199 -0.3408
  446MPD2    H7 6707   1.978   1.914  10.736 -0.8215 -0.7723 -0.4816
  447TMC3    C1 6708   2.637   2.095  10.886  0.0256 -0.1252 -0.4634
  447TMC3    C2 6709   2.629   2.175  10.772 -0.4266  0.4352 -0.3166
  447TMC3    C3 6710   2.745   2.222  10.721  0.2383 -0.2922  0.4404
  447TMC3    C4 6711   2.763   2.067  10.937  0.4178  0.8758 -0.4251
  447TMC3    C5 6712   2.880   2.113  10.882 -0.3621  0.7025 -0.4038
  447TMC3    C6 6713   2.871   2.194  10.764  0.2274 -0.1505 -0.3278
  447TMC3     C 6714   2.520   2.069  10.972  0.1488 -0.1300 -0.5667
  447TMC3     O 6715   2.549   2.044  11.085 -0.2947 -0.8950 -0.2937
  447TMC3     H 6716   2.534   2.199  10.725  1.4987  2.8566 -2.9437
  447TMC3    H1 6717   2.765   2.013  11.031  2.3060  0.2450 -0.8422
  447TMC3    H2 6718   2.960   2.226  10.711 -0.0503 -0.7859 -1.1794
  447TMC3    C7 6719   3.013   2.050  10.892  0.2842 -0.2165  0.2306
  447TMC3    C8 6720   2.720   2.312  10.606 -0.5710  0.1438  0.3963
  447TMC3    O1 6721   3.091   2.062  10.794 -0.1506  0.0091 -0.1241
  447TMC3    O2 6722   2.615   2.304  10.538  0.2852  0.2557 -0.2804
  448TMC3    C1 6723   1.099   2.046  16.651 -0.2079  0.3221  1.0341
  448TMC3    C2 6724   1.071   1.939  16.565 -0.4537  0.2283 -0.4527
  448TMC3    C3 6725   1.118   1.815  16.598  0.1997  0.2242 -0.1167
  448TMC3    C4 6726   1.173   2.036  16.765 -0.7179 -0.2229 -0.5347
  448TMC3    C5 6727   1.222   1.911  16.791 -0.2808  1.1017  0.0274
  448TMC3    C6 6728   1.196   1.802  16.709  0.4557  0.0894 -0.7614
  448TMC3     C 6729   1.066   2.184  16.616  0.3901  0.0914  0.6439
  448TMC3     O 6730   0.948   2.193  16.576  0.1612 -0.1557  0.8277
  448TMC3     H 6731   1.010   1.957  16.478  1.6370  1.2546 -1.7143
  448TMC3    H1 6732   1.181   2.117  16.836 -2.2026  0.3978 -1.0815
  448TMC3    H2 6733   1.221   1.701  16.741  0.5159  1.0193  2.1054
  448TMC3    C7 6734   1.305   1.891  16.914  0.1754 -0.0615 -0.5205
  448TMC3    C8 6735   1.085   1.691  16.527 -0.3803  0.7600  0.4918
  448TMC3    O1 6736   1.330   1.990  16.981  0.3474 -0.1317  0.0862
  448TMC3    O2 6737   1.143   1.592  16.564  0.1958 -0.6946 -0.4392
  449MPD2     C 6738   2.451   0.296  13.834  0.8747  0.6763  0.2071
  449MPD2    C1 6739   2.324   0.343  13.848 -1.2877 -0.0359 -0.8849
  449MPD2    C2 6740   2.219   0.257  13.893 -0.0874  0.3910 -0.3325
  449MPD2    C3 6741   2.248   0.135  13.946 -0.1265  0.9491  0.7513
  449MPD2    C4 6742   2.379   0.093  13.949  0.0913 -1.1209  0.3308
  449MPD2    C5 6743   2.478   0.171  13.888  0.3149  0.6742 -0.4162
  449MPD2     H 6744   2.116   0.290  13.882 -0.0218  0.5252 -0.5427
  449MPD2    H1 6745   2.407   4.730  13.973  2.5196 -0.2769  1.0167
  449MPD2    H2 6746   2.530   0.360  13.797  1.4039  1.6398  2.9684
  449MPD2    H3 6747   2.578   0.129  13.896 -0.0073  0.0801  0.4068
  449MPD2     N 6748   2.137   0.064  13.996 -0.0882  0.1068  0.7154
  449MPD2    H5 6749   2.048   0.105  13.969  0.7958  0.8868 -1.0262
  449MPD2    N1 6750   2.281   0.469  13.800  0.0069  0.6672  0.2141
  449MPD2    H7 6751   2.182   0.489  13.797  0.2340  1.6331 -0.9807
  450TMC3    C1 6752   2.280   0.655  13.657 -0.3932 -0.9392 -0.3873
  450TMC3    C2 6753   2.317   0.654  13.527  0.1884 -0.2427 -0.4430
  450TMC3    C3 6754   2.207   0.662  13.445 -0.0446  0.2001 -0.3970
  450TMC3    C4 6755   2.152   0.659  13.702 -0.5645 -0.4805 -0.5093
  450TMC3    C5 6756   2.047   0.657  13.612 -0.7448 -0.4216  0.3291
  450TMC3    C6 6757   2.073   0.665  13.479 -0.2112 -0.1124  0.0051
  450TMC3     C 6758   2.360   0.561  13.733  0.4741 -0.0800  0.4343
  450TMC3     O 6759   2.477   0.550  13.702 -0.0149  0.1206 -0.2107
  450TMC3     H 6760   2.422   0.649  13.503  0.6676 -1.0672  1.8395
  450TMC3    H1 6761   2.140   0.654  13.810  0.0520  1.1623 -0.3573
  450TMC3    H2 6762   1.993   0.659  13.406 -0.9678  1.1746  0.7058
  450TMC3    C7 6763   1.962   0.541  13.648  0.3354 -0.5041 -0.3386
  450TMC3    C8 6764   2.231   0.679  13.299  0.2841  0.8037  0.0213
  450TMC3    O1 6765   2.010   0.463  13.728 -0.1254 -0.0345 -0.1919
  450TMC3    O2 6766   2.140   0.708  13.223  0.2789 -0.0830  0.4010
  451MPD2     C 6767   3.889   4.048   1.064  0.3923 -0.3787 -0.6211
  451MPD2    C1 6768   3.855   4.085   0.935 -0.4153  0.3373 -0.1436
  451MPD2    C2 6769   3.861   3.974   0.849  0.1742  0.7158  0.2101
  451MPD2    C3 6770   3.898   3.846   0.884 -0.5118  0.4187  0.5224
  451MPD2    C4 6771   3.947   3.822   1.006 -0.2741  0.2716 -0.3552
  451MPD2    C5 6772   3.947   3.925   1.094 -0.6207 -0.2730 -0.2492
  451MPD2     H 6773   3.826   3.979   0.746  2.2720 -3.3718 -0.7196
  451MPD2    H1 6774   3.988   3.722   1.018 -0.3913  0.2960  0.2496
  451MPD2    H2 6775   3.874   4.115   1.148  0.4141 -0.5659 -0.4688
  451MPD2    H3 6776   3.989   3.900   1.190 -1.5426  0.0176  0.2296
  451MPD2     N 6777   3.898   3.746   0.781 -0.4855 -0.3417  0.3729
  451MPD2    H5 6778   3.865   3.778   0.690 -1.9153  3.1137  2.1150
  451MPD2    N1 6779   3.818   4.216   0.900  0.1317  0.6491 -0.4493
  451MPD2    H7 6780   3.819   4.284   0.975 -1.0771 -1.0324  1.0935
  452TMC3    C1 6781   3.880   3.548   0.660 -0.1990 -0.7363 -0.2137
  452TMC3    C2 6782   3.821   3.428   0.660  0.2425 -0.5965  0.2384
  452TMC3    C3 6783   3.801   3.375   0.533 -0.1175  0.3147 -0.5187
  452TMC3    C4 6784   3.942   3.599   0.555 -0.0508 -0.5368  0.0313
  452TMC3    C5 6785   3.925   3.542   0.433  0.0505 -0.1698 -0.4704
  452TMC3    C6 6786   3.861   3.422   0.420 -0.2618  0.0380 -0.3952
  452TMC3     C 6787   3.903   3.613   0.795 -0.9322 -0.6364 -0.4302
  452TMC3     O 6788   3.894   3.545   0.894  0.4273  0.4372 -0.1065
  452TMC3     H 6789   3.776   3.389   0.750  0.6178 -1.4822  0.0411
  452TMC3    H1 6790   4.018   3.676   0.560 -1.7109  1.0177  1.1205
  452TMC3    H2 6791   3.832   3.373   0.328 -0.0449 -1.7349  0.4936
  452TMC3    C7 6792   4.034   3.571   0.346 -0.1942 -0.1140  0.7661
  452TMC3    C8 6793   3.738   3.240   0.526 -0.3608 -0.6751  0.5233
  452TMC3    O1 6794   4.086   3.681   0.340 -0.3016 -0.1169  0.3458
  452TMC3    O2 6795   3.747   3.188   0.416 -0.1636  0.4278 -0.0106
  453TMC3    C1 6796   4.385   1.129  11.562 -0.1876 -0.6040  0.7127
  453TMC3    C2 6797   4.316   1.017  11.521  0.4526 -0.4309 -0.5757
  453TMC3    C3 6798   4.335   0.973  11.386 -0.3972  0.1965  0.0587
  453TMC3    C4 6799   4.458   1.203  11.475 -0.0058 -0.8056 -0.2080
  453TMC3    C5 6800   4.467   1.170  11.340  0.2454 -0.1252  0.5006
  453TMC3    C6 6801   4.400   1.055  11.292 -0.3214 -0.0549 -0.1042
  453TMC3     C 6802   4.389   1.176  11.703 -0.0415  0.1586  0.2296
  453TMC3     O 6803   4.386   1.297  11.726  0.2585  0.4371 -0.2771
  453TMC3     H 6804   4.245   0.975  11.592  1.3546 -2.0710 -0.6464
  453TMC3    H1 6805   4.500   1.298  11.507 -2.3444  1.2109 -3.0721
  453TMC3    H2 6806   4.418   1.022  11.190  2.5898  0.2815  0.3064
  453TMC3    C7 6807   4.536   1.246  11.238 -0.4312 -0.4575 -0.1591
  453TMC3    C8 6808   4.248   0.869  11.330 -0.3720 -0.2435  1.0287
  453TMC3    O1 6809   4.513   1.222  11.121  0.5724  0.1682  0.1279
  453TMC3    O2 6810   4.234   0.867  11.210 -0.2016  0.0025 -0.4096
  454MPD2     C 6811   3.651   0.630  16.006 -0.7703  0.0269  0.3327
  454MPD2    C1 6812   3.589   0.681  15.892  0.0894 -0.2890  0.0768
  454MPD2    C2 6813   3.546   0.809  15.887 -1.2973  0.0930  0.1142
  454MPD2    C3 6814   3.558   0.890  16.004  0.3833  0.3539  0.4314
  454MPD2    C4 6815   3.613   0.836  16.114  0.2541  0.1014  0.3484
  454MPD2    C5 6816   3.657   0.706  16.113  0.1971 -0.0108 -0.2541
  454MPD2     H 6817   3.495   0.842  15.797 -3.4028  1.5760  1.8573
  454MPD2    H1 6818   3.632   0.896  16.203  1.4700 -2.2016  1.6388
  454MPD2    H2 6819   3.688   0.529  16.013 -0.6927 -0.1254 -2.6073
  454MPD2    H3 6820   3.695   0.675  16.210 -1.0675  0.0752  0.2657
  454MPD2     N 6821   3.508   1.021  16.011  0.3670 -0.9855 -0.0354
  454MPD2    H5 6822   3.524   1.058  16.104  2.2696  1.5949 -1.3855
  454MPD2    N1 6823   3.550   0.601  15.780 -0.1364 -0.5915 -0.7807
  454MPD2    H7 6824   3.490   0.634  15.706  1.0051  0.8613 -1.0811
  455TMC3    C1 6825   3.329   1.143  15.933 -0.6767 -0.3831  0.5667
  455TMC3    C2 6826   3.326   1.241  16.024 -0.1730  0.1747 -0.7175
  455TMC3    C3 6827   3.246   1.227  16.131  0.4195 -0.0015 -0.0602
  455TMC3    C4 6828   3.248   1.037  15.942 -0.3135  0.5117 -0.6419
  455TMC3    C5 6829   3.171   1.022  16.055 -0.4505  0.6111 -0.1049
  455TMC3    C6 6830   3.166   1.120  16.146  0.4218  0.1200  0.3962
  455TMC3     C 6831   3.463   1.094  15.905 -0.3816  0.0210 -0.2458
  455TMC3     O 6832   3.487   1.070  15.789 -0.1085  0.0151  0.3738
  455TMC3     H 6833   3.402   1.316  16.006  1.2679 -0.2655  3.4396
  455TMC3    H1 6834   3.265   0.955  15.874  1.8152 -0.0253  0.5578
  455TMC3    H2 6835   3.103   1.097  16.231 -1.8490  1.6003 -0.8626
  455TMC3    C7 6836   3.172   0.894  16.122 -0.2245  0.2823 -0.4544
  455TMC3    C8 6837   3.243   1.334  16.231 -0.6052  0.4458 -0.0185
  455TMC3    O1 6838   3.185   0.889  16.244 -0.2521  0.0411  0.7603
  455TMC3    O2 6839   3.172   1.309  16.328  0.7471 -0.4843 -0.6219
  456MPD2     C 6840   1.321   0.568  15.588  0.0756 -0.0935  0.0672
  456MPD2    C1 6841   1.410   0.554  15.691  0.1461  0.1698 -0.7552
  456MPD2    C2 6842   1.384   0.621  15.805 -0.0958 -0.2185  0.2982
  456MPD2    C3 6843   1.273   0.703  15.823 -0.2450 -0.3999 -0.4349
  456MPD2    C4 6844   1.175   0.705  15.725 -0.1698  0.0219  0.1297
  456MPD2    C5 6845   1.210   0.645  15.609  0.0186  0.4980  0.2816
  456MPD2     H 6846   1.456   0.608  15.885 -0.2048  1.4016  0.6537
  456MPD2    H1 6847   1.079   0.755  15.726  0.4780  1.3044 -2.5355
  456MPD2    H2 6848   1.329   0.512  15.495  0.9531 -0.1201  0.1554
  456MPD2    H3 6849   1.143   0.673  15.528 -0.4954  0.7210  0.7884
  456MPD2     N 6850   1.265   0.771  15.943  0.0450 -0.5347  0.9182
  456MPD2    H5 6851   1.325   0.753  16.023 -0.2958  0.2664  1.3520
  456MPD2    N1 6852   1.518   0.468  15.661 -0.4768 -0.4341 -0.1372
  456MPD2    H7 6853   1.539   0.438  15.566 -1.8080 -0.2527 -0.4923
  457TMC3    C1 6854   1.241   0.954  16.081 -0.5613 -0.2364  0.8959
  457TMC3    C2 6855   1.200   1.083  16.089 -0.6790 -0.5167 -0.3938
  457TMC3    C3 6856   1.283   1.167  16.155  0.3431 -0.1837 -0.2657
  457TMC3    C4 6857   1.343   0.910  16.153  0.0634  0.2590  0.3454
  457TMC3    C5 6858   1.434   0.995  16.211 -0.4898  0.3365 -0.3365
  457TMC3    C6 6859   1.400   1.124  16.214 -0.5108  0.4695  0.8013
  457TMC3     C 6860   1.196   0.883  15.957 -0.4430  0.2887  0.3821
  457TMC3     O 6861   1.119   0.933  15.879 -0.5151 -0.5644 -0.0356
  457TMC3     H 6862   1.105   1.111  16.043 -1.0445 -2.9937 -1.1783
  457TMC3    H1 6863   1.345   0.807  16.185  0.6867  0.3649  0.6405
  457TMC3    H2 6864   1.470   1.201  16.243 -0.0613  0.4799 -0.2949
  457TMC3    C7 6865   1.511   0.942  16.326  0.2277 -0.0877 -0.6626
  457TMC3    C8 6866   1.228   1.290  16.196 -0.8095 -0.5875  0.0836
  457TMC3    O1 6867   1.466   0.841  16.382  0.5445 -0.0308 -0.3966
  457TMC3    O2 6868   1.294   1.341  16.285 -0.9556  0.9011  0.3076
  458MPD2     C 6869   3.507   0.458  12.303 -0.0358  1.0052  0.4795
  458MPD2    C1 6870   3.466   0.375  12.398 -0.6252  0.0327 -0.0250
  458MPD2    C2 6871   3.345   0.305  12.372  0.2312  0.1981 -0.5356
  458MPD2    C3 6872   3.285   0.310  12.250  0.1376 -0.4020  0.2447
  458MPD2    C4 6873   3.327   0.399  12.156  0.9607  0.0748 -0.0047
  458MPD2    C5 6874   3.442   0.469  12.184  0.9849  0.7885 -0.1283
  458MPD2     H 6875   3.294   0.252  12.452 -1.1080  2.4327  0.0819
  458MPD2    H1 6876   3.291   0.415  12.055  3.1890  0.6027 -0.7068
  458MPD2    H2 6877   3.597   0.518  12.312 -0.5221  1.7659  0.2619
  458MPD2    H3 6878   3.486   0.529  12.106 -0.6112  0.9254 -0.9223
  458MPD2     N 6879   3.171   0.231  12.223  0.1331 -0.5815 -0.3684
  458MPD2    H5 6880   3.153   0.156  12.289  0.2204 -1.1821 -1.0268
  458MPD2    N1 6881   3.544   0.346  12.510  0.1537 -0.2385  0.5977
  458MPD2    H7 6882   3.641   0.375  12.498 -0.5772  1.7579 -0.4249
  459TMC3    C1 6883   3.624   0.236  12.715  0.2553 -0.0087  0.0088
  459TMC3    C2 6884   3.750   0.264  12.679 -0.1116 -0.4131 -0.2867
  459TMC3    C3 6885   3.844   0.164  12.710  0.0785  0.9835  0.1906
  459TMC3    C4 6886   3.600   0.134  12.801  0.2048  0.6476  0.1110
  459TMC3    C5 6887   3.694   0.038  12.835  0.3827  0.1638  0.0683
  459TMC3    C6 6888   3.819   0.043  12.781 -0.4538  0.5986 -0.5008
  459TMC3     C 6889   3.510   0.279  12.628 -0.4199  0.2424 -0.2883
  459TMC3     O 6890   3.400   0.228  12.641  0.4469  0.6369  0.2374
  459TMC3     H 6891   3.771   0.361  12.635  3.6264 -0.4494  1.4370
  459TMC3    H1 6892   3.501   0.129  12.846 -0.1999 -1.7569 -1.0182
  459TMC3    H2 6893   3.904   4.728  12.823 -0.1985 -0.7034 -2.6799
  459TMC3    C7 6894   3.675   4.684  12.946 -0.0914 -0.4534  0.2707
  459TMC3    C8 6895   3.979   0.212  12.706  0.5368  0.2777  0.0936
  459TMC3    O1 6896   3.770   4.615  12.980  0.4756  0.8833  0.1097
  459TMC3    O2 6897   4.062   0.153  12.768 -0.7967 -0.1767 -0.1780
  460MPD2     C 6898   2.955   2.564  10.469 -0.4783  0.3816 -0.6217
  460MPD2    C1 6899   2.845   2.486  10.469  1.0228 -0.0789  0.3615
  460MPD2    C2 6900   2.749   2.498  10.364  0.2803 -0.3688 -0.7516
  460MPD2    C3 6901   2.763   2.601  10.268 -0.1177 -1.2133 -0.3226
  460MPD2    C4 6902   2.879   2.682  10.266 -0.2141  0.1212 -0.1157
  460MPD2    C5 6903   2.973   2.655  10.363  0.1481  0.4293  0.9561
  460MPD2     H 6904   2.667   2.428  10.354  1.4979 -1.9057 -0.0566
  460MPD2    H1 6905   2.870   2.777  10.214 -0.2339  0.4724  0.5210
  460MPD2    H2 6906   3.036   2.557  10.540 -1.6069  0.1227  0.6329
  460MPD2    H3 6907   3.060   2.719  10.369  0.5794 -0.2792  2.0673
  460MPD2     N 6908   2.659   2.619  10.174  0.4875 -0.1786  0.1845
  460MPD2    H5 6909   2.596   2.541  10.156  1.3552 -1.0391  0.9093
  460MPD2    N1 6910   2.830   2.393  10.576  0.4391  0.1266  0.6210
  460MPD2    H7 6911   2.905   2.404  10.643  0.9402  1.0137 -0.0762
  461TMC3    C1 6912   2.525   2.730  10.005  0.1148 -0.0044  0.5906
  461TMC3    C2 6913   2.517   2.617   9.929  0.9286 -0.5103 -0.2402
  461TMC3    C3 6914   2.424   2.610   9.836  0.3644 -0.5571  0.1733
  461TMC3    C4 6915   2.451   2.839   9.988  0.1536 -1.0187  0.0431
  461TMC3    C5 6916   2.346   2.819   9.904 -1.3333  0.6701 -0.3807
  461TMC3    C6 6917   2.331   2.714   9.817 -0.5610  0.1113 -0.0371
  461TMC3     C 6918   2.635   2.736  10.101 -0.7713  0.0768  0.1980
  461TMC3     O 6919   2.675   2.851  10.115 -0.0593  0.0114 -0.0526
  461TMC3     H 6920   2.602   2.550   9.929 -1.0662 -3.0506 -1.5139
  461TMC3    H1 6921   2.466   2.926  10.051 -0.4120 -0.9214  0.0436
  461TMC3    H2 6922   2.243   2.712   9.754 -0.2113  2.4634 -0.5972
  461TMC3    C7 6923   2.222   2.893   9.924 -0.1964 -0.3004 -0.2265
  461TMC3    C8 6924   2.447   2.514   9.732 -0.0315 -0.0832 -0.4668
  461TMC3    O1 6925   2.131   2.861   9.852  0.9936 -0.3512 -0.1006
  461TMC3    O2 6926   2.507   2.414   9.763  0.4058 -0.4238 -0.0612
  462TMC3    C1 6927   3.068   3.871   0.490 -0.3260  0.3023 -0.4825
  462TMC3    C2 6928   3.204   3.840   0.488 -0.8228  1.2223  0.2098
  462TMC3    C3 6929   3.249   3.725   0.427 -1.1245 -0.4743 -0.3307
  462TMC3    C4 6930   2.979   3.787   0.425  0.0386  0.4570  0.0867
  462TMC3    C5 6931   3.035   3.678   0.366  0.2972  0.7060  0.9440
  462TMC3    C6 6932   3.167   3.637   0.373  0.1986 -0.5271  0.6007
  462TMC3     C 6933   3.029   4.000   0.541  0.0048  0.6927 -1.3248
  462TMC3     O 6934   3.108   4.062   0.618  0.0519  0.1415  0.6520
  462TMC3     H 6935   3.276   3.911   0.526  1.2997  0.3435 -2.2420
  462TMC3    H1 6936   2.872   3.807   0.425  0.4193  2.3208 -2.0681
  462TMC3    H2 6937   3.196   3.565   0.297  2.0080  0.0693  0.7107
  462TMC3    C7 6938   2.944   3.591   0.290 -1.4435  0.1038  1.1721
  462TMC3    C8 6939   3.383   3.741   0.379  0.2379 -0.4261 -0.6377
  462TMC3    O1 6940   2.981   3.476   0.287 -0.6252  0.2755 -0.3668
  462TMC3    O2 6941   3.433   3.849   0.393  0.6567 -0.4598  0.1063
  463MPD2     C 6942   4.184   0.969   1.146  0.1950 -0.6451  0.3674
  463MPD2    C1 6943   4.101   1.064   1.206  0.1456 -0.3132 -0.1672
  463MPD2    C2 6944   4.157   1.161   1.282  0.7417  0.2683  0.5133
  463MPD2    C3 6945   4.296   1.181   1.291 -1.4694 -0.5894  0.3851
  463MPD2    C4 6946   4.380   1.088   1.221  0.0766  0.0973 -0.9013
  463MPD2    C5 6947   4.326   0.984   1.152 -1.3998 -0.5058 -0.1023
  463MPD2     H 6948   4.094   1.230   1.337 -0.9866 -1.0005  0.1517
  463MPD2    H1 6949   4.488   1.086   1.230  0.2203  1.2039 -2.2743
  463MPD2    H2 6950   4.152   0.888   1.082  0.0386 -0.5441  0.3184
  463MPD2    H3 6951   4.395   0.912   1.110  0.2517  0.2094  1.3783
  463MPD2     N 6952   4.367   1.282   1.369  0.5321  0.1792 -0.3652
  463MPD2    H5 6953   4.468   1.291   1.363  0.7702 -0.7999  2.0739
  463MPD2    N1 6954   3.964   1.074   1.185  0.0689 -0.3769  0.1517
  463MPD2    H7 6955   3.916   1.148   1.236  0.0265 -2.1748  2.7473
  464TMC3    C1 6956   3.750   1.012   1.099 -0.6384 -0.5866 -0.3653
  464TMC3    C2 6957   3.689   1.087   1.191  0.4196  0.1798 -0.0565
  464TMC3    C3 6958   3.551   1.117   1.181  0.1249  0.2551  0.9598
  464TMC3    C4 6959   3.688   0.955   0.999 -0.6341  0.0538  0.1608
  464TMC3    C5 6960   3.555   0.983   0.984 -0.6118 -0.1757  0.4063
  464TMC3    C6 6961   3.484   1.065   1.072 -0.3755  0.4722  0.3257
  464TMC3     C 6962   3.888   0.982   1.111 -0.5360 -1.0270  0.1681
  464TMC3     O 6963   3.942   0.900   1.037  0.2739  0.1936 -0.2263
  464TMC3     H 6964   3.747   1.125   1.274  2.3702 -3.1067  0.0925
  464TMC3    H1 6965   3.740   0.900   0.920  0.4869  3.6302 -1.5704
  464TMC3    H2 6966   3.378   1.084   1.060  0.4923  4.1199 -1.4161
  464TMC3    C7 6967   3.498   0.946   0.855  0.3384 -0.4402 -0.2685
  464TMC3    C8 6968   3.484   1.202   1.276  0.1808  0.5960  0.8956
  464TMC3    O1 6969   3.544   0.849   0.797 -0.6244 -0.6192  0.3679
  464TMC3    O2 6970   3.557   1.282   1.333 -0.4415  0.0088 -0.2109
  465MPD2     C 6971   0.709   0.513  16.549 -0.4822  0.3410  0.4932
  465MPD2    C1 6972   0.585   0.491  16.609 -0.1780 -0.9316  0.4014
  465MPD2    C2 6973   0.487   0.582  16.589 -0.4167  0.3795  0.0951
  465MPD2    C3 6974   0.506   0.689  16.503  0.5947  0.7487 -0.4845
  465MPD2    C4 6975   0.630   0.705  16.445  1.3316 -0.6134  0.0571
  465MPD2    C5 6976   0.731   0.619  16.467  0.1331  0.2033  0.3118
  465MPD2     H 6977   0.392   0.574  16.640 -1.9347  0.9479 -2.6383
  465MPD2    H1 6978   0.656   0.783  16.374  0.9864 -1.0110 -0.5115
  465MPD2    H2 6979   0.780   0.433  16.563 -2.0266 -1.0318  0.4097
  465MPD2    H3 6980   0.831   0.622  16.424  0.2628 -0.8971  0.5273
  465MPD2     N 6981   0.398   0.771  16.489 -0.2277  0.9683  0.2290
  465MPD2    H5 6982   0.311   0.750  16.536  0.4052 -2.0069  0.0824
  465MPD2    N1 6983   0.554   0.381  16.697 -0.3379  0.1476 -0.4124
  465MPD2    H7 6984   0.463   0.391  16.741 -1.6188  0.2062 -3.0663
  466TMC3    C1 6985   0.055   0.981  16.559 -0.3606 -0.8722 -0.5678
  466TMC3    C2 6986   0.018   1.080  16.471 -0.0062  0.0087 -0.5845
  466TMC3    C3 6987   0.106   1.128  16.385 -0.0874 -0.4070 -0.2283
  466TMC3    C4 6988   0.178   0.924  16.550 -0.7515  0.2674  0.1308
  466TMC3    C5 6989   0.260   0.953  16.443 -0.3735 -0.5382 -0.0010
  466TMC3    C6 6990   0.233   1.069  16.372  0.6026 -0.2865 -0.2226
  466TMC3     C 6991   4.709   0.946  16.668 -0.1684  0.5633  0.1340
  466TMC3     O 6992   4.626   1.028  16.709  0.0811 -0.3498 -0.1361
  466TMC3     H 6993   4.662   1.131  16.487 -1.0325 -2.0652  0.0915
  466TMC3    H1 6994   0.202   0.851  16.626  0.9040  0.9376  0.2455
  466TMC3    H2 6995   0.303   1.113  16.302 -0.8619  0.7704 -0.9985
  466TMC3    C7 6996   0.397   0.892  16.430  0.1537 -0.4634 -0.4796
  466TMC3    C8 6997   0.094   1.269  16.337  0.0607 -0.7592  0.0453
  466TMC3    O1 6998   0.487   0.952  16.365 -0.4907  0.0656  0.1572
  466TMC3    O2 6999   0.132   1.281  16.214 -0.0294 -0.0371  0.1253
  467TMC3    C1 7000   0.936   3.981  13.578  0.2188 -0.6233 -0.3181
  467TMC3    C2 7001   0.862   4.089  13.529  0.0841  0.3169 -0.0594
  467TMC3    C3 7002   0.725   4.080  13.536  0.1457 -0.5444  0.1117
  467TMC3    C4 7003   0.883   3.859  13.619 -0.5404 -0.8546  0.1719
  467TMC3    C5 7004   0.745   3.862  13.620  0.2564  0.0865 -0.0802
  467TMC3    C6 7005   0.666   3.964  13.575  0.7027 -0.0221  0.5455
  467TMC3     C 7006   1.065   3.952  13.520  0.5259 -0.6883 -0.6908
  467TMC3     O 7007   1.142   3.874  13.578 -0.1460 -0.7044 -0.4583
  467TMC3     H 7008   0.914   4.184  13.524  0.9817 -0.2593 -1.4736
  467TMC3    H1 7009   0.938   3.785  13.676  0.2729 -0.2729  0.1474
  467TMC3    H2 7010   0.560   3.950  13.595  0.8846 -1.2016  0.7121
  467TMC3    C7 7011   0.683   3.761  13.707  0.2505  0.4650 -0.3431
  467TMC3    C8 7012   0.669   4.156  13.421  0.1993 -0.3713 -0.0238
  467TMC3    O1 7013   0.759   3.666  13.725  0.8112 -0.2122  0.8191
  467TMC3    O2 7014   0.754   4.189  13.339 -0.7261  0.3154  0.0264
  468MPD2     C 7015   4.710   2.623  10.222 -0.1638  0.1298  0.4178
  468MPD2    C1 7016   0.036   2.516  10.275 -0.6221  0.2455  0.0413
  468MPD2    C2 7017   4.731   2.386  10.244 -0.3117 -0.3344 -0.4547
  468MPD2    C3 7018   4.620   2.360  10.160  0.3572 -0.1058  0.3137
  468MPD2    C4 7019   4.555   2.464  10.114 -0.0679 -0.8388  0.0378
  468MPD2    C5 7020   4.595   2.593  10.151 -0.0030 -0.1807  0.3343
  468MPD2     H 7021   0.039   2.306  10.300 -0.0877  0.0157 -0.1352
  468MPD2    H1 7022   4.465   2.468  10.053  0.3742 -1.1594 -0.6269
  468MPD2    H2 7023   4.732   2.727  10.243 -0.5083  0.1932  0.4512
  468MPD2    H3 7024   4.542   2.680  10.116  1.9796  0.6556 -0.6132
  468MPD2     N 7025   4.583   2.227  10.122  0.0918 -0.1685  0.3168
  468MPD2    H5 7026   4.506   2.210  10.058  0.3732 -1.1767  0.2356
  468MPD2    N1 7027   0.141   2.531  10.369  0.0142  0.2526  0.3322
  468MPD2    H7 7028   0.168   2.452  10.426 -1.5227 -1.8364 -1.8563
  469TMC3    C1 7029   0.299   2.615  10.510  0.8751 -0.0158 -0.6710
  469TMC3    C2 7030   0.331   2.485  10.534  0.3384  0.1653  0.7420
  469TMC3    C3 7031   0.394   2.448  10.652  0.2048 -0.7050  0.2930
  469TMC3    C4 7032   0.319   2.709  10.606 -0.4713 -0.0204 -0.5301
  469TMC3    C5 7033   0.390   2.675  10.715  0.2756  0.1277 -0.1676
  469TMC3    C6 7034   0.429   2.544  10.739  0.0782 -0.1763 -0.2923
  469TMC3     C 7035   0.203   2.645  10.407 -0.5801 -0.3129  1.0449
  469TMC3     O 7036   0.177   2.760  10.379  0.2105 -0.8778 -0.4532
  469TMC3     H 7037   0.327   2.411  10.455  1.0850  0.5183  0.3857
  469TMC3    H1 7038   0.287   2.812  10.598 -3.8229 -1.1025 -1.3657
  469TMC3    H2 7039   0.487   2.521  10.828 -0.7061 -2.4515 -0.3776
  469TMC3    C7 7040   0.448   2.785  10.793  0.4227 -0.2164  0.5292
  469TMC3    C8 7041   0.415   2.301  10.675  0.2274 -0.1764 -0.5619
  469TMC3    O1 7042   0.425   2.902  10.765 -0.6752  0.6742  1.1565
  469TMC3    O2 7043   0.426   2.229  10.577  0.4454  0.2236  0.0814
  470TMC3    C1 7044   2.454   3.029   0.505 -0.6739  0.0242 -0.0591
  470TMC3    C2 7045   2.562   3.118   0.538  0.2197 -0.3821 -0.3310
  470TMC3    C3 7046   2.570   3.160   0.668  0.0746  0.6273  0.4057
  470TMC3    C4 7047   2.380   2.974   0.602 -0.5261 -0.3298 -0.3322
  470TMC3    C5 7048   2.398   3.013   0.732  0.5071 -1.1937 -0.3683
  470TMC3    C6 7049   2.493   3.102   0.766 -0.3490 -0.3637 -0.0385
  470TMC3     C 7050   2.414   3.018   0.363  0.2674  0.3616 -0.0643
  470TMC3     O 7051   2.495   3.079   0.291 -0.2702 -0.6822  0.1667
  470TMC3     H 7052   2.612   3.179   0.463 -0.3804  0.3127 -0.1682
  470TMC3    H1 7053   2.306   2.900   0.571  1.1280 -0.8214 -3.0077
  470TMC3    H2 7054   2.507   3.137   0.868  1.7951  0.5470 -0.6335
  470TMC3    C7 7055   2.283   2.991   0.808 -0.2738  0.3455 -0.1953
  470TMC3    C8 7056   2.639   3.282   0.695 -0.8288  0.2172 -0.3499
  470TMC3    O1 7057   2.185   2.939   0.756  0.0864  0.1518 -0.0553
  470TMC3    O2 7058   2.588   3.353   0.782  0.0038 -1.1415 -0.4894
  471MPD2     C 7059   2.586   4.631  16.296  0.2201 -0.4559  0.1949
  471MPD2    C1 7060   2.698   4.554  16.282 -0.1240 -0.2225  0.6007
  471MPD2    C2 7061   2.777   4.550  16.396  0.2191 -0.3285 -0.1754
  471MPD2    C3 7062   2.739   4.603  16.517 -0.2624 -0.0329  0.2496
  471MPD2    C4 7063   2.629   4.683  16.527  0.5405 -0.0575  1.1413
  471MPD2    C5 7064   2.555   4.698  16.415 -0.5471 -0.1208 -0.0824
  471MPD2     H 7065   2.873   4.499  16.397  1.3058  1.7616  2.1728
  471MPD2    H1 7066   2.591   4.728  16.619  1.3991  1.0476  0.9551
  471MPD2    H2 7067   2.523   4.653  16.210 -1.1765  0.3034  1.4165
  471MPD2    H3 7068   2.467   0.022  16.426 -0.5616 -0.0072 -0.8572
  471MPD2     N 7069   2.822   4.564  16.630 -0.2998 -0.4713 -0.9548
  471MPD2    H5 7070   2.899   4.499  16.619 -1.2968 -2.1472  2.0129
  471MPD2    N1 7071   2.739   4.495  16.166  0.1959  0.4889 -0.3747
  471MPD2    H7 7072   2.827   4.445  16.157  0.5127  1.1324 -0.8516
  472TMC3    C1 7073   2.726   4.407  15.946 -0.1225  0.6852 -0.3607
  472TMC3    C2 7074   2.667   4.422  15.823 -0.4453  0.0354  0.5181
  472TMC3    C3 7075   2.693   4.324  15.736  0.1221 -0.0849 -0.1576
  472TMC3    C4 7076   2.820   4.305  15.974  0.2444 -0.4413  0.1109
  472TMC3    C5 7077   2.850   4.207  15.878  0.2870 -0.5754 -0.0881
  472TMC3    C6 7078   2.780   4.220  15.763  0.5857 -0.0863  0.2828
  472TMC3     C 7079   2.675   4.500  16.049  0.7284 -0.6093  0.0100
  472TMC3     O 7080   2.577   4.568  16.015  0.4350  0.4185 -0.4434
  472TMC3     H 7081   2.597   4.502  15.797  2.9983  1.9727 -2.9086
  472TMC3    H1 7082   2.862   4.285  16.072 -1.3172 -0.9561  0.6688
  472TMC3    H2 7083   2.784   4.141  15.689 -1.1078 -0.9589  1.1379
  472TMC3    C7 7084   2.854   4.069  15.936  0.3893 -0.6695  0.7107
  472TMC3    C8 7085   2.577   4.266  15.681 -0.0117  0.0043  0.2208
  472TMC3    O1 7086   2.893   4.060  16.050 -0.2761 -0.5515  0.1560
  472TMC3    O2 7087   2.552   4.261  15.564  0.6403  0.0698 -0.3326
  473MPD2     C 7088   2.785   1.487  13.658 -0.0286 -0.8894  0.0578
  473MPD2    C1 7089   2.690   1.541  13.578  0.1641 -0.3460 -0.5946
  473MPD2    C2 7090   2.666   1.679  13.580  0.3947 -0.5509  0.2757
  473MPD2    C3 7091   2.725   1.754  13.682 -0.1589  0.5129 -0.3283
  473MPD2    C4 7092   2.813   1.695  13.763  0.0098  0.1866 -0.3692
  473MPD2    C5 7093   2.857   1.565  13.745  0.0046 -0.4522  0.3662
  473MPD2     H 7094   2.608   1.729  13.503 -1.6142 -0.0078  2.1267
  473MPD2    H1 7095   2.871   1.758  13.829 -1.8493 -0.7959  2.2347
  473MPD2    H2 7096   2.801   1.380  13.666 -0.8327 -0.9195  1.3062
  473MPD2    H3 7097   2.933   1.526  13.811  1.7283 -1.2481 -2.0875
  473MPD2     N 7098   2.705   1.888  13.698 -0.0870  0.2668  0.0249
  473MPD2    H5 7099   2.732   1.924  13.789 -0.1533 -2.9745  1.3178
  473MPD2    N1 7100   2.607   1.472  13.486 -0.4456  0.2556  0.1627
  473MPD2    H7 7101   2.521   1.515  13.455 -0.1605  1.5737  1.1642
  474TMC3    C1 7102   2.676   2.115  13.653  0.0094  0.5303 -0.8040
  474TMC3    C2 7103   2.712   2.202  13.552  0.2178 -0.0890 -0.5765
  474TMC3    C3 7104   2.763   2.323  13.593 -0.0538 -0.2527 -0.5993
  474TMC3    C4 7105   2.692   2.136  13.784  0.6724  0.0451 -1.0056
  474TMC3    C5 7106   2.752   2.255  13.819  0.3554  0.4008 -0.4822
  474TMC3    C6 7107   2.787   2.347  13.721  0.3573  0.3094 -0.3242
  474TMC3     C 7108   2.659   1.980  13.605  0.2278  0.4156  0.0356
  474TMC3     O 7109   2.624   1.961  13.490  0.6816  0.4572  0.0293
  474TMC3     H 7110   2.690   2.174  13.449 -0.2094 -0.0103 -0.5038
  474TMC3    H1 7111   2.662   2.067  13.863 -1.1421  2.2844  0.2578
  474TMC3    H2 7112   2.834   2.441  13.750  0.4676  0.6341 -1.5187
  474TMC3    C7 7113   2.775   2.296  13.961  0.2797 -0.1603  0.3768
  474TMC3    C8 7114   2.774   2.435  13.496  0.1734  0.2177  0.6257
  474TMC3    O1 7115   2.867   2.374  13.991 -0.0164  0.2111 -0.6501
  474TMC3    O2 7116   2.737   2.400  13.383 -0.3651 -0.2303  0.4966
  475MPD2     C 7117   0.621   0.207  10.931  0.3554 -0.3948  0.4953
  475MPD2    C1 7118   0.661   0.139  10.817  0.3138 -0.6381 -0.4080
  475MPD2    C2 7119   0.620   0.200  10.696  0.6366 -0.3910 -0.2074
  475MPD2    C3 7120   0.543   0.318  10.702  0.5675 -0.1126  0.6753
  475MPD2    C4 7121   0.515   0.380  10.818 -0.0494 -0.8919  0.3340
  475MPD2    C5 7122   0.549   0.321  10.934  0.0533  0.6272 -0.5723
  475MPD2     H 7123   0.643   0.151  10.602  0.2755 -0.8455 -0.0634
  475MPD2    H1 7124   0.470   0.478  10.827 -1.5718 -1.6715  1.1623
  475MPD2    H2 7125   0.647   0.151  11.020 -0.0983  0.9592  1.4744
  475MPD2    H3 7126   0.525   0.378  11.022  1.0864  0.4913 -0.1978
  475MPD2     N 7127   0.506   0.369  10.579  0.3408 -0.0431 -0.0924
  475MPD2    H5 7128   0.522   0.318  10.493 -0.2632 -0.9187  0.3095
  475MPD2    N1 7129   0.729   0.018  10.824 -0.1716  0.5196 -0.1064
  475MPD2    H7 7130   0.758   4.727  10.917 -0.9735 -1.8570 -0.6075
  476TMC3    C1 7131   0.931   4.638  10.774  0.4493 -0.0637  0.9552
  476TMC3    C2 7132   1.027   4.651  10.675 -0.3268  0.2365 -0.6106
  476TMC3    C3 7133   1.141   4.733  10.699 -0.2414 -0.7168  0.2582
  476TMC3    C4 7134   0.970   4.681  10.898  0.0230 -0.1192  0.0691
  476TMC3    C5 7135   1.084   0.005  10.927 -0.0287 -0.3652  0.3722
  476TMC3    C6 7136   1.172   0.047  10.824  0.3070 -0.7916 -0.2634
  476TMC3     C 7137   0.801   4.691  10.726 -0.1278 -0.1102  0.1223
  476TMC3     O 7138   0.810   4.724  10.604  0.0911  0.4179 -0.2571
  476TMC3     H 7139   1.019   4.611  10.574 -2.0165 -0.3427 -0.2391
  476TMC3    H1 7140   0.905   4.658  10.982 -1.2623  2.1924 -0.2885
  476TMC3    H2 7141   1.259   0.111  10.835  1.6988 -2.4306 -1.7432
  476TMC3    C7 7142   1.057   0.103  11.020 -0.2440  0.2978  0.3614
  476TMC3    C8 7143   1.175   0.067  10.586  0.6765 -0.3360 -0.1826
  476TMC3    O1 7144   1.049   0.078  11.138  0.2610 -0.1990  0.7586
  476TMC3    O2 7145   1.284   0.114  10.587  0.1124 -0.0439  0.1814
  477MPD2     C 7146   3.080   1.858  11.674 -0.6590 -0.6948  0.4970
  477MPD2    C1 7147   3.098   1.759  11.586  0.7072 -0.0664 -0.1782
  477MPD2    C2 7148   3.212   1.684  11.582  0.5293  0.5380  0.5660
  477MPD2    C3 7149   3.324   1.732  11.653  0.4005 -0.1298  0.5630
  477MPD2    C4 7150   3.301   1.835  11.742  0.2454  0.2199  0.4044
  477MPD2    C5 7151   3.179   1.887  11.758 -0.4226  0.1985  0.0245
  477MPD2     H 7152   3.225   1.594  11.524 -0.0399  0.9171 -0.1554
  477MPD2    H1 7153   3.380   1.865  11.811  0.1678  0.4891  0.3742
  477MPD2    H2 7154   2.990   1.915  11.695 -0.0941 -0.1439  1.4687
  477MPD2    H3 7155   3.176   1.960  11.837 -1.3327  1.8763 -1.5571
  477MPD2     N 7156   3.442   1.655  11.652 -0.8955 -0.5634 -0.2404
  477MPD2    H5 7157   3.509   1.666  11.727  0.2681 -1.8507 -1.0849
  477MPD2    N1 7158   2.990   1.735  11.500  0.2554  0.2464 -0.2385
  477MPD2    H7 7159   2.920   1.809  11.506 -0.6654 -0.7369  1.0947
  478TMC3    C1 7160   2.861   1.642  11.338 -0.2470  1.1420 -0.1947
  478TMC3    C2 7161   2.744   1.681  11.390  0.5024  0.1906  0.5114
  478TMC3    C3 7162   2.653   1.721  11.300  0.2560 -0.2200  0.3696
  478TMC3    C4 7163   2.878   1.620  11.204  0.1114  0.1205 -0.3825
  478TMC3    C5 7164   2.777   1.665  11.120 -0.7630 -0.1288 -1.0965
  478TMC3    C6 7165   2.665   1.731  11.162 -0.1892  0.1136  0.5254
  478TMC3     C 7166   2.975   1.628  11.421 -0.0854  0.0113  0.3216
  478TMC3     O 7167   3.052   1.547  11.383 -0.1805 -0.4825  0.1659
  478TMC3     H 7168   2.732   1.699  11.496  1.2085  3.9642 -0.0525
  478TMC3    H1 7169   2.971   1.580  11.164  1.9246  2.5339  1.4089
  478TMC3    H2 7170   2.587   1.761  11.093 -1.2536  1.4752  2.3185
  478TMC3    C7 7171   2.814   1.666  10.975  0.2160 -0.2870  0.2786
  478TMC3    C8 7172   2.524   1.759  11.357 -0.0374  0.2653 -0.4250
  478TMC3    O1 7173   2.924   1.616  10.958  0.2324 -0.2177  0.5007
  478TMC3    O2 7174   2.476   1.674  11.433  0.2518  0.2540  0.3245
  479MPD2     C 7175   2.486   3.424  14.885 -0.5737  0.6754 -0.4511
  479MPD2    C1 7176   2.452   3.408  15.018  0.3230  0.3734 -0.0936
  479MPD2    C2 7177   2.542   3.441  15.121 -0.4793 -0.3230  0.0614
  479MPD2    C3 7178   2.671   3.469  15.083  0.5457  0.0394 -0.5776
  479MPD2    C4 7179   2.710   3.458  14.952  0.8669  0.1658  0.5235
  479MPD2    C5 7180   2.618   3.437  14.852 -0.7647 -0.0620 -0.3520
  479MPD2     H 7181   2.518   3.439  15.227 -1.7407 -1.0687 -0.2542
  479MPD2    H1 7182   2.813   3.469  14.920  0.8100 -2.0484 -0.4922
  479MPD2    H2 7183   2.414   3.402  14.807 -0.5570 -2.0277  0.2746
  479MPD2    H3 7184   2.644   3.438  14.746 -3.0195  2.4645 -0.8785
  479MPD2     N 7185   2.772   3.518  15.168  0.3750  0.3208  0.1419
  479MPD2    H5 7186   2.866   3.524  15.131 -1.1898  0.2850 -3.8083
  479MPD2    N1 7187   2.316   3.379  15.042  0.7720  0.2236  0.0426
  479MPD2    H7 7188   2.257   3.358  14.961 -1.5616  2.0725  1.2650
  480TMC3    C1 7189   2.476   3.528  15.517  0.2517  0.5719 -0.0853
  480TMC3    C2 7190   2.389   3.619  15.454  0.0706 -0.3278 -0.2793
  480TMC3    C3 7191   2.432   3.702  15.358  1.7018  0.4988  0.3095
  480TMC3    C4 7192   2.601   3.519  15.472  0.2983  0.1479 -1.0905
  480TMC3    C5 7193   2.641   3.592  15.364  0.5137  0.8956  0.6247
  480TMC3    C6 7194   2.559   3.683  15.300 -0.0848 -0.0978 -0.0595
  480TMC3     C 7195   2.439   3.446  15.629 -0.9077 -0.0564  0.6188
  480TMC3     O 7196   2.539   3.415  15.695  0.3792  0.5237 -0.2855
  480TMC3     H 7197   2.287   3.631  15.491  0.2876  0.3161  0.1103
  480TMC3    H1 7198   2.680   3.461  15.519 -1.5574 -1.0327  0.5861
  480TMC3    H2 7199   2.587   3.737  15.210 -0.0173 -0.5299 -0.2966
  480TMC3    C7 7200   2.768   3.543  15.308  0.3673  0.8187  0.2024
  480TMC3    C8 7201   2.323   3.752  15.279  0.2490  0.2232 -0.9872
  480TMC3    O1 7202   2.857   3.542  15.392 -0.8864 -0.2356 -0.1612
  480TMC3    O2 7203   2.211   3.768  15.334 -0.0892 -0.6775  0.4851
  481MPD2     C 7204   3.979   3.402  14.005  0.2420  0.4143  0.2639
  481MPD2    C1 7205   3.873   3.343  14.071 -0.4929 -0.3219  0.3566
  481MPD2    C2 7206   3.877   3.321  14.204 -0.0048 -0.4290  0.4471
  481MPD2    C3 7207   3.995   3.356  14.274 -0.3411 -0.6772  0.2483
  481MPD2    C4 7208   4.101   3.414  14.201  0.1381  0.2561 -0.0199
  481MPD2    C5 7209   4.089   3.433  14.069  0.6156  0.8453 -0.4253
  481MPD2     H 7210   3.785   3.287  14.250 -0.5200  1.5989  0.8948
  481MPD2    H1 7211   4.195   3.440  14.249 -0.1524 -1.7526  1.6680
  481MPD2    H2 7212   3.985   3.420  13.899  1.6727 -3.0384 -0.2594
  481MPD2    H3 7213   4.168   3.486  14.017  2.6673 -3.5249 -1.7219
  481MPD2     N 7214   4.007   3.346  14.413 -0.3296  0.5944  0.2896
  481MPD2    H5 7215   4.100   3.367  14.448  0.0134 -0.2862 -0.0770
  481MPD2    N1 7216   3.761   3.315  13.990 -0.3690 -0.6182  0.3716
  481MPD2    H7 7217   3.766   3.353  13.895  0.0214  1.1511  1.0984
  482TMC3    C1 7218   3.558   3.244  13.899  0.2370  0.5461  0.6621
  482TMC3    C2 7219   3.507   3.125  13.864 -0.5145  0.1689 -0.2052
  482TMC3    C3 7220   3.447   3.116  13.741 -0.1003 -0.1358  0.2435
  482TMC3    C4 7221   3.557   3.357  13.828  0.7334 -0.1415  0.2013
  482TMC3    C5 7222   3.496   3.345  13.703 -0.1108  0.4368  0.4510
  482TMC3    C6 7223   3.443   3.225  13.653  0.1397  0.2178  0.1139
  482TMC3     C 7224   3.643   3.241  14.020  0.1118  0.0684 -0.1459
  482TMC3     O 7225   3.621   3.156  14.104  0.2448 -0.3062  0.2644
  482TMC3     H 7226   3.518   3.044  13.935  0.3717  0.4948  0.0318
  482TMC3    H1 7227   3.601   3.452  13.857  0.0037 -0.2344  1.6154
  482TMC3    H2 7228   3.433   3.204  13.547 -0.8793 -3.7634  0.9809
  482TMC3    C7 7229   3.499   3.449  13.608  0.0088  0.2133 -0.3339
  482TMC3    C8 7230   3.407   2.986  13.704 -0.2436 -1.0402 -0.2208
  482TMC3    O1 7231   3.519   3.416  13.494 -0.0375 -0.1766 -0.0401
  482TMC3    O2 7232   3.454   2.891  13.761 -0.3493  0.4681 -0.0790
  483TMC3    C1 7233   1.910   2.530   0.823 -1.0360  0.5239  0.2288
  483TMC3    C2 7234   2.001   2.597   0.742 -0.1741 -0.6180 -0.5176
  483TMC3    C3 7235   2.134   2.562   0.753  0.1423 -0.1371 -0.4178
  483TMC3    C4 7236   1.941   2.435   0.904 -0.4432 -0.2348  0.2569
  483TMC3    C5 7237   2.079   2.407   0.913 -0.3116 -0.6190 -0.3628
  483TMC3    C6 7238   2.172   2.463   0.833  0.0520  0.4681 -0.6937
  483TMC3     C 7239   1.771   2.523   0.784  0.2411 -0.8091 -0.6860
  483TMC3     O 7240   1.722   2.626   0.737  0.1987 -0.1316  0.4093
  483TMC3     H 7241   1.987   2.683   0.678 -0.7920  0.1403  0.6402
  483TMC3    H1 7242   1.860   2.388   0.958 -2.8111 -0.0430 -3.1125
  483TMC3    H2 7243   2.273   2.425   0.841  0.0635  1.1323  2.2401
  483TMC3    C7 7244   2.105   2.277   0.969 -0.3059  0.2237 -0.2140
  483TMC3    C8 7245   2.230   2.620   0.665  0.0569 -0.6457  0.0568
  483TMC3    O1 7246   2.169   2.214   0.886 -0.4845  0.1173  0.0524
  483TMC3    O2 7247   2.205   2.643   0.544  0.4273 -0.3355 -0.0008
  484MPD2     C 7248   4.124   0.424  12.445  0.2353  0.1169 -0.4439
  484MPD2    C1 7249   4.121   0.354  12.564  0.5620  0.2408  0.1367
  484MPD2    C2 7250   4.220   0.378  12.656  0.4651 -1.0284 -0.1442
  484MPD2    C3 7251   4.327   0.458  12.618  0.4773 -0.5217 -0.0775
  484MPD2    C4 7252   4.336   0.505  12.495  0.8139 -0.1577 -0.9530
  484MPD2    C5 7253   4.236   0.495  12.407 -0.0599 -0.0243 -0.0350
  484MPD2     H 7254   4.215   0.331  12.753  0.2166 -0.7790 -0.0353
  484MPD2    H1 7255   4.423   0.553  12.450  0.1884  1.5970 -0.3120
  484MPD2    H2 7256   4.041   0.411  12.377 -0.2851  0.4299  0.1332
  484MPD2    H3 7257   4.251   0.541  12.310  2.6494  1.1921  0.9542
  484MPD2     N 7258   4.439   0.498  12.699  0.5690 -0.0621 -0.1807
  484MPD2    H5 7259   4.520   0.537  12.651 -0.3730  2.8983  0.6135
  484MPD2    N1 7260   4.004   0.293  12.600  0.6593  0.2065 -0.4601
  484MPD2    H7 7261   3.930   0.312  12.534 -0.0717 -0.9614  0.0331
  485TMC3    C1 7262   4.589   0.431  12.857 -1.1598 -0.1861  0.0176
  485TMC3    C2 7263   4.626   0.312  12.798 -0.8706  1.0092  0.3088
  485TMC3    C3 7264   0.019   0.306  12.757 -0.4947 -0.3873 -0.3994
  485TMC3    C4 7265   4.669   0.547  12.866  0.3295 -0.3130 -0.0336
  485TMC3    C5 7266   0.058   0.527  12.829  0.3080 -0.4004  0.0321
  485TMC3    C6 7267   0.109   0.409  12.784  0.8705 -0.1180  0.1166
  485TMC3     C 7268   4.452   0.455  12.828 -0.3258 -0.1372 -0.1987
  485TMC3     O 7269   4.366   0.400  12.892 -0.3694 -0.4805 -0.6801
  485TMC3     H 7270   4.552   0.242  12.758  1.4399 -1.4014  0.2663
  485TMC3    H1 7271   4.637   0.648  12.888  1.5081  0.4201 -1.7433
  485TMC3    H2 7272   0.213   0.404  12.754  0.9231  1.2727  0.0920
  485TMC3    C7 7273   0.118   0.647  12.771 -0.2873 -0.3327  0.0738
  485TMC3    C8 7274   0.048   0.259  12.623 -0.2366  0.3640  0.8501
  485TMC3    O1 7275   0.113   0.757  12.819 -0.0044  0.0996 -0.3424
  485TMC3    O2 7276   0.111   0.342  12.561 -0.4244 -0.3894  0.1462
  486MPD2     C 7277   1.132   4.012  12.599 -0.9511 -0.7988 -0.0350
  486MPD2    C1 7278   1.256   3.984  12.544 -0.2689 -0.6068 -0.1431
  486MPD2    C2 7279   1.295   4.052  12.429 -0.5707  0.2895 -1.0483
  486MPD2    C3 7280   1.217   4.154  12.376  0.3266  0.2994 -0.4246
  486MPD2    C4 7281   1.098   4.183  12.445  0.5973  0.1589 -0.1500
  486MPD2    C5 7282   1.052   4.109  12.547 -0.3242 -0.3277  0.7388
  486MPD2     H 7283   1.389   4.029  12.380  1.0789  1.4071  1.5615
  486MPD2    H1 7284   1.040   4.270  12.416  2.0312  1.6420  1.3706
  486MPD2    H2 7285   1.092   3.958  12.685 -0.4031  0.2160  0.8520
  486MPD2    H3 7286   0.958   4.123  12.599  0.4898  0.1829  2.0738
  486MPD2     N 7287   1.262   4.230  12.262 -0.6653 -0.2643  0.3474
  486MPD2    H5 7288   1.363   4.232  12.250 -0.9971 -0.0919 -2.5577
  486MPD2    N1 7289   1.333   3.881  12.602 -0.2109 -0.6448  0.3973
  486MPD2    H7 7290   1.299   3.837  12.687  0.2907  0.2197  1.0379
  487TMC3    C1 7291   1.523   3.757  12.637 -0.2574  0.2352  0.2893
  487TMC3    C2 7292   1.587   3.637  12.599  0.2703  0.0196 -1.0906
  487TMC3    C3 7293   1.669   3.572  12.682  0.1741  0.4019  0.8093
  487TMC3    C4 7294   1.517   3.785  12.774 -0.5901 -0.3498 -0.1964
  487TMC3    C5 7295   1.609   3.720  12.854  0.1579  0.1655 -0.2500
  487TMC3    C6 7296   1.687   3.621  12.806  0.2140  1.1612 -0.0987
  487TMC3     C 7297   1.435   3.818  12.538  0.5597 -0.5716 -1.5295
  487TMC3     O 7298   1.466   3.817  12.422 -0.1039 -0.2292  0.1051
  487TMC3     H 7299   1.567   3.596  12.501 -0.9125 -0.0814 -0.8092
  487TMC3    H1 7300   1.484   3.882  12.810 -1.9888 -1.1648  0.7583
  487TMC3    H2 7301   1.728   3.563  12.887  0.2244 -0.7459 -1.4695
  487TMC3    C7 7302   1.586   3.707  12.999 -0.1167 -0.3457  0.0497
  487TMC3    C8 7303   1.647   3.433  12.686 -0.6987 -0.7452  0.4132
  487TMC3    O1 7304   1.682   3.679  13.069  0.8802 -0.2612  0.4664
  487TMC3    O2 7305   1.532   3.394  12.663  0.2503  0.0217  0.3035
  488MPD2     C 7306   2.139   0.614  16.181 -0.0690 -0.2942  0.3409
  488MPD2    C1 7307   2.192   0.717  16.249 -0.3404  0.2898  0.3157
  488MPD2    C2 7308   2.165   0.735  16.380  0.0384  0.0827  0.4841
  488MPD2    C3 7309   2.081   0.648  16.450  0.8550 -0.1632 -0.0999
  488MPD2    C4 7310   2.030   0.544  16.380  0.0822 -0.6376 -0.0786
  488MPD2    C5 7311   2.052   0.529  16.248  0.3620  0.2490 -0.0298
  488MPD2     H 7312   2.211   0.820  16.428  1.8613 -1.9845  2.3404
  488MPD2    H1 7313   1.972   0.467  16.430  0.0098  0.0721  0.9457
  488MPD2    H2 7314   2.172   0.597  16.079  0.0903  0.5348  0.2533
  488MPD2    H3 7315   2.004   0.445  16.199 -0.6550  0.2573  0.9465
  488MPD2     N 7316   2.072   0.660  16.590  0.9726  0.6733 -0.2264
  488MPD2    H5 7317   2.131   0.726  16.640  1.4395  0.3136 -0.3093
  488MPD2    N1 7318   2.284   0.805  16.186  0.3544 -0.0271 -0.2115
  488MPD2    H7 7319   2.333   0.867  16.249 -0.3158  1.0399 -0.7433
  489TMC3    C1 7320   1.983   0.652  16.803  1.2595  0.2574  0.3011
  489TMC3    C2 7321   2.017   0.785  16.808  0.2274  0.1602  0.5714
  489TMC3    C3 7322   2.008   0.844  16.933 -0.4073  0.0611 -0.2231
  489TMC3    C4 7323   1.955   0.575  16.910 -0.2726 -0.9269  0.1962
  489TMC3    C5 7324   1.950   0.642  17.035  0.0227 -0.3210 -0.4165
  489TMC3    C6 7325   1.988   0.768  17.046 -0.3288 -0.0223 -0.2413
  489TMC3     C 7326   1.995   0.588  16.671  0.1783 -0.0003  0.1408
  489TMC3     O 7327   1.922   0.492  16.654 -0.0624  0.2175 -0.1690
  489TMC3     H 7328   2.018   0.850  16.722 -2.4353  0.1170  0.5059
  489TMC3    H1 7329   1.943   0.468  16.898 -4.7532 -0.5446  1.0348
  489TMC3    H2 7330   1.995   0.816  17.143  0.5556 -1.5254  0.4341
  489TMC3    C7 7331   1.952   0.563  17.154 -0.6762 -0.4614  0.6801
  489TMC3    C8 7332   2.038   0.992  16.936 -0.0560 -0.2802  0.4445
  489TMC3    O1 7333   1.984   0.623  17.259  0.0730  0.4149 -0.0673
  489TMC3    O2 7334   2.101   1.030  16.841  0.0823  0.7589  0.6566
  490MPD2     C 7335   2.662   0.588  17.276 -0.0411 -0.9763 -0.4662
  490MPD2    C1 7336   2.721   0.470  17.322 -1.0012  0.1674 -0.7608
  490MPD2    C2 7337   2.815   0.490  17.428 -0.2861  0.2619  0.7602
  490MPD2    C3 7338   2.845   0.607  17.488 -0.4299 -0.4696 -0.2040
  490MPD2    C4 7339   2.777   0.720  17.443  0.3793 -0.0182  0.8333
  490MPD2    C5 7340   2.684   0.708  17.342 -0.1094 -0.2079 -0.2175
  490MPD2     H 7341   2.862   0.399  17.465 -0.6632 -0.7026 -1.1353
  490MPD2    H1 7342   2.790   0.824  17.469  2.8780 -0.0642 -0.2755
  490MPD2    H2 7343   2.592   0.592  17.194 -0.5394 -0.7031 -0.0304
  490MPD2    H3 7344   2.625   0.795  17.314 -1.1489 -1.7650 -2.8055
  490MPD2     N 7345   2.960   0.622  17.566 -0.2641  0.0177 -0.0002
  490MPD2    H5 7346   2.977   0.717  17.599  2.2969 -1.1132  1.9321
  490MPD2    N1 7347   2.694   0.341  17.274  0.4300  0.1792 -0.0262
  490MPD2    H7 7348   2.717   0.258  17.329  1.6196 -0.6546 -1.8002
  491TMC3    C1 7349   2.585   0.182  17.129 -0.2612  0.6831 -0.5880
  491TMC3    C2 7350   2.591   0.087  17.227 -0.0422 -0.0945 -0.9265
  491TMC3    C3 7351   2.540   4.699  17.196  0.7759  0.0640 -0.0394
  491TMC3    C4 7352   2.531   0.160  17.005 -0.4027  1.0070  0.5458
  491TMC3    C5 7353   2.485   0.036  16.975  0.0889 -0.1158 -0.0962
  491TMC3    C6 7354   2.475   4.678  17.077 -0.4659  0.1596  0.0377
  491TMC3     C 7355   2.619   0.319  17.162 -0.1620 -0.8687 -0.4702
  491TMC3     O 7356   2.610   0.402  17.070 -0.0183  0.5612 -0.1661
  491TMC3     H 7357   2.608   0.113  17.331 -1.0098 -0.9177 -0.5610
  491TMC3    H1 7358   2.530   0.233  16.925 -0.1382 -0.3135 -0.6550
  491TMC3    H2 7359   2.425   4.583  17.060 -1.4131  0.6416  0.1461
  491TMC3    C7 7360   2.405   0.001  16.857  0.4934  0.5490  0.0400
  491TMC3    C8 7361   2.477   4.644  17.311  1.0901  0.0868 -0.9189
  491TMC3    O1 7362   2.367   4.623  16.850 -0.1650 -0.1428  0.4607
  491TMC3    O2 7363   2.356   4.630  17.315 -0.1906  0.2477 -0.1565
  492MPD2     C 7364   2.407   0.523  11.771 -0.0501  0.2502 -0.2543
  492MPD2    C1 7365   2.408   0.433  11.666 -0.2584  0.0181  1.0180
  492MPD2    C2 7366   2.388   0.299  11.697 -0.2520  0.3227  0.0891
  492MPD2    C3 7367   2.378   0.253  11.826 -0.1287  0.5574  0.1012
  492MPD2    C4 7368   2.382   0.343  11.930 -0.6288  0.5898 -0.9313
  492MPD2    C5 7369   2.398   0.476  11.898  0.5138 -0.9803  0.5258
  492MPD2     H 7370   2.391   0.227  11.616 -0.6266  1.3900 -0.8835
  492MPD2    H1 7371   2.360   0.319  12.033  1.9036 -1.8041 -0.9616
  492MPD2    H2 7372   2.433   0.627  11.755  1.9380 -0.5433 -2.2536
  492MPD2    H3 7373   2.418   0.547  11.977  2.9808  1.4849 -2.3197
  492MPD2     N 7374   2.362   0.114  11.860 -0.2095 -0.1188 -0.0794
  492MPD2    H5 7375   2.365   0.096  11.960  0.6115  2.0015  0.2667
  492MPD2    N1 7376   2.422   0.490  11.535  0.0099 -0.1662  0.3631
  492MPD2    H7 7377   2.417   0.590  11.520  0.0661 -0.5838 -2.5034
  493TMC3    C1 7378   2.483   0.484  11.304 -0.1685  0.1324 -0.2971
  493TMC3    C2 7379   2.448   0.616  11.276 -0.5670  0.1755 -0.0894
  493TMC3    C3 7380   2.432   0.650  11.142  0.2994 -0.1448 -0.7042
  493TMC3    C4 7381   2.521   0.398  11.205  0.7788  0.3911 -1.0233
  493TMC3    C5 7382   2.491   0.436  11.078 -0.1726  0.0360 -0.1644
  493TMC3    C6 7383   2.452   0.560  11.040 -0.0879  0.4138  0.3416
  493TMC3     C 7384   2.425   0.418  11.416 -0.6607 -0.5245  0.9316
  493TMC3     O 7385   2.414   0.296  11.397  0.1592 -0.7268 -0.0994
  493TMC3     H 7386   2.420   0.687  11.353  1.2393 -0.4292  1.1167
  493TMC3    H1 7387   2.549   0.296  11.228 -4.5853 -1.2974 -2.1813
  493TMC3    H2 7388   2.436   0.592  10.937  0.0737 -0.4704  0.0417
  493TMC3    C7 7389   2.430   0.334  11.001  0.3270  1.3066  0.1009
  493TMC3    C8 7390   2.475   0.790  11.129 -0.0028  0.1349  0.9586
  493TMC3    O1 7391   2.398   0.358  10.886  0.2443  0.0687 -0.1038
  493TMC3    O2 7392   2.478   0.857  11.230 -0.2112  0.2757 -0.2403
  494TMC3    C1 7393   3.556   2.043   0.637 -0.5739 -0.3025 -0.0335
  494TMC3    C2 7394   3.498   1.940   0.577 -0.2050  0.2168 -0.2708
  494TMC3    C3 7395   3.516   1.928   0.443  0.5231  0.0743 -0.0797
  494TMC3    C4 7396   3.623   2.144   0.567  0.6619  0.0891  0.5545
  494TMC3    C5 7397   3.641   2.126   0.431  0.2308  0.0703  0.2790
  494TMC3    C6 7398   3.592   2.013   0.364  0.2522  0.8941  0.1253
  494TMC3     C 7399   3.546   2.045   0.782 -0.0665  0.5194  0.0302
  494TMC3     O 7400   3.474   1.959   0.830 -0.5423 -0.0390  0.1087
  494TMC3     H 7401   3.454   1.861   0.637 -0.5540 -0.8004 -1.8821
  494TMC3    H1 7402   3.669   2.228   0.618 -1.4918  0.6123  1.6723
  494TMC3    H2 7403   3.624   1.992   0.262 -0.5854 -2.4532  0.5529
  494TMC3    C7 7404   3.734   2.201   0.358  0.0657  0.5425  0.9530
  494TMC3    C8 7405   3.470   1.800   0.389 -0.0792 -0.0622 -0.0812
  494TMC3    O1 7406   3.785   2.156   0.258 -0.1538 -0.0342 -0.3057
  494TMC3    O2 7407   3.426   1.715   0.471 -0.0640 -0.7727  0.0362
  495TMC3    C1 7408   2.385   3.538  14.286 -0.2712 -0.1299 -0.1742
  495TMC3    C2 7409   2.322   3.625  14.203 -0.4996  0.4948 -0.0096
  495TMC3    C3 7410   2.268   3.734  14.271 -0.0936 -1.1022  0.0303
  495TMC3    C4 7411   2.402   3.546  14.419 -0.8672 -0.7967 -0.3488
  495TMC3    C5 7412   2.335   3.646  14.472 -0.3420 -0.4548 -0.2202
  495TMC3    C6 7413   2.283   3.748  14.405 -0.4183 -0.5659  0.1951
  495TMC3     C 7414   2.391   3.403  14.243 -0.3131 -0.3200 -0.6243
  495TMC3     O 7415   2.345   3.318  14.320 -0.1789 -0.1023  0.1434
  495TMC3     H 7416   2.313   3.603  14.098 -0.4582  0.8360 -0.0845
  495TMC3    H1 7417   2.445   3.472  14.485  3.1809  0.1526 -1.8812
  495TMC3    H2 7418   2.246   3.837  14.455 -0.7408 -0.9116  0.5788
  495TMC3    C7 7419   2.351   3.659  14.613  0.1035  0.6797  0.6004
  495TMC3    C8 7420   2.134   3.762  14.227 -0.1941 -0.8283  0.0731
  495TMC3    O1 7421   2.457   3.629  14.663 -0.3615  0.1893  0.5119
  495TMC3    O2 7422   2.049   3.808  14.296  0.1865 -0.1296  0.4649
  496MPD2     C 7423   4.144   4.460  15.384  1.0544  0.3509  0.5374
  496MPD2    C1 7424   4.248   4.402  15.448  0.4571  0.2251  0.2190
  496MPD2    C2 7425   4.250   4.390  15.588  0.3512 -0.3294  0.8226
  496MPD2    C3 7426   4.139   4.425  15.663 -0.3348  0.2153  0.3443
  496MPD2    C4 7427   4.041   4.487  15.595 -0.0061  0.3033  0.3650
  496MPD2    C5 7428   4.037   4.501  15.453 -0.0515 -0.1209  0.2382
  496MPD2     H 7429   4.330   4.335  15.636  0.5857 -0.3011  0.4697
  496MPD2    H1 7430   3.959   4.535  15.647  2.3621  1.9410  2.6457
  496MPD2    H2 7431   4.137   4.468  15.276 -1.8785 -1.1867  0.6097
  496MPD2    H3 7432   3.953   4.548  15.403 -0.2284 -1.3259 -0.5957
  496MPD2     N 7433   4.122   4.390  15.800 -0.2099  0.4338 -0.3091
  496MPD2    H5 7434   4.035   4.414  15.845  0.2456  2.4787 -0.5281
  496MPD2    N1 7435   4.365   4.350  15.381 -1.1605 -0.7542  0.3033
  496MPD2    H7 7436   4.353   4.342  15.281 -0.6184  0.8449  0.1063
  497TMC3    C1 7437   4.163   4.232  15.972  0.1732 -0.3688 -0.1589
  497TMC3    C2 7438   4.061   4.156  15.925  0.7580  0.3755  0.5639
  497TMC3    C3 7439   4.027   4.036  15.988  0.5368  0.4269  0.1705
  497TMC3    C4 7440   4.245   4.189  16.067  0.2642  0.2828 -0.0691
  497TMC3    C5 7441   4.203   4.080  16.141 -0.0375  0.3666  0.1373
  497TMC3    C6 7442   4.088   4.005  16.109  0.8505 -0.8558  1.2918
  497TMC3     C 7443   4.220   4.337  15.883 -0.2986  0.2377  0.4526
  497TMC3     O 7444   4.343   4.337  15.861  0.1650  0.8607  0.3911
  497TMC3     H 7445   3.999   4.185  15.841  1.3112  2.9026  1.0137
  497TMC3    H1 7446   4.338   4.245  16.071  0.4504 -0.0619  0.4324
  497TMC3    H2 7447   4.060   3.919  16.168  2.1380 -1.6475  0.7255
  497TMC3    C7 7448   4.278   4.037  16.262  0.4959 -0.5689  0.1341
  497TMC3    C8 7449   3.991   3.915  15.922 -0.6142  0.8854 -1.0840
  497TMC3    O1 7450   4.236   3.938  16.316 -0.0815 -0.2092 -0.7199
  497TMC3    O2 7451   4.030   3.811  15.975 -0.3070 -0.3078 -0.1349
  498MPD2     C 7452   0.418   4.734   9.541  0.0160 -0.0338  0.1947
  498MPD2    C1 7453   0.358   0.105   9.601 -0.9834  0.4726  0.0521
  498MPD2    C2 7454   0.226   0.098   9.651 -0.4297  0.3538 -0.2848
  498MPD2    C3 7455   0.156   4.719   9.645  0.0026  0.3928 -0.3658
  498MPD2    C4 7456   0.229   4.607   9.606 -0.1226 -0.1478  0.1444
  498MPD2    C5 7457   0.353   4.611   9.547  0.4996 -0.3954 -0.2713
  498MPD2     H 7458   0.176   0.187   9.684 -1.5682 -0.6131  0.5835
  498MPD2    H1 7459   0.185   4.509   9.599 -0.2835 -0.0645 -0.0037
  498MPD2    H2 7460   0.505   0.001   9.477 -2.1238 -0.7948 -2.7882
  498MPD2    H3 7461   0.381   4.525   9.487  0.8780  0.4524 -1.3200
  498MPD2     N 7462   0.019   4.726   9.670  0.0173 -0.1091  0.2651
  498MPD2    H5 7463   4.714   0.080   9.673 -0.7252 -0.4324 -0.6750
  498MPD2    N1 7464   0.415   0.233   9.598  0.0116 -0.4730 -0.1350
  498MPD2    H7 7465   0.361   0.314   9.627  0.4629  0.3139 -1.4970
  499TMC3    C1 7466   0.551   0.399   9.536 -0.6690 -0.2055  0.1718
  499TMC3    C2 7467   0.675   0.445   9.571 -0.0210 -0.1402 -0.0543
  499TMC3    C3 7468   0.719   0.562   9.513  0.1155 -0.5887 -0.2521
  499TMC3    C4 7469   0.461   0.468   9.459 -0.2877  0.1353  0.3208
  499TMC3    C5 7470   0.517   0.580   9.399 -0.3195  0.1372  0.5286
  499TMC3    C6 7471   0.635   0.633   9.430 -0.5899  0.2492  0.0863
  499TMC3     C 7472   0.532   0.258   9.538  0.7231 -0.3574 -0.7219
  499TMC3     O 7473   0.630   0.184   9.538 -0.3136  0.1519  0.1533
  499TMC3     H 7474   0.734   0.395   9.648  0.8614 -0.9425 -1.2543
  499TMC3    H1 7475   0.370   0.419   9.426 -0.3343  0.5005 -0.0959
  499TMC3    H2 7476   0.665   0.731   9.394  2.4100 -0.1110  1.5423
  499TMC3    C7 7477   0.443   0.660   9.302 -0.2107 -0.0251  0.1445
  499TMC3    C8 7478   0.842   0.627   9.559  0.6105  0.6283 -0.7545
  499TMC3    O1 7479   0.471   0.777   9.275 -0.5549 -0.5797  0.1190
  499TMC3    O2 7480   0.862   0.741   9.531  0.0061  0.6122  0.2107
  500MPD2     C 7481   1.372   1.812  10.088 -0.1127  0.0534  0.5993
  500MPD2    C1 7482   1.410   1.689  10.038 -0.8924  0.1448  0.0461
  500MPD2    C2 7483   1.312   1.614   9.975  0.3459 -0.9000  0.1986
  500MPD2    C3 7484   1.178   1.662   9.964  0.2231 -0.5285  0.1870
  500MPD2    C4 7485   1.146   1.789   9.998 -0.2913  0.3556 -0.2513
  500MPD2    C5 7486   1.246   1.861  10.068  0.1319  0.3535 -0.0354
  500MPD2     H 7487   1.344   1.518   9.939  1.4616 -0.0457 -1.0801
  500MPD2    H1 7488   1.048   1.831   9.979 -0.7761 -1.3676 -1.5503
  500MPD2    H2 7489   1.445   1.875  10.139  0.9566  1.9415 -3.2514
  500MPD2    H3 7490   1.224   1.956  10.115 -2.3195  0.4257 -1.3578
  500MPD2     N 7491   1.079   1.590   9.895  0.1922  0.3961  0.3031
  500MPD2    H5 7492   0.995   1.648   9.888 -0.0818  0.2368  2.4035
  500MPD2    N1 7493   1.539   1.631  10.041 -0.3804 -0.0958  0.4123
  500MPD2    H7 7494   1.548   1.533  10.016 -0.5365 -0.4565  1.7470
  501TMC3    C1 7495   1.765   1.642  10.022  0.7690  0.2745  0.3147
  501TMC3    C2 7496   1.860   1.724   9.976  0.8909 -0.5634 -0.1030
  501TMC3    C3 7497   1.991   1.681   9.984 -0.0903 -0.1531 -0.1314
  501TMC3    C4 7498   1.790   1.519  10.068  0.0252  0.5220  0.5872
  501TMC3    C5 7499   1.918   1.472  10.068  0.9134 -0.0165 -0.8065
  501TMC3    C6 7500   2.021   1.555  10.031  0.3061  0.5439  0.4999
  501TMC3     C 7501   1.647   1.707  10.070  0.4772  0.7038  0.2827
  501TMC3     O 7502   1.656   1.827  10.103 -0.2604 -0.0215 -0.0747
  501TMC3     H 7503   1.832   1.828   9.966 -0.6355 -1.0448 -0.8800
  501TMC3    H1 7504   1.710   1.465  10.117  2.3795 -0.8554  2.8892
  501TMC3    H2 7505   2.124   1.529  10.050  0.2452  1.8978  2.6397
  501TMC3    C7 7506   1.950   1.384  10.180  0.0877 -0.5140 -0.1252
  501TMC3    C8 7507   2.094   1.780   9.992  0.0162 -0.0617 -0.5744
  501TMC3    O1 7508   1.859   1.382  10.267  0.3724 -0.1288 -0.0849
  501TMC3    O2 7509   2.187   1.761  10.066  0.3805 -0.0332 -0.4938
  502TMC3    C1 7510   1.590   4.229  14.441 -0.4954 -0.8979 -0.3114
  502TMC3    C2 7511   1.596   4.337  14.354 -0.2734 -0.0856  0.3034
  502TMC3    C3 7512   1.519   4.444  14.393  1.0891  0.3415 -0.4236
  502TMC3    C4 7513   1.478   4.211  14.522  0.4859  0.2411  0.2188
  502TMC3    C5 7514   1.390   4.315  14.552  0.7946  0.6871  0.1468
  502TMC3    C6 7515   1.418   4.434  14.483 -0.0092 -0.2196  0.7990
  502TMC3     C 7516   1.718   4.193  14.492  0.4353  0.2127  0.4739
  502TMC3     O 7517   1.810   4.212  14.418 -0.0457  0.5140 -0.0223
  502TMC3     H 7518   1.662   4.340  14.268  0.5625  0.4392  0.9655
  502TMC3    H1 7519   1.460   4.114  14.568  0.5336  0.6361  1.0649
  502TMC3    H2 7520   1.364   4.525  14.507 -0.7878 -0.8260  1.3475
  502TMC3    C7 7521   1.362   4.330  14.695  0.2769 -0.3939 -0.4662
  502TMC3    C8 7522   1.591   4.566  14.406 -0.2420 -0.5625  0.2660
  502TMC3    O1 7523   1.454   4.294  14.768  0.0923  0.2786  0.4748
  502TMC3    O2 7524   1.536   4.669  14.441  0.5590 -0.0438  0.5676
  503MPD2     C 7525   4.079   1.014  16.724 -0.3148  0.3689 -0.0285
  503MPD2    C1 7526   4.066   1.002  16.861 -0.2630 -1.0621  0.6046
  503MPD2    C2 7527   4.114   0.883  16.911 -0.1137  0.1298 -0.3772
  503MPD2    C3 7528   4.155   0.773  16.836  0.3906 -0.1101  0.5414
  503MPD2    C4 7529   4.148   0.788  16.698  0.4802 -0.4859  0.3821
  503MPD2    C5 7530   4.120   0.908  16.652  0.5436 -0.6939  0.1411
  503MPD2     H 7531   4.118   0.861  17.017  0.4369  0.2031 -0.3843
  503MPD2    H1 7532   4.156   0.700  16.635  0.4574  0.4100 -0.8607
  503MPD2    H2 7533   4.052   1.104  16.671 -1.5341  1.5436  2.5830
  503MPD2    H3 7534   4.114   0.924  16.545 -0.0247 -2.1812 -0.0499
  503MPD2     N 7535   4.185   0.649  16.899 -0.6247  0.3978 -0.7265
  503MPD2    H5 7536   4.183   0.644  17.000  0.9737  0.0238 -0.7122
  503MPD2    N1 7537   4.036   1.110  16.940  0.3995 -0.0124  0.2267
  503MPD2    H7 7538   4.055   1.107  17.039 -0.3540 -1.7170  0.3179
  504TMC3    C1 7539   4.256   0.430  16.935  0.6810  0.0104 -0.0328
  504TMC3    C2 7540   4.246   0.452  17.067 -0.4385 -0.1739  0.4635
  504TMC3    C3 7541   4.321   0.377  17.152 -0.6642  0.4608 -0.8103
  504TMC3    C4 7542   4.321   0.315  16.891 -0.4144  0.0476  0.6728
  504TMC3    C5 7543   4.405   0.249  16.980  0.0413 -0.6878  0.9430
  504TMC3    C6 7544   4.405   0.273  17.114  0.3086 -0.7387  0.4250
  504TMC3     C 7545   4.237   0.538  16.840  0.0784  0.1761 -0.5632
  504TMC3     O 7546   4.267   0.532  16.721 -0.2214  0.7418  0.0703
  504TMC3     H 7547   4.205   0.544  17.106 -0.7912 -0.0235 -0.2601
  504TMC3    H1 7548   4.325   0.295  16.784 -0.6584 -0.0822  0.6876
  504TMC3    H2 7549   4.466   0.219  17.186  2.0812 -0.2842 -0.7361
  504TMC3    C7 7550   4.531   0.222  16.909 -0.4799  0.2025  0.2760
  504TMC3    C8 7551   4.362   0.449  17.274 -0.4083  0.5433  0.7672
  504TMC3    O1 7552   4.558   0.295  16.819 -0.4299 -0.4305 -0.2299
  504TMC3    O2 7553   4.377   0.571  17.266  0.6496 -0.1268  0.7526
  505MPD2     C 7554   3.587   4.689  10.317 -0.2494 -0.4685 -0.0095
  505MPD2    C1 7555   3.638   4.569  10.376  0.7348 -0.5574 -0.0554
  505MPD2    C2 7556   3.739   4.583  10.479 -0.1809  0.3837 -0.4712
  505MPD2    C3 7557   3.788   4.704  10.518 -0.2808  0.0178 -0.3489
  505MPD2    C4 7558   3.741   0.076  10.446 -0.3644 -0.0342 -0.0373
  505MPD2    C5 7559   3.649   0.074  10.344  0.3351 -0.3982  0.8050
  505MPD2     H 7560   3.793   4.496  10.514  0.5581  1.3818  0.8898
  505MPD2    H1 7561   3.783   0.174  10.467 -1.5439  0.7294 -1.2725
  505MPD2    H2 7562   3.517   4.679  10.235 -1.3920  2.1699  0.6434
  505MPD2    H3 7563   3.615   0.169  10.305 -1.2582 -1.0217  0.6949
  505MPD2     N 7564   3.886   4.708  10.624 -0.3244  0.6590  0.2965
  505MPD2    H5 7565   3.928   4.621  10.657 -0.5465  0.2679 -0.4470
  505MPD2    N1 7566   3.577   4.450  10.338  0.0077  0.0332 -0.2928
  505MPD2    H7 7567   3.525   4.447  10.251 -0.9686 -0.0020  0.2954
  506TMC3    C1 7568   3.572   4.213  10.340  0.4585  0.3964 -0.8344
  506TMC3    C2 7569   3.625   4.209  10.207  0.1401  0.9604 -0.0104
  506TMC3    C3 7570   3.672   4.084  10.166 -0.0140  0.3119  0.1026
  506TMC3    C4 7571   3.582   4.097  10.415  0.4161  1.0189 -0.7193
  506TMC3    C5 7572   3.630   3.980  10.367 -0.0582  0.5359 -0.9174
  506TMC3    C6 7573   3.668   3.969  10.240  0.9682 -0.0507 -0.7494
  506TMC3     C 7574   3.600   4.332  10.409 -0.4427  0.1151 -0.8046
  506TMC3     O 7575   3.666   4.307  10.510  0.2027 -0.2322 -0.3638
  506TMC3     H 7576   3.644   4.299  10.151  2.0750 -0.1450 -1.1224
  506TMC3    H1 7577   3.549   4.107  10.518 -0.5673 -1.1416 -0.8238
  506TMC3    H2 7578   3.699   3.871  10.205 -0.4754 -1.5036  2.0492
  506TMC3    C7 7579   3.736   3.934  10.444  0.0247  0.2771  0.1522
  506TMC3    C8 7580   3.755   4.073  10.045  0.4210 -1.0217 -0.5080
  506TMC3    O1 7581   3.770   3.816  10.450 -0.1984  0.0805 -0.3253
  506TMC3    O2 7582   3.765   3.957  10.008  0.5115 -0.3483  0.3308
  507TMC3    C1 7583   0.405   0.661  15.134 -0.5079 -0.7603  0.5754
  507TMC3    C2 7584   0.383   0.568  15.033 -0.1403  0.6706 -0.5636
  507TMC3    C3 7585   0.373   0.626  14.906 -0.2822  0.1805 -0.1687
  507TMC3    C4 7586   0.418   0.799  15.108  0.1182 -0.3061 -0.5305
  507TMC3    C5 7587   0.391   0.843  14.981 -0.3364 -0.4374 -0.6426
  507TMC3    C6 7588   0.373   0.758  14.882  0.9400 -0.2104 -0.7380
  507TMC3     C 7589   0.391   0.610  15.272 -0.3874  0.6144 -0.4054
  507TMC3     O 7590   0.438   0.681  15.362  0.0092 -0.4056 -0.2559
  507TMC3     H 7591   0.399   0.462  15.044  1.4746  0.9636 -0.1032
  507TMC3    H1 7592   0.426   0.870  15.190  1.0591  0.0453 -0.9342
  507TMC3    H2 7593   0.355   0.803  14.785  2.1686  1.4821 -0.1604
  507TMC3    C7 7594   0.277   0.932  14.974  0.4673  0.5844  0.1085
  507TMC3    C8 7595   0.282   0.544  14.830 -0.1906  0.5929  0.8783
  507TMC3    O1 7596   0.173   0.888  14.933 -0.5708  0.2385 -0.4255
  507TMC3    O2 7597   0.298   0.424  14.825  0.4292  0.3347 -0.6538
  508MPD2     C 7598   1.093   2.586  15.534 -0.5972  0.1182  0.3344
  508MPD2    C1 7599   1.225   2.611  15.536 -0.5454  0.0466 -0.2344
  508MPD2    C2 7600   1.284   2.619  15.413  0.7557  0.0644  0.0266
  508MPD2    C3 7601   1.217   2.591  15.294 -0.5985  0.6768 -0.1246
  508MPD2    C4 7602   1.084   2.560  15.297  0.2140  0.2810  0.1803
  508MPD2    C5 7603   1.026   2.552  15.423 -0.5753 -0.4304 -0.4962
  508MPD2     H 7604   1.388   2.647  15.400  1.7594 -2.9654  1.5623
  508MPD2    H1 7605   1.024   2.533  15.211  1.1796 -0.3139 -0.2973
  508MPD2    H2 7606   1.028   2.594  15.621  0.0575 -0.5285  0.8779
  508MPD2    H3 7607   0.919   2.543  15.432 -0.1407  0.7651  5.6065
  508MPD2     N 7608   1.292   2.604  15.173 -0.3150 -0.2715  0.4250
  508MPD2    H5 7609   1.379   2.656  15.174 -0.9826  0.8207  2.1496
  508MPD2    N1 7610   1.291   2.616  15.656  1.1264 -0.2839  0.6893
  508MPD2    H7 7611   1.231   2.625  15.738  1.7600  0.3213  1.0900
  509TMC3    C1 7612   1.250   2.890  14.877 -0.1542  0.1136  0.4617
  509TMC3    C2 7613   1.340   2.954  14.953 -0.5280  0.3350  0.7570
  509TMC3    C3 7614   1.438   2.880  15.024 -0.4340  0.0550  0.3617
  509TMC3    C4 7615   1.233   2.758  14.871  0.5778  0.1226  0.4403
  509TMC3    C5 7616   1.315   2.688  14.959 -0.1923  0.0328  0.2074
  509TMC3    C6 7617   1.424   2.742  15.021  0.0866 -0.2668 -0.7122
  509TMC3     C 7618   1.130   2.969  14.838  0.9030 -0.0905  0.0233
  509TMC3     O 7619   1.044   2.913  14.769 -0.2907  0.7288 -0.1680
  509TMC3     H 7620   1.346   3.062  14.948  0.3740  0.2584  0.2851
  509TMC3    H1 7621   1.139   2.718  14.834 -0.3099  0.6192  2.1182
  509TMC3    H2 7622   1.489   2.677  15.077 -1.9822 -0.5611  1.3504
  509TMC3    C7 7623   1.241   2.599  15.040 -0.3859 -0.4739 -0.5759
  509TMC3    C8 7624   1.466   2.932  15.157 -0.4693  0.0404  0.2138
  509TMC3    O1 7625   1.131   2.559  14.999  0.6229 -0.1535 -0.4983
  509TMC3    O2 7626   1.477   2.844  15.243  0.2585  0.1811 -0.7237
  510MPD2     C 7627   3.111   4.138  14.482 -0.5398 -0.3612  0.8150
  510MPD2    C1 7628   3.198   4.135  14.589  0.3824 -0.3099  0.1263
  510MPD2    C2 7629   3.323   4.201  14.583 -0.7807 -0.0123 -0.1145
  510MPD2    C3 7630   3.370   4.247  14.460 -0.7026 -0.4512  0.1873
  510MPD2    C4 7631   3.287   4.248  14.353 -0.5284  0.7917  0.5939
  510MPD2    C5 7632   3.161   4.202  14.365  0.0898 -0.7625 -0.1062
  510MPD2     H 7633   3.398   4.198  14.661  0.1199 -0.7442 -1.0039
  510MPD2    H1 7634   3.307   4.291  14.256  1.5355 -2.8441 -0.5842
  510MPD2    H2 7635   3.010   4.099  14.482 -1.3426  1.7491  3.8368
  510MPD2    H3 7636   3.098   4.214  14.278 -0.3437 -1.5082  0.1045
  510MPD2     N 7637   3.506   4.293  14.449 -0.0070  0.1528  0.4015
  510MPD2    H5 7638   3.567   4.293  14.530  0.1960  1.6667  0.2584
  510MPD2    N1 7639   3.155   4.054  14.692 -0.9816 -1.0376 -0.2816
  510MPD2    H7 7640   3.099   3.977  14.657  0.2140 -2.8489  1.7759
  511TMC3    C1 7641   3.119   3.981  14.914  0.4817 -0.0203 -0.4789
  511TMC3    C2 7642   3.060   4.038  15.026  0.1800 -0.7783  0.1225
  511TMC3    C3 7643   3.014   3.941  15.112 -0.4974 -0.4473 -0.3532
  511TMC3    C4 7644   3.100   3.850  14.869 -0.2979 -0.4543  0.1568
  511TMC3    C5 7645   3.034   3.767  14.955  0.8749 -0.0151 -0.0360
  511TMC3    C6 7646   3.015   3.807  15.087  0.3995 -0.0846 -0.3083
  511TMC3     C 7647   3.190   4.069  14.825  0.2859  0.6865 -0.1479
  511TMC3     O 7648   3.258   4.160  14.875 -0.3537  0.4625 -0.2036
  511TMC3     H 7649   3.070   4.144  15.047 -0.4503 -1.0471  1.7396
  511TMC3    H1 7650   3.145   3.810  14.779  1.0617 -1.3814  1.2555
  511TMC3    H2 7651   2.984   3.730  15.157 -2.0862  1.5545  0.3798
  511TMC3    C7 7652   3.025   3.622  14.929  0.3448  0.7030  0.0613
  511TMC3    C8 7653   2.998   3.963  15.256 -0.2970  0.0691  0.8890
  511TMC3    O1 7654   3.004   3.546  15.025  0.5735  0.0764 -0.4423
  511TMC3    O2 7655   2.985   3.871  15.337  0.3783  0.0271 -0.2638
  512TMC3    C1 7656   2.349   3.649  12.804  0.4673  0.2063 -0.7912
  512TMC3    C2 7657   2.454   3.638  12.889 -0.1605 -0.1355 -0.6142
  512TMC3    C3 7658   2.490   3.511  12.931 -0.2613  0.4635  0.5293
  512TMC3    C4 7659   2.283   3.540  12.754  0.7389 -0.4269 -0.2263
  512TMC3    C5 7660   2.319   3.416  12.801  0.1736 -0.3874 -0.0744
  512TMC3    C6 7661   2.422   3.402  12.889  0.0458  0.4737 -0.2602
  512TMC3     C 7662   2.288   3.779  12.790 -0.5840 -0.2828 -0.2301
  512TMC3     O 7663   2.188   3.787  12.718  0.2041 -0.1432 -0.2199
  512TMC3     H 7664   2.515   3.728  12.896 -0.6361  0.1981 -0.7707
  512TMC3    H1 7665   2.186   3.552  12.708  1.3964  3.1092 -0.6943
  512TMC3    H2 7666   2.458   3.307  12.929 -0.5946 -0.1574 -1.1823
  512TMC3    C7 7667   2.227   3.306  12.778  0.0213  0.2145 -0.0024
  512TMC3    C8 7668   2.580   3.490  13.042 -0.2114  0.2622  0.3085
  512TMC3    O1 7669   2.121   3.337  12.725 -0.6895  0.4279 -0.0166
  512TMC3    O2 7670   2.610   3.375  13.075  0.1945  0.0330  0.2224
  513MPD2     C 7671   4.135   3.595  12.709 -0.5260 -0.4744 -0.7241
  513MPD2    C1 7672   4.150   3.457  12.701 -0.4997  0.0898 -0.6086
  513MPD2    C2 7673   4.165   3.383  12.820 -0.3888 -0.8509 -0.2224
  513MPD2    C3 7674   4.179   3.446  12.943 -0.2455  0.2064  0.3491
  513MPD2    C4 7675   4.170   3.583  12.949 -0.5702 -0.4220  1.3484
  513MPD2    C5 7676   4.147   3.654  12.833 -0.4919  0.1603 -0.2296
  513MPD2     H 7677   4.177   3.275  12.815  0.1435 -0.8120  0.1620
  513MPD2    H1 7678   4.196   3.643  13.036 -0.5361  1.9163 -0.2491
  513MPD2    H2 7679   4.117   3.658  12.623 -0.9457 -0.8611 -0.9183
  513MPD2    H3 7680   4.138   3.761  12.842  0.7825  0.5236 -3.1129
  513MPD2     N 7681   4.204   3.371  13.061  0.1246 -0.5210  0.8211
  513MPD2    H5 7682   4.195   3.270  13.057  2.2847 -0.6772 -0.1979
  513MPD2    N1 7683   4.148   3.377  12.580 -0.1840  0.7447 -0.1328
  513MPD2    H7 7684   4.159   3.276  12.590 -2.6457  0.5784  1.1000
  514TMC3    C1 7685   4.126   3.314  12.354 -0.8345 -0.0295  0.9684
  514TMC3    C2 7686   4.210   3.338  12.249 -0.8908 -0.7472 -0.1190
  514TMC3    C3 7687   4.300   3.236  12.225  0.0833  0.4452 -0.5101
  514TMC3    C4 7688   4.109   3.194  12.411  0.2039 -1.0196 -0.2510
  514TMC3    C5 7689   4.210   3.102  12.400 -0.4475 -0.0596 -0.3963
  514TMC3    C6 7690   4.309   3.132  12.303  0.2742  0.1001  0.1715
  514TMC3     C 7691   4.131   3.427  12.450 -0.8229 -0.0045 -0.1719
  514TMC3     O 7692   4.155   3.539  12.409  0.4307 -0.2934 -0.3527
  514TMC3     H 7693   4.210   3.434  12.199  1.0258  0.3294  1.9457
  514TMC3    H1 7694   4.027   3.185  12.482 -1.4195 -1.2687 -2.1557
  514TMC3    H2 7695   4.409   3.090  12.300  0.1718 -0.1128 -0.2804
  514TMC3    C7 7696   4.237   3.044  12.527  0.6865  0.0332  0.4124
  514TMC3    C8 7697   4.415   3.271  12.151 -0.0963  0.4862 -0.1600
  514TMC3    O1 7698   4.176   3.102  12.616 -0.5580  0.3736  0.2185
  514TMC3    O2 7699   4.525   3.244  12.187 -0.3927  0.3748  0.1828
  515MPD2     C 7700   2.506   0.571  14.831  0.4660  0.6052 -0.3809
  515MPD2    C1 7701   2.526   0.596  14.694 -0.2753 -0.2672 -0.2572
  515MPD2    C2 7702   2.568   0.723  14.655  0.9144  0.8519  0.9894
  515MPD2    C3 7703   2.601   0.812  14.755  0.0615 -0.0636  0.2215
  515MPD2    C4 7704   2.587   0.788  14.889 -0.0545 -0.0714  0.2789
  515MPD2    C5 7705   2.532   0.666  14.928  0.0930 -0.0848  0.1536
  515MPD2     H 7706   2.570   0.748  14.550  0.6352 -2.9274  0.0975
  515MPD2    H1 7707   2.602   0.863  14.966 -1.3928  1.4353 -0.9377
  515MPD2    H2 7708   2.459   0.477  14.858 -0.8930  1.2548 -0.4719
  515MPD2    H3 7709   2.510   0.640  15.031 -1.9107 -2.5389 -0.8996
  515MPD2     N 7710   2.676   0.927  14.730 -0.5056  0.2222  0.0495
  515MPD2    H5 7711   2.702   0.979  14.814  0.9358  1.3688 -1.1146
  515MPD2    N1 7712   2.506   0.493  14.596 -0.0213  0.3402 -0.6889
  515MPD2    H7 7713   2.530   0.508  14.498 -1.4623 -0.7687 -1.2146
  516TMC3    C1 7714   2.455   0.279  14.507 -0.5463 -0.2457  0.5038
  516TMC3    C2 7715   2.374   0.338  14.413  1.0914  0.6045  0.1532
  516TMC3    C3 7716   2.310   0.256  14.324  0.3734  0.5026 -0.7333
  516TMC3    C4 7717   2.473   0.149  14.519  0.3444  0.7787 -0.1301
  516TMC3    C5 7718   2.401   0.069  14.434 -0.7114 -0.5554  0.6969
  516TMC3    C6 7719   2.318   0.120  14.335  0.2426  0.0933  1.2870
  516TMC3     C 7720   2.480   0.359  14.628  0.6769  0.1879 -0.2706
  516TMC3     O 7721   2.493   0.307  14.738 -0.5038 -0.1840  0.1782
  516TMC3     H 7722   2.340   0.439  14.433  0.1277  0.5816 -1.4019
  516TMC3    H1 7723   2.533   0.113  14.603 -0.5488  2.0599  1.0432
  516TMC3    H2 7724   2.252   0.061  14.272  1.1650 -0.6002  0.9796
  516TMC3    C7 7725   2.404   4.667  14.475 -0.0237 -0.2130 -0.3831
  516TMC3    C8 7726   2.205   0.310  14.243 -0.6161 -0.1846  0.5930
  516TMC3    O1 7727   2.471   4.645  14.578  0.2057 -0.0812  0.0878
  516TMC3    O2 7728   2.101   0.250  14.218  0.2736 -0.0182 -0.1774
  517MPD2     C 7729   2.144   2.482  17.329  0.1804  0.0386 -0.5412
  517MPD2    C1 7730   2.267   2.431  17.365 -1.0531 -0.2278 -0.1441
  517MPD2    C2 7731   2.344   2.504  17.458  0.4813  0.1712 -0.4019
  517MPD2    C3 7732   2.307   2.631  17.506  0.2290  0.9698 -0.9185
  517MPD2    C4 7733   2.192   2.685  17.451 -0.1016  0.2480 -0.1313
  517MPD2    C5 7734   2.112   2.614  17.361 -0.0137 -0.0870  0.0728
  517MPD2     H 7735   2.437   2.458  17.488 -0.6364 -2.7706 -1.4774
  517MPD2    H1 7736   2.152   2.784  17.473 -0.4992  0.0331  0.1011
  517MPD2    H2 7737   2.070   2.426  17.273  0.9735 -0.8486 -0.6993
  517MPD2    H3 7738   2.017   2.644  17.319  0.0900  0.4219  0.2049
  517MPD2     N 7739   2.387   2.714  17.594  0.0009  0.1434 -0.4976
  517MPD2    H5 7740   2.348   2.805  17.612  0.6006  0.6492 -1.7546
  517MPD2    N1 7741   2.312   2.305  17.336  0.1452  0.2434 -0.7032
  517MPD2    H7 7742   2.393   2.270  17.386  0.5631  0.8364 -0.9684
  518TMC3    C1 7743   2.356   2.122  17.213 -0.3847 -0.4857 -1.0128
  518TMC3    C2 7744   2.313   1.998  17.196  0.4651  0.4525 -0.1469
  518TMC3    C3 7745   2.404   1.903  17.164 -0.2490 -0.1742 -0.1314
  518TMC3    C4 7746   2.489   2.155  17.198  0.2996 -0.2767  0.1675
  518TMC3    C5 7747   2.578   2.053  17.178 -0.1070  0.2592 -0.5604
  518TMC3    C6 7748   2.536   1.927  17.152  0.1989 -0.3694 -0.4144
  518TMC3     C 7749   2.266   2.221  17.247  0.6425  0.4130  0.6021
  518TMC3     O 7750   2.163   2.231  17.187 -0.2618  0.5511  0.2265
  518TMC3     H 7751   2.206   1.979  17.201  0.3164  1.2818 -0.1756
  518TMC3    H1 7752   2.514   2.259  17.218 -0.8290 -0.3897  2.2152
  518TMC3    H2 7753   2.598   1.839  17.161 -1.3623 -1.6724 -2.3245
  518TMC3    C7 7754   2.715   2.083  17.219  0.1745  0.2529  0.7247
  518TMC3    C8 7755   2.371   1.765  17.176 -0.4368 -0.3235  0.3166
  518TMC3    O1 7756   2.740   2.189  17.275  0.2075 -0.0162 -0.1966
  518TMC3    O2 7757   2.456   1.688  17.127 -0.1986 -0.3259 -0.7895
  519MPD2     C 7758   3.914   0.436  14.350  0.3338 -0.0852  0.4297
  519MPD2    C1 7759   3.825   0.394  14.249 -0.1382 -0.3128 -0.2315
  519MPD2    C2 7760   3.867   0.291  14.169  0.2129  0.9482 -0.2894
  519MPD2    C3 7761   4.001   0.239  14.170 -0.1699  0.7236 -0.0176
  519MPD2    C4 7762   4.087   0.281  14.263 -0.0327  0.6142 -0.1043
  519MPD2    C5 7763   4.042   0.381  14.353 -0.2486 -0.5594 -0.1915
  519MPD2     H 7764   3.795   0.264  14.093 -0.4947 -0.1456  0.7668
  519MPD2    H1 7765   4.188   0.243  14.274 -0.2535  0.7181  2.2034
  519MPD2    H2 7766   3.881   0.517  14.412  1.7241 -0.1338  1.2439
  519MPD2    H3 7767   4.111   0.415  14.429 -0.1664  0.7235 -0.8590
  519MPD2     N 7768   4.056   0.153  14.072  0.1107  0.0801 -0.3776
  519MPD2    H5 7769   4.156   0.135  14.073  0.1959  0.5556 -0.1992
  519MPD2    N1 7770   3.698   0.447  14.244  0.4877  0.5000 -0.0839
  519MPD2    H7 7771   3.681   0.519  14.313 -0.2762  2.5004 -2.3698
  520TMC3    C1 7772   4.061   0.063  13.863  0.2176  0.2815 -0.2301
  520TMC3    C2 7773   4.054   0.140  13.752  0.4605  0.7793 -0.2230
  520TMC3    C3 7774   4.149   0.123  13.655  0.7103  0.2987 -0.0771
  520TMC3    C4 7775   4.159   4.709  13.877 -0.0781  0.1028 -0.5459
  520TMC3    C5 7776   4.256   4.694  13.781  0.2985 -0.5874  0.2321
  520TMC3    C6 7777   4.253   0.031  13.665  0.1653 -0.3437  0.2907
  520TMC3     C 7778   3.980   0.101  13.973  0.0495 -0.3515  0.7997
  520TMC3     O 7779   3.863   0.112  13.947  0.2033  0.5036 -0.0510
  520TMC3     H 7780   3.981   0.220  13.751  0.5070  0.7731 -3.2405
  520TMC3    H1 7781   4.164   4.649  13.967  0.6650  0.5993 -0.2558
  520TMC3    H2 7782   4.332   0.019  13.591  0.5365  1.4748  0.3956
  520TMC3    C7 7783   4.374   4.615  13.807  0.1838  0.0403 -0.9960
  520TMC3    C8 7784   4.127   0.171  13.514  0.4590 -0.0187 -0.0859
  520TMC3    O1 7785   4.396   4.591  13.925  0.1146 -0.3552  0.0549
  520TMC3    O2 7786   4.223   0.180  13.440 -0.5120  0.6728 -0.5872
  521MPD2     C 7787   0.633   3.242  17.420  0.5539  0.2823 -0.0327
  521MPD2    C1 7788   0.537   3.258  17.321  0.2709 -0.2871 -0.1331
  521MPD2    C2 7789   0.577   3.266  17.188  0.6365  0.1453  0.2258
  521MPD2    C3 7790   0.708   3.302  17.156 -0.2581 -0.7460  0.4930
  521MPD2    C4 7791   0.801   3.287  17.261  0.1595  0.2581  0.0091
  521MPD2    C5 7792   0.760   3.250  17.387 -0.5589  0.1928 -0.4494
  521MPD2     H 7793   0.503   3.267  17.109  0.9236 -0.3688 -0.0469
  521MPD2    H1 7794   0.908   3.291  17.241  0.1734 -3.4273 -0.7077
  521MPD2    H2 7795   0.609   3.216  17.522 -1.2350 -0.1501 -0.5661
  521MPD2    H3 7796   0.839   3.229  17.458 -0.7691  1.1519  0.0609
  521MPD2     N 7797   0.742   3.317  17.024  0.1998 -0.1005 -0.0355
  521MPD2    H5 7798   0.667   3.305  16.956  1.4863 -0.6996 -1.3652
  521MPD2    N1 7799   0.404   3.243  17.370  0.1244  0.4863 -0.0663
  521MPD2    H7 7800   0.398   3.232  17.471 -0.8295 -0.7901 -0.2585
  522TMC3    C1 7801   0.880   3.279  16.832 -0.1652 -0.0656  0.3191
  522TMC3    C2 7802   1.009   3.265  16.799 -0.1860 -0.3659 -0.9236
  522TMC3    C3 7803   1.032   3.187  16.689 -0.3288 -0.0815  0.2028
  522TMC3    C4 7804   0.771   3.219  16.770  0.1448 -0.2450 -0.1876
  522TMC3    C5 7805   0.804   3.136  16.666 -0.4936  0.5319 -0.1323
  522TMC3    C6 7806   0.931   3.118  16.620  0.1564 -0.1251 -0.8056
  522TMC3     C 7807   0.871   3.328  16.971 -0.7946  0.4634 -0.4139
  522TMC3     O 7808   0.976   3.343  17.036 -1.0036  0.1153  0.0161
  522TMC3     H 7809   1.090   3.318  16.847 -2.7818  1.7807  1.0718
  522TMC3    H1 7810   0.671   3.222  16.814 -1.3341 -1.3868 -3.5068
  522TMC3    H2 7811   0.948   3.044  16.542 -0.3646 -0.5735 -0.4962
  522TMC3    C7 7812   0.700   3.039  16.630 -0.1193 -0.0275  0.4177
  522TMC3    C8 7813   1.172   3.166  16.645 -0.4332 -0.2837  0.1394
  522TMC3    O1 7814   0.723   2.918  16.626  0.2975 -0.1312 -0.3260
  522TMC3    O2 7815   1.264   3.209  16.716  0.0618 -0.2348  0.0342
  523MPD2     C 7816   2.135   3.196  10.120  0.6042 -0.5865  0.4065
  523MPD2    C1 7817   2.113   3.079  10.054  0.5085  0.3392 -0.5798
  523MPD2    C2 7818   1.982   3.051  10.020  0.1394 -1.0208 -0.4208
  523MPD2    C3 7819   1.875   3.141  10.054 -0.3656 -0.3446 -0.1416
  523MPD2    C4 7820   1.908   3.261  10.112  0.3774  0.2147  0.0880
  523MPD2    C5 7821   2.035   3.293  10.142  0.0629 -0.2399 -0.3768
  523MPD2     H 7822   1.962   2.953   9.980 -1.4911 -0.4342 -1.0387
  523MPD2    H1 7823   1.834   3.330  10.152 -0.1439 -0.6582  0.6217
  523MPD2    H2 7824   2.232   3.230  10.154 -0.3874  1.8068  0.8545
  523MPD2    H3 7825   2.064   3.379  10.199  0.2848 -0.6934  0.1911
  523MPD2     N 7826   1.735   3.122  10.029  0.4148  0.2805  0.3812
  523MPD2    H5 7827   1.671   3.197  10.051 -1.8526 -0.6907 -2.9269
  523MPD2    N1 7828   2.223   2.997  10.018  0.0363 -0.8404  0.6612
  523MPD2    H7 7829   2.311   3.020  10.062  0.7999  0.5998 -1.6339
  524TMC3    C1 7830   1.539   3.011   9.950  0.5329 -0.0272  0.2512
  524TMC3    C2 7831   1.478   2.892   9.922  0.2261 -0.1808  0.3956
  524TMC3    C3 7832   1.346   2.880   9.887 -0.4765 -0.0246  0.2727
  524TMC3    C4 7833   1.465   3.128   9.942 -0.3066  0.4225  0.5531
  524TMC3    C5 7834   1.327   3.116   9.911  0.6689  0.1150  0.4114
  524TMC3    C6 7835   1.270   2.995   9.898  0.1170  0.1602  0.3729
  524TMC3     C 7836   1.679   3.001   9.998 -0.7741  0.1384  0.1589
  524TMC3     O 7837   1.733   2.891  10.003  0.0836  0.1099  0.4191
  524TMC3     H 7838   1.534   2.801   9.906 -1.1749 -0.7929 -0.9900
  524TMC3    H1 7839   1.513   3.221   9.969  1.3604  0.4329 -2.5134
  524TMC3    H2 7840   1.167   2.983   9.867  0.6232 -1.0215 -0.8945
  524TMC3    C7 7841   1.233   3.230   9.904  0.2571 -0.1746  0.5291
  524TMC3    C8 7842   1.271   2.756   9.870  0.0946 -0.3734  0.2000
  524TMC3    O1 7843   1.115   3.196   9.896  0.0965 -0.3665 -0.1095
  524TMC3    O2 7844   1.160   2.767   9.818 -0.2146  0.3015 -0.0841
  525MPD2     C 7845   0.656   4.323  14.280 -0.5201  0.4297 -0.3796
  525MPD2    C1 7846   0.733   4.399  14.364 -0.3430  0.0644 -0.8092
  525MPD2    C2 7847   0.807   4.504  14.312 -0.0735 -0.4792  0.3647
  525MPD2    C3 7848   0.803   4.539  14.176 -0.4329  0.2802  0.6208
  525MPD2    C4 7849   0.718   4.469  14.092 -0.0956  0.7027  0.8179
  525MPD2    C5 7850   0.652   4.357  14.146 -0.1018 -0.1999 -0.1522
  525MPD2     H 7851   0.853   4.568  14.386  1.0054 -0.6300 -0.1786
  525MPD2    H1 7852   0.703   4.495  13.988  2.0180 -1.5203 -0.0406
  525MPD2    H2 7853   0.589   4.245  14.314 -0.7885  0.1170 -1.6270
  525MPD2    H3 7854   0.583   4.301  14.085  2.2690 -3.6089  0.2758
  525MPD2     N 7855   0.856   4.658  14.128 -0.1735 -0.1683 -0.0957
  525MPD2    H5 7856   0.813   4.697  14.045 -1.3539 -0.3499  0.4307
  525MPD2    N1 7857   0.727   4.379  14.498 -0.2909 -0.1949 -0.0246
  525MPD2    H7 7858   0.795   4.436  14.548  0.7367  0.6047 -2.3154
  526TMC3    C1 7859   0.675   4.301  14.706  0.2533 -0.0693  0.2345
  526TMC3    C2 7860   0.571   4.307  14.800  0.9738  0.4242 -0.2486
  526TMC3    C3 7861   0.616   4.314  14.934  0.7573  0.3229  0.0796
  526TMC3    C4 7862   0.804   4.281  14.734 -0.7504  0.0023  0.6511
  526TMC3    C5 7863   0.835   4.273  14.866 -0.4168  0.1434 -0.1854
  526TMC3    C6 7864   0.744   4.283  14.964  0.1125 -0.2028  0.4183
  526TMC3     C 7865   0.630   4.307  14.565  0.1610 -0.7176 -0.4813
  526TMC3     O 7866   0.514   4.285  14.537  0.5358 -0.7897  0.5904
  526TMC3     H 7867   0.472   4.339  14.771  0.8136  2.0040  2.0771
  526TMC3    H1 7868   0.880   4.287  14.657 -0.9723  1.1514  0.5149
  526TMC3    H2 7869   0.786   4.274  15.064 -1.3996  0.0131  1.0850
  526TMC3    C7 7870   0.960   4.214  14.902  0.2915  0.0812 -0.0031
  526TMC3    C8 7871   0.533   4.381  15.032  0.4862 -0.3573 -0.3950
  526TMC3    O1 7872   1.006   4.248  15.013  0.0570  0.1367 -0.0430
  526TMC3    O2 7873   0.597   4.401  15.138  0.0914  0.3967  1.2667
  527MPD2     C 7874   3.549   2.389   1.473 -0.1456  0.2102 -1.1895
  527MPD2    C1 7875   3.548   2.391   1.332 -0.6555  0.0543 -0.0044
  527MPD2    C2 7876   3.672   2.426   1.273  0.7719 -0.4753  0.1116
  527MPD2    C3 7877   3.785   2.459   1.346  0.4017 -0.4936 -0.2949
  527MPD2    C4 7878   3.793   2.441   1.479 -0.0834  0.3209  0.9781
  527MPD2    C5 7879   3.675   2.401   1.540 -0.1283  0.0319 -0.0590
  527MPD2     H 7880   3.674   2.438   1.166 -1.4141 -0.6944  0.0447
  527MPD2    H1 7881   3.878   2.439   1.546 -0.1665 -0.2215  1.0672
  527MPD2    H2 7882   3.465   2.383   1.541  1.0913  0.0853  0.3119
  527MPD2    H3 7883   3.685   2.400   1.648  3.6766  0.2855 -0.3890
  527MPD2     N 7884   3.902   2.496   1.266 -0.3313 -0.0859  0.1251
  527MPD2    H5 7885   3.890   2.528   1.170 -1.6825  3.0594  1.3455
  527MPD2    N1 7886   3.438   2.372   1.246  0.5577 -0.2386  0.2041
  527MPD2    H7 7887   3.458   2.356   1.148 -0.3530 -1.1533  0.1680
  528TMC3    C1 7888   3.221   2.302   1.200  0.3835 -0.0578  0.3541
  528TMC3    C2 7889   3.251   2.313   1.066 -0.2802 -0.0465  0.4392
  528TMC3    C3 7890   3.223   2.196   0.997 -0.6871 -0.1902 -0.4055
  528TMC3    C4 7891   3.144   2.202   1.252  0.6532 -0.2116 -0.2199
  528TMC3    C5 7892   3.128   2.091   1.172 -0.0815  0.3641 -0.0541
  528TMC3    C6 7893   3.162   2.086   1.040  0.1921  0.3281  0.0448
  528TMC3     C 7894   3.308   2.356   1.298  0.4448 -0.2432  0.3376
  528TMC3     O 7895   3.275   2.342   1.414 -0.3456  0.7362  0.0584
  528TMC3     H 7896   3.283   2.410   1.030  0.0353 -0.8362 -1.4234
  528TMC3    H1 7897   3.115   2.191   1.355 -2.1178  0.9190 -0.8888
  528TMC3    H2 7898   3.154   1.999   0.975  0.5838  0.6375 -0.4120
  528TMC3    C7 7899   3.034   1.994   1.232  0.0240 -0.1363  0.0377
  528TMC3    C8 7900   3.247   2.222   0.859 -0.0444 -0.5726  0.2122
  528TMC3    O1 7901   2.976   2.026   1.335  0.2026 -0.1487  0.0191
  528TMC3    O2 7902   3.332   2.308   0.842 -0.3784  0.6432  0.2009
  529MPD2     C 7903   0.929   1.019   0.072 -0.1905  0.2732 -0.9957
  529MPD2    C1 7904   1.048   0.949   0.083 -0.6625 -0.6733 -0.4213
  529MPD2    C2 7905   1.128   0.941  17.727  0.4704  0.5257  0.1813
  529MPD2    C3 7906   1.109   1.012  17.606  1.1362  0.7658 -0.2782
  529MPD2    C4 7907   0.987   1.081  17.599 -0.2474  0.4474 -0.0862
  529MPD2    C5 7908   0.907   1.093  17.708 -0.3323  0.0236  0.2027
  529MPD2     H 7909   1.219   0.882  17.734 -0.9260 -1.5966  0.3541
  529MPD2    H1 7910   0.962   1.132  17.506  0.2956  1.7167  0.4580
  529MPD2    H2 7911   0.854   1.018   0.150 -1.2244 -3.4459 -2.0328
  529MPD2    H3 7912   0.807   1.132  17.694 -0.0779 -0.2307 -2.2461
  529MPD2     N 7913   1.187   1.002  17.490 -0.0243  0.1323  0.1662
  529MPD2    H5 7914   1.148   1.037  17.403  1.4023  1.0143 -0.1270
  529MPD2    N1 7915   1.079   0.869   0.196  0.4729  0.2620  0.0856
  529MPD2    H7 7916   1.163   0.811   0.197  1.1521  1.2460 -0.3448
  530TMC3    C1 7917   1.080   0.804   0.412 -0.2658 -0.2482 -0.9308
  530TMC3    C2 7918   1.065   0.849   0.540  0.9593  0.2002  0.6122
  530TMC3    C3 7919   1.072   0.753   0.637 -0.0637  0.3394 -0.5974
  530TMC3    C4 7920   1.080   0.674   0.376  0.3621 -0.1452 -0.1410
  530TMC3    C5 7921   1.076   0.585   0.479 -0.1472  0.9306 -0.1579
  530TMC3    C6 7922   1.077   0.621   0.610  0.1854 -0.3042  0.2632
  530TMC3     C 7923   1.015   0.885   0.314 -0.2502  0.1262  0.0521
  530TMC3     O 7924   0.938   0.968   0.360 -0.0734  0.1010  0.2948
  530TMC3     H 7925   1.064   0.956   0.560  0.5004  0.8900 -2.9590
  530TMC3    H1 7926   1.077   0.640   0.273 -0.4842 -2.7730  0.7553
  530TMC3    H2 7927   1.094   0.545   0.686 -0.0092 -1.9089 -1.2917
  530TMC3    C7 7928   1.122   0.448   0.454  0.6695  0.4033 -0.3641
  530TMC3    C8 7929   1.118   0.806   0.766  0.5328  0.2179 -0.5650
  530TMC3    O1 7930   1.171   0.422   0.347 -0.3511 -0.0880  0.4512
  530TMC3    O2 7931   1.099   0.924   0.784  0.3495  0.0946  0.7907
  531MPD2     C 7932   4.527   2.799  12.866 -0.8789  0.2322  0.0572
  531MPD2    C1 7933   4.442   2.907  12.882 -0.6020 -0.2035 -0.2553
  531MPD2    C2 7934   4.385   2.978  12.774 -0.1708 -0.3086  0.1640
  531MPD2    C3 7935   4.410   2.922  12.646 -0.4440 -0.1764  0.0496
  531MPD2    C4 7936   4.490   2.811  12.639 -0.5260  0.4609  0.0289
  531MPD2    C5 7937   4.552   2.756  12.744 -0.6921  0.1764  0.1044
  531MPD2     H 7938   4.323   3.066  12.783 -0.0034 -0.3004  1.2385
  531MPD2    H1 7939   4.516   2.770  12.542 -2.1018 -1.2412  0.3153
  531MPD2    H2 7940   4.569   2.754  12.955  2.0740 -1.9863 -2.4669
  531MPD2    H3 7941   4.626   2.679  12.726 -2.7881 -1.9222  0.6053
  531MPD2     N 7942   4.344   2.959  12.524  0.5683 -0.7696 -0.5949
  531MPD2    H5 7943   4.379   2.915  12.440 -3.5441 -2.8569 -1.2141
  531MPD2    N1 7944   4.421   2.952  13.018 -0.3426  0.2425 -0.4976
  531MPD2    H7 7945   4.482   2.914  13.090 -1.1231  0.3282  0.2119
  532TMC3    C1 7946   4.349   3.081  13.204 -0.0749  0.3097  0.0517
  532TMC3    C2 7947   4.262   3.186  13.225 -0.4608 -1.4572  0.5049
  532TMC3    C3 7948   4.303   3.307  13.264 -0.6930 -0.1716 -0.7746
  532TMC3    C4 7949   4.485   3.103  13.227 -0.3743  0.4610  0.2751
  532TMC3    C5 7950   4.520   3.222  13.289 -0.2211  0.1064  0.6277
  532TMC3    C6 7951   4.433   3.328  13.300  0.3838  0.6193 -0.0188
  532TMC3     C 7952   4.327   3.042  13.064 -0.1150 -0.6635  0.1572
  532TMC3     O 7953   4.245   3.096  12.989 -0.0800  0.1550  0.4904
  532TMC3     H 7954   4.154   3.171  13.222 -0.7250  0.7222 -0.6383
  532TMC3    H1 7955   4.551   3.017  13.226  0.1110  0.8582 -1.0106
  532TMC3    H2 7956   4.467   3.422  13.341  1.7502  0.0816  0.0953
  532TMC3    C7 7957   4.658   3.255  13.334  0.1805 -0.4909 -0.2621
  532TMC3    C8 7958   4.252   3.419  13.185 -0.6741  0.1713 -0.1224
  532TMC3    O1 7959   4.677   3.365  13.387  0.3608 -0.3530  0.0610
  532TMC3    O2 7960   4.298   3.530  13.207 -0.6589  0.0481  0.2316
  533TMC3    C1 7961   0.985   0.116  14.137 -0.0021 -0.0380 -0.4194
  533TMC3    C2 7962   1.108   0.161  14.156  0.1744  0.5206 -0.7092
  533TMC3    C3 7963   1.117   0.299  14.164 -0.2575 -0.4695  0.0797
  533TMC3    C4 7964   0.875   0.192  14.124  0.2701 -0.0600 -0.2472
  533TMC3    C5 7965   0.890   0.324  14.165 -0.3559  0.3700 -0.4730
  533TMC3    C6 7966   1.008   0.384  14.168 -0.5512 -0.5150  0.1249
  533TMC3     C 7967   0.966   4.714  14.174  0.5900  0.2566  0.2758
  533TMC3     O 7968   1.042   4.677  14.261  0.6057 -0.1414 -0.4750
  533TMC3     H 7969   1.196   0.098  14.145  0.5842  0.8921  0.5146
  533TMC3    H1 7970   0.777   0.146  14.118 -0.0915  0.7312 -0.4373
  533TMC3    H2 7971   1.021   0.491  14.166  2.0662 -0.8183  0.7514
  533TMC3    C7 7972   0.790   0.359  14.261  0.3315  1.2179 -0.0511
  533TMC3    C8 7973   1.243   0.356  14.211 -0.2032 -0.7631 -0.2257
  533TMC3    O1 7974   0.718   0.269  14.298  0.5801 -0.1653  0.1326
  533TMC3    O2 7975   1.318   0.285  14.280  0.3297 -0.6758 -0.0238
  534MPD2     C 7976   3.322   0.906   0.616  0.1451  0.0573  0.4332
  534MPD2    C1 7977   3.290   0.987   0.723 -0.1253 -0.3821  1.1208
  534MPD2    C2 7978   3.172   1.059   0.727 -0.8881  0.0637  0.3123
  534MPD2    C3 7979   3.073   1.037   0.633 -0.3876  0.4899 -0.5057
  534MPD2    C4 7980   3.102   0.949   0.531 -0.6063 -0.1255 -0.4022
  534MPD2    C5 7981   3.224   0.887   0.521 -0.0935 -0.1340 -0.4854
  534MPD2     H 7982   3.153   1.115   0.818 -0.2727  1.8149 -0.6565
  534MPD2    H1 7983   3.025   0.922   0.461 -2.3321  1.1903  0.9815
  534MPD2    H2 7984   3.417   0.857   0.598  0.0178  0.3473 -1.0146
  534MPD2    H3 7985   3.252   0.817   0.443  2.3595 -0.7977  0.9885
  534MPD2     N 7986   2.931   1.075   0.651 -0.6260 -0.9045  0.6413
  534MPD2    H5 7987   2.871   1.039   0.578 -0.5487 -0.7591  0.5054
  534MPD2    N1 7988   3.380   1.015   0.833  0.4277  0.9190 -0.2442
  534MPD2    H7 7989   3.350   1.082   0.903  1.9666  0.4391  0.8844
  535TMC3    C1 7990   2.754   1.219   0.739 -0.3037  0.0701 -0.8555
  535TMC3    C2 7991   2.697   1.251   0.854  0.7123 -0.3704 -0.2188
  535TMC3    C3 7992   2.622   1.365   0.860 -0.3883  0.1714 -0.3398
  535TMC3    C4 7993   2.746   1.298   0.627 -0.2067  0.0716 -0.6193
  535TMC3    C5 7994   2.681   1.418   0.647 -0.0462  0.1156 -0.2884
  535TMC3    C6 7995   2.612   1.455   0.758 -0.2121 -0.2298 -0.7946
  535TMC3     C 7996   2.881   1.147   0.759 -0.1780  0.3005 -0.2896
  535TMC3     O 7997   2.943   1.170   0.863  1.1186 -0.0526 -0.6875
  535TMC3     H 7998   2.697   1.185   0.940  1.6561 -1.6480 -1.1906
  535TMC3    H1 7999   2.797   1.272   0.535  0.5516 -0.2257 -0.1112
  535TMC3    H2 8000   2.540   1.536   0.756  1.0634  0.8676 -2.0894
  535TMC3    C7 8001   2.709   1.523   0.543 -0.2982  0.3220 -0.7123
  535TMC3    C8 8002   2.542   1.377   0.984 -0.1936 -0.2303  0.3861
  535TMC3    O1 8003   2.760   1.472   0.442 -0.7290 -0.3277 -0.1059
  535TMC3    O2 8004   2.514   1.278   1.051 -0.4757  0.1944  0.3275
  536MPD2     C 8005   2.394   0.015  15.804  0.0237  0.3158  0.1843
  536MPD2    C1 8006   2.315   4.635  15.787 -0.0961 -0.3942  0.1712
  536MPD2    C2 8007   2.256   4.607  15.669 -0.2569 -0.2892 -0.1562
  536MPD2    C3 8008   2.260   4.708  15.568 -0.4350  0.0100  0.1147
  536MPD2    C4 8009   2.341   0.085  15.577  0.4530  0.0403  0.5609
  536MPD2    C5 8010   2.401   0.106  15.700 -0.4542  0.1344 -0.0939
  536MPD2     H 8011   2.184   4.526  15.659 -2.5725  1.4513  2.3253
  536MPD2    H1 8012   2.336   0.165  15.504 -0.5942  1.3070  2.0105
  536MPD2    H2 8013   2.453   0.031  15.893 -0.7833  1.1195  0.5759
  536MPD2    H3 8014   2.451   0.201  15.711 -1.0147  0.8049 -3.4260
  536MPD2     N 8015   2.197   4.692  15.446  0.0449  0.4393 -0.2855
  536MPD2    H5 8016   2.182   0.042  15.398  1.1487 -0.3010 -2.0067
  536MPD2    N1 8017   2.317   4.550  15.900 -0.1829 -0.2874 -0.0618
  536MPD2    H7 8018   2.372   4.575  15.981  0.1202  0.6390 -0.5625
  537TMC3    C1 8019   2.242   4.383  16.044  0.4131  0.2704 -0.2842
  537TMC3    C2 8020   2.266   4.466  16.151  0.6564 -0.5117 -0.0795
  537TMC3    C3 8021   2.233   4.420  16.271 -0.2202 -0.4007 -0.7154
  537TMC3    C4 8022   2.189   4.257  16.063  0.5827 -0.0452  0.3080
  537TMC3    C5 8023   2.166   4.210  16.192 -0.3939 -0.2689 -0.4569
  537TMC3    C6 8024   2.176   4.293  16.298  0.7283  0.4065 -0.4695
  537TMC3     C 8025   2.262   4.426  15.907  0.3244  0.4433 -0.2407
  537TMC3     O 8026   2.206   4.359  15.816 -0.3238 -0.0736  0.4273
  537TMC3     H 8027   2.305   4.566  16.160 -0.5161 -0.0594 -0.0767
  537TMC3    H1 8028   2.178   4.197  15.974  2.2954 -1.5268  1.0964
  537TMC3    H2 8029   2.145   4.273  16.400  0.8807 -0.0186 -0.5063
  537TMC3    C7 8030   2.074   4.093  16.206 -0.1215  0.4346 -0.7570
  537TMC3    C8 8031   2.243   4.495  16.391  0.0932 -0.1794  0.0758
  537TMC3    O1 8032   2.019   4.057  16.100 -0.1257 -0.4924  0.6195
  537TMC3    O2 8033   2.302   4.441  16.485 -0.7047 -0.2238  0.2843
  538TMC3    C1 8034   2.760   2.744  10.684 -0.3667 -0.2397  0.0046
  538TMC3    C2 8035   2.870   2.827  10.715 -0.3400  0.0365  0.0752
  538TMC3    C3 8036   2.888   2.937  10.629  0.7752  0.2490 -0.6512
  538TMC3    C4 8037   2.677   2.766  10.581  0.0151  0.0547 -0.0031
  538TMC3    C5 8038   2.686   2.884  10.522  0.5184 -0.2494  0.1409
  538TMC3    C6 8039   2.790   2.968  10.539  0.0584 -0.0727  0.3634
  538TMC3     C 8040   2.706   2.651  10.784  0.3257  0.2910 -0.4210
  538TMC3     O 8041   2.586   2.624  10.777 -0.2508 -0.6532  0.8025
  538TMC3     H 8042   2.938   2.808  10.797  2.6283 -0.1044 -2.4100
  538TMC3    H1 8043   2.605   2.689  10.555  0.0875  0.0929 -0.3099
  538TMC3    H2 8044   2.786   3.066  10.493 -2.7620 -0.6265 -0.5333
  538TMC3    C7 8045   2.572   2.930  10.442  0.2110  0.0411  0.1432
  538TMC3    C8 8046   2.955   3.052  10.685 -0.2031 -0.1119 -0.2082
  538TMC3    O1 8047   2.555   3.049  10.420  0.1636  0.0389  0.1686
  538TMC3    O2 8048   2.966   3.071  10.807 -0.0333  0.6553  0.3949
  539MPD2     C 8049   2.314   1.901  11.491  0.4121 -0.1817 -0.4034
  539MPD2    C1 8050   2.405   1.965  11.405 -0.1623  0.0024 -0.7103
  539MPD2    C2 8051   2.389   2.099  11.375  0.1120 -0.3188 -0.1318
  539MPD2    C3 8052   2.298   2.172  11.449 -0.2350  0.1692 -0.3933
  539MPD2    C4 8053   2.224   2.116  11.544 -0.2919 -0.2253  0.5337
  539MPD2    C5 8054   2.220   1.976  11.557 -0.8029  0.8233 -0.3221
  539MPD2     H 8055   2.464   2.150  11.315  1.7462 -0.6195  1.6354
  539MPD2    H1 8056   2.160   2.175  11.608 -1.1695  0.2547 -0.7954
  539MPD2    H2 8057   2.297   1.795  11.501 -0.3715  0.1127  1.4169
  539MPD2    H3 8058   2.144   1.938  11.625 -2.2230 -1.1844 -3.0261
  539MPD2     N 8059   2.281   2.310  11.437  0.6431  0.1073  0.0429
  539MPD2    H5 8060   2.245   2.366  11.513  1.3210  1.8927 -0.9501
  539MPD2    N1 8061   2.505   1.894  11.340 -0.3557 -0.0226  0.2085
  539MPD2    H7 8062   2.563   1.940  11.271 -1.1207 -0.1374 -0.5048
  540TMC3    C1 8063   2.331   2.527  11.356  0.3979 -0.2346 -1.1425
  540TMC3    C2 8064   2.379   2.604  11.253 -0.6468 -0.2757 -0.0420
  540TMC3    C3 8065   2.379   2.741  11.253 -0.4709 -0.3298  0.0218
  540TMC3    C4 8066   2.268   2.586  11.462 -0.4354  0.1593 -0.7028
  540TMC3    C5 8067   2.275   2.726  11.469  0.1577  0.7199 -0.0288
  540TMC3    C6 8068   2.338   2.802  11.375 -0.0396 -0.1180  0.2479
  540TMC3     C 8069   2.312   2.383  11.325 -0.4446  0.9139 -0.1611
  540TMC3     O 8070   2.350   2.348  11.218 -0.8305 -0.0199 -0.3147
  540TMC3     H 8071   2.421   2.552  11.168  1.1939 -0.7532  1.1554
  540TMC3    H1 8072   2.225   2.536  11.548  1.2140  2.2058  1.3475
  540TMC3    H2 8073   2.347   2.909  11.371  2.3414 -0.2891  1.1541
  540TMC3    C7 8074   2.217   2.792  11.584 -0.0861  0.2223  0.0327
  540TMC3    C8 8075   2.336   2.807  11.134  0.7958 -1.2271  0.3872
  540TMC3    O1 8076   2.152   2.722  11.660  0.1293  0.0388  0.2137
  540TMC3    O2 8077   2.277   2.910  11.140  0.0904 -0.3209 -0.0587
  541MPD2     C 8078   0.850   3.672  13.288 -0.1185  0.3796  0.1938
  541MPD2    C1 8079   0.903   3.571  13.205  0.5412  0.0138  0.1873
  541MPD2    C2 8080   0.892   3.584  13.065  0.3688 -0.2440 -0.5268
  541MPD2    C3 8081   0.846   3.699  13.011  0.2916 -0.3079 -0.3992
  541MPD2    C4 8082   0.791   3.795  13.089 -0.1614  0.7147 -0.1064
  541MPD2    C5 8083   0.792   3.774  13.221 -0.0929 -0.6006 -0.2921
  541MPD2     H 8084   0.917   3.506  12.995 -0.2178  0.1768 -1.2075
  541MPD2    H1 8085   0.762   3.893  13.054  1.3831  1.4679  0.7325
  541MPD2    H2 8086   0.838   3.665  13.395 -1.3873 -0.8835 -0.0390
  541MPD2    H3 8087   0.748   3.851  13.283  0.5318  1.2093 -2.0834
  541MPD2     N 8088   0.851   3.731  12.871 -0.2373 -0.6268  0.4105
  541MPD2    H5 8089   0.815   3.822  12.843  0.1222 -0.7854 -0.5404
  541MPD2    N1 8090   0.965   3.465  13.277  0.6854  0.6745 -0.4911
  541MPD2    H7 8091   0.972   3.483  13.377 -2.7195  1.5908 -0.4172
  542TMC3    C1 8092   0.876   3.698  12.644  0.4457  0.3413  0.3760
  542TMC3    C2 8093   0.970   3.651  12.549 -0.2518  0.1137 -0.5618
  542TMC3    C3 8094   0.976   3.719  12.430 -0.0704 -0.2294 -0.0120
  542TMC3    C4 8095   0.796   3.807  12.618 -0.8914  0.9510  0.1241
  542TMC3    C5 8096   0.805   3.863  12.493 -0.2824 -0.5739  0.1639
  542TMC3    C6 8097   0.897   3.825  12.397 -0.5439 -0.3877 -0.3848
  542TMC3     C 8098   0.881   3.636  12.774  0.0214  0.5189  0.5031
  542TMC3     O 8099   0.938   3.527  12.779 -0.0768 -0.6156 -0.1715
  542TMC3     H 8100   1.040   3.572  12.572 -0.6787 -0.4001 -1.0436
  542TMC3    H1 8101   0.725   3.842  12.691 -0.3859  1.4169  0.3953
  542TMC3    H2 8102   0.909   3.881  12.305 -0.9543 -0.5773 -0.5518
  542TMC3    C7 8103   0.732   3.986  12.460  0.2408 -0.1619  0.1945
  542TMC3    C8 8104   1.087   3.686  12.332  0.0762 -0.6649 -0.3725
  542TMC3    O1 8105   0.765   4.050  12.361  0.5657 -0.2599  0.5877
  542TMC3    O2 8106   1.066   3.719  12.218  0.2965 -0.3650  0.0457
  543TMC3    C1 8107   0.879   0.436  16.929 -0.0583 -0.5329  0.1299
  543TMC3    C2 8108   0.874   0.327  17.001  0.2761  0.4715  0.0567
  543TMC3    C3 8109   0.799   0.325  17.117 -0.4806  0.4586 -0.0441
  543TMC3    C4 8110   0.826   0.557  16.973 -0.7085  0.7302  0.3874
  543TMC3    C5 8111   0.769   0.561  17.097 -0.0452 -0.5269  0.1184
  543TMC3    C6 8112   0.746   0.448  17.168 -0.3644 -0.0431 -0.1870
  543TMC3     C 8113   0.931   0.429  16.792  0.3857  0.3362  0.6045
  543TMC3     O 8114   0.962   0.319  16.758  0.3429  0.4430  0.2056
  543TMC3     H 8115   0.912   0.232  16.964 -0.7634 -0.4009  1.2291
  543TMC3    H1 8116   0.837   0.644  16.909 -0.1586  1.8699  2.0320
  543TMC3    H2 8117   0.699   0.460  17.265 -0.5620  0.5855 -0.3623
  543TMC3    C7 8118   0.698   0.686  17.139  0.4657 -0.2670  0.1838
  543TMC3    C8 8119   0.754   0.193  17.166 -0.5809  0.0845 -0.1660
  543TMC3    O1 8120   0.619   0.667  17.230 -0.0732  0.2109 -0.1778
  543TMC3    O2 8121   0.803   0.091  17.115 -0.3058  0.0609  0.0514
  544MPD2     C 8122   0.435   4.650  17.444  0.1676 -0.3679 -0.0634
  544MPD2    C1 8123   0.550   4.615  17.381  0.7921 -0.5651  0.4662
  544MPD2    C2 8124   0.626   4.722  17.331 -0.1350 -0.3646 -0.1191
  544MPD2    C3 8125   0.577   0.108  17.321 -0.5178 -1.0423  0.3253
  544MPD2    C4 8126   0.453   0.139  17.383 -0.1840 -0.5343  0.4157
  544MPD2    C5 8127   0.384   0.037  17.439 -0.2067  0.4259 -0.6922
  544MPD2     H 8128   0.724   4.700  17.288  1.3271  1.9357  2.0287
  544MPD2    H1 8129   0.400   0.233  17.382 -0.2359 -0.5748 -0.3072
  544MPD2    H2 8130   0.371   4.573  17.485 -0.5957  0.7734  0.9167
  544MPD2    H3 8131   0.292   0.057  17.492 -0.6537  1.2574 -1.7921
  544MPD2     N 8132   0.643   0.211  17.255  0.0508 -0.0982  0.9327
  544MPD2    H5 8133   0.611   0.305  17.273 -2.5510 -0.7380 -0.4559
  544MPD2    N1 8134   0.582   4.476  17.375 -0.0160  0.4862 -0.0220
  544MPD2    H7 8135   0.500   4.416  17.376  1.1635 -1.1394 -0.1441
  545TMC3    C1 8136   0.708   4.288  17.294 -0.8615  0.0190 -0.2736
  545TMC3    C2 8137   0.582   4.235  17.276 -0.1620  0.2957 -0.0071
  545TMC3    C3 8138   0.581   4.100  17.276  0.0040 -0.2765 -0.1471
  545TMC3    C4 8139   0.820   4.215  17.309  0.5088  0.0028  0.5870
  545TMC3    C5 8140   0.812   4.085  17.282  0.0242  0.2627 -0.3301
  545TMC3    C6 8141   0.695   4.012  17.274  0.6913  0.8559  0.9217
  545TMC3     C 8142   0.708   4.425  17.333  0.4581  0.4559  0.3545
  545TMC3     O 8143   0.808   4.489  17.331  0.3046 -0.0001 -0.0866
  545TMC3     H 8144   0.491   4.291  17.263  0.8720  1.6944 -1.1408
  545TMC3    H1 8145   0.915   4.264  17.294 -0.4258  2.4550  2.8341
  545TMC3    H2 8146   0.687   3.904  17.279 -1.2698  0.8894 -1.1637
  545TMC3    C7 8147   0.939   4.008  17.264  0.0367  0.6550  0.2476
  545TMC3    C8 8148   0.448   4.045  17.236 -0.2692 -0.3804  0.7668
  545TMC3    O1 8149   1.043   4.069  17.289 -0.6007  0.2880 -0.1508
  545TMC3    O2 8150   0.375   4.128  17.185 -0.0122  0.7345 -0.5001
  546MPD2     C 8151   2.340   0.251  17.400  0.3311  0.0568 -0.5143
  546MPD2    C1 8152   2.276   0.271  17.286  0.5795  0.2672 -0.2765
  546MPD2    C2 8153   2.267   0.403  17.239  0.4353 -0.1187  0.0022
  546MPD2    C3 8154   2.313   0.507  17.320 -0.1488 -0.1754  0.0546
  546MPD2    C4 8155   2.370   0.481  17.443  0.1604 -0.3036  1.3457
  546MPD2    C5 8156   2.400   0.357  17.473  0.2709 -0.6881  0.2554
  546MPD2     H 8157   2.227   0.416  17.139  0.4397 -2.4926 -0.3264
  546MPD2    H1 8158   2.415   0.561  17.501  0.8404  0.2999  0.0187
  546MPD2    H2 8159   2.363   0.149  17.428 -1.0853  0.1079  0.8480
  546MPD2    H3 8160   2.463   0.333  17.558  1.0489 -1.8384 -0.6399
  546MPD2     N 8161   2.311   0.641  17.274 -0.4750  0.1835  0.4618
  546MPD2    H5 8162   2.321   0.711  17.347  2.9111  0.6908 -0.4963
  546MPD2    N1 8163   2.236   0.154  17.212  0.0503  0.1677 -0.5048
  546MPD2    H7 8164   2.255   0.063  17.253 -0.0186  0.3727 -0.0100
  547TMC3    C1 8165   2.117   0.034  17.049 -0.0942  0.0106  0.1760
  547TMC3    C2 8166   2.067   0.021  16.923 -0.3591 -0.7457 -0.0706
  547TMC3    C3 8167   2.016   4.637  16.882  0.2085 -0.5774  0.4038
  547TMC3    C4 8168   2.106   4.666  17.141 -0.1220 -0.2335 -0.8769
  547TMC3    C5 8169   2.068   4.542  17.095 -0.0145 -0.0247 -0.6511
  547TMC3    C6 8170   2.021   4.528  16.966  0.6014 -0.0956  0.8098
  547TMC3     C 8171   2.171   0.162  17.091  0.2729 -0.4811 -0.2870
  547TMC3     O 8172   2.139   0.253  17.021  0.0302  0.6155  0.0780
  547TMC3     H 8173   2.061   0.107  16.856 -0.3615  0.5587  1.6111
  547TMC3    H1 8174   2.111   4.688  17.247  1.1959 -1.3550 -0.7041
  547TMC3    H2 8175   1.995   4.424  16.948  1.5026 -0.7436  3.2042
  547TMC3    C7 8176   2.050   4.433  17.189 -0.5019  0.8695  0.5253
  547TMC3    C8 8177   1.928   4.634  16.770  0.3106 -0.8171 -0.1841
  547TMC3    O1 8178   1.980   4.344  17.147  0.2133  0.4948  0.0971
  547TMC3    O2 8179   1.876   0.001  16.738  0.7983 -0.1022  0.0825
  548MPD2     C 8180   1.300   0.971  12.436 -0.4745 -0.3692  0.6915
  548MPD2    C1 8181   1.281   0.833  12.415  0.0680  0.8357  0.0952
  548MPD2    C2 8182   1.380   0.741  12.443 -0.5390  1.0531 -0.6235
  548MPD2    C3 8183   1.500   0.777  12.506 -0.2198 -0.1725 -0.0592
  548MPD2    C4 8184   1.524   0.911  12.519  0.0909  0.0543 -0.7244
  548MPD2    C5 8185   1.422   1.001  12.496 -0.1760  0.4429 -0.2524
  548MPD2     H 8186   1.363   0.635  12.426 -0.7760  1.0220 -0.1929
  548MPD2    H1 8187   1.607   0.962  12.565 -1.0671  1.4801 -0.2092
  548MPD2    H2 8188   1.229   1.052  12.427  0.1171  0.3398  2.5252
  548MPD2    H3 8189   1.440   1.105  12.519  1.8101  0.1253 -0.3825
  548MPD2     N 8190   1.601   0.680  12.536  0.8581  0.2367  0.3165
  548MPD2    H5 8191   1.573   0.586  12.510 -1.6238  1.2536 -0.7511
  548MPD2    N1 8192   1.152   0.800  12.377  0.5679 -0.0237  0.0008
  548MPD2    H7 8193   1.090   0.875  12.347 -1.6853 -1.3591  1.3090
  549TMC3    C1 8194   0.969   0.690  12.290  0.1763 -0.2242  0.6633
  549TMC3    C2 8195   0.884   0.783  12.335  0.5133  0.6925  0.3957
  549TMC3    C3 8196   0.763   0.797  12.265 -0.2706  0.4068  0.7209
  549TMC3    C4 8197   0.947   0.602  12.188  0.4925  0.3380 -0.3600
  549TMC3    C5 8198   0.831   0.618  12.120  0.1987  0.2866  0.0231
  549TMC3    C6 8199   0.741   0.714  12.157  0.5461 -0.4737  0.5606
  549TMC3     C 8200   1.104   0.678  12.347  0.1408 -0.3251 -0.2736
  549TMC3     O 8201   1.155   0.569  12.345 -0.2698 -0.0802  0.2068
  549TMC3     H 8202   0.896   0.838  12.428  1.3036 -1.3990  1.5176
  549TMC3    H1 8203   1.025   0.535  12.153  0.3288  1.0490 -2.1028
  549TMC3    H2 8204   0.648   0.723  12.102  0.4338 -0.3374  0.7720
  549TMC3    C7 8205   0.772   0.509  12.049  0.2332 -0.3209 -0.6662
  549TMC3    C8 8206   0.667   0.909  12.285  0.0186  0.7012  0.3857
  549TMC3    O1 8207   0.651   0.501  12.071 -0.6305  0.2099 -0.3836
  549TMC3    O2 8208   0.581   0.932  12.201 -0.4043  0.0491 -0.2876
  550TMC3    C1 8209   0.164   3.430  11.109 -0.2001 -0.0700 -0.1636
  550TMC3    C2 8210   0.237   3.460  11.221 -0.0368 -0.6713 -1.1534
  550TMC3    C3 8211   0.274   3.595  11.233  0.9428 -0.4620  1.1013
  550TMC3    C4 8212   0.165   3.518  11.006 -0.2236 -0.1857  0.2659
  550TMC3    C5 8213   0.188   3.660  11.021  0.5183  0.3931  0.8987
  550TMC3    C6 8214   0.243   3.699  11.141 -0.0033  0.5213 -0.0664
  550TMC3     C 8215   0.031   3.370  11.136  0.5566  0.5596  0.3480
  550TMC3     O 8216   0.031   3.281  11.220  0.1175  1.0936 -0.1492
  550TMC3     H 8217   0.251   3.399  11.309  0.9362  0.1070 -0.7634
  550TMC3    H1 8218   0.122   3.483  10.912  0.9165 -1.4213  0.2024
  550TMC3    H2 8219   0.252   3.804  11.169 -0.3516  0.5632 -0.1064
  550TMC3    C7 8220   0.080   3.746  10.977  0.2971  0.2265 -0.4153
  550TMC3    C8 8221   0.251   3.646  11.372 -0.3076 -1.1072 -0.4765
  550TMC3    O1 8222   4.714   3.684  10.966  0.0856 -0.1748 -0.1326
  550TMC3    O2 8223   0.166   3.738  11.387  0.1223  0.4912  0.6241
  551TMC3    C1 8224   2.843   1.481  13.119 -0.7152 -0.3602 -0.2555
  551TMC3    C2 8225   2.949   1.427  13.038  0.4664 -0.6481  0.0610
  551TMC3    C3 8226   3.073   1.424  13.093  0.1560  0.5427 -0.5039
  551TMC3    C4 8227   2.869   1.536  13.246  0.6273 -0.1777 -0.0595
  551TMC3    C5 8228   2.997   1.536  13.280 -0.1073  0.0606 -0.6348
  551TMC3    C6 8229   3.101   1.487  13.208  0.1113  0.2812  0.2943
  551TMC3     C 8230   2.714   1.489  13.058 -0.1955 -0.1584  0.3586
  551TMC3     O 8231   2.698   1.420  12.960  0.0959  0.2905  0.1192
  551TMC3     H 8232   2.932   1.388  12.938  0.3883  0.9093 -0.5398
  551TMC3    H1 8233   2.792   1.569  13.314  0.5107  1.1537 -0.8358
  551TMC3    H2 8234   3.201   1.483  13.252  0.0550 -0.7767  0.3440
  551TMC3    C7 8235   3.034   1.588  13.413 -0.1484 -0.2552  0.5165
  551TMC3    C8 8236   3.183   1.427  12.996 -0.0477  0.0726  0.2251
  551TMC3    O1 8237   3.119   1.528  13.473  0.8605 -0.0477 -0.3910
  551TMC3    O2 8238   3.209   1.324  12.940  0.2389  0.4100  0.2199
  552MPD2     C 8239   0.013   3.256  13.948  0.3422  0.3219  0.0933
  552MPD2    C1 8240   0.010   3.129  14.001  0.3972  0.1644 -0.5949
  552MPD2    C2 8241   0.075   3.095  14.122  0.3626  0.2293  0.2225
  552MPD2    C3 8242   0.138   3.198  14.189  0.3436 -0.8290 -0.6254
  552MPD2    C4 8243   0.130   3.327  14.141  0.7631  0.1596  0.3251
  552MPD2    C5 8244   0.074   3.351  14.019 -0.2886  0.5164  0.7910
  552MPD2     H 8245   0.072   2.996  14.165  0.9099 -0.0400 -0.3615
  552MPD2    H1 8246   0.170   3.411  14.196  1.1660  0.8236 -0.9643
  552MPD2    H2 8247   4.698   3.280  13.856  0.0242  0.2717  0.2642
  552MPD2    H3 8248   0.081   3.452  13.978  2.8946  0.6691  1.6823
  552MPD2     N 8249   0.205   3.181  14.317  0.1666  0.3250 -0.2921
  552MPD2    H5 8250   0.253   3.263  14.351  2.5517 -0.9689 -0.5536
  552MPD2    N1 8251   4.677   3.024  13.933  0.0207 -0.3362 -0.4125
  552MPD2    H7 8252   4.684   2.933  13.978 -0.3207 -1.1154 -1.9342
  553TMC3    C1 8253   4.559   2.899  13.772  1.2726  0.9128  0.8313
  553TMC3    C2 8254   4.563   2.894  13.639  0.0929  0.0692  0.0979
  553TMC3    C3 8255   4.571   2.767  13.588  0.7436  0.4566 -0.1569
  553TMC3    C4 8256   4.586   2.789  13.845 -0.3161  0.2773  0.1202
  553TMC3    C5 8257   4.636   2.675  13.791 -0.4439 -0.8059  0.0819
  553TMC3    C6 8258   4.610   2.657  13.661  0.1690  0.3094 -0.3964
  553TMC3     C 8259   4.602   3.026  13.816  0.5277  0.6725  0.1914
  553TMC3     O 8260   4.607   3.108  13.724 -0.2043 -0.4598  0.1948
  553TMC3     H 8261   4.544   2.974  13.568  1.1325 -0.1533 -0.4292
  553TMC3    H1 8262   4.595   2.800  13.953 -1.3254  0.8442  0.1427
  553TMC3    H2 8263   4.639   2.565  13.612 -1.9635  0.3684 -1.7539
  553TMC3    C7 8264   0.035   2.655  13.836 -0.2582  0.1841  0.6879
  553TMC3    C8 8265   4.632   2.739  13.457  0.3851 -0.7442  0.1453
  553TMC3    O1 8266   0.048   2.648  13.959 -0.0707 -0.2845  0.2684
  553TMC3    O2 8267   0.011   2.706  13.470  0.0482 -0.6174  0.6462
  554TMC3    C1 8268   1.307   2.414  11.299  0.5615  0.1498  0.2406
  554TMC3    C2 8269   1.243   2.350  11.198  0.6521 -0.1572  0.4255
  554TMC3    C3 8270   1.316   2.318  11.082  1.0155  0.2658  0.3249
  554TMC3    C4 8271   1.438   2.460  11.286 -0.0196  0.2939  0.4686
  554TMC3    C5 8272   1.509   2.429  11.173  0.2359  0.1778  0.1638
  554TMC3    C6 8273   1.448   2.362  11.071 -0.2750 -0.5667  0.3911
  554TMC3     C 8274   1.245   2.405  11.434  0.2781  0.1150  0.0269
  554TMC3     O 8275   1.127   2.370  11.437 -0.2522  0.5422  0.2103
  554TMC3     H 8276   1.138   2.327  11.216  0.4244  0.7112  0.1885
  554TMC3    H1 8277   1.467   2.526  11.367 -2.7802  3.4736 -1.1570
  554TMC3    H2 8278   1.502   2.341  10.979 -1.3254 -0.3361 -0.2739
  554TMC3    C7 8279   1.614   2.518  11.119 -0.0041  0.0290  0.4515
  554TMC3    C8 8280   1.243   2.292  10.956  0.4009  0.1996 -0.1720
  554TMC3    O1 8281   1.624   2.519  11.000  0.1796 -0.0341  0.4937
  554TMC3    O2 8282   1.304   2.324  10.856 -0.2111 -0.0908  0.4838
  555TMC3    C1 8283   0.792   2.186  15.271  0.2913 -0.5837  0.2538
  555TMC3    C2 8284   0.830   2.242  15.387  0.1572 -0.2201  0.1010
  555TMC3    C3 8285   0.897   2.159  15.471 -0.8821 -0.0180 -0.5316
  555TMC3    C4 8286   0.833   2.061  15.226 -0.2909 -0.6038  0.0969
  555TMC3    C5 8287   0.893   1.980  15.317 -0.0218 -0.0008 -0.1646
  555TMC3    C6 8288   0.940   2.035  15.433  0.9797 -0.1935  0.1665
  555TMC3     C 8289   0.735   2.286  15.181 -0.2764  0.7484 -0.3201
  555TMC3     O 8290   0.701   2.392  15.231  0.0263  0.1537 -0.0930
  555TMC3     H 8291   0.792   2.337  15.423  3.0121  0.9450  0.0039
  555TMC3    H1 8292   0.794   2.013  15.137  0.4769 -0.3708 -0.3655
  555TMC3    H2 8293   0.975   1.968  15.510  0.1258  0.6581  1.3020
  555TMC3    C7 8294   0.913   1.840  15.289 -0.1196  0.1003 -0.8357
  555TMC3    C8 8295   0.946   2.224  15.596  0.2476 -0.2236 -0.0937
  555TMC3    O1 8296   0.829   1.769  15.230  0.2782  0.6148 -0.0524
  555TMC3    O2 8297   0.895   2.329  15.625  0.2594  0.2140  0.8361
  556MPD2     C 8298   3.172   4.370  10.461  0.4082 -0.0258 -0.6044
  556MPD2    C1 8299   3.215   4.262  10.548 -0.1675 -0.5347  0.0545
  556MPD2    C2 8300   3.222   4.139  10.484  0.5863  0.0750  1.0821
  556MPD2    C3 8301   3.202   4.126  10.346  0.1422  0.1503 -0.1624
  556MPD2    C4 8302   3.155   4.226  10.266  0.1483  0.0798  0.1050
  556MPD2    C5 8303   3.140   4.348  10.329 -1.0415  0.3198 -0.0516
  556MPD2     H 8304   3.254   4.052  10.541  0.7984  0.2632  1.2518
  556MPD2    H1 8305   3.125   4.215  10.162  2.3275  1.4918 -0.6639
  556MPD2    H2 8306   3.153   4.469  10.501  0.3140  0.0089 -0.7369
  556MPD2    H3 8307   3.107   4.435  10.273  2.6869  0.5913 -1.8692
  556MPD2     N 8308   3.231   4.002  10.299 -0.0339 -0.6036  0.3294
  556MPD2    H5 8309   3.255   3.930  10.367 -1.8238  1.0954  2.7469
  556MPD2    N1 8310   3.240   4.267  10.686  0.7136  0.2734 -0.1763
  556MPD2    H7 8311   3.277   4.180  10.724 -0.8620 -0.0020  0.7332
  557TMC3    C1 8312   3.303   3.834  10.158 -0.7056 -0.6960 -1.1181
  557TMC3    C2 8313   3.394   3.817  10.055 -0.6066 -0.4179  0.0892
  557TMC3    C3 8314   3.405   3.685  10.012 -0.3948 -0.0351  0.1676
  557TMC3    C4 8315   3.253   3.737  10.236 -0.0981  0.4253  0.0456
  557TMC3    C5 8316   3.286   3.604  10.197 -0.4065 -0.5741  0.3172
  557TMC3    C6 8317   3.350   3.577  10.080 -0.4113 -0.2913 -0.2097
  557TMC3     C 8318   3.248   3.965  10.168 -0.3708  0.6459 -0.0358
  557TMC3     O 8319   3.247   4.033  10.067 -0.5370  0.2075 -0.4817
  557TMC3     H 8320   3.423   3.893   9.984  1.0683 -1.7905 -0.6686
  557TMC3    H1 8321   3.170   3.758  10.303  0.9128  1.7229  0.8726
  557TMC3    H2 8322   3.382   3.475  10.066 -1.2071 -0.6121  0.3459
  557TMC3    C7 8323   3.244   3.494  10.286 -0.3387  0.3710 -0.4944
  557TMC3    C8 8324   3.491   3.661   9.904  0.1324 -0.5475  0.2497
  557TMC3    O1 8325   3.237   3.376  10.251  0.0935 -0.0139  0.2886
  557TMC3    O2 8326   3.585   3.735   9.893 -0.0887  0.3917  0.3302
  558TMC3    C1 8327   0.956   1.417   9.806  0.6322  0.3776 -0.7976
  558TMC3    C2 8328   0.890   1.316   9.873 -0.2489 -0.3817 -0.0325
  558TMC3    C3 8329   0.764   1.295   9.835 -0.8428 -0.0492  0.3512
  558TMC3    C4 8330   0.901   1.487   9.701  0.2672  0.0287 -0.1261
  558TMC3    C5 8331   0.778   1.448   9.652 -1.5561 -0.8517  0.2695
  558TMC3    C6 8332   0.715   1.341   9.713  0.0307  0.3502 -0.3116
  558TMC3     C 8333   1.080   1.454   9.863 -0.9576 -0.1639 -0.5513
  558TMC3     O 8334   1.159   1.360   9.877 -0.1994  0.8656  0.1299
  558TMC3     H 8335   0.953   1.267   9.946 -0.7768  0.8428  1.2219
  558TMC3    H1 8336   0.955   1.556   9.637  1.1466  0.9473  1.5857
  558TMC3    H2 8337   0.616   1.313   9.678  1.1992 -2.7966 -1.1166
  558TMC3    C7 8338   0.708   1.523   9.546 -0.0445  0.3376  0.9798
  558TMC3    C8 8339   0.669   1.236   9.926 -0.8006 -0.1749 -0.6772
  558TMC3    O1 8340   0.774   1.621   9.509 -0.1145 -0.0064  0.2504
  558TMC3    O2 8341   0.552   1.226   9.890 -0.8446  0.4369 -0.2711
  559MPD2     C 8342   1.199   2.217  10.313  0.9442  0.1574  0.1265
  559MPD2    C1 8343   1.162   2.090  10.353 -0.1465  0.2320 -0.4575
  559MPD2    C2 8344   1.262   2.008  10.397 -0.1081 -0.4491  0.8504
  559MPD2    C3 8345   1.392   2.048  10.395 -0.0626  0.0929 -0.3753
  559MPD2    C4 8346   1.427   2.177  10.364  0.5131  0.0408  0.2920
  559MPD2    C5 8347   1.329   2.263  10.330 -0.1713  0.0580  0.0779
  559MPD2     H 8348   1.235   1.911  10.438 -0.3539 -1.8386 -2.5817
  559MPD2    H1 8349   1.526   2.218  10.379  1.7625 -2.5526 -0.9385
  559MPD2    H2 8350   1.133   2.290  10.268  3.3257  2.6737  0.7349
  559MPD2    H3 8351   1.349   2.364  10.296 -2.1144  0.0162 -1.1765
  559MPD2     N 8352   1.480   1.950  10.444  0.6747  0.1391  0.6549
  559MPD2    H5 8353   1.441   1.862  10.476  1.7561 -0.2442  0.9191
  559MPD2    N1 8354   1.026   2.051  10.356  0.1512  0.0574 -0.4507
  559MPD2    H7 8355   0.958   2.126  10.351 -0.4583 -0.4909 -0.4163
  560TMC3    C1 8356   1.672   1.863  10.533  0.3527  0.4521  0.2696
  560TMC3    C2 8357   1.604   1.746  10.541  0.4228  0.4614  0.3489
  560TMC3    C3 8358   1.607   1.674  10.660  0.7785 -0.1988 -0.2232
  560TMC3    C4 8359   1.753   1.899  10.639  0.1816 -0.0127  0.1962
  560TMC3    C5 8360   1.748   1.824  10.754 -0.5402 -0.0685  0.5510
  560TMC3    C6 8361   1.675   1.709  10.769 -0.2514  0.0976  0.0958
  560TMC3     C 8362   1.608   1.974  10.468 -0.5482  0.3415  0.8426
  560TMC3     O 8363   1.677   2.071  10.437 -0.5372 -0.4372  0.3572
  560TMC3     H 8364   1.546   1.713  10.456  0.0395  1.3799  0.2522
  560TMC3    H1 8365   1.790   2.000  10.643 -2.0979  0.7959  0.6486
  560TMC3    H2 8366   1.695   1.638  10.849  0.2028  0.4522  0.3007
  560TMC3    C7 8367   1.834   1.851  10.867 -0.5180  0.1754  0.1596
  560TMC3    C8 8368   1.548   1.537  10.660 -0.0467 -1.0789 -0.3974
  560TMC3    O1 8369   1.797   1.799  10.972  0.2284  0.2762  0.0826
  560TMC3    O2 8370   1.515   1.488  10.767  0.5095 -0.1191 -0.0413
  561TMC3    C1 8371   4.180   1.153  10.545 -0.3595 -0.1984 -0.3924
  561TMC3    C2 8372   4.092   1.082  10.618  0.3957  0.5050  0.6847
  561TMC3    C3 8373   4.027   1.134  10.725 -0.0396 -0.1160  1.0739
  561TMC3    C4 8374   4.193   1.290  10.575 -0.4466  0.2387  0.5168
  561TMC3    C5 8375   4.113   1.344  10.677  0.0334 -0.0519  0.5041
  561TMC3    C6 8376   4.030   1.268  10.747 -0.7033 -0.0521 -0.2299
  561TMC3     C 8377   4.252   1.090  10.431  0.0353  0.3226  0.4395
  561TMC3     O 8378   4.229   0.971  10.418  0.0738 -0.0614 -0.5319
  561TMC3     H 8379   4.088   0.977  10.589 -1.4261  0.6989  0.2471
  561TMC3    H1 8380   4.253   1.356  10.513 -0.7906  0.4680  0.4269
  561TMC3    H2 8381   3.964   1.315  10.819 -0.5255  0.6134 -0.5012
  561TMC3    C7 8382   4.128   1.487  10.706 -0.3532  0.0258  0.1070
  561TMC3    C8 8383   4.008   1.042  10.839  0.3391  0.0358 -0.0935
  561TMC3    O1 8384   4.078   1.534  10.809 -0.4841  0.4964 -0.3221
  561TMC3    O2 8385   4.015   0.926  10.812  0.2455  0.5032  0.0419
  562TMC3    C1 8386   1.323   2.528  16.391  0.5395 -0.5085  1.0778
  562TMC3    C2 8387   1.233   2.635  16.394  0.2620 -0.1555  0.3168
  562TMC3    C3 8388   1.111   2.608  16.337 -0.0402 -0.0533 -0.5103
  562TMC3    C4 8389   1.292   2.411  16.330  0.6125 -0.6014 -0.1684
  562TMC3    C5 8390   1.162   2.392  16.285 -0.1936  0.4292  0.2987
  562TMC3    C6 8391   1.074   2.496  16.286  1.2801  0.1415  0.0387
  562TMC3     C 8392   1.455   2.545  16.453 -0.1760  0.1582  0.0483
  562TMC3     O 8393   1.532   2.456  16.415 -0.5929 -0.2230  0.0012
  562TMC3     H 8394   1.262   2.731  16.433  0.5146 -0.3845  0.6984
  562TMC3    H1 8395   1.369   2.340  16.304  0.6014 -1.3514  1.8630
  562TMC3    H2 8396   0.967   2.479  16.275  1.2690 -1.1602  2.2294
  562TMC3    C7 8397   1.113   2.263  16.248  1.2246 -0.5835 -0.2759
  562TMC3    C8 8398   1.037   2.732  16.314 -0.1134  0.3267 -0.6526
  562TMC3    O1 8399   1.005   2.262  16.191  0.2512  0.6797 -0.0951
  562TMC3    O2 8400   1.042   2.820  16.396 -0.0968  0.1592  0.1437
  563MPD2     C 8401   3.171   3.567  15.293 -0.8799 -0.2331  0.7547
  563MPD2    C1 8402   3.196   3.595  15.425 -0.4249 -0.3275 -0.4224
  563MPD2    C2 8403   3.309   3.543  15.482 -0.2643 -0.7387  0.2177
  563MPD2    C3 8404   3.403   3.469  15.407  0.3980  0.3860 -0.5703
  563MPD2    C4 8405   3.378   3.454  15.272 -0.2078  0.2371  0.2659
  563MPD2    C5 8406   3.258   3.495  15.219  0.3954 -0.1267 -0.6412
  563MPD2     H 8407   3.335   3.550  15.587 -0.7907  0.1225  0.2830
  563MPD2    H1 8408   3.446   3.389  15.217 -2.3079 -1.0048 -0.8506
  563MPD2    H2 8409   3.079   3.600  15.247  0.8131  0.9102 -1.7982
  563MPD2    H3 8410   3.245   3.483  15.112  1.4443  0.6240 -0.8580
  563MPD2     N 8411   3.509   3.414  15.478 -0.1024  0.0238  0.5641
  563MPD2    H5 8412   3.515   3.456  15.570  0.3236  3.3211 -0.9458
  563MPD2    N1 8413   3.097   3.657  15.504  0.5226 -0.5638  0.2064
  563MPD2    H7 8414   3.003   3.663  15.466  1.1359 -0.1401 -1.2531
  564TMC3    C1 8415   3.007   3.695  15.726 -0.1000  0.1629 -0.0078
  564TMC3    C2 8416   2.906   3.606  15.691  0.1729 -0.0891 -0.6628
  564TMC3    C3 8417   2.849   3.521  15.780 -0.1728  0.1061 -0.1635
  564TMC3    C4 8418   3.056   3.693  15.848 -0.1644 -0.9182 -0.0169
  564TMC3    C5 8419   3.006   3.599  15.936  0.5882  0.2651  0.5276
  564TMC3    C6 8420   2.899   3.522  15.902 -0.7794  0.1268 -1.0899
  564TMC3     C 8421   3.116   3.716  15.626  0.7234 -0.4997 -0.4697
  564TMC3     O 8422   3.221   3.745  15.675  0.1200  0.1352 -0.1228
  564TMC3     H 8423   2.854   3.624  15.597  1.5705  1.8531 -1.0581
  564TMC3    H1 8424   3.143   3.750  15.879 -1.8522  0.1904  2.6644
  564TMC3    H2 8425   2.874   3.446  15.975 -2.0538 -0.7715 -2.4588
  564TMC3    C7 8426   3.111   3.513  15.981 -0.1516  0.1492 -1.2592
  564TMC3    C8 8427   2.835   3.375  15.741  0.3594 -0.0692  0.0702
  564TMC3    O1 8428   3.129   3.525  16.101  0.0659 -0.0039 -0.4559
  564TMC3    O2 8429   2.829   3.284  15.820 -0.0039  0.1280 -0.6798
  565TMC3    C1 8430   3.207   0.611   9.832  0.1722  0.1628 -0.2815
  565TMC3    C2 8431   3.176   0.544   9.951  0.4788 -0.7164 -0.6390
  565TMC3    C3 8432   3.066   0.459   9.944 -0.0236 -0.3599  0.0227
  565TMC3    C4 8433   3.135   0.600   9.719  0.1369  0.5358 -0.0670
  565TMC3    C5 8434   3.036   0.509   9.714  0.2924 -0.6097 -0.2482
  565TMC3    C6 8435   3.015   0.430   9.821 -1.5866 -0.6721 -0.2672
  565TMC3     C 8436   3.332   0.686   9.822  0.5737 -0.8856 -0.0639
  565TMC3     O 8437   3.387   0.710   9.715 -0.8206  0.0243 -0.1644
  565TMC3     H 8438   3.232   0.551  10.044  1.6372 -1.5208 -1.2743
  565TMC3    H1 8439   3.165   0.648   9.626 -1.5102 -1.5788 -1.7026
  565TMC3    H2 8440   2.919   0.379   9.824 -1.1396 -1.4283  1.3644
  565TMC3    C7 8441   2.947   0.491   9.600  0.0319  0.3873 -0.2154
  565TMC3    C8 8442   3.036   0.378  10.068  0.1145  0.4721 -0.0992
  565TMC3    O1 8443   2.897   0.382   9.593 -0.0853 -0.2804  0.4612
  565TMC3    O2 8444   3.093   0.417  10.168 -0.3803 -0.5973 -0.2689
  566MPD2     C 8445   0.043   1.494  14.583  0.5546 -0.0466  0.2347
  566MPD2    C1 8446   0.112   1.402  14.512  0.0519  0.0699 -0.1229
  566MPD2    C2 8447   0.047   1.296  14.447  0.2228  0.3014  0.1657
  566MPD2    C3 8448   4.648   1.289  14.454 -0.4239  0.1779  1.2369
  566MPD2    C4 8449   4.579   1.385  14.523  0.4755  0.0141 -0.3536
  566MPD2    C5 8450   4.647   1.481  14.598  0.3362 -0.2636 -0.0598
  566MPD2     H 8451   0.107   1.237  14.379  1.3882  1.1680  0.4459
  566MPD2    H1 8452   4.470   1.392  14.518  0.4718 -0.2740 -0.6652
  566MPD2    H2 8453   0.090   1.576  14.638 -1.2209  0.6460  0.7044
  566MPD2    H3 8454   4.585   1.561  14.637  1.0335 -0.2994  1.1033
  566MPD2     N 8455   4.579   1.197  14.366  0.3229 -0.1639 -0.0434
  566MPD2    H5 8456   4.492   1.233  14.330  0.5312  2.3016  1.9022
  566MPD2    N1 8457   0.249   1.432  14.484  0.4289  0.2670  0.0358
  566MPD2    H7 8458   0.279   1.528  14.499  1.3958  0.1140 -0.9408
  567TMC3    C1 8459   0.461   1.395  14.385 -0.0879  0.1081 -0.1677
  567TMC3    C2 8460   0.450   1.493  14.292 -0.0460 -0.0995 -0.4844
  567TMC3    C3 8461   0.563   1.526  14.209  0.7538 -0.4750  0.6342
  567TMC3    C4 8462   0.581   1.341  14.409  0.4827  0.3822  0.2070
  567TMC3    C5 8463   0.696   1.382  14.349 -0.2776  0.2216  0.0072
  567TMC3    C6 8464   0.687   1.466  14.236  0.2756 -0.8373  0.1787
  567TMC3     C 8465   0.336   1.342  14.445 -0.3137 -0.5505 -0.3418
  567TMC3     O 8466   0.331   1.220  14.451 -0.0004  0.3402  0.0663
  567TMC3     H 8467   0.350   1.531  14.276 -0.3490 -0.3411  0.7971
  567TMC3    H1 8468   0.576   1.253  14.472  2.2527  0.8332  0.9741
  567TMC3    H2 8469   0.776   1.495  14.180 -0.2539  1.6013  0.5811
  567TMC3    C7 8470   0.803   1.408  14.441 -0.3042  0.9355 -0.6942
  567TMC3    C8 8471   0.542   1.590  14.079  0.7338  0.3246  0.1721
  567TMC3    O1 8472   0.907   1.449  14.396 -0.5679 -0.1942  0.3091
  567TMC3    O2 8473   0.424   1.617  14.057 -0.2483  0.3640  0.0394
  568MPD2     C 8474   3.017   1.998  16.134  0.0785  0.1875 -0.3658
  568MPD2    C1 8475   3.069   2.087  16.220 -0.2549 -0.7995 -0.0178
  568MPD2    C2 8476   3.098   2.213  16.180  0.3103 -0.5898 -0.4503
  568MPD2    C3 8477   3.056   2.256  16.051 -0.0322  0.1239 -0.6243
  568MPD2    C4 8478   3.000   2.164  15.968  0.7925 -0.4834 -0.4464
  568MPD2    C5 8479   2.983   2.033  16.010  0.2144 -0.8369  0.2327
  568MPD2     H 8480   3.132   2.292  16.246 -2.9481 -0.3255  0.9369
  568MPD2    H1 8481   2.960   2.193  15.872  0.3168 -2.0447 -0.7227
  568MPD2    H2 8482   2.997   1.894  16.158 -2.7326  1.1386  1.4051
  568MPD2    H3 8483   2.941   1.965  15.937 -0.5609  1.8293 -1.8520
  568MPD2     N 8484   3.074   2.394  16.025  0.6583 -0.2267  0.3886
  568MPD2    H5 8485   3.095   2.458  16.101 -0.6214 -1.5454  1.8498
  568MPD2    N1 8486   3.095   2.043  16.355 -0.5821 -0.3152  0.0306
  568MPD2    H7 8487   3.056   1.955  16.388  3.6950 -1.5494  1.8225
  569TMC3    C1 8488   3.080   2.595  15.919 -0.3225  0.3342  0.5899
  569TMC3    C2 8489   3.033   2.667  16.026  0.2031 -0.5410  0.4103
  569TMC3    C3 8490   3.083   2.795  16.042 -0.1288 -0.2257 -0.0961
  569TMC3    C4 8491   3.155   2.645  15.819  0.0454  0.2027  0.0357
  569TMC3    C5 8492   3.200   2.764  15.836 -0.5616  0.1367  0.3778
  569TMC3    C6 8493   3.170   2.843  15.949 -0.4195  0.0790  0.1584
  569TMC3     C 8494   3.048   2.453  15.906 -0.5982  0.6620 -0.9418
  569TMC3     O 8495   3.043   2.403  15.796  0.4405 -0.3677  0.2594
  569TMC3     H 8496   2.949   2.638  16.088  1.4699 -1.4627  1.7177
  569TMC3    H1 8497   3.176   2.591  15.727 -1.3026  0.5394 -0.4745
  569TMC3    H2 8498   3.209   2.944  15.951  2.5081 -1.0639  1.3485
  569TMC3    C7 8499   3.227   2.847  15.719 -0.6096  0.0448  0.0640
  569TMC3    C8 8500   3.016   2.890  16.128  0.1032  0.1913  0.2103
  569TMC3    O1 8501   3.314   2.827  15.636 -0.4687  1.4006  0.4755
  569TMC3    O2 8502   2.898   2.873  16.158  0.0303 -0.5776 -0.1677
  570TMC3    C1 8503   2.410   0.931  16.029  0.6042  0.3146 -0.2621
  570TMC3    C2 8504   2.455   0.943  15.898 -0.0781  0.3439  0.2239
  570TMC3    C3 8505   2.467   1.068  15.839  0.5769  0.4825 -0.4665
  570TMC3    C4 8506   2.377   1.047  16.094 -0.2157 -0.2184 -0.8278
  570TMC3    C5 8507   2.382   1.170  16.032 -0.1807  0.2707 -0.0849
  570TMC3    C6 8508   2.436   1.182  15.906  0.0923 -0.2992 -0.0702
  570TMC3     C 8509   2.311   0.827  16.051 -0.0734 -0.3912  0.5348
  570TMC3     O 8510   2.281   0.760  15.952  0.4611  0.1582  0.3049
  570TMC3     H 8511   2.483   0.856  15.839 -2.1575 -0.7777  0.8876
  570TMC3    H1 8512   2.342   1.053  16.196  0.6385 -0.8626 -0.4952
  570TMC3    H2 8513   2.415   1.274  15.853  2.1591 -0.2544 -0.8042
  570TMC3    C7 8514   2.380   1.288  16.125  0.8972 -0.0285  0.3595
  570TMC3    C8 8515   2.561   1.106  15.727 -0.5050  0.2037  0.2116
  570TMC3    O1 8516   2.324   1.275  16.232 -0.3450 -0.4324  0.3089
  570TMC3    O2 8517   2.596   1.223  15.727  1.1625  0.2456 -0.3005
  571MPD2     C 8518   0.140   2.422  17.701 -0.6873 -0.7492 -0.0475
  571MPD2    C1 8519   0.152   2.454   0.091  0.0610 -0.2825  0.1284
  571MPD2    C2 8520   0.235   2.552   0.130 -0.4538 -0.3041  0.3682
  571MPD2    C3 8521   0.305   2.625   0.042 -0.8944 -0.5536 -1.1796
  571MPD2    C4 8522   0.287   2.603  17.659 -0.1691  0.1570  0.1766
  571MPD2    C5 8523   0.206   2.498  17.615  0.2622  0.6105 -0.2334
  571MPD2     H 8524   0.240   2.572   0.237  0.5890  1.4887 -0.0271
  571MPD2    H1 8525   0.338   2.663  17.585 -0.1765  0.3210  0.3055
  571MPD2    H2 8526   0.083   2.335  17.672  0.8603 -1.2117 -1.6424
  571MPD2    H3 8527   0.195   2.473  17.510 -0.5363  2.5623 -0.6098
  571MPD2     N 8528   0.388   2.730   0.082 -0.1358 -0.8881 -0.4107
  571MPD2    H5 8529   0.437   2.782   0.010 -2.6529 -0.8835 -2.1239
  571MPD2    N1 8530   0.079   2.391   0.189  0.0423 -0.0779 -0.3185
  571MPD2    H7 8531   0.091   2.423   0.284 -0.0797  0.3522 -0.4487
  572TMC3    C1 8532   0.514   2.866   0.222 -0.2366 -0.3806  0.0054
  572TMC3    C2 8533   0.578   2.880   0.343  0.0513  0.4310 -0.2340
  572TMC3    C3 8534   0.644   3.000   0.364  0.1555  0.0120 -0.3173
  572TMC3    C4 8535   0.514   2.956   0.113  0.4404 -0.0912  0.7698
  572TMC3    C5 8536   0.596   3.062   0.139 -0.8489 -0.1615 -0.5744
  572TMC3    C6 8537   0.662   3.080   0.258  0.2769 -0.0073  0.0874
  572TMC3     C 8538   0.444   2.745   0.210 -0.9281 -0.0454 -1.0914
  572TMC3     O 8539   0.434   2.672   0.310  0.2780 -0.5233 -0.6561
  572TMC3     H 8540   0.567   2.807   0.422 -0.4068  0.7608  0.0105
  572TMC3    H1 8541   0.457   2.951   0.021  2.8328  3.0371 -0.8865
  572TMC3    H2 8542   0.698   3.180   0.282 -1.2095  0.2872  1.1006
  572TMC3    C7 8543   0.573   3.180   0.053  1.3010  0.3433  0.4852
  572TMC3    C8 8544   0.657   3.052   0.501 -0.3607 -0.1694 -0.2058
  572TMC3    O1 8545   0.465   3.188  17.740  0.1141 -0.0640 -0.0816
  572TMC3    O2 8546   0.731   3.152   0.505 -0.2292  0.7121 -0.8041
  573MPD2     C 8547   1.811   3.500   0.386  0.3209 -0.1869 -0.1436
  573MPD2    C1 8548   1.684   3.526   0.340 -1.1312  0.0699  0.1440
  573MPD2    C2 8549   1.665   3.549   0.206  0.3529  0.0494 -0.0976
  573MPD2    C3 8550   1.771   3.548   0.122  0.5290  0.3242 -0.2403
  573MPD2    C4 8551   1.892   3.535   0.171  0.6503 -0.2983  0.4649
  573MPD2    C5 8552   1.917   3.513   0.305 -0.2337  0.2147 -0.1311
  573MPD2     H 8553   1.566   3.576   0.172  0.1733  1.0204  1.1981
  573MPD2    H1 8554   1.982   3.537   0.111  1.0780 -2.3010  1.0307
  573MPD2    H2 8555   1.832   3.470   0.488  0.1772 -0.3894 -0.1739
  573MPD2    H3 8556   2.020   3.510   0.339 -0.1902 -0.5105 -0.3205
  573MPD2     N 8557   1.755   3.560  17.737 -0.5370 -0.0599  0.3433
  573MPD2    H5 8558   1.839   3.543  17.683 -1.5632  1.4709 -1.7168
  573MPD2    N1 8559   1.574   3.531   0.435  0.0588 -0.6744  0.5341
  573MPD2    H7 8560   1.611   3.516   0.528 -0.5803  1.7001  1.1923
  574TMC3    C1 8561   1.679   3.640  17.530 -0.3793  0.5418  0.0723
  574TMC3    C2 8562   1.574   3.667  17.446 -0.1345  0.0866 -0.5732
  574TMC3    C3 8563   1.598   3.705  17.317 -0.0060  0.5857  0.3494
  574TMC3    C4 8564   1.808   3.654  17.488  0.2771  0.2411  0.6220
  574TMC3    C5 8565   1.825   3.699  17.358 -0.1601  0.2142  0.6721
  574TMC3    C6 8566   1.725   3.725  17.272  0.0439 -0.2102  0.2418
  574TMC3     C 8567   1.642   3.584  17.660 -0.4842  0.0804  0.1023
  574TMC3     O 8568   1.526   3.593  17.693 -0.7051  0.0564 -0.6961
  574TMC3     H 8569   1.475   3.638  17.480  0.8812 -0.2281  2.0830
  574TMC3    H1 8570   1.887   3.644  17.561 -0.2476  3.4332  1.6201
  574TMC3    H2 8571   1.743   3.734  17.166 -2.3654 -0.1797 -0.1699
  574TMC3    C7 8572   1.963   3.726  17.322 -0.6071 -0.7284  0.9398
  574TMC3    C8 8573   1.492   3.695  17.214 -0.1722 -0.5306 -1.3384
  574TMC3    O1 8574   2.044   3.655  17.386  0.2764  0.1109 -0.0811
  574TMC3    O2 8575   1.513   3.618  17.124  0.2658 -0.1069  0.1450
  575TMC3    C1 8576   3.154   0.268  10.873 -0.1453  0.4452  0.7087
  575TMC3    C2 8577   3.091   0.170  10.952 -0.5502  0.4746 -0.4708
  575TMC3    C3 8578   3.051   0.053  10.889 -0.1631 -0.1828 -0.1384
  575TMC3    C4 8579   3.160   0.252  10.736  0.1130  0.6123  0.3729
  575TMC3    C5 8580   3.092   0.146  10.678  0.2068 -0.2078 -0.7355
  575TMC3    C6 8581   3.044   0.044  10.753  0.2405  0.3639 -0.0420
  575TMC3     C 8582   3.147   0.398  10.930 -0.5039  0.3236 -0.3187
  575TMC3     O 8583   3.073   0.411  11.025  0.4335  0.0066 -0.0250
  575TMC3     H 8584   3.093   0.182  11.060 -1.4592  2.0531 -0.6321
  575TMC3    H1 8585   3.178   0.339  10.674  0.8530  0.7246  0.7488
  575TMC3    H2 8586   3.007   4.693  10.704 -0.1413  0.9025 -0.7430
  575TMC3    C7 8587   3.071   0.155  10.534  0.0089  0.0646  0.3815
  575TMC3    C8 8588   3.002   4.678  10.975 -0.4292  0.0725  0.4634
  575TMC3    O1 8589   3.135   0.245  10.478  0.2485  0.4276 -0.1516
  575TMC3    O2 8590   3.040   4.683  11.091  0.1300 -0.2008 -0.1041
  576MPD2     C 8591   3.582   1.212  12.180 -0.0261  0.2129  0.3227
  576MPD2    C1 8592   3.546   1.331  12.117  0.5323 -0.1135 -0.5785
  576MPD2    C2 8593   3.492   1.435  12.184  0.7573 -0.4811  0.1755
  576MPD2    C3 8594   3.454   1.412  12.315  0.9880 -0.2253 -0.6604
  576MPD2    C4 8595   3.486   1.295  12.378 -0.1394 -0.6720  0.9115
  576MPD2    C5 8596   3.549   1.189  12.311  0.3545  0.6517  0.5627
  576MPD2     H 8597   3.472   1.532  12.141  2.0222 -0.4068 -0.2239
  576MPD2    H1 8598   3.462   1.278  12.482  0.0009 -0.6990  0.9399
  576MPD2    H2 8599   3.625   1.131  12.122 -1.0201  1.9136 -2.7524
  576MPD2    H3 8600   3.578   1.100  12.366  1.8348  0.0510 -1.1792
  576MPD2     N 8601   3.388   1.521  12.382  0.5546  0.2965  0.4403
  576MPD2    H5 8602   3.363   1.606  12.332 -0.7535 -0.3174  0.0457
  576MPD2    N1 8603   3.566   1.351  11.977 -0.0708 -0.2584  0.6378
  576MPD2    H7 8604   3.513   1.426  11.935  0.1192 -0.1635  0.5629
  577TMC3    C1 8605   3.622   1.302  11.750  0.4153  0.7619  1.0460
  577TMC3    C2 8606   3.651   1.203  11.656 -0.1001 -0.5390  0.0200
  577TMC3    C3 8607   3.622   1.239  11.530 -0.1213 -0.7797  0.3539
  577TMC3    C4 8608   3.579   1.432  11.718 -0.7080 -0.2883 -0.3425
  577TMC3    C5 8609   3.555   1.458  11.586  0.7794  0.3683  0.0549
  577TMC3    C6 8610   3.571   1.359  11.492 -0.4986 -0.1175 -0.3881
  577TMC3     C 8611   3.620   1.254  11.888 -0.3152  0.0338 -0.4455
  577TMC3     O 8612   3.648   1.132  11.903 -0.9144  0.2350 -0.2289
  577TMC3     H 8613   3.677   1.100  11.676  0.1512 -0.3208  0.8249
  577TMC3    H1 8614   3.578   1.501  11.802  1.6615  0.0396 -0.6081
  577TMC3    H2 8615   3.558   1.376  11.386  1.7294 -0.2567 -0.6976
  577TMC3    C7 8616   3.478   1.572  11.549  0.6608  0.5757  0.1990
  577TMC3    C8 8617   3.614   1.127  11.438  0.2263  0.2493 -0.4009
  577TMC3    O1 8618   3.430   1.574  11.434  0.4030  0.2052 -0.4226
  577TMC3    O2 8619   3.586   1.019  11.485  0.3461  0.0311 -0.4458
  578MPD2     C 8620   1.166   1.457   0.993 -0.5645 -0.2174  0.3507
  578MPD2    C1 8621   1.277   1.445   0.913  0.3656 -0.6555  0.4542
  578MPD2    C2 8622   1.390   1.381   0.960  0.1490  0.9846  0.1402
  578MPD2    C3 8623   1.384   1.319   1.084  0.3210  0.4074  0.6833
  578MPD2    C4 8624   1.265   1.313   1.153  0.8043 -0.0086  0.8796
  578MPD2    C5 8625   1.162   1.382   1.107 -0.2141 -0.4591 -0.4679
  578MPD2     H 8626   1.482   1.383   0.904  0.4255 -1.6883  0.5046
  578MPD2    H1 8627   1.245   1.264   1.247 -0.2897  0.8545  1.1029
  578MPD2    H2 8628   1.076   1.513   0.971 -0.1136  0.5589  0.4370
  578MPD2    H3 8629   1.071   1.391   1.164 -1.5394 -0.3837 -2.5856
  578MPD2     N 8630   1.510   1.283   1.136 -0.0465  0.5456  0.2791
  578MPD2    H5 8631   1.594   1.309   1.086 -0.7169 -0.9246 -1.6166
  578MPD2    N1 8632   1.273   1.510   0.783  0.0309 -0.1554  0.1859
  578MPD2    H7 8633   1.190   1.562   0.758  1.1464  1.5984  0.1077
  579TMC3    C1 8634   1.660   1.195   1.290 -0.2052  0.0808 -0.4340
  579TMC3    C2 8635   1.752   1.281   1.337 -1.0463  0.1063 -0.3698
  579TMC3    C3 8636   1.885   1.272   1.304 -0.1201  0.9204 -0.1453
  579TMC3    C4 8637   1.697   1.100   1.208 -0.2909 -0.0397 -0.0510
  579TMC3    C5 8638   1.833   1.076   1.189 -0.4750 -0.1417 -0.4552
  579TMC3    C6 8639   1.928   1.161   1.238 -0.3387 -0.6903 -0.5934
  579TMC3     C 8640   1.527   1.239   1.265 -0.0142 -0.4538  0.3041
  579TMC3     O 8641   1.449   1.216   1.352  0.2496 -0.0358 -0.5372
  579TMC3     H 8642   1.714   1.370   1.386 -0.4917 -0.5379  1.2424
  579TMC3    H1 8643   1.631   1.036   1.151 -0.7382 -0.4684  0.9436
  579TMC3    H2 8644   2.031   1.134   1.217  0.3810  0.8167  0.9556
  579TMC3    C7 8645   1.878   0.950   1.118 -0.1945 -0.3788 -0.4937
  579TMC3    C8 8646   1.955   1.393   1.285 -0.1536 -0.0017 -0.1959
  579TMC3    O1 8647   1.990   0.911   1.143  0.7037  0.0027  0.0480
  579TMC3    O2 8648   1.908   1.496   1.337  0.2568 -0.2677 -0.2252
  580TMC3    C1 8649   1.558   0.815  12.182 -0.3143  0.4080  0.4425
  580TMC3    C2 8650   1.674   0.880  12.206 -0.0211  0.1598 -0.5842
  580TMC3    C3 8651   1.789   0.806  12.220 -0.2962 -0.3999  0.0688
  580TMC3    C4 8652   1.554   0.682  12.159  0.4608  0.3170 -0.6383
  580TMC3    C5 8653   1.664   0.606  12.187  0.0187  0.2222  0.1145
  580TMC3    C6 8654   1.783   0.668  12.211  0.0096  0.0805  0.7198
  580TMC3     C 8655   1.456   0.901  12.111 -0.9406 -0.6407 -0.1353
  580TMC3     O 8656   1.424   0.859  12.000  0.0901 -0.6617 -0.1909
  580TMC3     H 8657   1.674   0.988  12.214 -1.7770  0.3046 -2.4315
  580TMC3    H1 8658   1.459   0.635  12.139  0.5153 -0.3837  0.7345
  580TMC3    H2 8659   1.876   0.614  12.218  0.1017  0.2179  0.5664
  580TMC3    C7 8660   1.655   0.459  12.199  0.4757 -0.0388  0.1076
  580TMC3    C8 8661   1.896   0.867  12.137  0.0168 -0.1906 -0.1926
  580TMC3    O1 8662   1.546   0.412  12.234  0.0969 -0.1031  0.1261
  580TMC3    O2 8663   1.986   0.934  12.185  0.1221  0.4467 -0.0381
  581MPD2     C 8664   3.888   0.003  14.411  0.0646 -0.0337  0.1545
  581MPD2    C1 8665   3.885   0.053  14.538 -0.2049  0.7928 -0.4036
  581MPD2    C2 8666   3.778   0.123  14.586  0.2274  0.0455  1.0533
  581MPD2    C3 8667   3.661   0.133  14.508  0.2034  0.0416 -0.3231
  581MPD2    C4 8668   3.655   0.076  14.384 -0.0922  0.0627 -0.4741
  581MPD2    C5 8669   3.774   0.016  14.343 -0.3548  0.2374  0.4977
  581MPD2     H 8670   3.782   0.163  14.686  1.0437  1.2319  0.5506
  581MPD2    H1 8671   3.574   0.079  14.312 -0.3612  1.6190 -0.1080
  581MPD2    H2 8672   3.974   4.694  14.364 -0.4049 -1.4251  0.6861
  581MPD2    H3 8673   3.766   4.715  14.242 -1.4410 -1.6068  1.2999
  581MPD2     N 8674   3.551   0.194  14.570 -0.8605  0.7095 -0.4889
  581MPD2    H5 8675   3.577   0.252  14.649  0.1722 -2.3346  1.4474
  581MPD2    N1 8676   4.003   0.039  14.605 -0.3956 -0.2260  0.0008
  581MPD2    H7 8677   4.075   4.726  14.554  1.5274  2.0524  0.4376
  582TMC3    C1 8678   4.155   0.009  14.777 -0.7757  0.5478  0.3342
  582TMC3    C2 8679   4.223   0.067  14.882 -0.6669  0.7061 -0.0307
  582TMC3    C3 8680   4.267   0.000  14.991 -0.5337 -0.2105 -0.6063
  582TMC3    C4 8681   4.115   4.616  14.799  0.1816  0.4839 -0.7833
  582TMC3    C5 8682   4.144   4.549  14.913  0.2850  0.1671 -1.0275
  582TMC3    C6 8683   4.215   4.612  15.005 -0.3501 -0.9463 -0.9415
  582TMC3     C 8684   4.036   0.077  14.733 -0.4312 -1.3945  0.1856
  582TMC3     O 8685   3.967   0.123  14.825  0.1823 -0.3086 -0.0514
  582TMC3     H 8686   4.248   0.172  14.879  0.6615  0.4060  0.9295
  582TMC3    H1 8687   4.048   4.575  14.724 -1.6700  1.0361  0.5942
  582TMC3    H2 8688   4.228   4.566  15.102 -0.2590  1.5885  0.2272
  582TMC3    C7 8689   4.013   4.506  14.973  0.2721  0.4231  0.3909
  582TMC3    C8 8690   4.295   0.068  15.113  0.2474 -0.0221  0.7353
  582TMC3    O1 8691   4.009   4.417  15.053  0.2050 -0.3453  0.3513
  582TMC3    O2 8692   4.246   0.176  15.141 -0.2749  0.2429 -0.0303
  583MPD2     C 8693   4.369   1.900  16.909  0.2834 -0.6241  0.4805
  583MPD2    C1 8694   4.291   2.002  16.860  0.2425 -0.3658 -0.5499
  583MPD2    C2 8695   4.232   2.101  16.942 -0.4444 -0.8816 -0.4078
  583MPD2    C3 8696   4.244   2.085  17.077  0.0252  0.4337 -1.1804
  583MPD2    C4 8697   4.316   1.976  17.126  0.3754 -0.4267  0.3296
  583MPD2    C5 8698   4.375   1.889  17.044  0.2634  0.4122  0.6915
  583MPD2     H 8699   4.190   2.193  16.904  0.7789 -0.5686 -1.0013
  583MPD2    H1 8700   4.334   1.962  17.232  0.5817  0.2351  0.3823
  583MPD2    H2 8701   4.422   1.830  16.846  1.8856  1.6136 -0.6643
  583MPD2    H3 8702   4.427   1.808  17.093  1.7003 -0.1856 -1.8024
  583MPD2     N 8703   4.172   2.179  17.159  0.1507  0.2439 -0.1155
  583MPD2    H5 8704   4.117   2.246  17.106  2.1033  2.3571  0.5098
  583MPD2    N1 8705   4.281   2.016  16.718  0.1075  0.2268  1.6578
  583MPD2    H7 8706   4.233   2.094  16.674  1.9264 -0.0519 -0.8231
  584TMC3    C1 8707   4.078   2.292  17.340  0.6145  0.5376  0.1323
  584TMC3    C2 8708   4.071   2.406  17.273  0.2851 -0.4913 -0.4624
  584TMC3    C3 8709   4.027   2.514  17.338 -0.2645 -0.4104  0.2528
  584TMC3    C4 8710   4.030   2.281  17.470 -0.3280  0.4224 -0.5025
  584TMC3    C5 8711   3.991   2.393  17.535  0.6586  0.0402 -0.8543
  584TMC3    C6 8712   4.000   2.512  17.470  0.4244  0.7411  0.0919
  584TMC3     C 8713   4.170   2.184  17.296 -0.0443 -0.0551 -0.1859
  584TMC3     O 8714   4.207   2.099  17.374  0.4800 -0.2160 -0.1866
  584TMC3     H 8715   4.118   2.424  17.177  2.8995  0.0961  0.9230
  584TMC3    H1 8716   4.047   2.185  17.517  0.9100  0.1764 -1.4602
  584TMC3    H2 8717   3.970   2.596  17.532 -0.3465  1.7500 -1.6656
  584TMC3    C7 8718   3.969   2.377  17.677  0.0197  0.0100  0.4902
  584TMC3    C8 8719   4.040   2.643  17.283 -0.2092 -0.0555  0.1002
  584TMC3    O1 8720   3.988   2.265  17.724  0.4372  0.5357 -0.1908
  584TMC3    O2 8721   3.997   2.655  17.168  0.8395 -0.3819  0.6842
  585MPD2     C 8722   3.136   1.337   0.234 -0.2936  0.2803  0.0708
  585MPD2    C1 8723   3.168   1.349   0.101  0.5358 -0.6829  0.6791
  585MPD2    C2 8724   3.194   1.229   0.029 -0.6246 -0.2392  0.0372
  585MPD2    C3 8725   3.192   1.107   0.095  0.3973 -0.2399  0.3869
  585MPD2    C4 8726   3.148   1.091   0.228 -0.3490 -0.2358 -0.0124
  585MPD2    C5 8727   3.123   1.210   0.293  1.1417  0.3942  1.2523
  585MPD2     H 8728   3.211   1.234  17.673  0.2420  1.5321  0.2678
  585MPD2    H1 8729   3.129   0.992   0.268 -0.8749 -0.0133  0.2918
  585MPD2    H2 8730   3.129   1.421   0.302 -0.8208  1.4750 -1.4399
  585MPD2    H3 8731   3.090   1.212   0.396  2.4164 -0.1908  1.6673
  585MPD2     N 8732   3.225   0.983   0.029 -0.2461  0.1117  0.0720
  585MPD2    H5 8733   3.202   0.907   0.092  0.7456 -2.3938 -2.5689
  585MPD2    N1 8734   3.166   1.482   0.045  0.4139  0.2877  0.1023
  585MPD2    H7 8735   3.134   1.553   0.110 -1.4822  1.0619 -1.6681
  586TMC3    C1 8736   3.285   0.821  17.608 -0.6741  0.2023  0.0150
  586TMC3    C2 8737   3.392   0.777  17.538  0.5986 -0.3786 -1.0544
  586TMC3    C3 8738   3.398   0.647  17.494 -0.0202 -0.3371 -0.1879
  586TMC3    C4 8739   3.184   0.738  17.643 -0.0009  0.2818  0.2329
  586TMC3    C5 8740   3.190   0.609  17.599  0.4621 -0.3576 -0.6231
  586TMC3    C6 8741   3.301   0.563  17.528  0.3896 -0.0654 -0.3535
  586TMC3     C 8742   3.284   0.965  17.656 -0.3570  0.3366 -0.2207
  586TMC3     O 8743   3.333   1.046  17.581  0.1482  0.4371  0.3208
  586TMC3     H 8744   3.472   0.848  17.518 -1.4883  2.1544 -0.4348
  586TMC3    H1 8745   3.103   0.766  17.709  0.5024 -2.2486  1.9204
  586TMC3    H2 8746   3.303   0.465  17.483 -0.8993  1.1945 -3.1647
  586TMC3    C7 8747   3.070   0.537  17.570  0.1426 -0.2615  0.4571
  586TMC3    C8 8748   3.485   0.602  17.384 -0.3255  0.5884  0.3752
  586TMC3    O1 8749   3.091   0.429  17.514  0.1175  0.6231 -0.4050
  586TMC3    O2 8750   3.500   0.482  17.367  0.3399  0.0555  0.4934
  587TMC3    C1 8751   0.910   4.660  15.739  0.7020 -0.7118  0.0877
  587TMC3    C2 8752   1.007   4.731  15.797 -0.5880  0.0205 -0.8954
  587TMC3    C3 8753   1.124   4.673  15.832 -0.4286 -0.2470 -0.4439
  587TMC3    C4 8754   0.923   4.526  15.734 -0.3758  0.0543  0.1184
  587TMC3    C5 8755   1.046   4.470  15.743 -0.2308  0.1283  0.3301
  587TMC3    C6 8756   1.153   4.542  15.795 -0.2025  0.2810  0.0116
  587TMC3     C 8757   0.781   4.708  15.764  0.3146  0.0214 -0.7505
  587TMC3     O 8758   0.747   0.068  15.698 -0.0340 -0.0247  0.1612
  587TMC3     H 8759   0.998   0.100  15.794 -0.6231  0.0380 -0.1959
  587TMC3    H1 8760   0.851   4.459  15.688 -0.7754 -0.2890  1.2454
  587TMC3    H2 8761   1.248   4.501  15.830  0.2652  0.5207 -0.9944
  587TMC3    C7 8762   1.051   4.328  15.752  0.8326  0.5170  0.6188
  587TMC3    C8 8763   1.145   4.712  15.968  0.3938  0.0780 -0.2846
  587TMC3    O1 8764   0.949   4.263  15.769  0.0072  0.3830  0.2991
  587TMC3    O2 8765   1.240   4.655  16.015 -0.1490 -0.1707  0.4006
  588TMC3    C1 8766   2.711   1.257   9.435  0.1793  0.2767  0.1276
  588TMC3    C2 8767   2.668   1.164   9.523 -0.0201 -0.8425 -0.4717
  588TMC3    C3 8768   2.759   1.117   9.607 -0.4029 -1.0409 -0.2530
  588TMC3    C4 8769   2.839   1.308   9.435 -0.5267  0.7570  0.5272
  588TMC3    C5 8770   2.925   1.261   9.525  0.2128  0.3600 -0.5346
  588TMC3    C6 8771   2.887   1.157   9.609 -0.2101 -0.4243 -0.5851
  588TMC3     C 8772   2.618   1.375   9.425  0.3051 -0.6142 -0.5088
  588TMC3     O 8773   2.503   1.360   9.390  0.1298  0.1813  0.2441
  588TMC3     H 8774   2.566   1.131   9.509 -0.1071 -0.2210 -1.3607
  588TMC3    H1 8775   2.869   1.377   9.356  2.3656  1.4723  2.2722
  588TMC3    H2 8776   2.964   1.128   9.679  0.5591 -1.2428 -1.7731
  588TMC3    C7 8777   3.008   1.362   9.581  0.5467 -0.1318  0.5624
  588TMC3    C8 8778   2.723   0.983   9.659 -0.3042  0.0752 -0.1022
  588TMC3    O1 8779   2.978   1.473   9.536 -0.8198  0.7658 -0.0580
  588TMC3    O2 8780   2.624   0.922   9.617 -0.2245  0.4221 -0.3251
  589TMC3    C1 8781   2.541   4.099   0.858  1.1694 -0.2472 -0.3423
  589TMC3    C2 8782   2.609   4.127   0.973  0.1939  0.9446 -0.5814
  589TMC3    C3 8783   2.715   4.047   1.005  0.1701 -0.1152  0.3463
  589TMC3    C4 8784   2.574   3.994   0.780 -0.1976 -0.7992  0.2822
  589TMC3    C5 8785   2.687   3.924   0.811 -0.2142  0.4278  0.2101
  589TMC3    C6 8786   2.764   3.955   0.921 -0.0512  0.1962 -0.0719
  589TMC3     C 8787   2.432   4.189   0.808 -0.5323  0.4053  0.2536
  589TMC3     O 8788   2.382   4.184   0.696 -0.3584 -0.4468 -0.5196
  589TMC3     H 8789   2.592   4.206   1.045 -1.5661 -0.0051  0.0570
  589TMC3    H1 8790   2.514   3.970   0.692  0.3241  0.8960 -0.5265
  589TMC3    H2 8791   2.848   3.893   0.952  1.5731  2.3553 -0.1926
  589TMC3    C7 8792   2.717   3.808   0.731  0.0447 -0.0869  0.0429
  589TMC3    C8 8793   2.809   4.098   1.095 -0.0600  0.1363 -0.4314
  589TMC3    O1 8794   2.635   3.781   0.649 -0.2376 -0.2472  0.4969
  589TMC3    O2 8795   2.759   4.157   1.189 -0.3195 -0.2268 -0.1343
  590MPD2     C 8796   1.863   2.363  16.298 -0.1534  1.1124 -0.3976
  590MPD2    C1 8797   1.864   2.465  16.206  0.4141 -0.0781  0.6730
  590MPD2    C2 8798   1.976   2.557  16.197 -0.3563 -1.0031  0.3486
  590MPD2    C3 8799   2.090   2.533  16.265  0.1241  0.7406  0.1304
  590MPD2    C4 8800   2.091   2.429  16.363  0.1857  0.2531  0.2514
  590MPD2    C5 8801   1.979   2.348  16.375  0.2219  0.1990 -0.2031
  590MPD2     H 8802   1.960   2.646  16.137  6.2819  0.1630  0.2936
  590MPD2    H1 8803   2.183   2.403  16.414  0.4495  1.9455  0.6465
  590MPD2    H2 8804   1.777   2.299  16.310 -0.3895  1.5356  0.1713
  590MPD2    H3 8805   1.983   2.262  16.441 -2.6826  1.1355  1.1928
  590MPD2     N 8806   2.205   2.615  16.238  0.0056 -0.2611  0.7675
  590MPD2    H5 8807   2.195   2.688  16.168 -0.4062  0.1525  1.2611
  590MPD2    N1 8808   1.741   2.481  16.142 -0.0277 -0.1652  0.1432
  590MPD2    H7 8809   1.665   2.421  16.173 -0.6664  0.6125  0.0687
  591TMC3    C1 8810   2.409   2.713  16.257  0.6286  0.4130 -0.3180
  591TMC3    C2 8811   2.532   2.687  16.206  0.5688  0.4860  0.0723
  591TMC3    C3 8812   2.591   2.775  16.125  0.6104 -0.2129 -0.1182
  591TMC3    C4 8813   2.346   2.831  16.233  0.1444  0.7203  0.5198
  591TMC3    C5 8814   2.391   2.916  16.149  0.0068  0.1684 -0.1564
  591TMC3    C6 8815   2.515   2.886  16.092  0.1960  0.4288  0.2431
  591TMC3     C 8816   2.331   2.599  16.294 -0.2354  0.2111 -0.0461
  591TMC3     O 8817   2.383   2.502  16.342  0.3956  0.0386 -0.4601
  591TMC3     H 8818   2.572   2.586  16.209 -0.9709 -0.1678 -1.6585
  591TMC3    H1 8819   2.251   2.867  16.270  0.1691  2.4717 -1.0887
  591TMC3    H2 8820   2.547   2.943  16.006 -1.2702  1.3497  0.3062
  591TMC3    C7 8821   2.292   2.971  16.059 -0.3885 -0.2583  0.0841
  591TMC3    C8 8822   2.685   2.724  16.022 -0.2352 -0.1358  0.4822
  591TMC3    O1 8823   2.188   2.904  16.048  0.4910  0.7335  0.0184
  591TMC3    O2 8824   2.704   2.601  16.010 -0.1139 -0.5386 -0.4820
  592MPD2     C 8825   2.082   4.611  11.583  0.1962  0.5943 -0.7425
  592MPD2    C1 8826   1.987   4.677  11.658 -0.0328 -0.4571  0.2714
  592MPD2    C2 8827   1.932   4.606  11.764 -0.1148 -0.6953  0.7254
  592MPD2    C3 8828   1.967   4.475  11.806 -0.4260  0.0888 -0.2281
  592MPD2    C4 8829   2.060   4.416  11.724 -0.0001 -0.4594 -0.4479
  592MPD2    C5 8830   2.104   4.475  11.610 -0.1389 -0.4416 -0.0746
  592MPD2     H 8831   1.857   4.653  11.827 -1.1936 -1.2463 -0.1447
  592MPD2    H1 8832   2.100   4.316  11.740  0.9141  0.3194  2.0831
  592MPD2    H2 8833   2.132   4.651  11.495  0.4878 -1.5870 -1.5855
  592MPD2    H3 8834   2.177   4.423  11.549 -0.7146 -0.0959 -1.0731
  592MPD2     N 8835   1.920   4.415  11.923  0.2013 -0.3014  0.0928
  592MPD2    H5 8836   1.834   4.453  11.962  0.3858  1.4942 -1.2355
  592MPD2    N1 8837   1.968   0.076  11.635 -0.0212 -0.6280 -0.1201
  592MPD2    H7 8838   2.016   0.112  11.554 -1.6565  0.7299 -0.5019
  593TMC3    C1 8839   1.931   0.304  11.694  0.2731 -0.0607  0.0299
  593TMC3    C2 8840   1.945   0.378  11.801 -0.0322  0.2226 -0.0165
  593TMC3    C3 8841   2.021   0.490  11.797  0.0114 -0.4161 -0.1386
  593TMC3    C4 8842   1.983   0.337  11.575 -0.2388  0.1086  0.3265
  593TMC3    C5 8843   2.051   0.454  11.570  0.7591  0.1741  0.2170
  593TMC3    C6 8844   2.063   0.539  11.678 -0.0650 -0.1581  0.0343
  593TMC3     C 8845   1.894   0.161  11.710  0.5086 -0.5625 -0.0035
  593TMC3     O 8846   1.809   0.136  11.799 -0.0474  0.2550  0.0731
  593TMC3     H 8847   1.911   0.333  11.894 -2.0749 -2.2765 -1.9817
  593TMC3    H1 8848   1.981   0.263  11.495 -2.0217  1.2317 -0.6747
  593TMC3    H2 8849   2.125   0.627  11.670 -1.2434  0.7407  0.8138
  593TMC3    C7 8850   2.098   0.513  11.448  0.4698 -0.4114 -0.4179
  593TMC3    C8 8851   2.059   0.553  11.927 -1.0820 -0.9428 -0.8627
  593TMC3    O1 8852   2.133   0.632  11.450 -0.5376 -0.2721  0.7263
  593TMC3    O2 8853   2.019   0.490  12.021  0.3821 -0.7279  0.2449
  594MPD2     C 8854   0.740   3.268  14.055  0.0106 -0.4901  0.5027
  594MPD2    C1 8855   0.758   3.280  14.186 -0.5684  0.1817 -0.6752
  594MPD2    C2 8856   0.874   3.339  14.230  0.0639 -0.0039  0.4530
  594MPD2    C3 8857   0.965   3.397  14.143  0.3121 -0.1020  0.4623
  594MPD2    C4 8858   0.944   3.374  14.009  0.6874 -0.9208 -1.1454
  594MPD2    C5 8859   0.836   3.313  13.966  0.1820  0.2900 -0.5397
  594MPD2     H 8860   0.887   3.350  14.337 -0.3527 -4.3128  0.9457
  594MPD2    H1 8861   1.015   3.401  13.931  0.0346  2.3941 -0.5945
  594MPD2    H2 8862   0.664   3.198  14.023 -1.9169  1.9382 -0.2353
  594MPD2    H3 8863   0.832   3.289  13.861  1.8751 -1.9147 -0.0935
  594MPD2     N 8864   1.079   3.469  14.198 -0.2238  0.0745 -0.2978
  594MPD2    H5 8865   1.083   3.482  14.299  0.7821  0.4906 -0.3985
  594MPD2    N1 8866   0.669   3.220  14.270  0.7223  0.0133  0.0825
  594MPD2    H7 8867   0.586   3.193  14.219  1.0201  0.2427 -0.5225
  595TMC3    C1 8868   1.476   3.704  14.226  0.2434  0.5936 -0.1380
  595TMC3    C2 8869   1.391   3.619  14.158  0.1106 -0.2276 -0.4004
  595TMC3    C3 8870   1.277   3.584  14.222  0.3663 -0.5969 -1.0051
  595TMC3    C4 8871   1.455   3.747  14.354  0.3273 -0.8601  0.2290
  595TMC3    C5 8872   1.332   3.716  14.398  0.2644 -0.9215 -0.4251
  595TMC3    C6 8873   1.239   3.632  14.342 -0.1192  0.1868 -0.4704
  595TMC3     C 8874   1.614   3.709  14.187 -0.0592 -0.7342  0.9252
  595TMC3     O 8875   1.685   3.736  14.282  0.2209  0.3512 -0.0412
  595TMC3     H 8876   1.412   3.579  14.059  0.2399  1.7926 -1.1891
  595TMC3    H1 8877   1.512   3.832  14.388  0.9822 -0.6033 -1.4876
  595TMC3    H2 8878   1.143   3.610  14.386 -0.3041 -1.5760 -1.7621
  595TMC3    C7 8879   1.269   3.806  14.489 -0.2723  0.3247 -0.3398
  595TMC3    C8 8880   1.181   3.516  14.133  0.1281 -0.1554 -0.8343
  595TMC3    O1 8881   1.147   3.825  14.469  0.1055  0.1756  0.3904
  595TMC3    O2 8882   1.199   3.521  14.010  0.2528  0.0918 -0.1283
  596MPD2     C 8883   0.354   1.734  16.859  0.7086  0.0665 -0.0810
  596MPD2    C1 8884   0.383   1.851  16.790  0.1818  0.5644 -0.1335
  596MPD2    C2 8885   0.384   1.850  16.648 -0.0267 -0.5867  0.1209
  596MPD2    C3 8886   0.360   1.733  16.576 -0.6209  0.9668 -0.0103
  596MPD2    C4 8887   0.335   1.619  16.645 -0.2628  0.6964  0.2698
  596MPD2    C5 8888   0.333   1.617  16.782  0.4862 -0.6460  0.4448
  596MPD2     H 8889   0.409   1.942  16.595  0.2690 -1.5885 -1.4684
  596MPD2    H1 8890   0.323   1.527  16.590  0.6257  1.8731 -1.8934
  596MPD2    H2 8891   0.343   1.730  16.966  0.4408 -1.7359 -0.1833
  596MPD2    H3 8892   0.308   1.528  16.838  2.1380 -3.8008 -3.8143
  596MPD2     N 8893   0.364   1.729  16.434  0.7673  0.5562 -0.2790
  596MPD2    H5 8894   0.355   1.632  16.404  0.5644  0.8054 -1.0144
  596MPD2    N1 8895   0.423   1.970  16.849  0.0869 -0.1381  0.0705
  596MPD2    H7 8896   0.448   2.044  16.785  0.8668  1.4046  2.1605
  597TMC3    C1 8897   0.430   2.138  17.010  0.5435 -0.7746  1.5912
  597TMC3    C2 8898   0.464   2.227  16.917 -0.3276  0.2358 -0.3158
  597TMC3    C3 8899   0.424   2.359  16.922 -0.0309  0.4674  0.2575
  597TMC3    C4 8900   0.344   2.177  17.105 -0.6131 -0.0411  0.9471
  597TMC3    C5 8901   0.295   2.304  17.103 -0.1642 -0.5667 -0.7466
  597TMC3    C6 8902   0.330   2.393  17.006 -0.2040 -0.0672 -0.3193
  597TMC3     C 8903   0.421   1.994  16.981 -0.5376 -0.5910 -0.1302
  597TMC3     O 8904   0.396   1.917  17.077  0.4819  0.0671  0.1883
  597TMC3     H 8905   0.531   2.186  16.843  0.4648  1.5338 -0.3199
  597TMC3    H1 8906   0.323   2.120  17.194 -3.8606  0.0197  0.2151
  597TMC3    H2 8907   0.298   2.497  17.013 -0.4348 -0.2083  0.7280
  597TMC3    C7 8908   0.178   2.326  17.185 -0.2443  0.3407 -0.3240
  597TMC3    C8 8909   0.454   2.443  16.809 -0.6988  0.5483  0.2374
  597TMC3    O1 8910   0.170   2.255  17.290  0.4776  0.1409 -0.6303
  597TMC3    O2 8911   0.404   2.557  16.810 -0.4157  0.3814  0.3401
  598TMC3    C1 8912   3.046   2.834  15.090  0.4945  0.2826 -0.7416
  598TMC3    C2 8913   2.957   2.729  15.081  0.1778 -0.8747  0.5519
  598TMC3    C3 8914   2.872   2.709  14.975 -0.1861  0.1449 -0.0327
  598TMC3    C4 8915   3.055   2.925  14.988  0.4378  0.4200 -0.1577
  598TMC3    C5 8916   2.976   2.893  14.880 -0.1296 -0.0555 -0.3492
  598TMC3    C6 8917   2.886   2.792  14.869  0.3925 -0.2460  1.1101
  598TMC3     C 8918   3.149   2.849  15.192 -0.1877  0.7969  0.0177
  598TMC3     O 8919   3.232   2.933  15.172 -0.3149 -0.0209 -0.3551
  598TMC3     H 8920   2.947   2.661  15.164  0.2488 -1.2501  0.2533
  598TMC3    H1 8921   3.113   3.017  14.998  1.0291 -0.1580  1.6633
  598TMC3    H2 8922   2.837   2.777  14.773  0.8958 -0.2181  0.8467
  598TMC3    C7 8923   2.967   2.982  14.772 -0.3937  0.1540 -0.0972
  598TMC3    C8 8924   2.771   2.602  14.984 -0.2067 -0.0458 -0.1011
  598TMC3    O1 8925   2.948   2.942  14.659  0.1184 -0.0449 -0.3569
  598TMC3    O2 8926   2.761   2.542  15.090  0.2961  0.5820 -0.9281
  599MPD2     C 8927   3.170   0.919  15.584  0.6164  0.0964 -0.0785
  599MPD2    C1 8928   3.134   0.795  15.621  0.4723  0.1488  0.3598
  599MPD2    C2 8929   3.031   0.778  15.712 -0.1807  0.2301  0.8332
  599MPD2    C3 8930   2.975   0.892  15.776 -0.3918 -0.3751  0.4440
  599MPD2    C4 8931   3.023   1.012  15.738 -0.5407  0.0103 -0.0612
  599MPD2    C5 8932   3.113   1.026  15.638 -0.2856  0.4601  0.1544
  599MPD2     H 8933   2.999   0.680  15.745 -2.1547  0.8603  0.7911
  599MPD2    H1 8934   2.988   1.105  15.780 -0.2801 -0.4562  1.1989
  599MPD2    H2 8935   3.244   0.943  15.508  0.2018  0.3064 -0.4223
  599MPD2    H3 8936   3.132   1.129  15.614  2.3960  0.0417  0.5352
  599MPD2     N 8937   2.891   0.882  15.888  0.1873 -0.0799 -0.4024
  599MPD2    H5 8938   2.853   0.965  15.933  1.5421 -0.8832  2.2025
  599MPD2    N1 8939   3.207   0.684  15.556 -0.8132 -0.2645 -0.0612
  599MPD2    H7 8940   3.278   0.720  15.493 -3.0033 -0.7981 -2.8639
  600TMC3    C1 8941   2.751   0.766  16.042  0.6871 -0.8653 -0.5660
  600TMC3    C2 8942   2.678   0.652  16.059 -0.4910 -0.6987 -1.1318
  600TMC3    C3 8943   2.626   0.622  16.183  0.3552  0.7356  0.1858
  600TMC3    C4 8944   2.790   0.837  16.152 -0.6543 -0.5499  0.5634
  600TMC3    C5 8945   2.743   0.798  16.274 -0.5321  0.6800  0.0939
  600TMC3    C6 8946   2.651   0.697  16.295  0.4304 -0.0035  0.9086
  600TMC3     C 8947   2.817   0.771  15.914 -0.3835 -0.0660  0.0502
  600TMC3     O 8948   2.788   0.687  15.833 -0.0406  0.0681 -0.2611
  600TMC3     H 8949   2.654   0.590  15.974  0.2991 -0.6948 -1.3608
  600TMC3    H1 8950   2.870   0.909  16.133  2.0513 -3.8187 -0.3966
  600TMC3    H2 8951   2.604   0.672  16.389  1.8280  0.5567  1.7598
  600TMC3    C7 8952   2.766   0.881  16.400 -0.3738  0.2964 -0.3515
  600TMC3    C8 8953   2.557   0.499  16.194 -0.2859  0.7459 -0.8287
  600TMC3    O1 8954   2.673   0.902  16.472  0.3487 -0.2222 -0.8109
  600TMC3    O2 8955   2.584   0.436  16.298 -0.4870 -0.1353  0.2399
  601MPD2     C 8956   0.717   3.603  17.596 -0.9060 -0.0537 -0.5738
  601MPD2    C1 8957   0.589   3.555  17.626  0.6720 -0.0381  0.4683
  601MPD2    C2 8958   0.578   3.442  17.697  0.2041 -0.1945  0.2677
  601MPD2    C3 8959   0.692   3.374  17.737  0.7259  0.5541 -0.3763
  601MPD2    C4 8960   0.815   3.429  17.722 -1.1313  0.3185  0.5838
  601MPD2    C5 8961   0.829   3.546  17.648  0.3381 -0.0279  0.5502
  601MPD2     H 8962   0.476   3.404  17.697  0.1921 -0.1634 -1.0962
  601MPD2    H1 8963   0.895   3.378   0.023 -1.2350 -0.8268 -0.3984
  601MPD2    H2 8964   0.734   3.696  17.543 -0.2969 -0.0788 -0.4300
  601MPD2    H3 8965   0.927   3.586  17.623 -0.6984  1.2405 -1.4431
  601MPD2     N 8966   0.693   3.249   0.037  0.3633 -0.2180 -0.1398
  601MPD2    H5 8967   0.775   3.200   0.069 -0.6018 -0.8447  1.3628
  601MPD2    N1 8968   0.472   3.609  17.576  0.4386  0.0387 -0.5253
  601MPD2    H7 8969   0.388   3.573  17.619  0.5059  0.0382 -0.3937
  602TMC3    C1 8970   0.325   3.777  17.510 -0.6445 -0.4889  0.7433
  602TMC3    C2 8971   0.318   3.918  17.517  0.1235 -0.3979  0.3731
  602TMC3    C3 8972   0.205   3.981  17.494 -0.0399  0.2628  0.2217
  602TMC3    C4 8973   0.217   3.698  17.494  0.3773  0.4645 -0.2279
  602TMC3    C5 8974   0.097   3.767  17.473 -0.2044  0.2678  0.8758
  602TMC3    C6 8975   0.094   3.904  17.466 -0.3374 -0.1214  0.0576
  602TMC3     C 8976   0.465   3.727  17.511 -0.0875 -0.8104  0.1417
  602TMC3     O 8977   0.551   3.791  17.455 -0.2057  0.3164  0.0887
  602TMC3     H 8978   0.407   3.977  17.534  0.2698 -1.1823  2.3534
  602TMC3    H1 8979   0.227   3.592  17.479  0.0365  0.4565 -0.3993
  602TMC3    H2 8980   4.738   3.956  17.475  0.0232  0.7633 -1.2461
  602TMC3    C7 8981   0.012   3.701  17.377  0.2422 -0.1501 -0.2323
  602TMC3    C8 8982   0.198   4.130  17.469  0.0434  0.1461 -0.6432
  602TMC3    O1 8983   0.009   3.580  17.377  0.2042 -0.1501  0.5263
  602TMC3    O2 8984   0.285   4.204  17.513  0.0194  0.4259  0.7063
  603TMC3    C1 8985   2.544   4.407  11.100 -0.1322 -0.5447 -0.2746
  603TMC3    C2 8986   2.601   4.366  11.218  0.2431 -0.3543 -0.3013
  603TMC3    C3 8987   2.652   4.469  11.295  0.6516 -0.8724  0.2086
  603TMC3    C4 8988   2.532   4.529  11.062  0.8266  0.5189  0.3824
  603TMC3    C5 8989   2.601   4.625  11.129 -0.0467  0.0192  0.7963
  603TMC3    C6 8990   2.653   4.601  11.253  0.0599 -0.0653 -0.2971
  603TMC3     C 8991   2.475   4.304  11.026 -0.5457  0.0914  0.2945
  603TMC3     O 8992   2.490   4.306  10.901 -0.0730  0.0181  0.3442
  603TMC3     H 8993   2.613   4.265  11.255 -1.4070  0.1983  1.7260
  603TMC3    H1 8994   2.490   4.539  10.962  0.0295 -0.0887  0.6542
  603TMC3    H2 8995   2.716   4.670  11.309 -1.2272  1.0914 -0.2768
  603TMC3    C7 8996   2.647   0.009  11.062 -0.5469 -0.2139 -0.2986
  603TMC3    C8 8997   2.672   4.421  11.427  0.5683  0.1713  0.2615
  603TMC3    O1 8998   2.681   0.103  11.136  0.5301  0.2912 -0.6277
  603TMC3    O2 8999   2.696   4.302  11.441 -0.2233 -0.3057 -0.1235
  604MPD2     C 9000   4.219   3.014  16.274 -0.8538 -0.2629  0.0280
  604MPD2    C1 9001   4.110   2.960  16.211  0.8429  0.0769  0.6474
  604MPD2    C2 9002   4.130   2.915  16.077 -0.0321  0.5117 -0.6113
  604MPD2    C3 9003   4.252   2.925  16.018 -0.6232  0.6156 -0.4072
  604MPD2    C4 9004   4.360   2.977  16.087 -0.4195 -0.1802 -0.6729
  604MPD2    C5 9005   4.346   3.021  16.218 -0.7027  0.0019 -0.4350
  604MPD2     H 9006   4.049   2.880  16.013  0.8856  0.0053 -1.5113
  604MPD2    H1 9007   4.459   2.985  16.043 -0.1593  0.6617  0.0509
  604MPD2    H2 9008   4.208   3.050  16.375 -0.2306 -1.1052  0.3962
  604MPD2    H3 9009   4.437   3.052  16.268 -1.6432  2.2631 -0.1211
  604MPD2     N 9010   4.263   2.878  15.888 -0.2087  0.2299 -0.5904
  604MPD2    H5 9011   4.176   2.883  15.835 -1.4257 -0.4069  1.3548
  604MPD2    N1 9012   3.983   2.974  16.272  0.1954  0.1112  0.2807
  604MPD2    H7 9013   3.975   3.045  16.345  0.2376  3.5105 -2.9948
  605TMC3    C1 9014   3.752   2.957  16.320 -0.3418 -0.0542  0.1766
  605TMC3    C2 9015   3.788   2.979  16.447 -0.3765  0.3385  0.6312
  605TMC3    C3 9016   3.730   3.099  16.505 -0.4664  0.1124  1.2460
  605TMC3    C4 9017   3.660   3.028  16.249 -0.3296  0.4014 -0.8240
  605TMC3    C5 9018   3.610   3.142  16.304  0.1489 -0.1524 -0.3566
  605TMC3    C6 9019   3.646   3.173  16.431  0.0311  0.3768  0.5530
  605TMC3     C 9020   3.863   2.904  16.242  0.4590  0.0594  0.2647
  605TMC3     O 9021   3.848   2.811  16.161  0.1990 -0.6115 -0.1848
  605TMC3     H 9022   3.857   2.907  16.490 -0.8261 -1.4236 -1.6265
  605TMC3    H1 9023   3.640   2.993  16.148 -0.0775  0.0948 -0.7713
  605TMC3    H2 9024   3.602   3.260  16.478 -0.4122  0.4701 -0.0356
  605TMC3    C7 9025   3.511   3.224  16.241 -0.2831 -0.1345 -0.6712
  605TMC3    C8 9026   3.851   3.173  16.547 -0.1643  0.3739 -1.2135
  605TMC3    O1 9027   3.465   3.327  16.292  0.5233  0.3573  0.1731
  605TMC3    O2 9028   3.890   3.248  16.460 -0.0484 -0.0867  0.0369
  606TMC3    C1 9029   0.525   1.130  16.778 -0.1477 -0.1722 -0.1092
  606TMC3    C2 9030   0.639   1.104  16.708 -0.1664 -0.4116  0.2564
  606TMC3    C3 9031   0.674   0.968  16.705  0.4052 -0.4578 -0.2242
  606TMC3    C4 9032   0.433   1.042  16.825 -0.2707 -0.4140  0.1050
  606TMC3    C5 9033   0.472   0.912  16.810  0.0540 -0.2920  0.5089
  606TMC3    C6 9034   0.586   0.877  16.758 -0.4748 -0.4042  0.2340
  606TMC3     C 9035   0.527   1.263  16.843 -0.0253 -0.0959 -0.0612
  606TMC3     O 9036   0.466   1.265  16.953  0.1387 -0.0932  0.6011
  606TMC3     H 9037   0.714   1.181  16.688 -0.0842 -0.5520  0.0161
  606TMC3    H1 9038   0.353   1.086  16.884  1.5813  3.3006 -0.1898
  606TMC3    H2 9039   0.615   0.774  16.770  1.4090  0.2217  1.1574
  606TMC3    C7 9040   0.415   0.823  16.912  0.3804 -0.1469  0.0993
  606TMC3    C8 9041   0.816   0.941  16.726 -0.5988  0.2920 -0.0039
  606TMC3    O1 9042   0.459   0.712  16.921 -0.1423  0.5120 -0.1016
  606TMC3    O2 9043   0.837   0.844  16.797 -0.2275  0.4955 -0.0621
  607MPD2     C 9044   2.346   3.949  11.695  0.3428 -0.6592  0.3485
  607MPD2    C1 9045   2.310   4.003  11.810 -0.3042  0.0763  0.5957
  607MPD2    C2 9046   2.257   3.926  11.908 -0.0068 -0.5346  0.6446
  607MPD2    C3 9047   2.241   3.794  11.893  0.1136 -0.1969  0.4415
  607MPD2    C4 9048   2.282   3.739  11.773  0.3093 -0.2059 -0.0304
  607MPD2    C5 9049   2.341   3.816  11.679  0.6105  1.3593  0.5592
  607MPD2     H 9050   2.252   3.958  12.012  1.8129  1.6526  0.0616
  607MPD2    H1 9051   2.287   3.633  11.754  0.6805 -0.1424 -0.2969
  607MPD2    H2 9052   2.381   4.003  11.608 -2.3419 -1.3351 -1.1749
  607MPD2    H3 9053   2.391   3.764  11.598 -0.9707 -0.2961  0.6314
  607MPD2     N 9054   2.182   3.729  12.005 -0.5742  0.4979  0.0929
  607MPD2    H5 9055   2.158   3.794  12.079 -0.9363  0.9950 -0.4648
  607MPD2    N1 9056   2.320   4.139  11.842 -0.3813 -0.1078  0.4302
  607MPD2    H7 9057   2.295   4.157  11.938 -0.6820  3.3830 -0.2879
  608TMC3    C1 9058   2.373   4.382  11.845 -0.0052  0.0343 -0.0111
  608TMC3    C2 9059   2.345   4.379  11.980  0.0583 -0.2695  0.0431
  608TMC3    C3 9060   2.306   4.498  12.045 -0.2565  0.3273  0.4843
  608TMC3    C4 9061   2.371   4.498  11.776 -0.1260  0.2640 -0.1381
  608TMC3    C5 9062   2.344   4.613  11.843  0.1307  0.1817  0.5371
  608TMC3    C6 9063   2.303   4.614  11.975 -0.4010 -0.2776  0.1674
  608TMC3     C 9064   2.377   4.247  11.769  0.4082  0.2401  0.1214
  608TMC3     O 9065   2.409   4.243  11.652  0.2145 -0.2928 -0.0823
  608TMC3     H 9066   2.348   4.287  12.037 -0.2054  0.4109  1.1660
  608TMC3    H1 9067   2.414   4.495  11.676  0.4558  2.6965  0.0378
  608TMC3    H2 9068   2.277   4.707  12.024  0.6247 -0.5892  1.3109
  608TMC3    C7 9069   2.348   0.008  11.770  0.2796  0.7672  0.4019
  608TMC3    C8 9070   2.226   4.492  12.170 -0.3003 -0.7880 -0.6804
  608TMC3    O1 9071   2.340   0.002  11.649  0.6831  0.8896  0.0809
  608TMC3    O2 9072   2.162   4.590  12.209  0.2570 -0.0363 -0.5777
  609TMC3    C1 9073   4.657   4.136   9.494  0.0993 -0.6469 -0.0119
  609TMC3    C2 9074   4.698   4.259   9.448 -0.4605 -0.1485  0.0765
  609TMC3    C3 9075   0.039   4.259   9.339  0.2445  0.0492  0.3233
  609TMC3    C4 9076   4.690   4.020   9.437 -0.1237  0.3202  0.7309
  609TMC3    C5 9077   0.032   4.028   9.327  0.4918  0.1154 -0.3154
  609TMC3    C6 9078   0.083   4.148   9.281 -0.3981 -0.2183 -0.4044
  609TMC3     C 9079   4.555   4.130   9.596 -0.4672 -0.1428 -0.1201
  609TMC3     O 9080   4.484   4.031   9.593  0.1149 -0.2495  0.1476
  609TMC3     H 9081   4.672   4.356   9.490 -0.4650 -0.1363  0.0457
  609TMC3    H1 9082   4.661   3.928   9.485  0.9218  0.6199  1.9275
  609TMC3    H2 9083   0.154   4.153   9.199  0.3803  0.3656  0.3055
  609TMC3    C7 9084   0.095   3.902   9.289 -0.0171 -0.4581  0.2986
  609TMC3    C8 9085   0.104   4.384   9.309 -0.0002  0.2631  0.1162
  609TMC3    O1 9086   0.133   3.825   9.376 -0.0252 -0.2514 -0.0480
  609TMC3    O2 9087   0.039   4.480   9.347  0.0698 -0.8019 -0.3110
  610TMC3    C1 9088   2.562   4.271  12.579  0.3975 -0.6404 -0.3183
  610TMC3    C2 9089   2.538   4.259  12.449  0.5880  0.5527  0.1597
  610TMC3    C3 9090   2.540   4.127  12.400 -0.5734 -0.6903  0.2043
  610TMC3    C4 9091   2.595   4.173  12.662 -0.0165  0.6326 -0.1280
  610TMC3    C5 9092   2.591   4.044  12.610 -0.2221  0.2067  0.2196
  610TMC3    C6 9093   2.559   4.016  12.478 -0.6386  1.0869 -0.8639
  610TMC3     C 9094   2.591   4.410  12.613 -0.2277  0.3848  0.4274
  610TMC3     O 9095   2.599   4.491  12.518 -0.4310  0.1251 -0.3446
  610TMC3     H 9096   2.508   4.338  12.380 -0.8623 -1.2284 -1.2715
  610TMC3    H1 9097   2.629   4.183  12.764  0.0992 -1.7700  0.0800
  610TMC3    H2 9098   2.545   3.916  12.440  1.3533  1.2492 -2.0067
  610TMC3    C7 9099   2.628   3.943  12.708  0.4599  0.1925  0.2092
  610TMC3    C8 9100   2.516   4.106  12.255 -0.3161 -0.2493 -0.1151
  610TMC3    O1 9101   2.668   3.977  12.821  0.1636  0.9536  0.2009
  610TMC3    O2 9102   2.475   4.205  12.200  0.4436  0.0188 -0.6898
  611MPD2     C 9103   2.049   4.266   9.941 -0.3697 -0.2251 -0.1465
  611MPD2    C1 9104   2.001   4.352  10.039  0.3709  0.2378 -0.0700
  611MPD2    C2 9105   2.075   4.473  10.068  0.5233  0.3692 -0.5558
  611MPD2    C3 9106   2.193   4.509   9.997 -0.3305  0.1533  0.4802
  611MPD2    C4 9107   2.227   4.427   9.892 -0.9167  0.6937 -0.1752
  611MPD2    C5 9108   2.162   4.306   9.867 -0.4374 -0.3623  0.3705
  611MPD2     H 9109   2.043   4.540  10.148  0.4144 -0.5943  0.2142
  611MPD2    H1 9110   2.313   4.451   9.830 -0.1811 -0.2389  0.4958
  611MPD2    H2 9111   1.998   4.179   9.902  0.7823  0.0462 -2.3011
  611MPD2    H3 9112   2.200   4.242   9.788  2.0955  1.1778  0.3306
  611MPD2     N 9113   2.272   4.621  10.022 -0.1065  0.7108  0.7044
  611MPD2    H5 9114   2.346   4.633   9.953 -0.1459  0.9999  0.7096
  611MPD2    N1 9115   1.886   4.310  10.105  0.2953 -0.0747  0.2162
  611MPD2    H7 9116   1.863   4.211  10.101  2.0708 -0.4048 -2.0536
  612TMC3    C1 9117   2.403   0.035  10.129  0.2124 -0.0849 -0.8186
  612TMC3    C2 9118   2.473   0.063  10.246 -0.6554 -0.4814  0.1282
  612TMC3    C3 9119   2.570   0.164  10.240  0.6736 -0.1705 -0.4842
  612TMC3    C4 9120   2.412   0.112  10.013 -0.0350 -0.4182  0.3224
  612TMC3    C5 9121   2.508   0.213  10.020 -0.7369 -0.1056  0.3902
  612TMC3    C6 9122   2.581   0.240  10.126  0.6253 -0.2283 -0.0356
  612TMC3     C 9123   2.294   4.674  10.144 -0.2837 -0.3697 -0.5694
  612TMC3     O 9124   2.248   4.645  10.257  0.3836  0.1417 -0.3125
  612TMC3     H 9125   2.468   4.733  10.330 -1.2461  1.4858  1.6804
  612TMC3    H1 9126   2.360   0.093   9.920 -0.4534  1.3870  0.1758
  612TMC3    H2 9127   2.659   0.315  10.124  0.9738 -0.5913 -0.0097
  612TMC3    C7 9128   2.516   0.307   9.907 -0.8326 -0.2681  0.3374
  612TMC3    C8 9129   2.631   0.229  10.357 -0.2230  0.0526  0.0114
  612TMC3    O1 9130   2.633   0.337   9.871 -0.3191  0.6150 -0.3427
  612TMC3    O2 9131   2.674   0.342  10.349  0.1467  0.1148  0.4745
  613MPD2     C 9132   2.288   1.901  16.015  0.1596 -0.2398  0.9281
  613MPD2    C1 9133   2.174   1.959  16.057  0.1397  0.6310 -0.8959
  613MPD2    C2 9134   2.088   1.887  16.131  0.1580 -0.5190  0.1574
  613MPD2    C3 9135   2.102   1.748  16.148 -0.2958 -0.0624 -0.1478
  613MPD2    C4 9136   2.222   1.691  16.102 -0.4213 -0.7017  0.1881
  613MPD2    C5 9137   2.318   1.765  16.042 -0.6243 -0.4374 -0.3652
  613MPD2     H 9138   2.001   1.940  16.167  0.5396  0.4397 -0.3373
  613MPD2    H1 9139   2.251   1.588  16.116 -1.2637 -0.8129  1.1586
  613MPD2    H2 9140   2.353   1.950  15.945 -0.5220 -2.7684 -1.4908
  613MPD2    H3 9141   2.405   1.712  16.007 -0.2385 -0.9339  1.3504
  613MPD2     N 9142   2.016   1.665  16.217 -0.2481  0.1652 -0.1994
  613MPD2    H5 9143   2.040   1.569  16.238  1.1283  0.9317  1.8042
  613MPD2    N1 9144   2.144   2.093  16.008  0.0421  0.9192  0.2835
  613MPD2    H7 9145   2.226   2.149  15.988  1.9204 -2.1774 -0.7549
  614TMC3    C1 9146   1.896   2.077  15.964  0.0309 -0.0594 -0.3357
  614TMC3    C2 9147   1.897   1.960  15.895  0.4335  0.1946 -1.3645
  614TMC3    C3 9148   1.776   1.889  15.884  0.0236 -0.5608 -0.1269
  614TMC3    C4 9149   1.780   2.135  16.010 -0.0625 -0.0786  0.1729
  614TMC3    C5 9150   1.665   2.065  15.993 -0.3066  0.6015 -0.1973
  614TMC3    C6 9151   1.655   1.941  15.933  0.0910 -0.3595  0.0415
  614TMC3     C 9152   2.020   2.157  15.987  0.3817 -0.2488 -0.1396
  614TMC3     O 9153   1.999   2.276  15.982 -0.0490  0.4593 -0.6194
  614TMC3     H 9154   1.995   1.936  15.856  0.2947  0.7208 -2.0340
  614TMC3    H1 9155   1.775   2.241  16.033  1.2067  0.0058  0.1073
  614TMC3    H2 9156   1.560   1.889  15.930  1.1753 -2.2467 -2.0676
  614TMC3    C7 9157   1.545   2.145  16.006 -0.1509  0.4394 -0.7129
  614TMC3    C8 9158   1.775   1.739  15.885  0.1921 -0.9982 -0.6014
  614TMC3    O1 9159   1.560   2.237  16.083 -0.4284 -0.2853 -0.4769
  614TMC3    O2 9160   1.682   1.681  15.939  0.1779 -0.4761 -0.4348
  615MPD2     C 9161   1.096   2.925  15.523 -0.2951 -0.0656 -0.4279
  615MPD2    C1 9162   1.011   2.998  15.610 -0.2275 -0.5764  0.0912
  615MPD2    C2 9163   0.891   3.048  15.571 -0.8504 -0.8684  0.4406
  615MPD2    C3 9164   0.854   3.036  15.440  0.0244 -0.1450 -0.0212
  615MPD2    C4 9165   0.934   2.963  15.355 -0.6247  0.5418  1.4273
  615MPD2    C5 9166   1.052   2.908  15.399  0.2834  0.0257  0.5367
  615MPD2     H 9167   0.833   3.119  15.630 -0.7178  0.1032 -0.5854
  615MPD2    H1 9168   0.903   2.963  15.251  2.0202 -1.1658  0.6541
  615MPD2    H2 9169   1.188   2.872  15.545  0.5437  0.8405 -1.7761
  615MPD2    H3 9170   1.110   2.846  15.330  0.1201 -0.4104  0.7892
  615MPD2     N 9171   0.735   3.094  15.381 -0.3143  0.5361  0.1852
  615MPD2    H5 9172   0.716   3.081  15.282  1.5046 -2.1375  0.1833
  615MPD2    N1 9173   1.051   3.038  15.741 -0.1549 -0.1250 -0.1456
  615MPD2    H7 9174   0.990   3.105  15.787  0.6194 -2.2278  3.9257
  616TMC3    C1 9175   1.199   3.104  15.919  0.2911  0.4963  0.3679
  616TMC3    C2 9176   1.321   3.164  15.921 -0.1825 -0.1464 -0.7673
  616TMC3    C3 9177   1.349   3.254  16.027  0.0276  0.0274 -0.4905
  616TMC3    C4 9178   1.095   3.133  16.004 -0.5463  0.5452 -0.6064
  616TMC3    C5 9179   1.131   3.215  16.111 -0.2907  0.6096  0.3932
  616TMC3    C6 9180   1.255   3.278  16.126  0.9530  0.1957 -0.4049
  616TMC3     C 9181   1.177   3.020  15.797  0.1058  0.3075 -0.4905
  616TMC3     O 9182   1.273   2.963  15.752  0.1351  0.3581 -0.0536
  616TMC3     H 9183   1.397   3.152  15.845  1.8288  2.2567  0.8969
  616TMC3    H1 9184   1.001   3.080  16.008 -1.1501  1.5973 -0.7839
  616TMC3    H2 9185   1.264   3.352  16.205 -1.1336  0.9135 -0.8525
  616TMC3    C7 9186   1.030   3.267  16.198 -0.4554 -0.2220 -0.6039
  616TMC3    C8 9187   1.480   3.309  16.043  0.6598  0.5415 -0.0427
  616TMC3    O1 9188   1.058   3.292  16.316 -0.0704  0.3198 -0.3153
  616TMC3    O2 9189   1.494   3.424  16.092  0.0263  0.1340  0.6283
  617MPD2     C 9190   3.607   1.292  13.341  0.0549 -0.6501  0.1818
  617MPD2    C1 9191   3.660   1.301  13.467 -0.8617 -0.5128  0.6865
  617MPD2    C2 9192   3.583   1.315  13.581  0.4363 -0.5104 -0.5261
  617MPD2    C3 9193   3.445   1.334  13.561 -0.2558  0.0976  0.0457
  617MPD2    C4 9194   3.389   1.329  13.435  0.6043  0.2439  0.2149
  617MPD2    C5 9195   3.472   1.306  13.328  0.4646 -0.2722  0.1527
  617MPD2     H 9196   3.626   1.323  13.681 -1.9024  0.7448  0.3677
  617MPD2    H1 9197   3.282   1.325  13.417  0.7705 -0.6937 -0.5783
  617MPD2    H2 9198   3.659   1.273  13.248 -2.0852  0.4582 -1.2662
  617MPD2    H3 9199   3.438   1.295  13.226 -0.6512  0.0425  0.4901
  617MPD2     N 9200   3.343   1.346  13.659  0.5021 -0.0406  0.1520
  617MPD2    H5 9201   3.253   1.376  13.623  0.1282 -1.5365 -0.1826
  617MPD2    N1 9202   3.799   1.278  13.472 -0.0132 -0.1851  0.7001
  617MPD2    H7 9203   3.847   1.270  13.383 -0.8265 -1.3852  0.3759
  618TMC3    C1 9204   4.024   1.281  13.552 -1.1312 -0.8508  0.6462
  618TMC3    C2 9205   4.114   1.225  13.641 -0.4915  0.4206 -0.2337
  618TMC3    C3 9206   4.230   1.159  13.593 -0.3566  0.5635  0.2876
  618TMC3    C4 9207   4.058   1.295  13.425 -0.1012  0.6287  0.5862
  618TMC3    C5 9208   4.173   1.239  13.383 -0.5983  0.6080  0.4596
  618TMC3    C6 9209   4.258   1.165  13.458  0.0215 -0.2432 -0.3085
  618TMC3     C 9210   3.879   1.262  13.583 -0.0648 -0.0093 -0.3363
  618TMC3     O 9211   3.849   1.235  13.699  0.3316 -0.2627  0.0975
  618TMC3     H 9212   4.078   1.207  13.742  1.9086 -2.0582  0.1778
  618TMC3    H1 9213   3.992   1.349  13.358 -2.5931 -1.9823  0.9144
  618TMC3    H2 9214   4.347   1.116  13.417  0.8862  1.5373 -0.5608
  618TMC3    C7 9215   4.151   1.189  13.249  0.8178 -0.8055 -0.0333
  618TMC3    C8 9216   4.290   1.062  13.680 -0.0640 -0.1528 -0.1414
  618TMC3    O1 9217   4.037   1.211  13.204 -0.3640  0.1492  0.3395
  618TMC3    O2 9218   4.225   1.027  13.781  0.9712 -0.7787 -0.4729
  619MPD2     C 9219   0.310   2.348  13.625 -0.8965  0.0889  0.3795
  619MPD2    C1 9220   0.244   2.379  13.506  0.4770 -0.2202 -0.1895
  619MPD2    C2 9221   0.107   2.358  13.500 -0.7984  0.0524  0.1526
  619MPD2    C3 9222   0.033   2.323  13.609 -0.2774 -0.3724  0.1067
  619MPD2    C4 9223   0.098   2.316  13.728 -0.0974  0.3117 -0.2256
  619MPD2    C5 9224   0.233   2.319  13.735  0.4878 -0.3274  0.6274
  619MPD2     H 9225   0.056   2.373  13.406  0.8769 -1.3951 -0.9862
  619MPD2    H1 9226   0.047   2.285  13.819  0.9721 -0.7637  0.0241
  619MPD2    H2 9227   0.415   2.322  13.633 -1.7555 -2.5733  2.9212
  619MPD2    H3 9228   0.283   2.301  13.830  0.4108  0.5139  0.8265
  619MPD2     N 9229   4.626   2.307  13.609  0.4892  0.0938 -0.2666
  619MPD2    H5 9230   4.579   2.319  13.698  3.5208 -0.3928  1.3935
  619MPD2    N1 9231   0.311   2.416  13.389 -0.0630  0.4099  0.5719
  619MPD2    H7 9232   0.259   2.443  13.306 -2.4539 -0.6042  1.7080
  620TMC3    C1 9233   0.472   2.494  13.248  0.1375  0.0515 -0.1944
  620TMC3    C2 9234   0.379   2.493  13.151 -0.3437  0.0921  0.1538
  620TMC3    C3 9235   0.358   2.603  13.079 -0.4942  0.6816  0.3653
  620TMC3    C4 9236   0.539   2.607  13.275 -1.0390 -0.0688  0.3535
  620TMC3    C5 9237   0.518   2.716  13.199 -0.5461  0.0226 -0.3359
  620TMC3    C6 9238   0.435   2.716  13.092  0.1233  0.1622  0.6810
  620TMC3     C 9239   0.448   2.432  13.377 -0.0239 -0.4064  0.0512
  620TMC3     O 9240   0.543   2.407  13.453  0.2427  0.1175 -0.3989
  620TMC3     H 9241   0.336   2.400  13.114 -0.2735  0.0557  0.1642
  620TMC3    H1 9242   0.609   2.619  13.357 -0.9593 -0.8521  0.3980
  620TMC3    H2 9243   0.404   2.803  13.036  1.7462  1.1999  1.3846
  620TMC3    C7 9244   0.506   2.843  13.273  0.3817 -0.6948  0.2764
  620TMC3    C8 9245   0.221   2.647  13.061 -0.0981 -0.2557 -0.5897
  620TMC3    O1 9246   0.603   2.888  13.331 -0.0332  0.6560 -0.0472
  620TMC3    O2 9247   0.195   2.759  13.107 -0.2808 -0.9553 -0.3162
  621MPD2     C 9248   4.225   3.346  10.123  0.1771  0.2699  0.6570
  621MPD2    C1 9249   4.276   3.300  10.008  0.9314 -0.7738 -0.3291
  621MPD2    C2 9250   4.330   3.392   9.918 -0.1142  0.3044  0.5567
  621MPD2    C3 9251   4.347   3.521   9.945  0.1072 -0.3309 -0.0054
  621MPD2    C4 9252   4.308   3.569  10.070  0.1863  0.2338  0.2146
  621MPD2    C5 9253   4.247   3.484  10.159  0.2060  0.5800 -1.0281
  621MPD2     H 9254   4.368   3.352   9.825 -3.8221  0.1889 -0.9126
  621MPD2    H1 9255   4.321   3.671  10.103 -1.3087  0.0997  1.2425
  621MPD2    H2 9256   4.190   3.280  10.203  3.1326 -1.8266  0.2176
  621MPD2    H3 9257   4.210   3.515  10.256  0.1664  1.0340 -1.1862
  621MPD2     N 9258   4.415   3.592   9.849 -0.1117  0.4941  0.3311
  621MPD2    H5 9259   4.458   3.539   9.774 -0.2312  1.2724 -0.2873
  621MPD2    N1 9260   4.283   3.169   9.960  0.8451 -0.0086 -0.1034
  621MPD2    H7 9261   4.336   3.146   9.877 -1.3798 -2.3622 -0.8346
  622TMC3    C1 9262   4.261   2.929   9.985  0.1382  0.0957 -0.3952
  622TMC3    C2 9263   4.189   2.820  10.025  0.4043  0.1976  0.0049
  622TMC3    C3 9264   4.205   2.698   9.978  0.1737 -0.0047  0.5901
  622TMC3    C4 9265   4.352   2.908   9.886  0.3307  0.6434 -0.5297
  622TMC3    C5 9266   4.360   2.777   9.834 -0.3353  0.0978  0.1165
  622TMC3    C6 9267   4.290   2.673   9.874 -0.3296 -0.1235 -0.1075
  622TMC3     C 9268   4.230   3.063  10.036  0.0032 -0.6250 -0.1774
  622TMC3     O 9269   4.165   3.063  10.139  0.4948  0.3196 -0.1861
  622TMC3     H 9270   4.103   2.845  10.085  0.7502 -3.6563  2.0677
  622TMC3    H1 9271   4.428   2.984   9.869 -1.6236  2.6265 -0.3153
  622TMC3    H2 9272   4.297   2.581   9.817 -0.3572 -0.3447  0.2489
  622TMC3    C7 9273   4.465   2.749   9.741 -0.1642  0.4058 -0.2548
  622TMC3    C8 9274   4.126   2.586  10.024 -0.8347 -0.7895  0.3123
  622TMC3    O1 9275   4.520   2.643   9.753  0.0458  0.2166  0.0646
  622TMC3    O2 9276   4.105   2.488   9.956  0.4245 -0.5304  0.2509
  623MPD2     C 9277   4.360   3.204  15.595  0.1182  0.0455  0.0062
  623MPD2    C1 9278   4.268   3.242  15.695  0.0075  0.4727 -0.7231
  623MPD2    C2 9279   4.306   3.278  15.819  0.2703  0.2800  1.2301
  623MPD2    C3 9280   4.438   3.275  15.854 -0.7803  0.2711 -0.1465
  623MPD2    C4 9281   4.527   3.224  15.756 -0.0781 -0.0321 -0.2500
  623MPD2    C5 9282   4.488   3.195  15.629 -0.6113 -0.0502 -0.6795
  623MPD2     H 9283   4.231   3.294  15.895 -2.5851 -1.2349 -1.2942
  623MPD2    H1 9284   4.631   3.199  15.772  0.3463  1.0225 -1.3316
  623MPD2    H2 9285   4.324   3.170  15.498  0.8307 -1.4385  0.2658
  623MPD2    H3 9286   4.562   3.161  15.558 -0.5077  0.2228 -0.7043
  623MPD2     N 9287   4.470   3.316  15.984 -0.2267  0.0933 -0.1102
  623MPD2    H5 9288   4.392   3.337  16.046  0.5067  0.6849  0.6094
  623MPD2    N1 9289   4.124   3.247  15.674 -0.8692 -0.4401  0.3374
  623MPD2    H7 9290   4.073   3.282  15.755  0.4536  2.5873 -0.1422
  624TMC3    C1 9291   4.737   3.325  16.358 -0.6208  0.0394  0.5013
  624TMC3    C2 9292   4.622   3.316  16.441 -0.4313  0.4740  0.1213
  624TMC3    C3 9293   4.500   3.343  16.380 -0.1132 -0.8009  0.4046
  624TMC3    C4 9294   4.722   3.356  16.226  0.0714  0.1729 -0.2943
  624TMC3    C5 9295   4.601   3.370  16.171  0.5846 -0.1308 -0.2371
  624TMC3    C6 9296   4.488   3.368  16.248  0.0321 -0.3036 -0.2864
  624TMC3     C 9297   0.125   3.279  16.411  0.3837 -0.1951  0.0651
  624TMC3     O 9298   0.219   3.343  16.372  0.2805 -0.3800 -0.4827
  624TMC3     H 9299   4.620   3.292  16.547  0.5662  2.0049  0.4985
  624TMC3    H1 9300   0.076   3.367  16.170 -0.5219 -0.2321 -1.3586
  624TMC3    H2 9301   4.395   3.402  16.205  0.4228  1.7475  0.5042
  624TMC3    C7 9302   4.595   3.352  16.030  0.6860 -0.4092  0.8492
  624TMC3    C8 9303   4.376   3.285  16.430  0.9570  0.3402 -0.2338
  624TMC3    O1 9304   4.698   3.364  15.964  0.0916  0.0662 -0.3079
  624TMC3    O2 9305   4.269   3.317  16.381  0.0979 -0.2685 -0.0078
  625MPD2     C 9306   0.012   4.231   0.393  0.4618 -0.1681 -0.3059
  625MPD2    C1 9307   0.032   4.360   0.347 -0.1358  0.1369  0.4839
  625MPD2    C2 9308   0.156   4.402   0.332 -0.1843  0.6639  0.2136
  625MPD2    C3 9309   0.261   4.327   0.383 -0.0118  0.3021  0.3190
  625MPD2    C4 9310   0.235   4.209   0.440  0.3627  0.4832 -0.3314
  625MPD2    C5 9311   0.110   4.157   0.445 -0.2592  0.0532  0.2486
  625MPD2     H 9312   0.172   4.495   0.278  0.7378  0.0012 -0.6609
  625MPD2    H1 9313   0.312   4.144   0.480 -1.5350 -1.1582  0.6867
  625MPD2    H2 9314   4.649   4.192   0.405  1.1859 -1.1552  2.3954
  625MPD2    H3 9315   0.089   4.063   0.495  0.7244  0.0108  0.5904
  625MPD2     N 9316   0.386   4.387   0.377  0.4761 -0.0217 -0.4427
  625MPD2    H5 9317   0.396   4.482   0.341  2.2357  0.4940  1.4322
  625MPD2    N1 9318   4.664   4.442   0.311  0.7633 -0.3152  0.1983
  625MPD2    H7 9319   4.687   4.529   0.265  0.4443 -1.6052 -2.4090
  626TMC3    C1 9320   4.459   4.543   0.316 -0.2856  0.0878  0.1381
  626TMC3    C2 9321   4.458   4.603   0.191 -0.0876 -0.6773  0.1792
  626TMC3    C3 9322   4.390   4.723   0.173  0.0238  0.2824  0.8399
  626TMC3    C4 9323   4.379   4.592   0.417  0.3378  0.3594 -0.6214
  626TMC3    C5 9324   4.329   4.720   0.402 -0.1545 -0.6172  0.1322
  626TMC3    C6 9325   4.334   0.046   0.279  0.4210 -0.1428 -0.1484
  626TMC3     C 9326   4.532   4.426   0.346 -0.0956 -0.3012  0.8541
  626TMC3     O 9327   4.475   4.355   0.427  0.3437  0.2311 -0.2391
  626TMC3     H 9328   4.518   4.560   0.112 -0.0328 -1.3255  0.5729
  626TMC3    H1 9329   4.369   4.533   0.507  3.0726  1.6795  0.5448
  626TMC3    H2 9330   4.302   0.149   0.265 -1.4965 -1.0192 -2.1248
  626TMC3    C7 9331   4.272   0.038   0.516 -0.0370  0.2346 -0.3428
  626TMC3    C8 9332   4.413   0.057   0.049 -0.0451  0.1146 -0.2253
  626TMC3    O1 9333   4.324   0.021   0.624  0.1494  0.6132 -0.1301
  626TMC3    O2 9334   4.427   4.736  17.697  0.2719  0.1755  0.0817
  627MPD2     C 9335   2.753   0.248  14.274 -0.4054  0.3727 -0.2342
  627MPD2    C1 9336   2.836   0.171  14.356  0.6018  0.2988  0.3619
  627MPD2    C2 9337   2.808   0.036  14.365  0.3539  0.1503  0.6077
  627MPD2    C3 9338   2.717   4.711  14.283  0.0495 -0.1414  0.8533
  627MPD2    C4 9339   2.636   0.052  14.208  0.3517  0.1331 -0.0172
  627MPD2    C5 9340   2.649   0.185  14.209 -0.4027 -0.3362 -0.6979
  627MPD2     H 9341   2.874   4.713  14.426 -0.9783 -2.9385 -1.0884
  627MPD2    H1 9342   2.559   0.006  14.147  0.1782  0.3131  0.0660
  627MPD2    H2 9343   2.759   0.356  14.274 -0.2275  0.3600  1.4330
  627MPD2    H3 9344   2.583   0.248  14.150 -0.6943  0.4507  0.4613
  627MPD2     N 9345   2.708   4.571  14.285 -0.0632 -0.0166  0.6949
  627MPD2    H5 9346   2.760   4.531  14.362 -1.0169 -1.3338  0.6433
  627MPD2    N1 9347   2.943   0.217  14.436 -0.0151 -0.3009  0.3998
  627MPD2    H7 9348   2.979   0.154  14.507  0.6458 -1.8533 -1.3136
  628TMC3    C1 9349   3.116   0.361  14.511  0.0944  0.0157 -0.4632
  628TMC3    C2 9350   3.194   0.261  14.561  0.4273  0.4004  0.3700
  628TMC3    C3 9351   3.328   0.283  14.582  0.1630  0.3647 -0.2332
  628TMC3    C4 9352   3.171   0.493  14.499  0.1820 -0.7199 -0.9812
  628TMC3    C5 9353   3.306   0.511  14.527 -0.0652 -0.5703  0.0418
  628TMC3    C6 9354   3.383   0.410  14.584  0.3565  0.0311 -0.7047
  628TMC3     C 9355   2.995   0.340  14.429 -0.1381  0.4480 -0.1836
  628TMC3     O 9356   2.965   0.430  14.354  0.0684 -0.8811  0.1816
  628TMC3     H 9357   3.169   0.155  14.553  0.8415  0.1355  2.7684
  628TMC3    H1 9358   3.106   0.573  14.464  0.5520 -0.1033 -0.2706
  628TMC3    H2 9359   3.488   0.415  14.556  0.7882 -4.6238  0.1511
  628TMC3    C7 9360   3.367   0.645  14.536  0.7306 -0.1700 -0.1472
  628TMC3    C8 9361   3.423   0.181  14.530  0.8326 -0.6222  0.1643
  628TMC3    O1 9362   3.461   0.659  14.609 -0.9446 -0.1375  0.8351
  628TMC3    O2 9363   3.380   0.109  14.439 -0.2553 -0.3908  0.0422
  629MPD2     C 9364   1.972   3.164  16.062  0.6929  0.1859  0.3081
  629MPD2    C1 9365   1.920   3.289  16.075 -0.0244  0.2777  0.1475
  629MPD2    C2 9366   1.782   3.306  16.067 -0.4349 -0.4160 -0.0786
  629MPD2    C3 9367   1.702   3.194  16.050 -0.1643 -0.3395  0.2773
  629MPD2    C4 9368   1.757   3.062  16.041 -0.1321 -0.5949 -0.0382
  629MPD2    C5 9369   1.893   3.050  16.045 -0.3544 -0.4930 -0.0302
  629MPD2     H 9370   1.738   3.402  16.094  0.2910 -0.0747 -0.1067
  629MPD2    H1 9371   1.693   2.975  16.026 -1.5179  0.6633 -1.4000
  629MPD2    H2 9372   2.077   3.137  16.054  0.8917  1.0250  0.0567
  629MPD2    H3 9373   1.940   2.959  16.010  1.2352  1.2495 -2.4154
  629MPD2     N 9374   1.564   3.199  16.021  0.6537 -0.5649  0.5368
  629MPD2    H5 9375   1.522   3.111  15.994  3.0052 -1.7574  0.8060
  629MPD2    N1 9376   2.000   3.401  16.109  0.5509  0.0526 -0.0031
  629MPD2    H7 9377   1.953   3.490  16.121  1.0953  0.0049  2.5000
  630TMC3    C1 9378   2.188   3.522  16.175  0.3459  0.7280  0.1372
  630TMC3    C2 9379   2.226   3.618  16.081  0.7740  0.3567  0.4613
  630TMC3    C3 9380   2.262   3.733  16.140 -0.3777 -0.4676 -0.1955
  630TMC3    C4 9381   2.165   3.540  16.308 -0.2563  0.3492  0.8212
  630TMC3    C5 9382   2.202   3.659  16.362 -1.0144 -0.3111  0.6985
  630TMC3    C6 9383   2.262   3.761  16.280  0.2410 -0.2221 -0.4934
  630TMC3     C 9384   2.139   3.390  16.128 -0.3811  0.0226  0.1925
  630TMC3     O 9385   2.206   3.292  16.166  0.4885  0.3570 -0.4572
  630TMC3     H 9386   2.234   3.589  15.977  0.4747 -0.7716  0.7534
  630TMC3    H1 9387   2.160   3.447  16.363  1.5540 -0.7412 -0.9197
  630TMC3    H2 9388   2.278   3.862  16.314 -1.5706 -0.2837  0.4866
  630TMC3    C7 9389   2.233   3.663  16.497  0.1588 -0.0875 -1.0014
  630TMC3    C8 9390   2.308   3.836  16.051 -0.1460 -0.4213  0.6434
  630TMC3    O1 9391   2.202   3.564  16.561 -0.3769 -0.0393  0.2357
  630TMC3    O2 9392   2.374   3.927  16.098 -0.6049  0.0884 -0.2478
  631MPD2     C 9393   4.691   3.689  15.624 -0.7054  0.2968  0.1937
  631MPD2    C1 9394   4.713   3.706  15.492  0.3000  0.3254 -0.2839
  631MPD2    C2 9395   0.024   3.601  15.413 -0.0796 -0.3038  0.8507
  631MPD2    C3 9396   0.049   3.476  15.476  0.5945  0.5677  0.1839
  631MPD2    C4 9397   0.014   3.457  15.608  0.6435 -0.3783  0.4445
  631MPD2    C5 9398   4.699   3.560  15.681 -0.3983  0.0870  0.2159
  631MPD2     H 9399   0.065   3.620  15.314  0.8938 -5.4055  0.2487
  631MPD2    H1 9400   0.017   3.357  15.650  0.0964  0.3974  2.3253
  631MPD2    H2 9401   4.661   3.760  15.700 -0.5064 -0.7575  1.2565
  631MPD2    H3 9402   4.668   3.549  15.785  2.5798  1.4846  1.2413
  631MPD2     N 9403   0.120   3.380  15.399 -0.6732 -0.1133 -0.0325
  631MPD2    H5 9404   0.138   3.414  15.305  0.0389 -0.2937  0.0389
  631MPD2    N1 9405   4.694   3.838  15.438 -0.8430 -0.6039 -0.0522
  631MPD2    H7 9406   4.670   3.905  15.510  0.6816 -2.1672  1.8797
  632TMC3    C1 9407   4.662   4.024  15.291 -0.3247 -0.1087  0.4822
  632TMC3    C2 9408   4.589   4.093  15.382  0.3276  0.4203 -0.3513
  632TMC3    C3 9409   4.543   4.217  15.339  0.1990  0.0851 -0.0179
  632TMC3    C4 9410   4.684   4.067  15.160 -0.7348  0.1867 -0.1718
  632TMC3    C5 9411   4.633   4.183  15.124 -0.4626 -0.3014  0.2110
  632TMC3    C6 9412   4.558   4.258  15.211  0.4353 -0.2559 -0.3155
  632TMC3     C 9413   4.689   3.883  15.308 -0.0928  0.0599 -0.5288
  632TMC3     O 9414   4.716   3.815  15.207  0.3395 -0.2446 -0.1825
  632TMC3     H 9415   4.564   4.058  15.481 -0.0653  1.5083 -0.0662
  632TMC3    H1 9416   4.725   4.011  15.076  1.2760  1.2835  0.0673
  632TMC3    H2 9417   4.517   4.353  15.176  1.1124 -0.1090 -0.7206
  632TMC3    C7 9418   4.694   4.235  15.002 -0.3193 -0.4299  0.8331
  632TMC3    C8 9419   4.481   4.299  15.439 -0.1519 -0.5170 -0.8636
  632TMC3    O1 9420   4.624   4.264  14.904  0.3338 -0.0663 -0.2392
  632TMC3    O2 9421   4.530   4.306  15.553 -0.4417  0.4263  0.5001
  633MPD2     C 9422   4.675   1.740  17.436 -0.5370  0.4083 -0.1499
  633MPD2    C1 9423   4.663   1.684  17.309 -0.2507 -0.3045  0.7201
  633MPD2    C2 9424   4.628   1.550  17.293 -0.3797 -0.1098  0.5365
  633MPD2    C3 9425   4.583   1.479  17.405  0.1323  0.4341 -0.2292
  633MPD2    C4 9426   4.598   1.540  17.527  0.0080 -0.1294 -0.7008
  633MPD2    C5 9427   4.649   1.665  17.543  0.5588 -0.4882 -0.2733
  633MPD2     H 9428   4.622   1.506  17.194  2.9216  1.5305 -0.3748
  633MPD2    H1 9429   4.560   1.491  17.616  1.4400  1.4074  0.7514
  633MPD2    H2 9430   4.703   1.845  17.439 -0.0954  0.2596  0.9599
  633MPD2    H3 9431   4.663   1.713  17.640 -1.6401 -1.8060  0.7066
  633MPD2     N 9432   4.533   1.348  17.403 -0.6647  0.1564 -0.3230
  633MPD2    H5 9433   4.517   1.311  17.496 -1.0945  0.1830 -0.3874
  633MPD2    N1 9434   4.682   1.761  17.190 -0.3249 -0.0524 -0.4726
  633MPD2    H7 9435   4.669   1.708  17.104 -1.7016  2.6760 -1.9704
  634TMC3    C1 9436   4.702   1.951  17.056  0.2358  0.2719  0.2038
  634TMC3    C2 9437   4.734   1.865  16.955  0.0030  0.1041 -0.0094
  634TMC3    C3 9438   4.705   1.889  16.821 -0.5398 -0.8125  0.3285
  634TMC3    C4 9439   4.636   2.069  17.015 -0.2569  0.4056  0.2092
  634TMC3    C5 9440   4.630   2.094  16.876  0.3614 -0.4623 -0.2541
  634TMC3    C6 9441   4.664   2.002  16.777 -0.2592  1.2025 -0.1138
  634TMC3     C 9442   4.672   1.901  17.187 -0.6915 -0.3226  0.1250
  634TMC3     O 9443   4.650   1.975  17.274 -0.0571  0.5895  0.6559
  634TMC3     H 9444   0.056   1.780  16.984 -0.5336 -1.9876 -4.9263
  634TMC3    H1 9445   4.601   2.140  17.089  2.6164 -0.3481  2.2943
  634TMC3    H2 9446   4.654   2.022  16.671  1.3473  0.3330 -0.4356
  634TMC3    C7 9447   4.559   2.205  16.827  0.9439 -0.0276  0.0780
  634TMC3    C8 9448   4.726   1.777  16.733 -0.3030  0.1392 -0.0475
  634TMC3    O1 9449   4.588   2.240  16.716 -0.3118 -0.1660 -0.4143
  634TMC3    O2 9450   0.006   1.673  16.794 -0.4860 -0.6315  0.4041
  635TMC3    C1 9451   4.657   2.256   0.295  0.3240  0.1480  0.2490
  635TMC3    C2 9452   4.612   2.125   0.308 -0.0390  0.0810  0.1325
  635TMC3    C3 9453   4.546   2.095   0.430 -0.2770  0.2710  0.6775
  635TMC3    C4 9454   4.639   2.350   0.390  0.0998  0.9864  0.3104
  635TMC3    C5 9455   4.561   2.314   0.501  1.6508  0.2438  0.1062
  635TMC3    C6 9456   4.511   2.188   0.523 -0.1032 -0.6356 -0.1112
  635TMC3     C 9457   4.717   2.297   0.171 -0.3210  0.0684  0.0545
  635TMC3     O 9458   4.689   2.230   0.073 -0.0510  0.0370 -0.0529
  635TMC3     H 9459   4.649   2.048   0.241  0.8129 -0.5375  1.3224
  635TMC3    H1 9460   4.658   2.455   0.374  1.9623  0.8006  1.3390
  635TMC3    H2 9461   4.456   2.160   0.612 -0.3487 -1.9369 -0.6767
  635TMC3    C7 9462   4.552   2.406   0.615 -0.7780  0.5409  0.2294
  635TMC3    C8 9463   4.517   1.955   0.446  0.0036  0.7427 -0.0874
  635TMC3    O1 9464   4.461   2.382   0.694 -0.3500  0.0648 -0.7038
  635TMC3    O2 9465   4.587   1.875   0.394 -0.3287 -0.7494  0.2017
  636MPD2     C 9466   1.097   1.991  16.146  0.0972  0.0631 -0.5034
  636MPD2    C1 9467   1.205   2.037  16.217 -0.6338 -0.0057 -0.4085
  636MPD2    C2 9468   1.313   1.956  16.242 -0.0101 -0.1599  0.0109
  636MPD2    C3 9469   1.316   1.821  16.194  0.3468 -0.2611 -0.4993
  636MPD2    C4 9470   1.218   1.778  16.108 -0.1320  0.8611 -0.7379
  636MPD2    C5 9471   1.106   1.861  16.091 -0.1371 -0.3250  0.1200
  636MPD2     H 9472   1.391   1.990  16.310  0.5615 -0.9420 -0.2528
  636MPD2    H1 9473   1.216   1.682  16.058 -0.0970 -0.0281  0.9675
  636MPD2    H2 9474   0.998   2.036  16.141 -0.2075 -0.4408  0.9561
  636MPD2    H3 9475   1.024   1.820  16.032 -1.2302  2.1904 -0.0969
  636MPD2     N 9476   1.436   1.748  16.224  0.0198  0.0032 -0.0788
  636MPD2    H5 9477   1.482   1.776  16.310 -0.7097  0.8946  0.0233
  636MPD2    N1 9478   1.212   2.166  16.275 -0.0304  0.5753  0.2713
  636MPD2    H7 9479   1.290   2.198  16.332  1.5593 -1.8624 -0.5365
  637TMC3    C1 9480   1.582   1.573  16.235 -0.7128  0.3759 -0.1516
  637TMC3    C2 9481   1.678   1.659  16.279  0.1291  0.0838  0.2222
  637TMC3    C3 9482   1.806   1.611  16.307 -0.2994  0.0998 -0.6395
  637TMC3    C4 9483   1.617   1.442  16.198 -0.5371  0.2905 -0.2514
  637TMC3    C5 9484   1.748   1.409  16.209 -0.0429 -0.4125  0.2424
  637TMC3    C6 9485   1.840   1.488  16.269 -0.0492  0.6442 -0.3791
  637TMC3     C 9486   1.464   1.627  16.172  1.2693  0.9912 -0.0347
  637TMC3     O 9487   1.414   1.565  16.085 -0.1800  0.3239 -0.7259
  637TMC3     H 9488   1.652   1.759  16.310 -1.1605 -0.0938 -0.3228
  637TMC3    H1 9489   1.556   1.369  16.146  2.2872 -1.5849 -0.9147
  637TMC3    H2 9490   1.942   1.450  16.276  0.1535  0.7990 -2.3595
  637TMC3    C7 9491   1.780   1.276  16.158  0.1751  0.1854 -0.7967
  637TMC3    C8 9492   1.897   1.713  16.274  0.2805 -0.3837  0.2928
  637TMC3    O1 9493   1.703   1.186  16.188 -0.4738  0.1511  0.0310
  637TMC3    O2 9494   1.856   1.825  16.302  0.6178 -0.5654 -0.1808
  638MPD2     C 9495   0.816   0.650  14.479 -0.1820  0.0597  0.0914
  638MPD2    C1 9496   0.773   0.527  14.436  0.3500 -0.0045 -0.4787
  638MPD2    C2 9497   0.710   0.449  14.528  0.1221  0.6000 -0.0383
  638MPD2    C3 9498   0.707   0.491  14.661 -0.0989 -0.0885 -0.5022
  638MPD2    C4 9499   0.742   0.621  14.701 -0.2173  0.3279  0.0206
  638MPD2    C5 9500   0.791   0.702  14.604 -0.1235 -0.1096 -0.1684
  638MPD2     H 9501   0.673   0.349  14.505  0.0508  1.1298 -2.2561
  638MPD2    H1 9502   0.704   0.656  14.796  1.4094 -4.0939  2.2777
  638MPD2    H2 9503   0.847   0.727  14.410  2.0828 -0.8686  0.0684
  638MPD2    H3 9504   0.805   0.807  14.626 -2.0868  0.0761  0.2518
  638MPD2     N 9505   0.652   0.403  14.755 -0.6406 -0.4966  0.5345
  638MPD2    H5 9506   0.603   0.325  14.713 -2.1275 -0.0761  1.4763
  638MPD2    N1 9507   0.812   0.479  14.305 -0.2904  0.1971  0.5381
  638MPD2    H7 9508   0.865   0.540  14.244 -0.4475 -1.1161 -0.8958
  639TMC3    C1 9509   0.656   0.274  14.955  0.2006 -0.3646  0.2517
  639TMC3    C2 9510   0.566   0.188  14.895 -0.2156 -0.4703 -0.3138
  639TMC3    C3 9511   0.574   0.054  14.910  0.2335 -0.1713  0.1165
  639TMC3    C4 9512   0.765   0.222  15.022  0.0414  0.0862 -0.2631
  639TMC3    C5 9513   0.776   0.084  15.024 -0.6030 -0.1253  0.2761
  639TMC3    C6 9514   0.681   0.000  14.972  0.5225  0.5774  0.9082
  639TMC3     C 9515   0.686   0.404  14.888  0.4437  0.1586  0.6342
  639TMC3     O 9516   0.759   0.483  14.948 -0.2246  0.0722 -0.1765
  639TMC3     H 9517   0.487   0.228  14.833 -0.9062 -2.8528 -0.9607
  639TMC3    H1 9518   0.850   0.281  15.052 -0.7800  1.7722 -1.2346
  639TMC3    H2 9519   0.674   4.631  14.984 -4.4322  1.2235  3.9892
  639TMC3    C7 9520   0.905   0.036  15.062  0.4180  0.6169  0.1040
  639TMC3    C8 9521   0.516   4.706  14.810 -0.3810 -0.3028  0.1297
  639TMC3    O1 9522   0.969   0.095  15.146 -0.4353  0.0907 -0.0512
  639TMC3    O2 9523   0.590   4.626  14.755 -0.0870 -0.4121 -0.2098
  640MPD2     C 9524   0.884   4.507   9.245  0.2999 -0.2349 -0.2487
  640MPD2    C1 9525   0.904   4.443   9.366  0.2973 -0.9024  0.0786
  640MPD2    C2 9526   0.863   4.505   9.487  0.0345  0.5434  0.7973
  640MPD2    C3 9527   0.815   4.634   9.475 -0.4452 -0.9418 -0.4101
  640MPD2    C4 9528   0.792   4.687   9.350  0.3569 -0.1963 -0.1332
  640MPD2    C5 9529   0.836   4.630   9.237 -0.1604 -0.4844 -0.0745
  640MPD2     H 9530   0.887   4.461   9.583  1.0511 -2.1155 -0.6641
  640MPD2    H1 9531   0.744   0.045   9.334 -0.0734 -0.5400 -0.9381
  640MPD2    H2 9532   0.906   4.458   9.151 -0.2224 -1.4925  0.2771
  640MPD2    H3 9533   0.817   4.671   9.139 -0.1663 -0.6276 -0.1328
  640MPD2     N 9534   0.775   4.699   9.594  0.4226  0.1436  0.3321
  640MPD2    H5 9535   0.746   0.057   9.575 -1.2077 -0.8126 -2.0758
  640MPD2    N1 9536   0.956   4.315   9.367 -0.2389 -0.0555 -0.2243
  640MPD2    H7 9537   0.984   4.281   9.276 -1.0045 -1.7877  0.1888
  641TMC3    C1 9538   1.043   4.113   9.422  0.4852  0.3341 -0.0419
  641TMC3    C2 9539   1.026   3.999   9.492 -0.6272  0.8202  0.2936
  641TMC3    C3 9540   1.113   3.894   9.479  0.2581  0.4949 -0.3243
  641TMC3    C4 9541   1.145   4.137   9.334 -0.0192  0.0892 -0.2315
  641TMC3    C5 9542   1.230   4.032   9.320 -0.1430  0.8655 -0.0016
  641TMC3    C6 9543   1.206   3.907   9.381  0.7894 -0.0884 -0.1014
  641TMC3     C 9544   0.962   4.227   9.467  0.1672 -0.0896 -0.5726
  641TMC3     O 9545   0.919   4.229   9.577 -0.3292 -0.4038  0.1343
  641TMC3     H 9546   0.951   3.993   9.569  0.5424  0.5334  1.4174
  641TMC3    H1 9547   1.173   4.233   9.290 -0.5771  0.3186 -0.0854
  641TMC3    H2 9548   1.275   3.824   9.381  1.2240  0.2745 -0.1123
  641TMC3    C7 9549   1.363   4.055   9.261  0.2641  0.0140 -0.4684
  641TMC3    C8 9550   1.051   3.764   9.481  0.5747 -0.4472  0.0875
  641TMC3    O1 9551   1.387   4.173   9.236  0.6500 -0.1319 -0.2322
  641TMC3    O2 9552   0.930   3.769   9.481  0.0244  0.1715 -0.0442
  642TMC3    C1 9553   1.818   0.585  12.576  0.7485 -0.7962 -0.1429
  642TMC3    C2 9554   1.951   0.607  12.611 -0.8579 -1.0383  0.0318
  642TMC3    C3 9555   2.030   0.504  12.622 -0.1672 -0.9045  0.5939
  642TMC3    C4 9556   1.775   0.461  12.547 -0.4636  0.4203  0.2826
  642TMC3    C5 9557   1.862   0.361  12.559 -0.7934 -0.1798  0.2400
  642TMC3    C6 9558   1.984   0.379  12.609  0.3841  0.1792  0.1855
  642TMC3     C 9559   1.723   0.703  12.582 -0.4698  0.0611  0.5656
  642TMC3     O 9560   1.774   0.803  12.627  0.0515 -0.5260  0.4794
  642TMC3     H 9561   1.989   0.701  12.649  1.5066 -1.2199 -1.9225
  642TMC3    H1 9562   1.678   0.454  12.500 -0.4886 -1.2196  0.5831
  642TMC3    H2 9563   2.047   0.293  12.628  0.7672 -0.1585 -2.6705
  642TMC3    C7 9564   1.824   0.230  12.536  0.2615  1.3060 -0.5504
  642TMC3    C8 9565   2.175   0.510  12.646 -0.4743  0.2687  0.2510
  642TMC3    O1 9566   1.914   0.148  12.521 -0.2496 -0.1282  0.1513
  642TMC3    O2 9567   2.233   0.418  12.699 -0.6915  0.5959  0.3772
  643TMC3    C1 9568   1.774   4.473  17.652 -0.1237 -0.2241  0.0428
  643TMC3    C2 9569   1.698   4.522  17.542  0.4061  0.7836  0.2907
  643TMC3    C3 9570   1.670   4.436  17.440  1.7030 -0.1292 -0.5742
  643TMC3    C4 9571   1.809   4.340  17.661  0.2811 -0.3969 -1.0924
  643TMC3    C5 9572   1.779   4.259  17.556 -0.2609  0.3856 -0.1086
  643TMC3    C6 9573   1.714   4.306  17.448 -0.3509  0.6057  0.3814
  643TMC3     C 9574   1.793   4.561   0.017  0.0003  0.2410  0.3907
  643TMC3     O 9575   1.779   4.681   0.003 -0.3570  0.0248 -0.2937
  643TMC3     H 9576   1.664   4.625  17.537 -0.0837  0.6660  1.2192
  643TMC3    H1 9577   1.877   4.298  17.734  0.6434 -1.9250 -2.3149
  643TMC3    H2 9578   1.711   4.246  17.358 -0.4140  1.3474 -0.1124
  643TMC3    C7 9579   1.820   4.118  17.553  0.3070 -0.2329  0.3491
  643TMC3    C8 9580   1.625   4.485  17.309 -0.6522 -0.0634 -1.0112
  643TMC3    O1 9581   1.729   4.036  17.554  0.6772  0.0627 -0.0302
  643TMC3    O2 9582   1.609   4.410  17.218  0.1938  0.4632 -0.3743
  644MPD2     C 9583   1.097   4.604   9.809 -0.1329 -0.2206 -0.3505
  644MPD2    C1 9584   1.158   4.563   9.694 -0.1013 -0.6011  0.5255
  644MPD2    C2 9585   1.151   4.645   9.581 -0.0138  0.5850  0.2333
  644MPD2    C3 9586   1.102   0.034   9.589 -0.1190  0.4843  0.1286
  644MPD2    C4 9587   1.061   0.079   9.710 -0.1248  0.5549  0.3090
  644MPD2    C5 9588   1.058   4.737   9.822  0.3795  0.8634 -0.6734
  644MPD2     H 9589   1.172   4.599   9.485  0.3846 -0.3818  0.7856
  644MPD2    H1 9590   1.026   0.180   9.727  0.9082  1.0684 -0.5960
  644MPD2    H2 9591   1.082   4.530   9.888 -0.3973 -0.6069 -0.7664
  644MPD2    H3 9592   1.013   0.037   9.913  1.0045  0.4096 -0.1697
  644MPD2     N 9593   1.092   0.113   9.478 -0.1062  0.3566  0.4699
  644MPD2    H5 9594   1.133   0.076   9.392 -1.5526 -3.7127  1.5141
  644MPD2    N1 9595   1.213   4.439   9.693  0.0913 -0.8364 -0.4041
  644MPD2    H7 9596   1.197   4.389   9.780  0.3528 -0.1817  0.0217
  645TMC3    C1 9597   1.027   0.290   9.337 -0.1085  0.1917 -0.5560
  645TMC3    C2 9598   1.142   0.278   9.267  0.0058 -0.4335  0.0120
  645TMC3    C3 9599   1.151   0.361   9.160  0.3859  0.0063 -0.6093
  645TMC3    C4 9600   0.916   0.365   9.305  0.2560  0.1859  0.8961
  645TMC3    C5 9601   0.926   0.438   9.187 -0.4704 -0.5503  0.2011
  645TMC3    C6 9602   1.047   0.441   9.122 -0.6522 -0.5794 -0.0115
  645TMC3     C 9603   1.012   0.225   9.467 -0.6732  1.1121 -0.6039
  645TMC3     O 9604   0.936   0.266   9.549  0.0677 -0.3556 -0.0407
  645TMC3     H 9605   1.226   0.219   9.301 -1.5704 -3.0029 -0.4741
  645TMC3    H1 9606   0.822   0.343   9.355 -0.9531  0.7797 -1.1146
  645TMC3    H2 9607   1.055   0.500   9.031 -0.6629  1.0017  1.0312
  645TMC3    C7 9608   0.806   0.504   9.135  0.2333 -1.0295 -0.0399
  645TMC3    C8 9609   1.274   0.348   9.082 -0.1254  0.9470 -0.3151
  645TMC3    O1 9610   0.700   0.444   9.162 -0.0326 -0.3063 -0.0966
  645TMC3    O2 9611   1.316   0.458   9.037 -0.0727 -0.2187 -0.5840
  646MPD2     C 9612   0.853   3.715  14.405  0.6912 -0.3923 -0.0855
  646MPD2    C1 9613   0.814   3.800  14.503  0.0295  0.2214 -0.5355
  646MPD2    C2 9614   0.707   3.884  14.474  0.6063  0.1828 -0.1888
  646MPD2    C3 9615   0.650   3.899  14.347 -0.4223  0.6190  0.3333
  646MPD2    C4 9616   0.692   3.805  14.253 -0.3166 -0.4059  0.5046
  646MPD2    C5 9617   0.782   3.711  14.286 -0.5462 -0.0765 -0.1730
  646MPD2     H 9618   0.670   3.951  14.551  1.8946  1.2124 -0.4581
  646MPD2    H1 9619   0.644   3.784  14.158 -0.6519  0.4242  0.4950
  646MPD2    H2 9620   0.927   3.637  14.421  0.6196 -0.5996 -0.7403
  646MPD2    H3 9621   0.798   3.639  14.206  0.5108  0.8580 -0.7920
  646MPD2     N 9622   0.549   3.999  14.319  0.0752 -0.2462  0.2399
  646MPD2    H5 9623   0.524   4.062  14.395 -1.6315  0.0230 -0.5365
  646MPD2    N1 9624   0.880   3.791  14.632  0.2991  0.5280  0.3563
  646MPD2    H7 9625   0.955   3.724  14.638 -0.2951 -0.2288 -0.6008
  647TMC3    C1 9626   0.908   3.793  14.870 -0.5944  0.1597 -0.3269
  647TMC3    C2 9627   0.836   3.779  14.984 -0.2530 -0.1989  1.5362
  647TMC3    C3 9628   0.889   3.697  15.079  0.4231 -0.2018  0.8429
  647TMC3    C4 9629   1.028   3.730  14.844  0.0635  0.7953  0.0081
  647TMC3    C5 9630   1.085   3.667  14.954  0.1451 -0.3651  0.3930
  647TMC3    C6 9631   1.020   3.662  15.074 -0.2644  0.8098 -0.9825
  647TMC3     C 9632   0.837   3.845  14.753  0.4681 -0.4016 -0.4501
  647TMC3     O 9633   0.731   3.909  14.767 -0.0627  0.4574 -0.0897
  647TMC3     H 9634   0.743   3.835  14.995 -0.8192 -0.8748  0.0624
  647TMC3    H1 9635   1.080   3.758  14.753  1.6774 -1.5678  0.1892
  647TMC3    H2 9636   1.070   3.623  15.161 -0.2575 -1.1618 -1.8557
  647TMC3    C7 9637   1.219   3.608  14.944  0.0540  0.2473 -0.1966
  647TMC3    C8 9638   0.815   3.574  15.085  0.0354  0.1320  0.6728
  647TMC3    O1 9639   1.255   3.551  15.043 -0.5459  0.1519 -0.1107
  647TMC3    O2 9640   0.700   3.585  15.043  0.9542  0.0540  0.2730
  648TMC3    C1 9641   0.341   1.791  16.206  0.5841 -0.9907 -0.4192
  648TMC3    C2 9642   0.440   1.710  16.147  0.0299  0.4625  0.2435
  648TMC3    C3 9643   0.450   1.706  16.006  0.2519  0.9291  0.5677
  648TMC3    C4 9644   0.260   1.872  16.125  0.1191 -0.3459 -0.1932
  648TMC3    C5 9645   0.269   1.864  15.992  0.4794  0.1131 -0.4106
  648TMC3    C6 9646   0.360   1.781  15.929 -0.7246  0.7393  0.8346
  648TMC3     C 9647   0.341   1.829  16.346 -0.5070  0.1823 -0.3009
  648TMC3     O 9648   0.321   1.947  16.364  0.1981  0.2223 -0.7117
  648TMC3     H 9649   0.514   1.661  16.208  1.1838 -0.2232 -1.7178
  648TMC3    H1 9650   0.174   1.923  16.167  1.2522  1.9195 -0.6068
  648TMC3    H2 9651   0.351   1.763  15.823 -3.6450  0.5533  1.1278
  648TMC3    C7 9652   0.141   1.880  15.931 -0.2867 -0.6811 -0.2714
  648TMC3    C8 9653   0.480   1.574  15.939 -0.4034  0.4308  0.2070
  648TMC3    O1 9654   0.107   1.792  15.851  0.0482  0.0442  0.0314
  648TMC3    O2 9655   0.458   1.558  15.824 -0.3575  0.2791 -0.1233
  649TMC3    C1 9656   3.573   2.887  12.484 -0.6473  0.6621  0.4431
  649TMC3    C2 9657   3.677   2.913  12.400  0.2438 -0.2515 -0.0932
  649TMC3    C3 9658   3.805   2.881  12.424 -0.0650 -0.1665 -0.6525
  649TMC3    C4 9659   3.601   2.836  12.605 -0.3446  0.6923 -0.0200
  649TMC3    C5 9660   3.739   2.819  12.634 -0.1047 -0.1866  0.0312
  649TMC3    C6 9661   3.844   2.844  12.548 -0.3915  0.2579  0.8088
  649TMC3     C 9662   3.433   2.905  12.459  0.5446  0.6356 -0.5215
  649TMC3     O 9663   3.362   2.936  12.554  0.8395 -0.6337  0.1596
  649TMC3     H 9664   3.654   2.952  12.301 -0.2511 -0.7325 -0.1693
  649TMC3    H1 9665   3.518   2.817  12.672 -0.0753 -2.1129 -0.4872
  649TMC3    H2 9666   3.942   2.803  12.568  0.3917  1.7318  0.0387
  649TMC3    C7 9667   3.756   2.714  12.738 -0.3671  0.2410  0.5712
  649TMC3    C8 9668   3.913   2.890  12.326 -0.1000 -0.3109  0.2383
  649TMC3    O1 9669   3.655   2.655  12.777  0.3016 -0.2926 -0.4025
  649TMC3    O2 9670   4.022   2.862  12.375  0.0650 -0.0919  0.1722
  650TMC3    C1 9671   1.242   4.406  12.108 -0.4131  0.6184 -0.3054
  650TMC3    C2 9672   1.155   4.500  12.052 -0.5091 -0.4932 -0.4990
  650TMC3    C3 9673   1.209   4.603  11.977  0.3124  0.3597  0.3047
  650TMC3    C4 9674   1.379   4.427  12.105  0.2666  0.1892 -0.3005
  650TMC3    C5 9675   1.425   4.537  12.030  0.4666  0.2920 -0.6172
  650TMC3    C6 9676   1.344   4.627  11.970 -0.7146  0.2446 -0.9525
  650TMC3     C 9677   1.179   4.303  12.183 -0.3145  0.5937  0.4075
  650TMC3     O 9678   1.056   4.296  12.179  0.0663  0.7781  0.0337
  650TMC3     H 9679   1.048   4.486  12.061 -0.5491 -0.2411 -0.5931
  650TMC3    H1 9680   1.449   4.354  12.143 -1.0954 -1.1679 -0.3912
  650TMC3    H2 9681   1.383   4.708  11.910  1.8663 -0.2687  0.0328
  650TMC3    C7 9682   1.562   4.577  12.047  0.6824 -0.2399  0.4297
  650TMC3    C8 9683   1.120   4.710  11.929 -0.0039 -0.1995 -0.0220
  650TMC3    O1 9684   1.647   4.496  12.018 -0.2911  0.1436  0.0249
  650TMC3    O2 9685   1.176   0.078  11.902  0.1199 -0.6708 -0.6304
  651MPD2     C 9686   0.155   1.526  10.368 -0.7887 -0.1806  0.1438
  651MPD2    C1 9687   0.168   1.651  10.311 -0.4028 -0.1400 -0.2291
  651MPD2    C2 9688   0.280   1.725  10.343  0.9240  0.2083  0.2932
  651MPD2    C3 9689   0.387   1.668  10.421 -0.8303  0.5468  0.5082
  651MPD2    C4 9690   0.366   1.541  10.478 -0.8217  0.6723  0.0799
  651MPD2    C5 9691   0.246   1.475  10.459 -0.3665 -0.1583 -0.1812
  651MPD2     H 9692   0.292   1.823  10.297  1.9962  0.2678  0.6908
  651MPD2    H1 9693   0.433   1.495  10.551  1.0087 -0.5547 -2.3718
  651MPD2    H2 9694   0.069   1.464  10.345 -0.9408  0.7190 -1.7157
  651MPD2    H3 9695   0.217   1.389  10.518 -0.7127 -1.0612 -1.6592
  651MPD2     N 9696   0.491   1.755  10.457 -0.2197  0.0733  0.2070
  651MPD2    H5 9697   0.494   1.848  10.416 -2.1554  1.7361  3.8279
  651MPD2    N1 9698   0.078   1.714  10.228 -0.0014  0.0206  0.5043
  651MPD2    H7 9699   0.088   1.815  10.224  0.4891 -0.0753 -0.7419
  652TMC3    C1 9700   0.842   1.912  10.380  0.1219  0.1454 -0.2997
  652TMC3    C2 9701   0.813   1.823  10.483  0.1679 -0.3471  0.4197
  652TMC3    C3 9702   0.691   1.844  10.545  0.4806 -0.6116  0.2541
  652TMC3    C4 9703   0.773   2.025  10.342 -0.0491  0.0562 -0.2679
  652TMC3    C5 9704   0.659   2.042  10.418 -0.8052  0.3186 -0.9949
  652TMC3    C6 9705   0.617   1.956  10.513  0.4580  0.2815  0.5034
  652TMC3     C 9706   0.984   1.918  10.352 -0.1018 -0.3986 -0.2512
  652TMC3     O 9707   1.050   1.817  10.346  0.3062 -0.1558 -0.3786
  652TMC3     H 9708   0.888   1.751  10.512 -0.3577  0.7971  4.6277
  652TMC3    H1 9709   0.797   2.073  10.248  0.3367  0.7755  0.1984
  652TMC3    H2 9710   0.519   1.974  10.556 -0.4860  0.6309 -1.7927
  652TMC3    C7 9711   0.556   2.092  10.332 -0.9260  0.0067 -1.3446
  652TMC3    C8 9712   0.597   1.730  10.540 -0.1889 -0.6401  0.1870
  652TMC3    O1 9713   0.456   2.018  10.309  0.5133  0.1320  0.5225
  652TMC3    O2 9714   0.641   1.626  10.588  0.5841 -0.3701  0.0375
  653MPD2     C 9715   4.291   1.687  17.731 -0.2615  0.2950 -0.3146
  653MPD2    C1 9716   4.272   1.784  17.635 -0.9193  0.1814 -0.1939
  653MPD2    C2 9717   4.219   1.736  17.511  1.2409 -0.6633 -0.4563
  653MPD2    C3 9718   4.212   1.601  17.482  0.2285 -0.2687 -0.4315
  653MPD2    C4 9719   4.242   1.507  17.578  0.4760  0.4964  0.2215
  653MPD2    C5 9720   4.277   1.552  17.700  0.5570  0.1503 -0.2827
  653MPD2     H 9721   4.195   1.811  17.438 -3.1848  0.9744  2.6082
  653MPD2    H1 9722   4.244   1.401  17.553 -1.0963  0.7159 -0.7852
  653MPD2    H2 9723   4.317   1.718   0.081 -2.7101  2.0974 -0.2344
  653MPD2    H3 9724   4.302   1.476   0.023 -0.5302  0.7072  0.6631
  653MPD2     N 9725   4.152   1.570  17.356  0.3493 -0.6868  0.1919
  653MPD2    H5 9726   4.109   1.647  17.306 -0.1686 -2.2691 -1.7883
  653MPD2    N1 9727   4.286   1.923  17.651 -0.1828  0.7073  0.3659
  653MPD2    H7 9728   4.263   1.979  17.570 -2.8757  0.1323  0.7402
  654TMC3    C1 9729   4.047   1.450  17.178  0.4423  0.0177  0.2176
  654TMC3    C2 9730   3.944   1.539  17.170  0.0578 -0.4851 -0.1344
  654TMC3    C3 9731   3.850   1.528  17.066  0.0241  0.3283  0.2008
  654TMC3    C4 9732   4.049   1.339  17.096 -0.1823 -0.9225 -0.0011
  654TMC3    C5 9733   3.953   1.325  16.997 -0.4275  0.4622 -0.0025
  654TMC3    C6 9734   3.848   1.413  16.984 -0.7669  0.0101  0.8320
  654TMC3     C 9735   4.126   1.446  17.300 -0.0368 -0.2036 -0.1821
  654TMC3     O 9736   4.172   1.336  17.332 -0.1789  0.3956  0.1345
  654TMC3     H 9737   3.938   1.622  17.239  0.8192  1.0209 -1.8580
  654TMC3    H1 9738   4.119   1.260  17.118  3.0797  1.7450 -0.9053
  654TMC3    H2 9739   3.770   1.394  16.912 -1.6715 -2.8192  2.5262
  654TMC3    C7 9740   3.974   1.222  16.894 -0.1788 -0.2304  0.3476
  654TMC3    C8 9741   3.757   1.635  17.028 -0.2786  0.6896  0.6119
  654TMC3    O1 9742   3.910   1.242  16.789  0.2326 -0.0364  0.3006
  654TMC3    O2 9743   3.687   1.615  16.929 -0.0959 -0.2598  0.6117
  655MPD2     C 9744   0.761   1.809  15.870 -0.6138  0.0646  0.7826
  655MPD2    C1 9745   0.692   1.892  15.786 -0.9169  0.0814  0.1294
  655MPD2    C2 9746   0.655   1.847  15.660  0.2291  0.1368 -0.1495
  655MPD2    C3 9747   0.688   1.717  15.616  0.4528 -0.3490 -0.1399
  655MPD2    C4 9748   0.759   1.642  15.691 -0.1762 -0.3121 -0.4630
  655MPD2    C5 9749   0.791   1.683  15.819  0.1809 -0.4889 -0.2773
  655MPD2     H 9750   0.582   1.907  15.606 -1.0892 -1.8204 -0.5117
  655MPD2    H1 9751   0.797   1.546  15.655  2.5657  0.9155 -0.8269
  655MPD2    H2 9752   0.812   1.835  15.962  0.3916  2.8022 -0.5502
  655MPD2    H3 9753   0.853   1.614  15.875 -1.2763 -0.5853  1.2209
  655MPD2     N 9754   0.625   1.658  15.505  0.6661 -0.6895  0.0175
  655MPD2    H5 9755   0.657   1.567  15.473 -0.4393 -0.8173 -0.7382
  655MPD2    N1 9756   0.649   2.017  15.825 -0.2046  0.0506  0.4191
  655MPD2    H7 9757   0.589   2.059  15.755  0.9921  0.1445 -0.5529
  656TMC3    C1 9758   0.588   2.199  15.943 -0.1758 -0.0993 -0.3403
  656TMC3    C2 9759   0.507   2.213  16.054 -0.1449  0.4920  0.3846
  656TMC3    C3 9760   0.418   2.320  16.045 -0.0565 -0.6834  0.6338
  656TMC3    C4 9761   0.572   2.268  15.827  0.2286 -0.5423 -0.9392
  656TMC3    C5 9762   0.475   2.365  15.820 -0.1647  0.2698 -0.4354
  656TMC3    C6 9763   0.395   2.398  15.928  0.3479 -0.7353 -0.4219
  656TMC3     C 9764   0.667   2.080  15.942 -0.4541 -0.4049  0.3015
  656TMC3     O 9765   0.727   2.035  16.044  0.9710 -0.9025 -0.1641
  656TMC3     H 9766   0.502   2.140  16.134  0.7737 -0.7459 -0.6945
  656TMC3    H1 9767   0.639   2.254  15.743 -0.5691  0.8325 -1.8026
  656TMC3    H2 9768   0.303   2.454  15.920  1.9055  1.2930 -3.9362
  656TMC3    C7 9769   0.462   2.439  15.694  0.7058 -0.8181  0.6795
  656TMC3    C8 9770   0.297   2.307  16.118  1.5740  0.3032  0.2858
  656TMC3    O1 9771   0.532   2.406  15.599  0.2661  0.1279  0.5227
  656TMC3    O2 9772   0.236   2.203  16.113 -0.0128 -0.1795 -0.0875
  657TMC3    C1 9773   4.056   1.415  14.984  0.6280  0.0664 -0.3442
  657TMC3    C2 9774   4.117   1.446  15.111 -1.0583  0.0148  0.0943
  657TMC3    C3 9775   4.145   1.578  15.125  0.0086  0.5001  0.0248
  657TMC3    C4 9776   4.022   1.507  14.891 -0.0088 -0.1067 -0.2892
  657TMC3    C5 9777   4.046   1.636  14.925 -0.2085 -0.0222 -0.1788
  657TMC3    C6 9778   4.107   1.673  15.035 -0.0367 -0.3384 -0.1770
  657TMC3     C 9779   4.059   1.275  14.938 -0.4103 -0.7279 -0.3112
  657TMC3     O 9780   3.982   1.237  14.851 -0.1429  0.1134 -0.1672
  657TMC3     H 9781   4.130   1.369  15.187 -2.1643  1.6962  1.9754
  657TMC3    H1 9782   3.990   1.476  14.792  1.9265  2.2102 -1.6450
  657TMC3    H2 9783   4.142   1.771  15.065 -2.3829  1.2742 -2.7069
  657TMC3    C7 9784   3.986   1.731  14.835  0.4773 -0.5439 -0.2521
  657TMC3    C8 9785   4.187   1.626  15.259 -0.1214  0.5323  0.2486
  657TMC3    O1 9786   3.949   1.692  14.723  0.1449  0.4456 -0.1354
  657TMC3    O2 9787   4.179   1.743  15.282  0.3881  1.0627  0.3110
  658MPD2     C 9788   0.916   1.597  14.907 -0.3791 -0.4712 -0.2333
  658MPD2    C1 9789   0.792   1.539  14.912  0.1981 -0.1271  0.0968
  658MPD2    C2 9790   0.752   1.463  14.800  0.2747 -0.4494  0.0523
  658MPD2    C3 9791   0.824   1.464  14.681 -0.6069 -0.1735 -0.3692
  658MPD2    C4 9792   0.946   1.523  14.678 -0.2194  0.7819 -0.4874
  658MPD2    C5 9793   0.995   1.590  14.795  0.1392 -0.1464  0.0605
  658MPD2     H 9794   0.658   1.409  14.793  0.4658 -0.7050 -0.5675
  658MPD2    H1 9795   1.008   1.539  14.590  3.1990 -1.0375  1.5666
  658MPD2    H2 9796   0.957   1.650  14.992 -1.1490  0.5796 -0.5186
  658MPD2    H3 9797   1.083   1.654  14.797  1.5687 -2.1739  0.9789
  658MPD2     N 9798   0.759   1.414  14.568  1.1335 -0.4337  0.1088
  658MPD2    H5 9799   0.666   1.372  14.572 -0.4678  3.0807  0.0775
  658MPD2    N1 9800   0.707   1.561  15.025 -0.0608 -0.8237  0.2785
  658MPD2    H7 9801   0.735   1.640  15.082  0.7925 -0.2107 -1.0037
  659TMC3    C1 9802   0.490   1.566  15.122 -0.0630 -0.2260 -0.6664
  659TMC3    C2 9803   0.538   1.592  15.247 -0.3228  0.5921 -0.0407
  659TMC3    C3 9804   0.463   1.668  15.321  0.4788 -0.2313 -0.3088
  659TMC3    C4 9805   0.365   1.608  15.076  0.4188  0.0212 -0.0164
  659TMC3    C5 9806   0.293   1.690  15.157 -0.3885 -0.2797 -0.6740
  659TMC3    C6 9807   0.345   1.725  15.278  0.1278 -0.3980 -1.0996
  659TMC3     C 9808   0.582   1.504  15.027  0.5587 -0.2472 -0.4057
  659TMC3     O 9809   0.519   1.428  14.955 -0.6347  0.2211  0.1699
  659TMC3     H 9810   0.630   1.554  15.288 -1.0721  0.2452  1.3162
  659TMC3    H1 9811   0.330   1.564  14.983 -2.1716  0.1361  0.9372
  659TMC3    H2 9812   0.282   1.766  15.356  0.6924 -2.3162  0.3670
  659TMC3    C7 9813   0.176   1.760  15.107  0.2516  0.6519 -0.3264
  659TMC3    C8 9814   0.499   1.701  15.462  0.5000  0.2429 -0.6807
  659TMC3    O1 9815   0.108   1.813  15.194  0.0395 -0.1714 -0.0515
  659TMC3    O2 9816   0.421   1.770  15.527 -0.6674 -0.3204 -0.2028
  660MPD2     C 9817   3.329   0.881  12.300  0.2902 -0.0792  0.1272
  660MPD2    C1 9818   3.197   0.848  12.302 -0.1475  0.2095  0.6333
  660MPD2    C2 9819   3.149   0.758  12.397 -0.1291 -0.8009  0.8492
  660MPD2    C3 9820   3.235   0.698  12.487  0.5995 -0.3297 -0.0893
  660MPD2    C4 9821   3.363   0.736  12.493  0.0495 -0.3503 -1.1888
  660MPD2    C5 9822   3.408   0.821  12.400 -0.5944  0.5530 -0.0391
  660MPD2     H 9823   3.041   0.756  12.410 -0.3114 -0.4062 -0.5678
  660MPD2    H1 9824   3.427   0.697  12.571 -1.2736  1.1072  0.6320
  660MPD2    H2 9825   3.366   0.955  12.230 -1.0038  0.2505 -0.2005
  660MPD2    H3 9826   3.510   0.857  12.414 -0.7722  0.8828  0.4076
  660MPD2     N 9827   3.201   0.608  12.599  1.2025 -0.3821 -0.0071
  660MPD2    H5 9828   3.277   0.570  12.654  0.9218 -0.8725  0.0469
  660MPD2    N1 9829   3.113   0.920  12.212 -0.1170 -0.2998  0.2197
  660MPD2    H7 9830   3.159   0.980  12.144  0.3335 -1.0787 -0.1568
  661TMC3    C1 9831   2.920   1.010  12.121 -0.3799  0.2143  0.2224
  661TMC3    C2 9832   2.954   0.995  11.987  0.4424  0.1226 -0.5860
  661TMC3    C3 9833   2.850   1.020  11.901  0.1549 -0.1299  0.9953
  661TMC3    C4 9834   2.801   1.066  12.166  0.3481 -0.3590 -0.1077
  661TMC3    C5 9835   2.700   1.069  12.070  0.7077  0.0840 -0.3626
  661TMC3    C6 9836   2.724   1.054  11.935  0.4194  0.4576  0.4612
  661TMC3     C 9837   2.975   0.914  12.207  0.0684 -0.1735  0.3669
  661TMC3     O 9838   2.893   0.847  12.273 -0.2613  0.0766  0.0152
  661TMC3     H 9839   3.045   0.942  11.962  0.6921  0.6230 -0.7246
  661TMC3    H1 9840   2.778   1.052  12.271  1.5029  0.4512  0.2473
  661TMC3    H2 9841   2.648   1.066  11.859  0.9016  1.7937  0.1805
  661TMC3    C7 9842   2.571   1.037  12.126  0.2835 -0.1032 -0.5667
  661TMC3    C8 9843   2.893   1.049  11.762  0.3677  0.5816  0.2915
  661TMC3    O1 9844   2.550   1.070  12.240  0.4629 -0.4908  0.6009
  661TMC3    O2 9845   2.981   0.981  11.714 -0.5938  0.6407  0.1370
  662MPD2     C 9846   3.777   0.713  16.978  0.6744 -0.5686  0.4701
  662MPD2    C1 9847   3.696   0.604  17.002  0.0157 -0.3514 -0.6654
  662MPD2    C2 9848   3.616   0.609  17.114  0.4664  0.2184  1.0262
  662MPD2    C3 9849   3.623   0.714  17.202 -0.6226 -0.2846  0.2636
  662MPD2    C4 9850   3.701   0.825  17.166  0.2386 -0.2388  0.0834
  662MPD2    C5 9851   3.790   0.825  17.060 -0.4590  0.0530  0.0959
  662MPD2     H 9852   3.542   0.533  17.132  1.2478 -1.2137 -1.7361
  662MPD2    H1 9853   3.706   0.913  17.230 -1.3916  0.3948 -0.6431
  662MPD2    H2 9854   3.825   0.718  16.881 -0.3830 -1.6349 -0.1155
  662MPD2    H3 9855   3.859   0.905  17.034 -0.0214 -0.9777 -1.8709
  662MPD2     N 9856   3.541   0.713  17.317  0.0208 -0.0063  0.0075
  662MPD2    H5 9857   3.527   0.806  17.355 -0.0757  0.0393 -0.1427
  662MPD2    N1 9858   3.691   0.489  16.917 -0.3830 -0.1067  0.7698
  662MPD2    H7 9859   3.621   0.415  16.924  1.6867 -2.1071  0.4187
  663TMC3    C1 9860   3.736   0.373  16.728  0.2134 -0.3937  0.3421
  663TMC3    C2 9861   3.601   0.383  16.729 -0.1309 -0.1426 -0.7041
  663TMC3    C3 9862   3.526   0.272  16.720  0.7978 -0.6033 -0.6154
  663TMC3    C4 9863   3.805   0.253  16.721  0.2813  0.5827 -0.5279
  663TMC3    C5 9864   3.724   0.137  16.716  0.7199  0.0441 -0.0555
  663TMC3    C6 9865   3.585   0.144  16.724 -0.0215  0.1810 -0.0327
  663TMC3     C 9866   3.787   0.466  16.823  0.6338 -0.2185  0.5338
  663TMC3     O 9867   3.897   0.517  16.805  0.1609  0.3935  0.5545
  663TMC3     H 9868   3.564   0.481  16.702  1.4328  0.3435 -1.0964
  663TMC3    H1 9869   3.913   0.256  16.708  0.3055 -0.9720 -0.7720
  663TMC3    H2 9870   3.534   0.069  16.665 -0.4545 -0.2720  0.9224
  663TMC3    C7 9871   3.779   0.010  16.685  0.4226  0.5519  0.0635
  663TMC3    C8 9872   3.429   0.275  16.823  0.0994  0.4917 -0.7036
  663TMC3    O1 9873   3.869   0.001  16.603  0.1037  0.7200  0.1679
  663TMC3    O2 9874   3.425   0.167  16.874  0.3316  0.2071 -0.1550
  664MPD2     C 9875   1.680   3.244  17.128  0.0541  0.0734  0.1118
  664MPD2    C1 9876   1.790   3.293  17.187  0.1789 -0.0392 -0.1800
  664MPD2    C2 9877   1.805   3.274  17.323  0.2675 -0.1525  0.7676
  664MPD2    C3 9878   1.718   3.207  17.403  0.9600 -0.5776 -0.0879
  664MPD2    C4 9879   1.611   3.151  17.340  0.3347 -0.1778 -0.3784
  664MPD2    C5 9880   1.584   3.177  17.205  0.3245 -0.1766  0.1496
  664MPD2     H 9881   1.887   3.328  17.370 -1.2747  1.2465  1.8386
  664MPD2    H1 9882   1.542   3.083  17.388  1.5468 -0.3076  1.1637
  664MPD2    H2 9883   1.660   3.250  17.021 -1.1503  2.7583  0.4916
  664MPD2    H3 9884   1.496   3.139  17.155  1.0264  1.0152 -2.0254
  664MPD2     N 9885   1.751   3.195  17.543 -0.0967 -0.6512 -0.1749
  664MPD2    H5 9886   1.834   3.241  17.578 -1.0128 -1.0516  2.5341
  664MPD2    N1 9887   1.884   3.378  17.124  0.7030 -0.6205  0.5168
  664MPD2    H7 9888   1.963   3.407  17.180  1.2740 -3.3100  1.1356
  665TMC3    C1 9889   1.720   3.138   0.015 -0.4192  0.6090  0.3026
  665TMC3    C2 9890   1.627   3.128   0.116  0.5408 -0.0449  0.8314
  665TMC3    C3 9891   1.672   3.153   0.243 -0.5345 -0.5807 -0.0152
  665TMC3    C4 9892   1.852   3.162   0.035  0.3254 -0.2530  0.0207
  665TMC3    C5 9893   1.895   3.162   0.167  0.6071  0.1381 -0.0080
  665TMC3    C6 9894   1.805   3.165   0.266 -0.5141 -0.0282 -0.2189
  665TMC3     C 9895   1.659   3.157  17.634 -0.1310  0.0826  0.3856
  665TMC3     O 9896   1.543   3.119  17.625  0.2586 -0.5963  0.2199
  665TMC3     H 9897   1.524   3.108   0.088  0.8995 -0.6821 -0.0124
  665TMC3    H1 9898   1.918   3.155  17.700  1.4166  0.7161  0.7776
  665TMC3    H2 9899   1.842   3.190   0.365  0.9996  1.6151 -1.1832
  665TMC3    C7 9900   2.024   3.230   0.177 -0.5161 -0.1514 -1.0640
  665TMC3    C8 9901   1.584   3.176   0.360  0.1446  0.1439  0.0346
  665TMC3    O1 9902   2.068   3.298   0.085  0.0283 -0.0920 -0.0210
  665TMC3    O2 9903   1.636   3.185   0.466  0.0017 -1.0862 -0.1253
  666TMC3    C1 9904   4.564   3.766   9.793  0.1133 -0.5660  0.7234
  666TMC3    C2 9905   4.634   3.677   9.714  0.3926  0.5114  0.5297
  666TMC3    C3 9906   0.026   3.703   9.688 -0.3351  0.2487 -1.0420
  666TMC3    C4 9907   4.612   3.890   9.832 -0.5047  1.0514  0.6626
  666TMC3    C5 9908   4.738   3.924   9.790 -0.1933  0.2681  0.0829
  666TMC3    C6 9909   0.074   3.831   9.712  0.0728  0.1283 -0.1564
  666TMC3     C 9910   4.442   3.725   9.865 -0.2942  0.0174 -0.4391
  666TMC3     O 9911   4.394   3.807   9.941 -0.9059  0.1782  0.1017
  666TMC3     H 9912   4.602   3.578   9.685 -0.4530  1.3167 -1.2818
  666TMC3    H1 9913   4.565   3.965   9.894  0.2697  1.5365  0.6710
  666TMC3    H2 9914   0.182   3.842   9.713  0.0939  0.0265 -1.0068
  666TMC3    C7 9915   0.074   4.024   9.862 -0.7876 -0.0267  0.0596
  666TMC3    C8 9916   0.111   3.589   9.670 -0.1296  0.0898  0.2095
  666TMC3    O1 9917   0.037   4.055   9.975  0.8575  0.0079  0.1457
  666TMC3    O2 9918   0.062   3.474   9.665  0.0180  0.2828 -0.1729
  667MPD2     C 9919   2.387   2.576  14.389  0.1547 -0.3019 -0.7569
  667MPD2    C1 9920   2.316   2.629  14.495 -0.0707 -0.2892 -0.1256
  667MPD2    C2 9921   2.206   2.567  14.547 -0.2992  0.0892 -0.4449
  667MPD2    C3 9922   2.172   2.439  14.500 -0.1517 -0.2778  0.2181
  667MPD2    C4 9923   2.251   2.385  14.398 -0.2623  0.5708  0.6278
  667MPD2    C5 9924   2.353   2.456  14.337 -0.1251  0.3813  0.1959
  667MPD2     H 9925   2.143   2.606  14.626 -0.4122 -1.8789  0.4301
  667MPD2    H1 9926   2.229   2.288  14.356  2.0095 -0.0897  0.9603
  667MPD2    H2 9927   2.479   2.617  14.350 -0.3714  1.7040  0.1015
  667MPD2    H3 9928   2.411   2.405  14.261  0.4015  0.6240  0.4340
  667MPD2     N 9929   2.061   2.360  14.544 -0.0848  0.3925 -0.1963
  667MPD2    H5 9930   2.062   2.266  14.504 -0.9769  0.9400 -1.5074
  667MPD2    N1 9931   2.340   2.762  14.538  0.2136 -0.2498 -0.3854
  667MPD2    H7 9932   2.283   2.789  14.618  0.6299 -0.5181 -0.0011
  668TMC3    C1 9933   2.433   2.986  14.541 -0.3663 -0.8325 -0.2611
  668TMC3    C2 9934   2.509   3.075  14.476  0.1479  1.1134 -0.1944
  668TMC3    C3 9935   2.603   3.150  14.540  0.2397 -0.0201 -0.1947
  668TMC3    C4 9936   2.439   2.986  14.680  0.0541  0.2889  0.4393
  668TMC3    C5 9937   2.531   3.073  14.743  0.3448  0.3839  0.1621
  668TMC3    C6 9938   2.615   3.155  14.676  0.1396 -0.5126 -0.1920
  668TMC3     C 9939   2.426   2.855  14.479 -0.2472  0.5070 -0.4250
  668TMC3     O 9940   2.495   2.852  14.381 -0.3320 -0.1117 -0.6418
  668TMC3     H 9941   2.493   3.091  14.370  1.3123  2.4467 -0.1676
  668TMC3    H1 9942   2.385   2.917  14.743  0.7771  0.7972  1.6399
  668TMC3    H2 9943   2.705   3.199  14.719  1.0181  0.5442 -3.1314
  668TMC3    C7 9944   2.568   3.044  14.876 -0.2356 -0.4295 -0.1283
  668TMC3    C8 9945   2.669   3.256  14.473 -0.2454 -0.5371  0.1542
  668TMC3    O1 9946   2.685   3.063  14.909 -0.5565  0.6855 -0.2870
  668TMC3    O2 9947   2.704   3.362  14.532  0.1369  0.6682 -0.0938
  669TMC3    C1 9948   0.484   2.953  14.614  0.0504  0.4239 -0.2322
  669TMC3    C2 9949   0.355   2.963  14.559  0.0935  0.0738 -0.3758
  669TMC3    C3 9950   0.333   3.067  14.469 -0.4842 -0.7308  0.1482
  669TMC3    C4 9951   0.593   3.018  14.562  0.6813 -0.4671  0.3912
  669TMC3    C5 9952   0.575   3.102  14.460  0.2773  0.8698  0.4577
  669TMC3    C6 9953   0.446   3.131  14.417  0.1063  0.1771 -0.9128
  669TMC3     C 9954   0.490   2.918  14.755  0.8106  0.1268  0.4102
  669TMC3     O 9955   0.386   2.917  14.820  0.0109  0.9744  0.7237
  669TMC3     H 9956   0.268   2.924  14.609  0.5272  0.2061  0.4968
  669TMC3    H1 9957   0.693   3.010  14.604  0.5468  0.5615  0.8874
  669TMC3    H2 9958   0.429   3.217  14.351 -0.9998  1.0263  0.4766
  669TMC3    C7 9959   0.685   3.184  14.405 -0.2210 -0.5670  0.7578
  669TMC3    C8 9960   0.214   3.065  14.390 -0.0230 -0.0520 -0.4403
  669TMC3    O1 9961   0.781   3.195  14.481  1.1822 -0.2914 -0.1638
  669TMC3    O2 9962   0.152   2.963  14.371  0.0474 -0.3416  0.9880
  670MPD2     C 9963   3.424   0.908  13.532 -0.8033 -0.5530  0.4653
  670MPD2    C1 9964   3.484   0.789  13.552  0.1974  0.5604  0.3164
  670MPD2    C2 9965   3.480   0.736  13.677  0.2393  0.4915  0.1103
  670MPD2    C3 9966   3.407   0.787  13.778  0.0049  0.1660 -0.2526
  670MPD2    C4 9967   3.352   0.914  13.756 -0.9163 -0.1719  0.9307
  670MPD2    C5 9968   3.362   0.970  13.632  0.4943 -0.1231 -0.3032
  670MPD2     H 9969   3.535   0.643  13.690 -0.5528  0.2514  1.7008
  670MPD2    H1 9970   3.298   0.965  13.835  0.1915 -0.8228  2.1133
  670MPD2    H2 9971   3.407   0.955  13.436 -2.5312 -1.3261  0.3970
  670MPD2    H3 9972   3.310   1.063  13.612 -0.6800 -0.6840  0.1532
  670MPD2     N 9973   3.394   0.709  13.897  0.4501 -0.3496  0.1853
  670MPD2    H5 9974   3.453   0.625  13.897  0.3128 -0.4468  1.4252
  670MPD2    N1 9975   3.540   0.711  13.453 -0.3951  0.0727 -0.0808
  670MPD2    H7 9976   3.583   0.620  13.466  0.3211  0.8167  2.7989
  671TMC3    C1 9977   3.329   0.624  14.101  0.9713  0.2973  0.2126
  671TMC3    C2 9978   3.455   0.595  14.145  0.5920 -0.1615  0.2040
  671TMC3    C3 9979   3.467   0.471  14.199 -0.0838  0.3734  0.4910
  671TMC3    C4 9980   3.213   0.566  14.138 -0.3511  0.2860 -0.3386
  671TMC3    C5 9981   3.227   0.440  14.177 -0.0949 -0.5479 -0.8522
  671TMC3    C6 9982   3.351   0.395  14.211  0.3383 -0.0378  0.5515
  671TMC3     C 9983   3.316   0.730  14.006  0.7604  0.3862 -0.2292
  671TMC3     O 9984   3.219   0.808  14.011 -0.6562 -0.2718 -0.0845
  671TMC3     H 9985   3.542   0.657  14.128  0.3087  0.4855  1.1007
  671TMC3    H1 9986   3.122   0.602  14.091 -0.0830  0.2547 -0.8802
  671TMC3    H2 9987   3.368   0.294  14.245 -1.2299 -0.3826  0.3287
  671TMC3    C7 9988   3.180   0.360  14.067  0.0668  0.2648  0.0961
  671TMC3    C8 9989   3.593   0.400  14.169 -0.1315 -0.1155 -0.8094
  671TMC3    O1 9990   3.274   0.315  13.995  0.0250 -0.2916 -0.5884
  671TMC3    O2 9991   3.583   0.293  14.110 -0.1180  0.0551  0.3939
  672MPD2     C 9992   3.660   1.342   0.892  0.7875 -1.2007 -0.3152
  672MPD2    C1 9993   3.754   1.281   0.814  0.2084  0.4345 -0.2015
  672MPD2    C2 9994   3.881   1.280   0.863  0.2917 -0.0980 -0.4353
  672MPD2    C3 9995   3.922   1.355   0.975 -0.0860 -0.6256 -0.2639
  672MPD2    C4 9996   3.815   1.413   1.043 -0.4061 -0.3646  0.0681
  672MPD2    C5 9997   3.684   1.403   1.009 -0.4201  0.0198 -0.3063
  672MPD2     H 9998   3.954   1.217   0.814  2.1853  1.2796  0.5914
  672MPD2    H1 9999   3.842   1.485   1.119  1.1797 -0.2643 -0.5801
  672MPD2    H210000   3.556   1.348   0.864  0.8926  2.5738  0.0822
  672MPD2    H310001   3.607   1.461   1.057  0.1913 -0.3904  1.1774
  672MPD2     N10002   4.054   1.375   1.017 -0.1757 -0.1189 -0.2099
  672MPD2    H510003   4.076   1.451   1.081  0.1571  1.1690 -1.8554
  672MPD2    N110004   3.728   1.203   0.695  0.5126  0.7393 -0.2229
  672MPD2    H710005   3.805   1.151   0.654  0.2215 -2.0982  2.8641
  673TMC3    C110006   3.601   1.102   0.519 -0.1557 -0.2932 -0.3013
  673TMC3    C210007   3.694   1.007   0.492 -0.8357 -0.9340 -0.1342
  673TMC3    C310008   3.699   0.958   0.361  0.5168  0.0136  0.3822
  673TMC3    C410009   3.512   1.146   0.424 -0.0924  0.6764 -0.1824
  673TMC3    C510010   3.527   1.098   0.295 -0.1875  0.0084 -0.5364
  673TMC3    C610011   3.630   1.016   0.264 -0.4048 -0.1097  0.2260
  673TMC3     C10012   3.607   1.189   0.631  0.4384 -0.5776 -0.0323
  673TMC3     O10013   3.512   1.263   0.649  0.3196  0.0317  0.0506
  673TMC3     H10014   3.769   0.975   0.564 -1.2339  2.4748  1.7904
  673TMC3    H110015   3.440   1.221   0.455 -0.1242  1.3988 -2.0268
  673TMC3    H210016   3.652   0.985   0.163  0.6130  2.1733 -0.2592
  673TMC3    C710017   3.509   1.191   0.193  0.6667 -0.0533  0.0520
  673TMC3    C810018   3.822   0.908   0.309 -0.4378  0.1243 -0.0451
  673TMC3    O110019   3.523   1.156   0.077  0.7449 -0.0170 -0.0976
  673TMC3    O210020   3.865   0.967   0.211  0.3846  0.9117  0.3000
  674MPD2     C10021   3.825   1.934  17.600  0.1223 -0.7007 -1.0525
  674MPD2    C110022   3.781   1.817  17.547  0.4235  0.7456 -0.5688
  674MPD2    C210023   3.651   1.819  17.496 -0.2706  0.3638 -0.8728
  674MPD2    C310024   3.568   1.925  17.508  0.2722  0.4399  0.4203
  674MPD2    C410025   3.610   2.038  17.568 -0.2553 -0.4310  0.0452
  674MPD2    C510026   3.747   2.043  17.594 -0.2692  0.9612 -0.4842
  674MPD2     H10027   3.612   1.733  17.442 -1.7922  0.5108  0.0136
  674MPD2    H110028   3.543   2.122  17.580  0.0936 -0.1256 -0.1523
  674MPD2    H210029   3.928   1.940  17.634  0.2109 -0.6862 -1.3145
  674MPD2    H310030   3.788   2.127  17.649 -0.5961  1.2467 -0.6742
  674MPD2     N10031   3.432   1.886  17.491 -0.4390  0.4758  0.3112
  674MPD2    H510032   3.413   1.796  17.447 -2.3380  0.3034  1.4701
  674MPD2    N110033   3.855   1.705  17.569 -0.6252  0.1440  0.2618
  674MPD2    H710034   3.928   1.702  17.640  0.5769 -0.2330 -0.9887
  675TMC3    C110035   3.881   1.474  17.577 -0.0504 -0.2396  0.3636
  675TMC3    C210036   3.858   1.347  17.528  0.3826  0.4388  0.0896
  675TMC3    C310037   3.818   1.251  17.615  0.9128  0.1645 -0.8170
  675TMC3    C410038   3.866   1.500  17.710  0.0570 -0.0598 -0.2079
  675TMC3    C510039   3.828   1.400   0.041 -0.0755  0.3167  0.1926
  675TMC3    C610040   3.790   1.275  17.744  0.5920 -0.5289  0.2977
  675TMC3     C10041   3.829   1.588  17.506 -0.7108 -1.3860 -0.5987
  675TMC3     O10042   3.769   1.559  17.401 -0.9739 -0.2535  0.7167
  675TMC3     H10043   3.879   1.322  17.424 -0.4163 -0.3554  0.1151
  675TMC3    H110044   3.918   1.586   0.001  1.1560 -0.2389 -1.1882
  675TMC3    H210045   3.785   1.200   0.071 -1.4768  1.1763  1.8224
  675TMC3    C710046   3.800   1.422   0.183  0.0867 -0.0460  0.0426
  675TMC3    C810047   3.831   1.114  17.572  0.3280 -0.8743  0.3762
  675TMC3    O110048   3.797   1.326   0.258 -0.3803 -0.2639  0.0038
  675TMC3    O210049   3.917   1.095  17.491  0.4227 -0.4090 -0.2681
  676MPD2     C10050   2.025   4.284  11.140  0.6835 -0.6095 -0.3430
  676MPD2    C110051   1.931   4.223  11.212 -0.2061  0.6031  0.3153
  676MPD2    C210052   1.891   4.092  11.189  0.7277  0.7929 -0.2329
  676MPD2    C310053   1.957   4.014  11.092  0.6086  1.0343  0.3601
  676MPD2    C410054   2.043   4.086  11.008 -0.0125 -0.4443  0.7038
  676MPD2    C510055   2.076   4.220  11.031 -0.2210  0.5219 -0.2340
  676MPD2     H10056   1.840   4.039  11.269  0.6345 -0.2329 -0.9688
  676MPD2    H110057   2.087   4.025  10.929 -1.2008 -0.0459 -0.2553
  676MPD2    H210058   2.053   4.387  11.157 -0.2598 -0.0782 -2.0313
  676MPD2    H310059   2.144   4.271  10.965 -0.4309  0.0200 -0.8402
  676MPD2     N10060   1.941   3.874  11.072 -0.1690  0.5295  0.5831
  676MPD2    H510061   1.983   3.845  10.985 -1.6279 -1.5074  0.5512
  676MPD2    N110062   1.867   4.289  11.318  0.2415 -0.4647  0.0894
  676MPD2    H710063   1.811   4.230  11.380 -1.9063  3.6070  2.0817
  677TMC3    C110064   1.767   4.441  11.460 -0.5073  0.5787 -1.0196
  677TMC3    C210065   1.754   4.345  11.558 -0.3587  0.1602  0.6274
  677TMC3    C310066   1.663   4.362  11.657  0.6757 -0.4869  0.4291
  677TMC3    C410067   1.696   4.554  11.469  0.3445 -0.7934  1.0031
  677TMC3    C510068   1.597   4.567  11.569  0.3724 -0.3329  0.1220
  677TMC3    C610069   1.572   4.465  11.654 -0.2802 -0.0116  0.5921
  677TMC3     C10070   1.866   4.423  11.355  0.0587 -0.7240 -0.2086
  677TMC3     O10071   1.900   4.516  11.287 -0.6381 -0.2760 -0.2232
  677TMC3     H10072   1.834   4.273  11.565  0.8717  1.5011  0.4399
  677TMC3    H110073   1.713   4.629  11.393 -1.4116 -1.8458 -0.4163
  677TMC3    H210074   1.512   4.488  11.742 -2.7125 -1.4316 -0.6892
  677TMC3    C710075   1.522   4.686  11.583  0.2843 -0.4488 -0.5288
  677TMC3    C810076   1.637   4.247  11.746 -0.0614  0.1170  0.2829
  677TMC3    O110077   1.424   4.682  11.657  0.3858  0.0767  0.2471
  677TMC3    O210078   1.717   4.150  11.746  0.1366  0.5255 -0.4415
  678MPD2     C10079   3.194   4.436   1.110 -0.2938  0.3446 -0.0770
  678MPD2    C110080   3.231   4.335   1.023 -0.8865  0.2023  0.1318
  678MPD2    C210081   3.147   4.226   1.000 -0.0511  0.0273  0.4657
  678MPD2    C310082   3.022   4.220   1.062  0.4655 -0.0431  0.5759
  678MPD2    C410083   2.994   4.326   1.155 -0.1917 -0.8253  0.5637
  678MPD2    C510084   3.081   4.429   1.183  0.1754 -0.1492  0.0329
  678MPD2     H10085   3.177   4.152   0.926 -0.9932  1.7712 -1.6762
  678MPD2    H110086   2.906   4.318   1.218  0.3267  1.1933  1.5391
  678MPD2    H210087   3.257   4.523   1.122  0.5011 -0.0294 -1.4513
  678MPD2    H310088   3.055   4.513   1.247  2.2661  1.4031 -1.1560
  678MPD2     N10089   2.932   4.115   1.036  0.1436 -0.2228 -0.4048
  678MPD2    H510090   2.961   4.053   0.961  0.8253  1.7957 -1.8056
  678MPD2    N110091   3.341   4.350   0.940  0.9734 -0.0075 -0.4322
  678MPD2    H710092   3.347   4.297   0.854 -2.7949 -0.3875 -0.5025
  679TMC3    C110093   3.707   4.362   0.757 -0.2991 -0.2912 -0.6455
  679TMC3    C210094   3.648   4.425   0.861  0.4325 -0.6554 -0.8403
  679TMC3    C310095   3.517   4.458   0.848  1.1589  0.8321  0.4474
  679TMC3    C410096   3.658   4.374   0.633 -0.4567 -0.1830 -0.0596
  679TMC3    C510097   3.536   4.428   0.618 -0.3850  0.0334  0.4776
  679TMC3    C610098   3.462   4.468   0.723  0.0412  0.1931  0.0877
  679TMC3     C10099   3.812   4.262   0.767  0.7666 -0.2443 -0.1672
  679TMC3     O10100   3.829   4.193   0.666  0.6354 -0.0195  0.1678
  679TMC3     H10101   3.691   4.425   0.961  1.5643 -0.0468 -1.3246
  679TMC3    H110102   3.725   4.342   0.554 -1.2817 -0.1592 -0.7645
  679TMC3    H210103   3.361   4.506   0.716 -0.3432 -1.2733 -2.2015
  679TMC3    C710104   3.495   4.478   0.482 -0.1605  0.0126 -0.4786
  679TMC3    C810105   3.430   4.447   0.959  0.2292  0.2840 -0.2879
  679TMC3    O110106   3.406   4.563   0.475  0.2297 -0.7106 -0.1471
  679TMC3    O210107   3.472   4.493   1.067 -0.1457  0.2187  0.2248
  680MPD2     C10108   3.163   2.648  13.411  0.3104 -0.4843  0.6466
  680MPD2    C110109   3.278   2.629  13.484  0.3187  0.0913 -0.1608
  680MPD2    C210110   3.329   2.743  13.545 -0.1415 -0.0418  0.2905
  680MPD2    C310111   3.262   2.866  13.540 -1.2788  0.3413 -0.0258
  680MPD2    C410112   3.143   2.880  13.470 -0.1090  0.4422  0.1078
  680MPD2    C510113   3.096   2.767  13.402  0.0066  0.0983 -1.2411
  680MPD2     H10114   3.422   2.735  13.600 -0.6724  1.4694  1.3869
  680MPD2    H110115   3.098   2.978  13.459 -1.0703 -0.0814 -0.5995
  680MPD2    H210116   3.126   2.563  13.355 -1.9842  0.5276  0.6467
  680MPD2    H310117   3.003   2.774  13.347 -1.2011  2.6889  1.1770
  680MPD2     N10118   3.308   2.984  13.610 -0.0680  0.1999  0.2706
  680MPD2    H510119   3.278   3.073  13.572  1.9799 -0.0183 -1.8952
  680MPD2    N110120   3.351   2.509  13.489  0.3865  0.0073  0.3464
  680MPD2    H710121   3.439   2.516  13.540 -0.2342  0.4837  1.3496
  681TMC3    C110122   3.433   2.307  13.402  0.5541 -0.3360 -0.3670
  681TMC3    C210123   3.442   2.192  13.471  0.3372 -0.4917 -0.4563
  681TMC3    C310124   3.567   2.164  13.527 -0.4555 -0.4116 -0.2523
  681TMC3    C410125   3.544   2.368  13.351  0.3477 -0.7100 -0.0029
  681TMC3    C510126   3.669   2.318  13.375  0.2809  0.3728 -0.3441
  681TMC3    C610127   3.680   2.216  13.467  0.3810 -0.2100 -0.3156
  681TMC3     C10128   3.322   2.392  13.418 -0.6484  0.4027  0.1954
  681TMC3     O10129   3.216   2.347  13.379 -0.2442 -0.3485  0.0191
  681TMC3     H10130   3.347   2.151  13.504  0.4035  0.0343  0.3891
  681TMC3    H110131   3.539   2.470  13.315 -1.8862 -1.6372 -2.3560
  681TMC3    H210132   3.779   2.181  13.496  0.1553 -1.4019 -0.9882
  681TMC3    C710133   3.782   2.392  13.319  0.1496  0.6815  0.1554
  681TMC3    C810134   3.584   2.202  13.668  0.1352 -1.0850 -0.4797
  681TMC3    O110135   3.893   2.370  13.369 -0.3323 -0.3992  0.0008
  681TMC3    O210136   3.688   2.262  13.681 -0.1986  0.0038 -0.4458
  682MPD2     C10137   0.170   0.254  10.659  0.3540 -0.4383 -0.4890
  682MPD2    C110138   0.120   0.132  10.693 -0.2737 -0.1618  0.2276
  682MPD2    C210139   0.016   0.132  10.780  0.5518 -0.4497  0.6537
  682MPD2    C310140   4.701   0.249  10.834 -0.2678 -0.1855 -0.7930
  682MPD2    C410141   0.027   0.364  10.805  0.6859 -0.7327  0.2467
  682MPD2    C510142   0.129   0.368  10.723 -0.7570  0.6182 -1.0002
  682MPD2     H10143   4.711   0.036  10.808  0.2005 -0.2841  0.6783
  682MPD2    H110144   0.002   0.459  10.850 -0.0096 -1.0939  0.6322
  682MPD2    H210145   0.259   0.272  10.600  0.1959 -0.9217 -0.8742
  682MPD2    H310146   0.177   0.462  10.697 -0.5459  0.9796  0.7533
  682MPD2     N10147   4.596   0.258  10.926  0.3235 -0.1286  0.0206
  682MPD2    H510148   4.583   0.353  10.959 -0.0839 -0.5973  1.1981
  682MPD2    N110149   0.165   0.010  10.635  0.1319  0.1914  0.1452
  682MPD2    H710150   0.105   4.670  10.660  0.0382  0.3627  0.4527
  683TMC3    C110151   4.337   0.353  11.228  0.1498  0.6117 -0.2988
  683TMC3    C210152   4.238   0.261  11.268 -0.7321  0.1147  0.1613
  683TMC3    C310153   4.227   0.142  11.196  0.3928  0.2730 -0.1264
  683TMC3    C410154   4.420   0.338  11.115  0.1205  0.1876 -0.2411
  683TMC3    C510155   4.401   0.216  11.048  0.2773 -0.4607  0.0182
  683TMC3    C610156   4.311   0.120  11.092 -0.4763  0.5012 -0.1906
  683TMC3     C10157   4.394   0.428  11.338  0.4069 -0.3539 -0.5364
  683TMC3     O10158   4.362   0.401  11.452 -0.2983  0.5350 -0.0544
  683TMC3     H10159   4.179   0.281  11.357 -0.0340 -1.4394  0.9666
  683TMC3    H110160   4.504   0.401  11.087 -0.0280  1.2853  1.7460
  683TMC3    H210161   4.312   0.016  11.060  0.0909  0.5733 -0.3938
  683TMC3    C710162   4.500   0.170  10.955 -0.0895  0.4179  0.4337
  683TMC3    C810163   4.100   0.079  11.201  0.0215 -0.6513 -0.2618
  683TMC3    O110164   4.504   0.057  10.927 -0.0755  0.2399 -0.5980
  683TMC3    O210165   4.004   0.142  11.246  0.2436  0.0368 -0.0793
  684MPD2     C10166   3.784   3.438  16.157 -0.7036 -0.4902 -0.0092
  684MPD2    C110167   3.744   3.498  16.040 -0.2780 -0.4530 -0.7055
  684MPD2    C210168   3.713   3.634  16.035 -0.3268  0.0724 -0.0699
  684MPD2    C310169   3.730   3.712  16.154 -0.4850  0.4283 -0.1024
  684MPD2    C410170   3.772   3.646  16.269  0.6122  0.3455 -0.1993
  684MPD2    C510171   3.803   3.514  16.270 -0.0686 -0.0599 -0.2323
  684MPD2     H10172   3.669   3.676  15.945  0.6228 -1.5813 -1.2971
  684MPD2    H110173   3.798   3.699  16.360 -2.0214 -1.0696  1.3680
  684MPD2    H210174   3.809   3.333  16.154 -0.2368 -0.3764 -0.1563
  684MPD2    H310175   3.851   3.472  16.358  0.7551  1.1301 -0.1065
  684MPD2     N10176   3.697   3.845  16.166 -0.3834  0.0191  0.4464
  684MPD2    H510177   3.702   3.888  16.258  0.7822  2.3131 -0.6894
  684MPD2    N110178   3.731   3.428  15.913  0.2889  0.8066  0.1373
  684MPD2    H710179   3.710   3.493  15.838  0.4607  0.6061 -0.0831
  685TMC3    C110180   3.745   3.250  15.762  0.3951  0.1491 -0.1516
  685TMC3    C210181   3.670   3.325  15.670 -0.4158 -0.3876  0.5912
  685TMC3    C310182   3.701   3.292  15.539 -1.0157  0.2103  0.0859
  685TMC3    C410183   3.861   3.187  15.725  0.7338  0.0764 -0.1142
  685TMC3    C510184   3.905   3.191  15.592 -0.4466  0.4251 -0.0826
  685TMC3    C610185   3.824   3.246  15.497 -0.3206  0.0956 -0.2308
  685TMC3     C10186   3.739   3.291  15.896 -0.6091  0.1561 -0.0988
  685TMC3     O10187   3.772   3.206  15.980 -0.0291 -0.2349  0.3161
  685TMC3     H10188   3.577   3.366  15.708 -0.8643 -0.2711 -0.6345
  685TMC3    H110189   3.922   3.142  15.802  0.7964 -0.7337 -0.6437
  685TMC3    H210190   3.845   3.244  15.391  1.9025 -1.3525  0.2458
  685TMC3    C710191   4.050   3.208  15.567  0.3386  0.4748  0.3742
  685TMC3    C810192   3.609   3.328  15.433 -0.1254  1.1616 -0.0898
  685TMC3    O110193   4.089   3.185  15.456 -0.4328 -0.5724  0.0807
  685TMC3    O210194   3.640   3.304  15.316  0.2784  0.4573 -0.2743
  686MPD2     C10195   0.323   3.770  15.288  0.2173 -0.8918  0.3493
  686MPD2    C110196   0.391   3.661  15.331  0.2890 -0.0793 -0.8007
  686MPD2    C210197   0.433   3.562  15.246  0.3540 -0.1954 -0.5047
  686MPD2    C310198   0.384   3.560  15.111  0.1242 -0.5193 -0.3407
  686MPD2    C410199   0.331   3.674  15.067  0.4612 -0.7630  0.4437
  686MPD2    C510200   0.291   3.774  15.158 -0.0188 -0.3642 -0.6771
  686MPD2     H10201   0.494   3.483  15.288 -0.1257 -0.5743 -0.5225
  686MPD2    H110202   0.299   3.684  14.964  3.4272 -2.2068 -0.6352
  686MPD2    H210203   0.270   3.835  15.357 -0.2324 -1.2029  0.2988
  686MPD2    H310204   0.233   3.856  15.118 -0.7025 -0.3935  0.2516
  686MPD2     N10205   0.395   3.450  15.024 -0.2093  0.1247  0.1794
  686MPD2    H510206   0.377   3.469  14.927  2.0721  1.1403 -0.0485
  686MPD2    N110207   0.398   3.644  15.471  0.9741  0.4591  0.0436
  686MPD2    H710208   0.355   3.717  15.528  3.8563  2.2879 -0.1384
  687TMC3    C110209   0.414   3.273  15.188 -0.5477 -0.2939 -0.1168
  687TMC3    C210210   0.291   3.283  15.243  0.9973  0.8202  0.6187
  687TMC3    C310211   0.282   3.221  15.359 -0.1455 -0.2008 -0.3689
  687TMC3    C410212   0.531   3.231  15.241 -0.0881  0.3188  0.3116
  687TMC3    C510213   0.512   3.187  15.373  0.6925 -0.3483  0.5514
  687TMC3    C610214   0.387   3.180  15.432  0.1203  1.2777 -0.7066
  687TMC3     C10215   0.419   3.318  15.051 -0.3595 -0.0465  0.1093
  687TMC3     O10216   0.418   3.228  14.972 -0.0054  0.4101  0.0226
  687TMC3     H10217   0.203   3.279  15.178  1.2777 -1.3511  0.3808
  687TMC3    H110218   0.624   3.238  15.186 -1.0790 -0.0860 -1.3764
  687TMC3    H210219   0.377   3.147  15.535 -1.7541  0.0382 -1.2787
  687TMC3    C710220   0.626   3.157  15.449  0.2337 -0.1769 -1.0308
  687TMC3    C810221   0.173   3.261  15.445  0.1448 -0.4078 -0.7006
  687TMC3    O110222   0.603   3.162  15.571 -0.1616 -0.2321 -0.5638
  687TMC3    O210223   0.157   3.202  15.552  0.0984 -0.3478  0.3228
  688MPD2     C10224   4.466   2.550  17.279 -0.2183 -0.4445  0.3142
  688MPD2    C110225   4.536   2.452  17.348 -0.4202 -0.4773 -0.4707
  688MPD2    C210226   4.651   2.411  17.293 -0.5484 -0.0650  0.0796
  688MPD2    C310227   4.708   2.465  17.180 -0.0016 -0.2796  0.2611
  688MPD2    C410228   4.640   2.568  17.114  0.0637 -0.2747  0.2543
  688MPD2    C510229   4.519   2.605  17.170 -0.0357 -0.1858  0.5579
  688MPD2     H10230   4.702   2.333  17.348 -1.3929  0.0207  0.9749
  688MPD2    H110231   4.661   2.613  17.018  1.5911 -0.2767  0.5829
  688MPD2    H210232   4.365   2.580  17.301 -0.3438 -0.9174  0.3979
  688MPD2    H310233   4.466   2.677  17.110  2.1310  0.0361 -1.1057
  688MPD2     N10234   0.091   2.418  17.130 -0.6550  0.5567 -0.4318
  688MPD2    H510235   0.112   2.464  17.042  2.7393  0.2078  0.1929
  688MPD2    N110236   4.493   2.385  17.466 -0.4882  0.1939  0.1099
  688MPD2    H710237   4.549   2.306  17.498 -0.6726  0.1256  0.2632
  689TMC3    C110238   4.355   2.335  17.643 -0.5321 -0.4355  0.5479
  689TMC3    C210239   4.327   2.409   0.013 -0.0444  0.4618 -0.2981
  689TMC3    C310240   4.297   2.332   0.127 -0.3871  0.1930 -0.2104
  689TMC3    C410241   4.361   2.197  17.645 -0.2115 -0.4315  0.4598
  689TMC3    C510242   4.315   2.128   0.010  0.0670  0.8227 -0.5166
  689TMC3    C610243   4.281   2.196   0.126 -0.0051  0.6586  0.2037
  689TMC3     C10244   4.386   2.423  17.532  0.4728  0.0818  0.3948
  689TMC3     O10245   4.331   2.533  17.523 -0.4346  0.3818  0.2815
  689TMC3     H10246   4.310   2.516   0.006 -0.7634  0.2975 -1.0556
  689TMC3    H110247   4.396   2.156  17.551  0.5313 -4.0893  2.3458
  689TMC3    H210248   4.281   2.134   0.215  1.7648 -0.9822 -0.9409
  689TMC3    C710249   4.330   1.981   0.017  0.0630  0.2120  0.1020
  689TMC3    C810250   4.258   2.392   0.250 -0.4640 -0.2306 -0.2129
  689TMC3    O110251   4.373   1.936   0.118  0.4458  0.7860 -0.4510
  689TMC3    O210252   4.243   2.320   0.347 -0.0838  0.4084  0.5962
  690MPD2     C10253   1.841   4.145  15.371 -0.1062  0.1070  0.1365
  690MPD2    C110254   1.829   4.075  15.261  0.1094  0.3973 -0.7585
  690MPD2    C210255   1.948   4.054  15.190  0.5210 -0.3473  0.6509
  690MPD2    C310256   2.072   4.090  15.230  0.2279 -0.4710  0.7084
  690MPD2    C410257   2.077   4.167  15.342 -0.1437 -0.4726 -0.4024
  690MPD2    C510258   1.968   4.193  15.414  0.1157  0.7694  0.1813
  690MPD2     H10259   1.936   4.006  15.094 -0.3129  1.1282  0.0223
  690MPD2    H110260   2.164   4.216  15.385 -0.0518 -1.5571  0.6331
  690MPD2    H210261   1.763   4.176  15.439 -2.2982 -1.3812 -1.7145
  690MPD2    H310262   1.973   4.263  15.496  2.1469 -0.5048  1.1423
  690MPD2     N10263   2.191   4.064  15.147 -0.6805 -0.7013 -0.3091
  690MPD2    H510264   2.178   4.022  15.055 -0.5422  1.0324 -1.1057
  690MPD2    N110265   1.708   4.005  15.230 -0.6961 -0.2443  0.1405
  690MPD2    H710266   1.706   3.940  15.152 -0.4734  0.2008 -0.2354
  691TMC3    C110267   1.488   3.927  15.265 -0.4392 -1.0665 -0.4702
  691TMC3    C210268   1.366   3.961  15.309  0.1315 -0.4816  0.5295
  691TMC3    C310269   1.278   3.860  15.337  0.3082  0.4652 -0.0583
  691TMC3    C410270   1.532   3.801  15.244  0.3547 -0.1699  0.4902
  691TMC3    C510271   1.443   3.700  15.264 -0.8576  0.7950 -0.2666
  691TMC3    C610272   1.316   3.726  15.312  0.7979 -0.2481 -0.6628
  691TMC3     C10273   1.588   4.035  15.292  0.9049  0.7481  0.4566
  691TMC3     O10274   1.550   4.128  15.359  0.3979  0.0270  0.3670
  691TMC3     H10275   1.353   4.056  15.359 -1.2989 -1.4904  2.1051
  691TMC3    H110276   1.624   3.777  15.193 -0.3253 -1.1695 -0.2704
  691TMC3    H210277   1.244   3.646  15.327  1.1270 -0.8758 -2.3928
  691TMC3    C710278   1.494   3.569  15.273  0.2188  0.1491  0.3106
  691TMC3    C810279   1.136   3.885  15.344 -0.4009 -1.1982  0.0786
  691TMC3    O110280   1.598   3.534  15.219  0.6044 -0.3450 -0.2213
  691TMC3    O210281   1.069   3.787  15.370  0.2283 -0.3097  0.2805
  692TMC3    C110282   3.294   0.471  15.532  0.0238  0.4737  0.4627
  692TMC3    C210283   3.420   0.519  15.575 -0.7716 -0.3466 -0.3936
  692TMC3    C310284   3.514   0.432  15.624  0.2634 -0.0550 -0.5690
  692TMC3    C410285   3.264   0.341  15.542 -0.0075  0.3221  0.4668
  692TMC3    C510286   3.356   0.257  15.589 -0.6254 -0.2471  0.3200
  692TMC3    C610287   3.477   0.304  15.632 -0.7079  0.6369 -0.1972
  692TMC3     C10288   3.191   0.552  15.584 -0.3432  0.7873  0.1261
  692TMC3     O10289   3.105   0.495  15.651 -0.1939 -0.0475 -0.4728
  692TMC3     H10290   3.454   0.620  15.552 -0.9152 -0.1206  0.3830
  692TMC3    H110291   3.165   0.309  15.510 -0.0428  1.4939 -0.5793
  692TMC3    H210292   3.557   0.238  15.661  0.0060  0.6787 -2.0439
  692TMC3    C710293   3.333   0.112  15.551 -0.3601  0.3001 -0.4738
  692TMC3    C810294   3.572   0.472  15.757  0.0740 -0.9561  0.2513
  692TMC3    O110295   3.246   0.085  15.470 -0.2462 -0.3244 -0.4180
  692TMC3    O210296   3.617   0.387  15.828 -0.7261  0.0342  0.4942
  693MPD2     C10297   2.094   2.828  10.304 -0.3219 -0.0826  0.6467
  693MPD2    C110298   2.142   2.939  10.376 -0.3318  0.2112 -0.1370
  693MPD2    C210299   2.281   2.936  10.409 -0.1019  0.2819  0.0068
  693MPD2    C310300   2.362   2.832  10.378 -0.3341  0.0433 -0.4349
  693MPD2    C410301   2.310   2.727  10.302 -0.4879 -0.4772  0.3680
  693MPD2    C510302   2.185   2.732  10.265 -0.1770  0.9816  0.4679
  693MPD2     H10303   2.315   3.029  10.452 -1.0730  1.3189 -1.4364
  693MPD2    H110304   2.374   2.645  10.270  1.3773 -0.2567  3.5914
  693MPD2    H210305   1.997   2.830  10.255  1.4091 -0.8385 -2.8546
  693MPD2    H310306   2.143   2.646  10.214 -0.8004  1.3884  0.3037
  693MPD2     N10307   2.497   2.826  10.402  0.3679  0.6975 -0.7791
  693MPD2    H510308   2.543   2.736  10.398 -0.3234  0.3701 -1.2295
  693MPD2    N110309   2.044   3.033  10.421 -0.1938 -0.3754  0.1634
  693MPD2    H710310   1.949   3.012  10.393 -0.3049  3.4479 -2.2273
  694TMC3    C110311   1.947   3.165  10.569 -0.4569 -0.1190 -0.3488
  694TMC3    C210312   1.824   3.123  10.520 -0.1313  0.0524 -0.4022
  694TMC3    C310313   1.726   3.081  10.608  0.4532  0.1061  0.3689
  694TMC3    C410314   1.965   3.164  10.699  0.0640 -0.4100  0.0517
  694TMC3    C510315   1.871   3.106  10.782 -0.2972  0.1373  0.0278
  694TMC3    C610316   1.752   3.060  10.735  0.4806 -0.4590  0.6789
  694TMC3     C10317   2.066   3.137  10.502  0.1904  0.1153  0.4263
  694TMC3     O10318   2.165   3.183  10.553 -0.4597 -0.5881 -0.3348
  694TMC3     H10319   1.801   3.135  10.414  0.6378 -1.7349 -0.7781
  694TMC3    H110320   2.058   3.194  10.744  1.0290 -1.5572 -1.1847
  694TMC3    H210321   1.676   3.023  10.804  0.2188 -1.1906  0.0031
  694TMC3    C710322   1.910   3.059  10.918  0.2246 -0.0944 -0.2700
  694TMC3    C810323   1.600   3.040  10.561  0.6164  0.1830 -0.5658
  694TMC3    O110324   1.978   3.128  10.990  0.0362 -0.5410  0.1960
  694TMC3    O210325   1.544   2.945  10.617  0.0864 -0.2717 -0.3344
  695MPD2     C10326   4.005   0.225  13.245 -0.2176 -0.8999 -0.3403
  695MPD2    C110327   3.934   0.222  13.367  0.1671 -0.6782  0.6801
  695MPD2    C210328   3.801   0.249  13.369 -0.1075  0.2567  0.5230
  695MPD2    C310329   3.735   0.280  13.255 -0.4086  0.4074  0.3791
  695MPD2    C410330   3.805   0.286  13.135 -0.3337  0.6994  0.1469
  695MPD2    C510331   3.940   0.264  13.130 -0.1046  0.6609  0.7291
  695MPD2     H10332   3.752   0.259  13.465  0.0839 -0.8618  0.7381
  695MPD2    H110333   3.762   0.347  13.057 -1.2139  0.1153  0.1805
  695MPD2    H210334   4.111   0.204  13.245 -0.0612 -0.1306  0.0271
  695MPD2    H310335   3.996   0.274  13.038 -0.4631  1.4359  0.5935
  695MPD2     N10336   3.600   0.328  13.266 -0.1657  0.1705  0.1268
  695MPD2    H510337   3.566   0.336  13.361 -0.2411  0.7938  0.0526
  695MPD2    N110338   3.993   0.181  13.488  0.3678 -0.0936 -0.0014
  695MPD2    H710339   3.930   0.176  13.568 -0.1577  2.0295 -0.2681
  696TMC3    C110340   3.377   0.390  13.224  0.2838 -0.2002  0.0083
  696TMC3    C210341   3.337   0.344  13.345 -0.0095 -0.2484 -0.5200
  696TMC3    C310342   3.221   0.391  13.399  0.3705 -0.2715 -0.0233
  696TMC3    C410343   3.304   0.493  13.167 -0.3920 -0.4005 -0.3403
  696TMC3    C510344   3.189   0.542  13.222 -0.2880  0.3010  0.0853
  696TMC3    C610345   3.145   0.494  13.340  0.2924  0.4272 -0.8631
  696TMC3     C10346   3.512   0.360  13.166  0.6499 -0.0387  0.2118
  696TMC3     O10347   3.511   0.368  13.045 -0.5005 -0.8233 -0.0117
  696TMC3     H10348   3.396   0.262  13.385  0.9911 -0.1942 -1.9001
  696TMC3    H110349   3.349   0.542  13.081 -0.0747 -2.9153 -1.6197
  696TMC3    H210350   3.053   0.537  13.379  0.2678  1.4919 -2.0796
  696TMC3    C710351   3.156   0.674  13.196 -0.3508 -0.0587  0.4485
  696TMC3    C810352   3.189   0.338  13.532 -0.0883 -0.1247 -0.0767
  696TMC3    O110353   3.130   0.704  13.078 -0.0050 -0.4293 -0.0055
  696TMC3    O210354   3.287   0.315  13.602 -0.0992 -0.1024 -0.0770
  697MPD2     C10355   3.186   2.079  15.320  0.4288  0.0480  0.3091
  697MPD2    C110356   3.124   2.020  15.212 -0.6020  0.6386  0.0075
  697MPD2    C210357   3.117   2.104  15.100 -0.2092 -0.6471 -0.2128
  697MPD2    C310358   3.161   2.236  15.101 -0.3771  0.0639 -0.4006
  697MPD2    C410359   3.219   2.292  15.212 -0.6278 -0.0178  0.0779
  697MPD2    C510360   3.231   2.211  15.324  0.2017 -0.5242 -0.6733
  697MPD2     H10361   3.067   2.069  15.011 -1.2414 -0.7706  0.4274
  697MPD2    H110362   3.261   2.392  15.221 -0.5183  0.0762 -1.4953
  697MPD2    H210363   3.206   2.025  15.413  2.2306 -1.2106 -0.7970
  697MPD2    H310364   3.286   2.243  15.411 -1.6357 -0.0485  0.3239
  697MPD2     N10365   3.156   2.299  14.980 -0.3151  0.5037 -0.0036
  697MPD2    H510366   3.119   2.245  14.902  3.3725  0.9475 -2.0237
  697MPD2    N110367   3.065   1.891  15.211 -0.3506 -0.9356  0.0925
  697MPD2    H710368   3.049   1.862  15.116  2.3938 -3.1759  0.2844
  698TMC3    C110369   3.130   2.477  14.827 -0.8619 -0.3741 -0.9595
  698TMC3    C210370   3.189   2.586  14.756 -0.6187  0.3477  0.7025
  698TMC3    C310371   3.131   2.628  14.638 -0.1195  0.3285 -0.1118
  698TMC3    C410372   3.022   2.416  14.778 -0.3953 -0.7985 -0.2183
  698TMC3    C510373   2.969   2.461  14.659  0.5128  0.3666  0.3608
  698TMC3    C610374   3.016   2.574  14.596 -0.3978 -0.1125  1.3270
  698TMC3     C10375   3.188   2.431  14.953 -0.3341 -0.3259  0.2652
  698TMC3     O10376   3.248   2.512  15.019 -0.0420  0.5300  0.3899
  698TMC3     H10377   3.274   2.622  14.812  0.6207 -0.1490 -0.8775
  698TMC3    H110378   2.991   2.318  14.813 -1.0182 -0.6197 -0.2724
  698TMC3    H210379   2.967   2.601  14.503  0.7117  2.1826  1.4134
  698TMC3    C710380   2.854   2.386  14.603 -0.4781  0.0805 -0.4237
  698TMC3    C810381   3.192   2.725  14.561  0.1463 -0.2539 -0.6682
  698TMC3    O110382   2.815   2.299  14.683 -0.4049 -0.4161  0.1474
  698TMC3    O210383   3.140   2.742  14.451 -0.1608  0.0030 -0.0554
  699TMC3    C110384   3.051   0.490  12.743 -0.4595 -0.4617  0.0412
  699TMC3    C210385   3.146   0.400  12.788  0.8472 -0.0435  0.1858
  699TMC3    C310386   3.125   0.341  12.909 -0.0080 -0.2297 -0.0610
  699TMC3    C410387   2.942   0.529  12.818  0.0324 -0.3532  0.0904
  699TMC3    C510388   2.926   0.473  12.946  0.6043  0.5841 -0.5876
  699TMC3    C610389   3.017   0.376  12.986 -0.5060  0.2189  0.1655
  699TMC3     C10390   3.072   0.574  12.629 -0.0264 -0.4867  0.6948
  699TMC3     O10391   2.970   0.594  12.564  0.2016  0.3563  0.3062
  699TMC3     H10392   3.233   0.377  12.729 -0.5966 -0.7278 -1.6847
  699TMC3    H110393   2.898   0.623  12.786 -0.1688  0.1110  1.7692
  699TMC3    H210394   3.011   0.340  13.088  0.5084  1.1598  0.5524
  699TMC3    C710395   2.819   0.522  13.036  0.2453  0.2131 -0.3219
  699TMC3    C810396   3.187   0.214  12.953 -0.4294 -0.1591  0.3583
  699TMC3    O110397   2.817   0.486  13.151 -1.0658 -0.0220  0.3704
  699TMC3    O210398   3.186   0.187  13.075 -0.1798 -0.1959  0.2530
  700TMC3    C110399   2.301   2.758  17.057 -0.5735  0.0017 -0.3370
  700TMC3    C210400   2.340   2.644  16.993  0.3285 -0.1922 -0.4284
  700TMC3    C310401   2.464   2.594  17.038  0.0094 -0.1489 -0.7393
  700TMC3    C410402   2.369   2.818  17.163 -0.3492  0.8644 -0.4723
  700TMC3    C510403   2.489   2.767  17.205  0.1501  0.2927  0.4545
  700TMC3    C610404   2.545   2.661  17.140 -0.2148 -0.5723  0.0779
  700TMC3     C10405   2.211   2.839  16.976 -0.3688 -0.4660  0.4005
  700TMC3     O10406   2.112   2.792  16.921  0.1067 -0.1021 -0.0111
  700TMC3     H10407   2.279   2.603  16.913 -0.7678  1.1573 -0.2791
  700TMC3    H110408   2.324   2.906  17.206 -0.4242  1.2235 -1.2708
  700TMC3    H210409   2.641   2.619  17.165 -0.4249 -1.2307 -0.2106
  700TMC3    C710410   2.567   2.856  17.294 -0.3355  0.0478 -0.4704
  700TMC3    C810411   2.524   2.475  16.976 -0.0445  0.1358  0.1304
  700TMC3    O110412   2.521   2.968  17.310 -0.1948 -0.1408 -0.3917
  700TMC3    O210413   2.638   2.451  17.016 -0.0539 -1.0651  0.2359
  701TMC3    C110414   2.381   1.208  15.362  0.4582  0.0323  0.5080
  701TMC3    C210415   2.386   1.180  15.237 -0.0224 -0.2265 -0.4074
  701TMC3    C310416   2.498   1.219  15.166 -0.0668  0.1434  0.1832
  701TMC3    C410417   2.471   1.281  15.432  0.0688  0.0142  0.6017
  701TMC3    C510418   2.576   1.326  15.363 -0.4867 -0.2491  0.4301
  701TMC3    C610419   2.588   1.299  15.227  0.1913  0.4176 -0.1762
  701TMC3     C10420   2.249   1.228  15.428 -0.2603  0.3176  0.2457
  701TMC3     O10421   2.180   1.316  15.374  0.1345  0.3267  0.3710
  701TMC3     H10422   2.300   1.128  15.198  0.1327 -1.2507  0.6113
  701TMC3    H110423   2.455   1.294  15.538  2.2137  0.7080  0.8383
  701TMC3    H210424   2.678   1.330  15.175  0.7149 -2.2839 -0.9188
  701TMC3    C710425   2.645   1.447  15.415  0.0056 -0.5700 -0.0730
  701TMC3    C810426   2.498   1.209  15.024  0.7471  0.0018  0.4972
  701TMC3    O110427   2.689   1.523  15.328  0.7846  0.3535 -0.2464
  701TMC3    O210428   2.554   1.298  14.962  0.9268  0.0732 -0.5596
  702MPD2     C10429   1.918   3.589  10.476 -0.4653 -0.0700 -0.0619
  702MPD2    C110430   1.852   3.663  10.570  0.1586  1.1079 -0.3777
  702MPD2    C210431   1.797   3.786  10.533 -0.0320 -0.5333 -0.4070
  702MPD2    C310432   1.810   3.833  10.404 -1.0276  0.2172 -0.3372
  702MPD2    C410433   1.876   3.754  10.316  0.4222  1.0733  0.0755
  702MPD2    C510434   1.927   3.631  10.349 -0.1418 -0.1605  0.3992
  702MPD2     H10435   1.747   3.845  10.609  0.2843 -0.8214  0.0329
  702MPD2    H110436   1.896   3.791  10.216 -1.9768  1.3029 -0.3174
  702MPD2    H210437   1.965   3.494  10.495  0.2710  0.3066  0.0238
  702MPD2    H310438   1.994   3.583  10.279 -2.0480  0.3561 -1.7869
  702MPD2     N10439   1.758   3.960  10.358  0.1595  0.5249  0.2289
  702MPD2    H510440   1.788   3.985  10.265  0.2875  0.4540  0.2514
  702MPD2    N110441   1.840   3.624  10.708 -0.0789 -0.2263  0.2300
  702MPD2    H710442   1.790   3.690  10.767 -0.4631 -0.6820  0.4060
  703TMC3    C110443   1.611   4.144  10.350  0.6180  0.2691 -0.0003
  703TMC3    C210444   1.484   4.190  10.346  0.0916  0.0025 -0.1057
  703TMC3    C310445   1.464   4.310  10.286  0.4127 -0.1944  0.4908
  703TMC3    C410446   1.716   4.208  10.290  0.0240  0.2308 -0.1171
  703TMC3    C510447   1.692   4.333  10.240 -0.1877  0.6473  0.0349
  703TMC3    C610448   1.567   4.380  10.234  0.3929  0.0372 -0.2863
  703TMC3     C10449   1.644   4.022  10.414 -0.0499  0.0662 -0.9388
  703TMC3     O10450   1.570   3.978  10.501 -0.6623 -0.0033  0.0093
  703TMC3     H10451   1.400   4.132  10.382 -0.9990  1.2819 -0.5832
  703TMC3    H110452   1.818   4.177  10.309 -0.5441 -1.1734  0.6287
  703TMC3    H210453   1.548   4.474  10.183  1.6063 -1.2210 -3.0019
  703TMC3    C710454   1.801   4.397  10.168  0.1095 -0.3545 -0.1881
  703TMC3    C810455   1.342   4.375  10.296 -0.2769  1.0785  0.6169
  703TMC3    O110456   1.801   4.516  10.156 -0.3725 -1.0254  0.2178
  703TMC3    O210457   1.303   4.450  10.207  0.7056 -0.6628 -0.0869
  704TMC3    C110458   3.839   2.309  11.835  0.5839  0.7173 -0.6848
  704TMC3    C210459   3.953   2.313  11.765  0.2904 -0.4703 -0.2537
  704TMC3    C310460   4.067   2.265  11.818 -0.2952  0.2317 -0.0292
  704TMC3    C410461   3.836   2.265  11.965 -0.1954 -0.2821  0.1956
  704TMC3    C510462   3.952   2.213  12.018  0.0328 -0.4525  0.0971
  704TMC3    C610463   4.069   2.214  11.941 -0.3633 -0.1730 -0.5140
  704TMC3     C10464   3.730   2.278  11.743  0.1905 -0.0473 -0.3507
  704TMC3     O10465   3.758   2.243  11.630 -0.3007  0.1263 -0.4369
  704TMC3     H10466   3.957   2.341  11.661 -1.2164  0.1605 -0.1443
  704TMC3    H110467   3.739   2.258  12.013 -0.7560  1.4327 -0.6823
  704TMC3    H210468   4.159   2.165  11.977 -0.2480  0.7706  0.5020
  704TMC3    C710469   3.933   2.089  12.090  0.7701 -0.6173  0.5487
  704TMC3    C810470   4.146   2.194  11.716  0.0802 -0.4264 -0.1172
  704TMC3    O110471   4.014   2.002  12.051 -0.4732  0.2217  0.6892
  704TMC3    O210472   4.099   2.149  11.614  0.0117  0.1061 -0.3032
  705MPD2     C10473   3.668   4.683  16.276 -0.1526 -1.2482 -0.1874
  705MPD2    C110474   3.692   0.078  16.251  0.1300  0.0461  0.2982
  705MPD2    C210475   3.610   0.172  16.299  0.5261 -0.1774  0.2353
  705MPD2    C310476   3.489   0.134  16.365  0.1546  0.3242 -0.3048
  705MPD2    C410477   3.460   0.000  16.385  0.0340  0.1438 -0.7670
  705MPD2    C510478   3.553   4.650  16.352  0.0405 -0.4414  0.1362
  705MPD2     H10479   3.627   0.277  16.277  0.6218 -0.6614 -2.0205
  705MPD2    H110480   3.375   4.703  16.443  2.8079 -2.4141  1.7408
  705MPD2    H210481   3.729   4.599  16.246 -1.5250 -2.3589  0.1717
  705MPD2    H310482   3.519   4.549  16.372 -4.1275  1.4650  2.7332
  705MPD2     N10483   3.391   0.227  16.400  0.0292  0.1572  0.1240
  705MPD2    H510484   3.302   0.192  16.433 -0.7901  0.8117 -1.4127
  705MPD2    N110485   3.793   0.125  16.164 -0.1377  0.1762  0.6395
  705MPD2    H710486   3.801   0.226  16.152  0.6576  0.0755  0.3271
  706TMC3    C110487   4.120   0.112  15.833 -0.8331 -0.8804  0.0377
  706TMC3    C210488   4.075   0.230  15.779 -0.5645  0.1088 -0.1055
  706TMC3    C310489   3.965   0.279  15.836 -0.6166 -0.1437  0.8713
  706TMC3    C410490   4.076   0.057  15.953  0.0270 -0.1573  0.2955
  706TMC3    C510491   3.969   0.123  16.008  1.0047 -0.1306 -0.1285
  706TMC3    C610492   3.907   0.239  15.954 -0.0071  0.0909  0.0600
  706TMC3     C10493   4.224   0.037  15.768 -0.1506 -0.2158  0.3646
  706TMC3     O10494   4.287   4.699  15.844 -0.5613  0.3135 -0.3790
  706TMC3     H10495   4.113   0.268  15.685 -2.1885 -0.0771 -0.8445
  706TMC3    H110496   4.110   4.704  16.000  1.2568  0.6806  1.0446
  706TMC3    H210497   3.821   0.293  15.990 -0.4082 -1.4342  1.3903
  706TMC3    C710498   3.887   0.048  16.106 -0.9590  0.1936 -0.1555
  706TMC3    C810499   3.956   0.421  15.805 -0.4735  0.1325 -0.2012
  706TMC3    O110500   3.902   4.664  16.111 -0.4584  0.1896  0.4430
  706TMC3    O210501   3.968   0.451  15.685 -0.4883 -0.3722  0.0017
  707TMC3    C110502   0.380   3.486   0.811 -0.6813  0.3451 -0.5482
  707TMC3    C210503   0.393   3.509   0.945  0.1583 -0.1678  0.2205
  707TMC3    C310504   0.311   3.444   1.034  0.6764 -0.2213  0.8773
  707TMC3    C410505   0.293   3.393   0.756  0.2250 -0.3413 -0.3187
  707TMC3    C510506   0.207   3.333   0.845 -0.5246 -0.0527 -0.0164
  707TMC3    C610507   0.219   3.360   0.983 -0.0752 -0.4916 -0.5591
  707TMC3     C10508   0.501   3.516   0.733 -0.3775  0.2125  0.2949
  707TMC3     O10509   0.604   3.528   0.799  0.3266  0.4451  0.2895
  707TMC3     H10510   0.465   3.584   0.975 -1.3385  0.4848  2.2072
  707TMC3    H110511   0.298   3.363   0.653  0.6640  1.2684 -0.7721
  707TMC3    H210512   0.147   3.305   1.042  0.0875  2.0423  1.9710
  707TMC3    C710513   0.089   3.256   0.803 -0.3069 -0.5818  0.0825
  707TMC3    C810514   0.366   3.400   1.162  0.0737  0.4913  0.2164
  707TMC3    O110515   0.062   3.161   0.873  0.3345  0.2855  0.1234
  707TMC3    O210516   0.302   3.307   1.211 -0.0050 -0.3391  0.2599
  708MPD2     C10517   2.173   3.066  13.488 -0.0424  0.3181  0.2386
  708MPD2    C110518   2.060   3.056  13.570 -0.7807  0.5816 -0.2810
  708MPD2    C210519   2.060   2.950  13.666 -0.7850  0.2729 -0.1369
  708MPD2    C310520   2.170   2.865  13.679 -0.5768  0.4290 -0.5484
  708MPD2    C410521   2.279   2.876  13.587  0.0157 -0.6362  0.0395
  708MPD2    C510522   2.284   2.977  13.497  0.0079  0.2057  0.1281
  708MPD2     H10523   1.994   2.941  13.752  1.7439  1.8429  1.9652
  708MPD2    H110524   2.366   2.813  13.603  1.2115  1.0818  0.2990
  708MPD2    H210525   2.186   3.156  13.429  0.6615 -1.2730 -2.0231
  708MPD2    H310526   2.377   2.993  13.443  1.2019 -2.1947  1.4773
  708MPD2     N10527   2.164   2.772  13.781 -0.0299 -0.1218  0.4398
  708MPD2    H510528   2.070   2.763  13.818 -0.0390  0.2327  0.5054
  708MPD2    N110529   1.974   3.168  13.576  0.1050  0.4401 -0.2657
  708MPD2    H710530   1.997   3.247  13.518  0.0370  0.9139  0.3498
  709TMC3    C110531   1.810   3.315  13.665  0.4743  0.1399 -0.4188
  709TMC3    C210532   1.702   3.344  13.583 -0.0558 -0.3441 -0.2039
  709TMC3    C310533   1.600   3.405  13.639  0.0274 -0.1382  0.7184
  709TMC3    C410534   1.815   3.353  13.794  0.0285  0.4259 -0.0546
  709TMC3    C510535   1.702   3.397  13.852 -0.5100 -0.5178 -0.8805
  709TMC3    C610536   1.590   3.425  13.774  0.1210  0.4131 -0.0899
  709TMC3     C10537   1.863   3.181  13.660 -0.5578  0.7051  0.4923
  709TMC3     O10538   1.825   3.105  13.749  0.2250 -0.3957  0.9558
  709TMC3     H10539   1.718   3.323  13.477 -2.6497  1.0879 -0.9006
  709TMC3    H110540   1.903   3.316  13.846  0.4473  0.5770 -0.6535
  709TMC3    H210541   1.512   3.482  13.823  0.0331 -0.4937  0.8137
  709TMC3    C710542   1.681   3.345  13.986  0.0822  0.6849 -0.6080
  709TMC3    C810543   1.480   3.445  13.574  0.0861 -0.0297 -0.3138
  709TMC3    O110544   1.609   3.403  14.068  0.2731  0.0187  0.2426
  709TMC3    O210545   1.384   3.468  13.645  0.1256 -0.5388  0.3419
  710TMC3    C110546   3.008   0.126  17.607  0.0477  0.5599  0.0851
  710TMC3    C210547   3.059   0.119  17.478 -0.0902  0.1393  0.1265
  710TMC3    C310548   3.194   0.098  17.460  0.0134 -1.0030  0.1554
  710TMC3    C410549   3.093   0.120  17.717 -0.1370  0.6354 -0.1350
  710TMC3    C510550   3.219   0.086  17.696 -0.6604  0.0779  0.4692
  710TMC3    C610551   3.271   0.089  17.571 -0.6090 -0.0519  0.0102
  710TMC3     C10552   2.868   0.133  17.623  0.2691  0.3233  0.7922
  710TMC3     O10553   2.806   0.132  17.523  0.0391 -0.1765  0.7678
  710TMC3     H10554   2.996   0.129  17.390 -0.7448  0.3713  0.6147
  710TMC3    H110555   3.052   0.113   0.066 -1.0272 -0.6272 -0.5868
  710TMC3    H210556   3.378   0.103  17.563 -0.8090  0.6094 -1.4606
  710TMC3    C710557   3.287   0.004   0.042  0.5829 -0.6218  0.3772
  710TMC3    C810558   3.252   0.161  17.341  0.3154 -0.1240 -0.1230
  710TMC3    O110559   3.241   4.734   0.156 -0.8006 -0.1831 -0.0097
  710TMC3    O210560   3.360   0.112  17.303 -0.0932  0.2776 -0.6746
  711TMC3    C110561   2.788   1.097  14.629 -0.5691 -0.3474 -0.3938
  711TMC3    C210562   2.791   1.136  14.757 -0.4013  0.2030 -1.0375
  711TMC3    C310563   2.904   1.181  14.820  0.1996  0.6869  0.0909
  711TMC3    C410564   2.908   1.093  14.560 -0.9957 -0.0074  0.0463
  711TMC3    C510565   3.025   1.142  14.618 -0.3924 -0.5940  0.1993
  711TMC3    C610566   3.012   1.206  14.745 -0.6201  0.2100 -0.2253
  711TMC3     C10567   2.711   0.978  14.606  0.7501  0.0730 -0.0867
  711TMC3     O10568   2.689   0.936  14.497 -0.5905 -0.5537  0.0955
  711TMC3     H10569   2.696   1.160  14.805 -0.3778 -0.0580 -0.8575
  711TMC3    H110570   2.905   1.052  14.460  0.4338 -2.0971  0.8411
  711TMC3    H210571   3.104   1.227  14.798 -0.8756  0.6630  0.0365
  711TMC3    C710572   3.125   1.035  14.639  0.3531 -0.6632  0.4066
  711TMC3    C810573   2.920   1.094  14.934 -0.8455 -0.2886 -0.2044
  711TMC3    O110574   3.219   1.055  14.715 -0.3458 -0.4087 -0.1098
  711TMC3    O210575   2.821   1.027  14.960 -0.6316  0.3133  0.3712
  712MPD2     C10576   4.014   1.636  13.298 -1.1195 -0.2755  0.1629
  712MPD2    C110577   3.942   1.707  13.386  0.2523 -0.2082 -0.4594
  712MPD2    C210578   3.999   1.814  13.443 -0.5526 -0.0521 -0.0672
  712MPD2    C310579   4.125   1.860  13.408 -0.6192  0.1583 -0.2161
  712MPD2    C410580   4.191   1.787  13.315 -1.3333 -0.0059 -0.3423
  712MPD2    C510581   4.138   1.673  13.266  0.3792  0.1608 -1.4129
  712MPD2     H10582   3.944   1.885  13.505 -0.7616 -0.4119  0.1589
  712MPD2    H110583   4.284   1.815  13.266 -1.3861 -0.2951 -0.6092
  712MPD2    H210584   3.978   1.548  13.247  0.0631 -1.1260  0.7955
  712MPD2    H310585   4.204   1.618  13.201 -0.0489 -1.5955 -0.3523
  712MPD2     N10586   4.171   1.988  13.437 -0.8124 -0.7619 -0.1022
  712MPD2    H510587   4.262   2.010  13.396 -1.2279  0.0319 -0.6083
  712MPD2    N110588   3.807   1.682  13.413 -0.2222 -0.6821 -0.4202
  712MPD2    H710589   3.764   1.735  13.487 -0.7854  0.8277 -1.8196
  713TMC3    C110590   4.203   2.197  13.523  0.0047 -0.1182  0.1122
  713TMC3    C210591   4.336   2.180  13.493 -0.6388  0.1661 -0.1160
  713TMC3    C310592   4.414   2.284  13.513 -0.5842  0.1297  0.2638
  713TMC3    C410593   4.146   2.319  13.560 -0.6143  0.0093  0.6626
  713TMC3    C510594   4.232   2.425  13.576  0.6144  0.0435 -0.0070
  713TMC3    C610595   4.368   2.407  13.558  0.0405 -0.5631  0.4881
  713TMC3     C10596   4.110   2.085  13.508 -0.1154  0.1165  0.2244
  713TMC3     O10597   4.008   2.085  13.574  0.0523  0.2041  0.0303
  713TMC3     H10598   4.389   2.086  13.497  1.7410  1.4169 -2.6780
  713TMC3    H110599   4.041   2.326  13.584 -1.2003 -0.7998 -1.6948
  713TMC3    H210600   4.442   2.486  13.566 -0.4569 -0.1208  0.6417
  713TMC3    C710601   4.190   2.555  13.611 -0.8249  0.6483 -0.6949
  713TMC3    C810602   4.558   2.264  13.494  0.5977 -0.1855  0.2765
  713TMC3    O110603   4.270   2.644  13.629  0.0573  0.3097 -0.3544
  713TMC3    O210604   4.591   2.223  13.385 -0.2526 -0.4525  0.0403
  714MPD2     C10605   1.434   0.809   1.182  0.3061 -0.4525 -0.4136
  714MPD2    C110606   1.461   0.693   1.107 -0.4840 -0.0980 -0.6255
  714MPD2    C210607   1.385   0.663   0.995  0.3511  0.5576 -0.5859
  714MPD2    C310608   1.277   0.744   0.956 -0.5099 -0.7026  0.2986
  714MPD2    C410609   1.246   0.853   1.035  0.1948 -0.0027  0.1359
  714MPD2    C510610   1.322   0.881   1.145 -0.6258  0.5943 -0.1168
  714MPD2     H10611   1.414   0.586   0.925 -1.2990 -2.5101  2.0553
  714MPD2    H110612   1.155   0.910   1.017 -1.3393 -2.7683 -0.8922
  714MPD2    H210613   1.497   0.829   1.268 -0.4966  0.6143 -0.0773
  714MPD2    H310614   1.293   0.962   1.211  0.1385  1.5538 -0.9528
  714MPD2     N10615   1.195   0.714   0.844  0.3476 -0.2451 -0.3558
  714MPD2    H510616   1.206   0.619   0.809  0.3133 -1.2298  2.2329
  714MPD2    N110617   1.564   0.601   1.148  0.3857  0.2070 -0.6378
  714MPD2    H710618   1.617   0.629   1.231  2.1583 -0.9013 -1.4020
  715TMC3    C110619   1.697   0.414   1.176  0.2241 -0.0382  0.3087
  715TMC3    C210620   1.709   0.280   1.161  0.2027 -0.2335 -0.2497
  715TMC3    C310621   1.816   0.222   1.225  0.5485 -0.4071 -0.3289
  715TMC3    C410622   1.787   0.491   1.249 -0.3304 -0.5535  0.0268
  715TMC3    C510623   1.887   0.429   1.320  0.0383  0.4614  0.7159
  715TMC3    C610624   1.911   0.295   1.301 -0.1149  0.1345 -0.3632
  715TMC3     C10625   1.594   0.481   1.094  0.3621  1.0505 -0.0482
  715TMC3     O10626   1.546   0.414   1.004  0.3259 -0.0310 -0.4337
  715TMC3     H10627   1.649   0.211   1.102 -0.5381  1.1414 -1.0908
  715TMC3    H110628   1.791   0.599   1.245  0.1728 -0.5332  0.9869
  715TMC3    H210629   2.006   0.255   1.336 -0.4160 -0.4085 -0.1733
  715TMC3    C710630   1.975   0.516   1.395  0.5882  0.6426  0.1075
  715TMC3    C810631   1.842   0.080   1.203 -0.5332  0.3042  0.4512
  715TMC3    O110632   2.009   0.630   1.362 -0.9676  0.5016  0.0203
  715TMC3    O210633   1.803   0.024   1.102  0.2247 -0.3343  0.6376
  716MPD2     C10634   1.195   3.426   9.526  0.1990 -0.7834 -0.0765
  716MPD2    C110635   1.099   3.524   9.504 -0.4069  0.1472  1.0422
  716MPD2    C210636   0.968   3.486   9.459  0.0617 -0.1528  0.4728
  716MPD2    C310637   0.939   3.354   9.429  0.1124  0.2502 -0.8854
  716MPD2    C410638   1.028   3.258   9.473 -0.0542  0.1067 -0.4174
  716MPD2    C510639   1.159   3.295   9.516 -0.2040 -0.4862 -0.0929
  716MPD2     H10640   0.888   3.555   9.433  1.7158  0.4805 -3.0029
  716MPD2    H110641   1.007   3.152   9.464  2.1618 -0.4758  0.9862
  716MPD2    H210642   1.295   3.456   9.556  0.1692 -0.9905  0.2380
  716MPD2    H310643   1.232   3.227   9.558  1.6200  1.5258  0.0239
  716MPD2     N10644   0.818   3.320   9.362  0.4294 -0.3521  0.3605
  716MPD2    H510645   0.775   3.394   9.307 -2.2209  0.3669  3.4401
  716MPD2    N110646   1.138   3.658   9.502  0.3497  0.1893 -0.4783
  716MPD2    H710647   1.236   3.678   9.516 -0.0107  1.9557 -0.5478
  717TMC3    C110648   0.686   3.182   9.233 -0.2613 -0.1800 -0.6110
  717TMC3    C210649   0.641   3.285   9.150 -0.0387 -0.0479  0.0758
  717TMC3    C310650   0.516   3.301   9.098  0.6006 -0.0582 -0.8206
  717TMC3    C410651   0.588   3.087   9.255  0.3231  0.1430  0.0379
  717TMC3    C510652   0.460   3.093   9.186  1.1185  0.2639  0.0386
  717TMC3    C610653   0.418   3.203   9.111  0.1170  0.2426  0.1266
  717TMC3     C10654   0.775   3.197   9.343 -0.1176 -0.0555  0.5194
  717TMC3     O10655   0.820   3.092   9.391  0.1139 -0.8212  0.0923
  717TMC3     H10656   0.704   3.372   9.139 -0.1967 -0.0950 -1.2847
  717TMC3    H110657   0.620   3.017   9.330  1.9199 -0.4067 -1.1633
  717TMC3    H210658   0.327   3.200   9.052 -0.7502  2.6486  1.3296
  717TMC3    C710659   0.361   2.981   9.183  0.5983  0.2611 -0.3479
  717TMC3    C810660   0.490   3.428   9.026  0.0651  0.0972  1.0573
  717TMC3    O110661   0.254   2.997   9.122  0.0283 -0.1203  0.2186
  717TMC3    O210662   0.579   3.459   8.947  0.2679 -0.8272  0.6023
  718MPD2     C10663   0.629   2.535  12.714 -0.0669 -0.1118  0.0458
  718MPD2    C110664   0.599   2.428  12.637  0.4357  0.0015 -0.8767
  718MPD2    C210665   0.574   2.311  12.710  0.3876  0.0310  0.1353
  718MPD2    C310666   0.579   2.301  12.850 -0.1617 -0.5912 -0.4186
  718MPD2    C410667   0.611   2.415  12.921  0.2796 -0.4037 -0.2578
  718MPD2    C510668   0.632   2.533  12.848  0.3419 -0.7984 -0.0371
  718MPD2     H10669   0.535   2.230  12.650  0.2029  1.3799 -1.5470
  718MPD2    H110670   0.630   2.413  13.028 -1.1764 -0.3129  0.0065
  718MPD2    H210671   0.668   2.624  12.665  0.4925 -0.0008  0.6721
  718MPD2    H310672   0.676   2.621  12.894 -1.1013 -2.5499  4.7267
  718MPD2     N10673   0.562   2.176  12.908  0.8684 -0.1977  0.4168
  718MPD2    H510674   0.546   2.105  12.837 -1.6339  0.1634  0.6227
  718MPD2    N110675   0.603   2.440  12.494  0.1189  0.3932  0.5298
  718MPD2    H710676   0.614   2.530  12.449 -0.7496  1.3602  2.2358
  719TMC3    C110677   0.639   2.354  12.278 -0.1871  0.2966 -0.2621
  719TMC3    C210678   0.632   2.230  12.212 -0.0806  0.0326  0.5076
  719TMC3    C310679   0.735   2.182  12.135 -0.6126  0.1001  0.2267
  719TMC3    C410680   0.750   2.422  12.252  0.3209 -0.4929 -0.1084
  719TMC3    C510681   0.845   2.371  12.167 -0.4963  0.2081 -0.3071
  719TMC3    C610682   0.851   2.251  12.119  0.0010 -0.3171 -0.3097
  719TMC3     C10683   0.610   2.326  12.414 -0.5555  0.3383  0.0952
  719TMC3     O10684   0.583   2.207  12.436  0.5975  0.3164  1.0766
  719TMC3     H10685   0.538   2.176  12.214  0.3935 -0.9245 -2.8910
  719TMC3    H110686   0.772   2.513  12.307 -0.2826 -0.9893  0.9403
  719TMC3    H210687   0.935   2.219  12.059 -1.4651 -0.1604 -2.4610
  719TMC3    C710688   0.976   2.445  12.159  1.3601 -0.0779  0.1187
  719TMC3    C810689   0.763   2.041  12.153  0.3082 -0.5635  0.1323
  719TMC3    O110690   0.968   2.560  12.110  0.2763 -0.9310 -0.2462
  719TMC3    O210691   0.841   1.977  12.077  0.3271 -0.3846 -0.0954
  720MPD2     C10692   3.969   4.031  14.096  0.2355 -0.5586 -0.4805
  720MPD2    C110693   4.051   4.031  13.979  0.2416 -0.0745 -0.5718
  720MPD2    C210694   4.184   4.025  13.998 -0.0379 -0.1066 -0.0842
  720MPD2    C310695   4.246   4.027  14.124 -0.5460  0.6307  0.2117
  720MPD2    C410696   4.167   4.038  14.239  0.3052 -0.0170 -0.1040
  720MPD2    C510697   4.025   4.047  14.226 -0.1572 -0.5748  0.4088
  720MPD2     H10698   4.251   4.032  13.913  0.1249 -1.9330 -0.0909
  720MPD2    H110699   4.202   4.016  14.339 -0.7005 -0.8554  0.0651
  720MPD2    H210700   3.861   4.040  14.097  0.3774  0.4963  2.6364
  720MPD2    H310701   3.968   4.050  14.317  0.6577  0.9669  0.8614
  720MPD2     N10702   4.389   4.026  14.129  0.3982  0.0056 -0.9352
  720MPD2    H510703   4.443   4.019  14.043  0.5923 -0.7144 -0.7507
  720MPD2    N110704   4.002   4.035  13.845 -0.6433 -0.0287  0.1672
  720MPD2    H710705   4.072   4.029  13.772 -0.0619  0.3817  0.6912
  721TMC3    C110706   4.610   3.987  14.233  0.1397  0.7961 -0.4577
  721TMC3    C210707   4.671   3.995  14.352 -0.7418  0.1078 -0.2422
  721TMC3    C310708   0.057   3.926  14.355  0.4332 -0.5027 -0.3840
  721TMC3    C410709   4.663   3.927  14.120 -0.5009 -0.4689 -0.0308
  721TMC3    C510710   0.043   3.866  14.125 -0.4179 -0.4984 -1.2426
  721TMC3    C610711   0.104   3.853  14.246 -0.2407  0.3827 -0.3940
  721TMC3     C10712   4.465   4.018  14.245 -0.3319 -1.4437 -0.1072
  721TMC3     O10713   4.422   4.041  14.355  0.0727  0.6053 -0.7301
  721TMC3     H10714   4.630   4.045  14.439  0.5928  1.0612 -0.1659
  721TMC3    H110715   4.602   3.919  14.031 -1.3125 -1.4119  0.6184
  721TMC3    H210716   0.204   3.811  14.245  0.3521  1.7841 -0.3325
  721TMC3    C710717   0.096   3.813  14.004  0.3321  0.3106  0.3381
  721TMC3    C810718   0.151   3.937  14.463 -0.3473  0.0511  0.0274
  721TMC3    O110719   0.078   3.884  13.906  0.3355  0.3929 -0.2592
  721TMC3    O210720   0.241   3.856  14.465 -0.3395 -0.1852  0.2410
  722MPD2     C10721   3.278   2.414  13.048  0.2268  0.6349  0.2148
  722MPD2    C110722   3.222   2.540  13.044  0.0287 -0.1095 -0.0961
  722MPD2    C210723   3.091   2.556  13.053 -0.3323 -0.0256 -0.2520
  722MPD2    C310724   3.009   2.455  13.054 -0.7728 -0.0660  0.2062
  722MPD2    C410725   3.058   2.324  13.044  0.0484  0.4497 -0.6063
  722MPD2    C510726   3.190   2.309  13.035  0.6966 -0.2683 -0.5859
  722MPD2     H10727   3.043   2.652  13.059  2.0535  1.1920 -0.5339
  722MPD2    H110728   2.992   2.239  13.033  0.4049  0.2404 -1.0888
  722MPD2    H210729   3.382   2.386  13.045  0.2416  0.6861  0.2431
  722MPD2    H310730   3.228   2.209  13.016  1.1412  0.1543 -1.8718
  722MPD2     N10731   2.872   2.484  13.064  0.4191 -0.4624 -0.3324
  722MPD2    H510732   2.848   2.582  13.067 -0.8285 -0.8222  1.7291
  722MPD2    N110733   3.300   2.660  13.051 -0.5661 -0.2397  0.1133
  722MPD2    H710734   3.252   2.750  13.050 -1.0322 -0.4833  0.7901
  723TMC3    C110735   2.641   2.446  13.075  0.8290  0.6703 -0.2072
  723TMC3    C210736   2.549   2.377  13.157 -0.0939  0.3389 -0.4002
  723TMC3    C310737   2.416   2.405  13.153 -0.1633  0.4048 -0.1448
  723TMC3    C410738   2.596   2.556  12.999 -0.4888 -0.6889  0.2849
  723TMC3    C510739   2.459   2.581  13.001 -0.1867 -0.3306 -0.3140
  723TMC3    C610740   2.371   2.503  13.073 -0.2862  0.3013  0.1715
  723TMC3     C10741   2.774   2.387  13.077 -1.3550  0.1937 -0.4933
  723TMC3     O10742   2.780   2.263  13.080 -0.2607  0.1158 -0.3051
  723TMC3     H10743   2.577   2.302  13.231  0.8984  0.6769 -0.4326
  723TMC3    H110744   2.669   2.616  12.944 -0.9509 -0.7676 -0.4182
  723TMC3    H210745   2.268   2.537  13.079 -0.3560  0.5294 -2.0622
  723TMC3    C710746   2.424   2.700  12.920 -0.5168 -0.6805 -0.9651
  723TMC3    C810747   2.324   2.306  13.204  0.0991 -0.0673 -0.2797
  723TMC3    O110748   2.515   2.752  12.866 -0.3532  0.0951  0.4389
  723TMC3    O210749   2.366   2.239  13.296  0.6194 -0.4692  0.1959
  724TMC3    C110750   3.319   1.146   9.145  0.2524 -0.5018 -0.4374
  724TMC3    C210751   3.234   1.243   9.082 -0.2792  0.6658 -0.0260
  724TMC3    C310752   3.180   1.343   9.164 -0.3123  0.1104 -0.0479
  724TMC3    C410753   3.332   1.143   9.281 -0.1236  0.1489 -0.6621
  724TMC3    C510754   3.272   1.243   9.353  0.0816 -0.1950  0.3637
  724TMC3    C610755   3.191   1.341   9.299 -0.2940 -0.4325 -0.0311
  724TMC3     C10756   3.369   1.042   9.052  0.5448  0.0173  0.3254
  724TMC3     O10757   3.340   1.062   8.939  0.3357  0.8828 -0.0709
  724TMC3     H10758   3.233   1.252   8.974 -0.8956  1.4818  0.0498
  724TMC3    H110759   3.390   1.073   9.340  1.3001  0.6329 -1.4884
  724TMC3    H210760   3.153   1.427   9.353  0.1221  0.7188 -1.5453
  724TMC3    C710761   3.365   1.320   9.441 -0.0980  0.0259 -1.3088
  724TMC3    C810762   3.208   1.471   9.100  0.1431 -0.0707 -0.1158
  724TMC3    O110763   3.378   1.437   9.400 -0.3364 -0.1433 -0.5179
  724TMC3    O210764   3.181   1.483   8.980  0.3588 -0.1991 -0.5213
  725TMC3    C110765   4.655   4.062  12.064 -0.4864  0.0288  0.2109
  725TMC3    C210766   4.527   4.081  12.045  0.1171  0.2678 -0.1939
  725TMC3    C310767   4.468   4.013  11.947  0.2327  0.4665  0.2917
  725TMC3    C410768   4.730   3.973  11.990 -0.4810 -0.0912 -0.7620
  725TMC3    C510769   4.655   3.889  11.905 -0.2752 -0.5654 -0.2740
  725TMC3    C610770   4.526   3.911  11.880 -0.3911 -0.3132 -0.3534
  725TMC3     C10771   4.728   4.141  12.157  0.7560 -0.3542  0.1444
  725TMC3     O10772   0.109   4.167  12.140 -0.1378 -0.5411  0.4168
  725TMC3     H10773   4.459   4.134  12.110 -0.6437  0.5729 -1.2376
  725TMC3    H110774   0.100   3.969  11.992 -0.5455 -0.9192  2.3330
  725TMC3    H210775   4.467   3.858  11.806  0.1479  0.0844 -1.0723
  725TMC3    C710776   4.726   3.807  11.811 -0.5614 -0.5904 -0.0149
  725TMC3    C810777   4.332   4.052  11.914  0.6110  0.0379 -0.3013
  725TMC3    O110778   4.663   3.788  11.711 -0.5220 -0.2867 -0.1800
  725TMC3    O210779   4.268   3.972  11.846  0.5860 -0.2249 -0.1311
  726MPD2     C10780   2.367   1.108   9.748  0.4014 -0.7911 -0.8549
  726MPD2    C110781   2.271   1.205   9.761  0.4623 -0.2061  0.1758
  726MPD2    C210782   2.140   1.165   9.797 -0.4914 -0.2241  0.8421
  726MPD2    C310783   2.111   1.033   9.823 -0.1501  0.0907  0.5075
  726MPD2    C410784   2.207   0.938   9.803  0.1738  0.1452 -0.0371
  726MPD2    C510785   2.332   0.977   9.764 -0.5440  0.0906 -0.5476
  726MPD2     H10786   2.065   1.242   9.810 -0.9617 -0.3662 -1.0114
  726MPD2    H110787   2.188   0.831   9.812  0.5682  0.0245 -0.6074
  726MPD2    H210788   2.469   1.131   9.721  0.0886  1.9700  0.3856
  726MPD2    H310789   2.413   0.905   9.753  0.9607  1.4456  1.4787
  726MPD2     N10790   1.984   0.990   9.875  0.0240 -0.3896 -0.0739
  726MPD2    H510791   1.984   0.890   9.891  1.3250 -0.1815  1.2127
  726MPD2    N110792   2.293   1.340   9.734 -0.3101 -0.1175  0.0151
  726MPD2    H710793   2.211   1.399   9.742  0.4751  1.2074 -1.7473
  727TMC3    C110794   2.413   1.546   9.743  0.0222  0.1777 -0.3802
  727TMC3    C210795   2.495   1.612   9.829 -0.0255 -0.1766  1.0367
  727TMC3    C310796   2.478   1.747   9.835 -0.3974  0.0606 -0.2107
  727TMC3    C410797   2.323   1.614   9.671 -0.7461 -0.0001 -0.0169
  727TMC3    C510798   2.308   1.751   9.687 -0.0423 -0.5052  0.9008
  727TMC3    C610799   2.389   1.817   9.772  0.6015  0.2174  0.3064
  727TMC3     C10800   2.419   1.403   9.746  0.0917  0.4966 -1.2292
  727TMC3     O10801   2.532   1.351   9.764  0.4685 -0.4356 -0.2267
  727TMC3     H10802   2.559   1.552   9.892 -1.3538 -3.2720 -0.5364
  727TMC3    H110803   2.266   1.560   9.596 -1.3740  0.9157 -0.1880
  727TMC3    H210804   2.369   1.916   9.810 -1.4804 -0.0040 -0.2000
  727TMC3    C710805   2.231   1.819   9.591  0.3226 -0.6836  0.7564
  727TMC3    C810806   2.574   1.819   9.926  0.3911 -0.1103 -0.0798
  727TMC3    O110807   2.172   1.749   9.514 -0.8027 -0.2337 -0.3240
  727TMC3    O210808   2.626   1.739   9.998  0.0838  0.4244  0.3639
  728TMC3    C110809   2.409   4.070  15.091 -0.2057  0.3501 -0.2548
  728TMC3    C210810   2.534   4.121  15.109 -0.4659  0.8793 -0.0684
  728TMC3    C310811   2.616   4.142  15.007  0.8003  0.2000  0.0481
  728TMC3    C410812   2.361   4.054  14.961  0.1639  0.2256  0.3938
  728TMC3    C510813   2.458   4.065  14.860 -0.4647 -0.6626 -0.3691
  728TMC3    C610814   2.583   4.111  14.880 -0.0540 -0.1778 -0.2987
  728TMC3     C10815   2.317   4.088  15.190 -0.3722 -0.3409  0.5134
  728TMC3     O10816   2.363   4.134  15.297  0.9271 -0.0420 -0.4924
  728TMC3     H10817   2.578   4.124  15.208 -1.1668  2.3590  0.1935
  728TMC3    H110818   2.262   4.020  14.933  0.0696 -0.0933  1.1044
  728TMC3    H210819   2.644   4.129  14.792  2.1675  0.5595  1.4058
  728TMC3    C710820   2.402   4.065  14.728 -0.8726 -0.1691 -0.1136
  728TMC3    C810821   2.737   4.210  15.043 -0.2755 -0.6239  1.1067
  728TMC3    O110822   2.401   3.961  14.661 -0.3405  0.4163  0.1054
  728TMC3    O210823   2.777   4.226  15.159  0.2108 -0.0882 -0.0765
  729MPD2     C10824   0.005   0.630  16.852 -0.2299 -0.1743  0.4423
  729MPD2    C110825   4.679   0.749  16.822 -0.3156  0.1945 -0.2009
  729MPD2    C210826   4.585   0.797  16.913 -0.3727 -0.3629  0.3939
  729MPD2    C310827   4.539   0.734  17.026  0.1227 -0.1604  0.7865
  729MPD2    C410828   4.611   0.617  17.053 -0.0299 -0.4970 -0.5728
  729MPD2    C510829   4.713   0.568  16.970  0.3241 -0.0228 -0.2260
  729MPD2     H10830   4.545   0.896  16.894  0.1003  0.2559  2.6081
  729MPD2    H110831   4.601   0.569  17.150 -0.4955 -1.1135 -0.9272
  729MPD2    H210832   0.082   0.593  16.785  0.7901 -0.5971  1.8469
  729MPD2    H310833   0.016   0.472  17.000  0.1545  0.4539  1.5092
  729MPD2     N10834   4.453   0.788  17.121 -0.5211 -0.2901  0.1881
  729MPD2    H510835   4.439   0.733  17.206  1.5829 -1.2397 -0.0748
  729MPD2    N110836   4.731   0.814  16.703  0.3159  0.1530  0.0975
  729MPD2    H710837   0.053   0.768  16.636  1.0609 -0.5043  1.2371
  730TMC3    C110838   4.359   0.955  17.254 -0.3121 -0.5369 -0.3863
  730TMC3    C210839   4.426   0.884  17.356 -0.2656 -0.1640 -0.5268
  730TMC3    C310840   4.512   0.954  17.434 -0.3448 -0.0238 -0.7749
  730TMC3    C410841   4.361   1.090  17.246 -0.1014 -0.1435  0.9130
  730TMC3    C510842   4.448   1.155  17.330 -0.3876  0.5458 -0.1843
  730TMC3    C610843   4.519   1.085  17.423  0.4858 -0.3242 -0.2742
  730TMC3     C10844   4.387   0.907  17.118 -0.3785 -0.1616 -0.6039
  730TMC3     O10845   4.382   0.984  17.022 -0.1277 -0.0993 -0.2359
  730TMC3     H10846   4.431   0.776  17.364 -1.1785 -0.1799 -0.1873
  730TMC3    H110847   4.307   1.143  17.168  1.0231 -1.4614 -0.7707
  730TMC3    H210848   4.600   1.133  17.477  1.0162 -2.0459  0.4544
  730TMC3    C710849   4.496   1.283  17.290  0.4409  0.1836 -0.1345
  730TMC3    C810850   4.641   0.893  17.432 -0.1733  0.0828 -0.2747
  730TMC3    O110851   4.485   1.311  17.171  0.0619 -0.2600  0.4969
  730TMC3    O210852   4.662   0.799  17.501 -0.3434  0.2353 -0.0782
  731MPD2     C10853   4.605   3.448  11.719 -0.7581 -0.1307 -0.2446
  731MPD2    C110854   4.467   3.470  11.712 -0.2732  0.3845  0.1593
  731MPD2    C210855   4.394   3.428  11.814 -0.1004  0.0228 -0.5694
  731MPD2    C310856   4.459   3.377  11.926 -0.4480 -0.2760  0.5991
  731MPD2    C410857   4.598   3.357  11.930 -0.4451  0.0576  0.2888
  731MPD2    C510858   4.668   3.393  11.825 -0.2751  0.8157  0.3003
  731MPD2     H10859   4.289   3.450  11.828  0.3899  2.6196 -1.1339
  731MPD2    H110860   4.651   3.315  12.015  1.0765  2.3505  0.4823
  731MPD2    H210861   4.672   3.465  11.636 -1.1717 -0.6059 -0.6751
  731MPD2    H310862   0.039   3.393  11.827 -0.2472  1.5827 -0.9123
  731MPD2     N10863   4.380   3.331  12.032 -1.2296  0.3478 -1.1881
  731MPD2    H510864   4.280   3.347  12.022 -1.2568  0.4086 -0.8113
  731MPD2    N110865   4.411   3.536  11.595 -0.5652 -0.2804  0.1871
  731MPD2    H710866   4.478   3.558  11.522  0.6102 -2.5010  0.5791
  732TMC3    C110867   4.240   3.643  11.462  0.7814 -0.4070 -0.6128
  732TMC3    C210868   4.105   3.634  11.431  0.4494  0.6984  0.9167
  732TMC3    C310869   4.046   3.753  11.377  0.2316 -0.3186  0.3435
  732TMC3    C410870   4.308   3.763  11.454 -0.1289  0.3042  0.1082
  732TMC3    C510871   4.254   3.868  11.385 -0.2181 -1.0636 -0.3950
  732TMC3    C610872   4.125   3.865  11.343  0.2718 -0.3946 -0.2361
  732TMC3     C10873   4.277   3.553  11.571  0.0984  0.2539  0.8282
  732TMC3     O10874   4.189   3.498  11.633  0.0137  0.1968 -0.8504
  732TMC3     H10875   4.051   3.540  11.435  0.6074  0.6190  1.1541
  732TMC3    H110876   4.403   3.777  11.504  1.7533 -0.6108 -3.1806
  732TMC3    H210877   4.082   3.957  11.306 -0.9801 -0.9939 -0.2772
  732TMC3    C710878   4.343   3.973  11.350  0.0565  0.3209 -0.3072
  732TMC3    C810879   3.904   3.762  11.360 -0.1492 -0.2223 -0.5774
  732TMC3    O110880   4.303   4.090  11.345  0.2543  0.5718  0.1239
  732TMC3    O210881   3.857   3.847  11.288  0.1015 -0.2927  0.3105
  733TMC3    C110882   0.421   1.822  13.109  0.6135  0.1639  0.0453
  733TMC3    C210883   0.478   1.946  13.134  0.8199  1.0952  0.2198
  733TMC3    C310884   0.562   1.995  13.043  0.0096  0.4303  0.2771
  733TMC3    C410885   0.466   1.743  13.001  0.2257  0.2132 -0.5231
  733TMC3    C510886   0.574   1.791  12.928  0.0357  0.5299  1.0268
  733TMC3    C610887   0.625   1.918  12.944  0.6152  0.2222 -0.2209
  733TMC3     C10888   0.276   1.826  13.114 -1.0159  0.6390 -0.0158
  733TMC3     O10889   0.222   1.874  13.018 -0.4227 -0.3176 -0.5321
  733TMC3     H10890   0.426   2.012  13.203  1.3229 -0.6466  2.2708
  733TMC3    H110891   0.426   1.646  12.975  1.6300 -0.6625  0.5882
  733TMC3    H210892   0.715   1.949  12.893  1.8435 -0.3452  1.5849
  733TMC3    C710893   0.613   1.721  12.803 -0.0410  0.4065 -0.2470
  733TMC3    C810894   0.578   2.136  13.036  0.0916 -0.1690  0.1864
  733TMC3    O110895   0.633   1.600  12.800  0.2344 -0.6380  0.1520
  733TMC3    O210896   0.604   2.203  13.138 -0.3920 -0.1756  0.0698
  734MPD2     C10897   1.979   4.192  12.508 -0.1081  0.2547  0.5499
  734MPD2    C110898   2.057   4.120  12.422  0.1384 -0.1994 -0.6312
  734MPD2    C210899   2.149   4.191  12.343  0.1555  0.3101  0.1033
  734MPD2    C310900   2.144   4.324  12.335 -0.5430  0.3876 -0.1087
  734MPD2    C410901   2.068   4.401  12.420  0.3965 -0.2291 -0.1057
  734MPD2    C510902   1.989   4.333  12.510 -0.6130  0.6870  0.8098
  734MPD2     H10903   2.213   4.135  12.277 -0.0642  0.8109 -0.5337
  734MPD2    H110904   2.081   4.508  12.428  0.9811 -0.2684 -0.5867
  734MPD2    H210905   1.895   4.152  12.564  0.9025  0.6281  2.3399
  734MPD2    H310906   1.919   4.383  12.576  0.6299  0.1391  2.5449
  734MPD2     N10907   2.223   4.367  12.227  0.1090 -0.3728 -0.5213
  734MPD2    H510908   2.291   4.297  12.199 -0.4186 -1.3135  0.6008
  734MPD2    N110909   2.045   3.978  12.433 -0.0529 -0.6004 -0.1668
  734MPD2    H710910   1.989   3.938  12.507 -1.0386  2.0576  0.4993
  735TMC3    C110911   2.087   3.756  12.348 -0.0354 -0.2948  0.3111
  735TMC3    C210912   2.052   3.700  12.226 -0.1240 -0.3933  0.3877
  735TMC3    C310913   2.127   3.599  12.177  0.6573 -0.5170  0.3055
  735TMC3    C410914   2.189   3.704  12.422 -0.3906 -0.0794  0.5059
  735TMC3    C510915   2.264   3.603  12.372  1.0914 -0.6111  0.7802
  735TMC3    C610916   2.232   3.551  12.252 -0.3264  0.4144 -0.2118
  735TMC3     C10917   2.094   3.898  12.326  0.3527  0.8343  0.1042
  735TMC3     O10918   2.127   3.931  12.210 -0.1606 -1.0785  0.5922
  735TMC3     H10919   1.971   3.743  12.168  1.8066  1.2847 -1.0541
  735TMC3    H110920   2.221   3.760  12.509 -0.5097 -0.3019  0.6935
  735TMC3    H210921   2.304   3.489  12.200 -1.5669 -1.0860 -0.1360
  735TMC3    C710922   2.404   3.607  12.404  0.9222 -0.6762 -0.4286
  735TMC3    C810923   2.145   3.602  12.032  0.0238  0.1373  0.0381
  735TMC3    O110924   2.449   3.713  12.440  0.3152  0.1223 -0.0534
  735TMC3    O210925   2.157   3.499  11.967 -0.0839 -0.1949  0.4651
  736MPD2     C10926   2.653   3.340  12.310  0.2131 -0.8280  0.1897
  736MPD2    C110927   2.606   3.472  12.342 -0.3621  0.1518 -0.0067
  736MPD2    C210928   2.692   3.580  12.313 -0.2954  0.3991  0.3315
  736MPD2    C310929   2.808   3.567  12.234  0.3088  0.0700 -0.5958
  736MPD2    C410930   2.852   3.438  12.205 -0.2207  0.7997  1.1556
  736MPD2    C510931   2.777   3.327  12.238 -0.6922 -0.0705 -0.3572
  736MPD2     H10932   2.670   3.683  12.341  0.9131  0.9974 -0.8544
  736MPD2    H110933   2.939   3.431  12.141  0.2426  1.1378  1.7516
  736MPD2    H210934   2.580   3.260  12.321 -1.4039  0.4422 -1.2017
  736MPD2    H310935   2.809   3.226  12.214  1.0748  0.3353  0.3218
  736MPD2     N10936   2.888   3.680  12.189 -0.2219 -0.1229  0.6953
  736MPD2    H510937   2.960   3.657  12.122 -1.8292  0.4837 -1.2271
  736MPD2    N110938   2.473   3.488  12.398  0.0263 -0.3237  0.2558
  736MPD2    H710939   2.425   3.401  12.415 -0.2054 -0.4178 -0.8715
  737TMC3    C110940   2.954   3.905  12.153 -0.1109 -0.2280 -0.3273
  737TMC3    C210941   2.900   4.031  12.156 -0.9266 -0.1427  0.1156
  737TMC3    C310942   2.923   4.101  12.041 -0.4924  0.1095  0.0222
  737TMC3    C410943   3.022   3.848  12.048  1.0150 -0.3423 -0.0909
  737TMC3    C510944   3.037   3.932  11.942 -0.5683  0.0022 -0.0446
  737TMC3    C610945   2.985   4.055  11.933 -0.0677 -0.3043  0.1119
  737TMC3     C10946   2.877   3.812  12.232  0.0803  0.2223 -0.3648
  737TMC3     O10947   2.807   3.861  12.323  0.6572 -0.5417 -0.0627
  737TMC3     H10948   2.853   4.074  12.243 -1.8580 -2.1893  0.6202
  737TMC3    H110949   3.055   3.745  12.044  0.4795 -0.5939  2.4263
  737TMC3    H210950   3.000   4.111  11.841 -0.1660  1.2616  1.0432
  737TMC3    C710951   3.075   3.866  11.820  0.1684  0.8170  0.6436
  737TMC3    C810952   2.879   4.245  12.026 -0.3968  0.2573  0.1626
  737TMC3    O110953   3.044   3.750  11.815  0.5730  0.3292 -0.4603
  737TMC3    O210954   2.893   4.328  12.115  0.0038 -0.4340  0.5042
  738MPD2     C10955   3.369   2.924  14.445  0.3426 -0.1791  0.5561
  738MPD2    C110956   3.393   2.871  14.567 -0.2868 -0.0490 -0.3330
  738MPD2    C210957   3.514   2.904  14.631 -0.2060  0.0746 -0.3420
  738MPD2    C310958   3.593   3.002  14.573 -0.9429  0.2496 -0.1875
  738MPD2    C410959   3.556   3.064  14.458 -0.1415 -0.0888 -0.7918
  738MPD2    C510960   3.444   3.022  14.390  0.1134 -0.1392  0.3040
  738MPD2     H10961   3.551   2.862  14.724 -0.3786 -0.8183 -0.6782
  738MPD2    H110962   3.628   3.128  14.407  1.8972 -1.6933  0.1046
  738MPD2    H210963   3.286   2.893  14.383  1.8682 -0.3905 -1.3739
  738MPD2    H310964   3.418   3.064  14.293  1.6805 -1.2835 -0.6184
  738MPD2     N10965   3.705   3.055  14.632  0.1084  0.7156 -0.3072
  738MPD2    H510966   3.754   3.122  14.573  1.5673  2.1356  2.5064
  738MPD2    N110967   3.311   2.776  14.617 -0.5732  0.3178  0.1683
  738MPD2    H710968   3.334   2.736  14.707  0.4242  1.3671  0.3657
  739TMC3    C110969   3.883   3.117  14.784 -0.8249  0.0351 -0.0150
  739TMC3    C210970   3.873   3.242  14.724  0.3817 -0.7224  1.1034
  739TMC3    C310971   3.972   3.275  14.633  0.5192 -0.3037 -0.0457
  739TMC3    C410972   3.997   3.048  14.785 -0.2508 -0.1569 -0.4197
  739TMC3    C510973   4.102   3.092  14.710  0.6301  0.1693 -0.6882
  739TMC3    C610974   4.080   3.192  14.620 -0.4234  0.6738 -0.4728
  739TMC3     C10975   3.764   3.029  14.754 -0.0775  0.9343 -0.5840
  739TMC3     O10976   3.758   2.937  14.833 -0.0534 -0.0028  0.3778
  739TMC3     H10977   3.784   3.304  14.733 -0.1055 -1.5015  1.6636
  739TMC3    H110978   3.990   2.944  14.812 -0.8256  0.7580  2.9455
  739TMC3    H210979   4.154   3.215  14.543 -1.3789 -0.2070 -1.6490
  739TMC3    C710980   4.228   3.016  14.701  0.4989 -0.1332 -0.7184
  739TMC3    C810981   3.915   3.308  14.503 -0.1935  0.1072  0.2379
  739TMC3    O110982   4.299   3.041  14.602  0.1520  0.3282  0.1824
  739TMC3    O210983   3.801   3.267  14.477  0.2338 -0.7936  0.2318
  740TMC3    C110984   3.717   4.347  14.345  0.2556 -0.2142  0.2796
  740TMC3    C210985   3.788   4.308  14.456 -0.3287  0.3377 -0.3369
  740TMC3    C310986   3.917   4.362  14.468  0.5214 -0.1678 -0.1977
  740TMC3    C410987   3.786   4.399  14.233 -0.1748 -0.1733 -0.4299
  740TMC3    C510988   3.921   4.435  14.247 -0.7222  0.0232 -0.8054
  740TMC3    C610989   3.980   4.423  14.365 -0.1247  0.1596  0.3320
  740TMC3     C10990   3.574   4.328  14.331 -0.0222 -0.0965  0.7133
  740TMC3     O10991   3.523   4.362  14.228 -0.0800 -0.4392  0.2479
  740TMC3     H10992   3.736   4.250  14.531  0.1292  1.1166  0.5782
  740TMC3    H110993   3.737   4.417  14.138  3.0341 -0.0187 -2.0313
  740TMC3    H210994   4.084   4.452  14.376 -0.0579 -0.4229  1.1860
  740TMC3    C710995   4.009   4.447  14.130  0.4832  0.2624  0.5823
  740TMC3    C810996   4.004   4.318  14.580  0.7886  0.1801 -0.3077
  740TMC3    O110997   4.126   4.424  14.152  0.2488  0.0043 -0.4101
  740TMC3    O210998   4.124   4.314  14.556 -0.8027  0.2089 -0.1585
  741TMC3    C110999   3.825   3.715  13.981  0.4511  0.2098  0.4664
  741TMC3    C211000   3.693   3.694  13.965 -0.8216  0.3842 -0.9172
  741TMC3    C311001   3.621   3.670  14.081 -0.0826  0.1541 -0.0490
  741TMC3    C411002   3.892   3.701  14.104 -0.1241  0.8503  0.9061
  741TMC3    C511003   3.820   3.670  14.217 -0.0665  0.0236  0.5614
  741TMC3    C611004   3.685   3.650  14.204  0.9893  0.3995 -0.2238
  741TMC3     C11005   3.906   3.704  13.867  0.0004  0.1651  0.0130
  741TMC3     O11006   4.026   3.691  13.890  0.4922 -0.2634  0.3011
  741TMC3     H11007   3.646   3.723  13.872  0.7855 -0.8332 -2.1074
  741TMC3    H111008   4.000   3.706  14.098 -0.2335 -0.6320 -2.4670
  741TMC3    H211009   3.619   3.632  14.288 -1.9737  0.3720 -2.5517
  741TMC3    C711010   3.873   3.671  14.351  0.0385  0.1036  0.8696
  741TMC3    C811011   3.488   3.623  14.058 -0.5792 -0.3754 -0.3196
  741TMC3    O111012   3.793   3.638  14.440  0.0376 -0.0139  0.1398
  741TMC3    O211013   3.442   3.652  13.946  0.6430 -0.0693  0.2548
  742TMC3    C111014   3.502   1.925  15.319  0.6445 -0.8071  0.0395
  742TMC3    C211015   3.449   1.937  15.197  0.3218  0.1835  0.2416
  742TMC3    C311016   3.491   2.040  15.109 -0.0224 -0.1361 -0.5743
  742TMC3    C411017   3.585   2.014  15.362 -0.8181  0.2194 -0.1847
  742TMC3    C511018   3.633   2.114  15.281 -0.0619  0.4358  0.3228
  742TMC3    C611019   3.587   2.128  15.156 -0.0179 -0.4672  0.0056
  742TMC3     C11020   3.453   1.798  15.392  0.6377 -0.0734 -0.9071
  742TMC3     O11021   3.365   1.730  15.336  1.0544 -0.3367 -0.2540
  742TMC3     H11022   3.381   1.860  15.162  0.3711  0.9565 -1.5139
  742TMC3    H111023   3.630   2.000  15.460 -0.4638  2.5387 -0.0157
  742TMC3    H211024   3.632   2.202  15.090 -0.7773  0.1593  0.1850
  742TMC3    C711025   3.766   2.166  15.303 -0.4497 -0.0180 -0.1906
  742TMC3    C811026   3.465   2.033  14.963  0.1912  0.4419 -0.8804
  742TMC3    O111027   3.835   2.173  15.200  0.3263  0.5015 -0.4880
  742TMC3    O211028   3.399   1.933  14.928 -0.0168 -0.1589  0.0633
  743MPD2     C11029   1.474   3.489   1.635  0.7660  0.2017 -0.2709
  743MPD2    C111030   1.520   3.419   1.523  0.0847  0.9278 -0.1639
  743MPD2    C211031   1.635   3.340   1.536  0.0109  1.2090  0.6361
  743MPD2    C311032   1.695   3.319   1.662 -1.1191 -0.7518  0.7931
  743MPD2    C411033   1.639   3.377   1.772  0.3976  0.5799 -0.0332
  743MPD2    C511034   1.528   3.456   1.760  0.1475  0.2149  0.0044
  743MPD2     H11035   1.678   3.297   1.447 -0.9061 -2.5196  2.0249
  743MPD2    H111036   1.669   3.365   1.876 -1.5724 -0.5610  0.4131
  743MPD2    H211037   1.381   3.542   1.617  0.5035 -0.4631 -0.8772
  743MPD2    H311038   1.482   3.490   1.852  0.4827 -0.3142  0.3759
  743MPD2     N11039   1.806   3.241   1.669  0.2165 -0.6045 -0.6242
  743MPD2    H511040   1.832   3.193   1.583 -1.6766 -0.0351 -1.5156
  743MPD2    N111041   1.449   3.432   1.397  0.4519 -0.4352 -0.1779
  743MPD2    H711042   1.383   3.509   1.401  0.1582 -0.6938 -0.1525
  744TMC3    C111043   1.370   3.413   1.173 -0.0587  0.1535  0.3547
  744TMC3    C211044   1.240   3.440   1.208  0.1738  0.2948 -0.2979
  744TMC3    C311045   1.144   3.439   1.116  0.0231  0.4002  0.2231
  744TMC3    C411046   1.392   3.373   1.041  0.6645  0.9315  0.3645
  744TMC3    C511047   1.288   3.363   0.958  0.5711 -0.0461 -0.0039
  744TMC3    C611048   1.169   3.412   0.984  0.0243  0.2081  0.0831
  744TMC3     C11049   1.473   3.369   1.276  0.0689  0.9351  0.2424
  744TMC3     O11050   1.551   3.280   1.246  0.4915  0.0323 -0.5646
  744TMC3     H11051   1.218   3.447   1.314  0.7594  0.1429 -0.1635
  744TMC3    H111052   1.495   3.357   1.010  0.5294 -1.1081  0.9451
  744TMC3    H211053   1.092   3.399   0.908  1.4804 -1.1128 -1.1695
  744TMC3    C711054   1.325   3.304   0.829 -0.5531 -0.1856  0.1783
  744TMC3    C811055   1.005   3.445   1.148 -0.0929 -0.1964  0.7681
  744TMC3    O111056   1.446   3.294   0.810  0.7748  0.7458  0.6308
  744TMC3    O211057   0.933   3.506   1.070 -0.6313  0.2788  0.0633
  745TMC3    C111058   3.589   1.611  13.371  0.0036  0.3674  0.3762
  745TMC3    C211059   3.567   1.639  13.501  0.1610 -0.5931 -0.2416
  745TMC3    C311060   3.463   1.722  13.533  0.2847 -0.2228  0.4901
  745TMC3    C411061   3.512   1.666  13.270  0.0455 -0.4191  0.5921
  745TMC3    C511062   3.425   1.763  13.306  0.0210 -0.3587  0.4033
  745TMC3    C611063   3.408   1.797  13.431 -0.4560 -0.4053  0.3979
  745TMC3     C11064   3.726   1.600  13.329 -0.6484  0.1233 -0.3364
  745TMC3     O11065   3.740   1.554  13.214 -0.0176 -0.2286 -0.0811
  745TMC3     H11066   3.622   1.590  13.580 -1.2290  1.0444  1.7613
  745TMC3    H111067   3.536   1.651  13.165  2.0011 -0.7331  1.1023
  745TMC3    H211068   3.363   1.893  13.450  2.4671  1.1055 -0.3047
  745TMC3    C711069   3.425   1.877  13.222  0.0998 -0.1992  0.1063
  745TMC3    C811070   3.477   1.803  13.656  0.0992 -0.0297 -0.0328
  745TMC3    O111071   3.343   1.965  13.238 -0.0778 -0.3282 -0.5233
  745TMC3    O211072   3.417   1.909  13.671 -0.0907  0.2899  0.1547
  746TMC3    C111073   1.856   3.660  11.100  0.3931  0.0882 -0.0385
  746TMC3    C211074   1.921   3.629  10.987 -0.5554  0.8228  0.4939
  746TMC3    C311075   1.861   3.529  10.915  0.1246 -0.2156 -0.0777
  746TMC3    C411076   1.730   3.608  11.134  0.7901 -0.3612  0.3328
  746TMC3    C511077   1.671   3.521  11.046 -0.2161  0.7105 -0.5658
  746TMC3    C611078   1.735   3.467  10.936  0.1465  0.5159  0.0708
  746TMC3     C11079   1.883   3.788  11.161 -0.2777 -1.0179  0.2521
  746TMC3     O11080   1.827   3.803  11.270 -0.2504  0.0175 -0.0285
  746TMC3     H11081   2.021   3.664  10.963  0.1726 -0.8387  1.1237
  746TMC3    H111082   1.686   3.643  11.227  0.2975 -0.3664  0.1063
  746TMC3    H211083   1.683   3.419  10.854 -0.0394  1.0719 -0.1388
  746TMC3    C711084   1.528   3.541  11.032 -0.0304  0.1114  0.4820
  746TMC3    C811085   1.898   3.521  10.774 -0.1200 -0.5955  0.0279
  746TMC3    O111086   1.483   3.548  10.918  0.1503 -0.1590 -0.0328
  746TMC3    O211087   1.979   3.439  10.735  0.0303 -0.1740  0.0690
  747TMC3    C111088   3.286   4.349  10.895 -0.3862  0.5252 -0.1964
  747TMC3    C211089   3.269   4.225  10.958  0.3901 -0.1696  0.2206
  747TMC3    C311090   3.300   4.215  11.092  0.0716 -0.9540 -0.6866
  747TMC3    C411091   3.329   4.457  10.968 -0.2618  0.5658  0.2366
  747TMC3    C511092   3.362   4.443  11.097  0.1607 -0.0755 -0.1419
  747TMC3    C611093   3.343   4.325  11.167  0.5639 -0.6087 -0.2249
  747TMC3     C11094   3.234   4.378  10.760 -0.0092 -0.2518 -0.3546
  747TMC3     O11095   3.212   4.492  10.726 -0.0158 -0.9426 -0.0079
  747TMC3     H11096   3.216   4.148  10.903  1.2348 -0.6393  0.0632
  747TMC3    H111097   3.309   4.555  10.928  0.4065  0.1117 -1.2267
  747TMC3    H211098   3.388   4.311  11.264  0.8314 -3.7326 -0.8022
  747TMC3    C711099   3.397   4.559  11.171 -0.0474  0.1884 -0.4444
  747TMC3    C811100   3.253   4.089  11.157  0.2252 -0.6811 -0.1956
  747TMC3    O111101   3.402   4.550  11.295  0.2225  0.1679  0.2969
  747TMC3    O211102   3.209   3.997  11.084 -0.3137  0.2465  0.0432
  748MPD2     C11103   1.107   3.844   0.256 -0.9540 -0.5978  0.0019
  748MPD2    C111104   1.034   3.912   0.352 -0.4167 -0.3202 -0.3365
  748MPD2    C211105   1.100   3.982   0.455 -0.9451 -0.1616 -0.1961
  748MPD2    C311106   1.235   3.978   0.464 -0.3585 -0.2750  0.1085
  748MPD2    C411107   1.312   3.904   0.377  0.2811 -0.0418 -0.0409
  748MPD2    C511108   1.242   3.840   0.278  0.4980 -0.4054  0.0454
  748MPD2     H11109   1.040   4.037   0.526  1.6710  1.9441  0.3806
  748MPD2    H111110   1.417   3.884   0.395  0.4545  0.4947 -0.4696
  748MPD2    H211111   1.060   3.794   0.172 -2.2034 -0.1112  0.4162
  748MPD2    H311112   1.303   3.776   0.215  0.2922  0.6150 -1.1802
  748MPD2     N11113   1.300   4.054   0.565 -0.3215 -0.4399 -0.4127
  748MPD2    H511114   1.238   4.115   0.617 -1.0851  0.8588 -2.8206
  748MPD2    N111115   0.894   3.907   0.344 -0.3511 -0.5986  0.4087
  748MPD2    H711116   0.839   3.886   0.261  1.9999  0.4649 -1.3828
  749TMC3    C111117   1.435   4.152   0.713 -0.5114  0.3348 -0.5108
  749TMC3    C211118   1.521   4.137   0.820 -0.2808  0.9716  0.3791
  749TMC3    C311119   1.581   4.247   0.880 -0.3511  0.2284 -0.5197
  749TMC3    C411120   1.417   4.276   0.659  0.0171  0.1986  0.1543
  749TMC3    C511121   1.486   4.382   0.716  0.1431 -0.0396  0.1042
  749TMC3    C611122   1.555   4.373   0.829  0.5241 -1.0109  0.0175
  749TMC3     C11123   1.425   4.050   0.617  0.1011 -0.0586 -0.1862
  749TMC3     O11124   1.515   3.970   0.602  0.2662  0.9123  0.3447
  749TMC3     H11125   1.545   4.034   0.843 -1.2984  0.3998 -1.0634
  749TMC3    H111126   1.364   4.302   0.567 -0.2270  0.9062  0.4910
  749TMC3    H211127   1.627   4.450   0.852 -0.9638 -0.1975  1.9918
  749TMC3    C711128   1.500   4.502   0.644  0.2127 -0.0977  0.1595
  749TMC3    C811129   1.669   4.224   0.992 -0.0608 -0.1748  0.0371
  749TMC3    O111130   1.526   4.602   0.710  0.4288  0.0496  0.3151
  749TMC3    O211131   1.712   4.311   1.066 -0.8985 -0.8506  0.3569
  750MPD2     C11132   1.436   0.977  10.980 -0.2826  0.5777  0.2683
  750MPD2    C111133   1.408   0.979  11.113 -0.1193  0.0230 -0.3389
  750MPD2    C211134   1.356   0.863  11.174 -0.1990  0.0347 -0.2010
  750MPD2    C311135   1.350   0.745  11.099  0.2365  0.8777 -0.4429
  750MPD2    C411136   1.383   0.744  10.963  0.2832 -1.3757 -0.0813
  750MPD2    C511137   1.411   0.867  10.911  0.6173 -0.0697  0.4040
  750MPD2     H11138   1.316   0.856  11.274  0.8206  2.0715  0.3329
  750MPD2    H111139   1.367   0.666  10.889 -0.2719  1.1511 -2.6466
  750MPD2    H211140   1.470   1.061  10.920  0.5920  0.7396  0.9997
  750MPD2    H311141   1.437   0.874  10.806 -1.2633 -1.1166 -0.1180
  750MPD2     N11142   1.316   0.618  11.152 -0.0966  0.1054 -0.2104
  750MPD2    H511143   1.325   0.536  11.092 -0.3058  0.1941 -0.3683
  750MPD2    N111144   1.432   1.104  11.180 -0.4766  0.5385  0.3536
  750MPD2    H711145   1.457   1.181  11.119  1.5344  0.4809  1.0841
  751TMC3    C111146   1.241   0.448  11.294  0.7180  0.2782  0.3427
  751TMC3    C211147   1.157   0.398  11.387  0.3876 -0.6313 -0.0555
  751TMC3    C311148   1.155   0.259  11.390 -0.8626 -0.4989 -0.0932
  751TMC3    C411149   1.330   0.366  11.222 -0.1505  0.0290  0.1622
  751TMC3    C511150   1.327   0.228  11.238 -0.2834 -0.0440  0.1786
  751TMC3    C611151   1.232   0.168  11.319 -0.0837  0.2071 -0.2122
  751TMC3     C11152   1.258   0.593  11.277  0.3651 -0.3379  0.2153
  751TMC3     O11153   1.231   0.669  11.366 -0.3997 -0.7659  0.3412
  751TMC3     H11154   1.103   0.462  11.454  0.6296  0.2413 -0.6891
  751TMC3    H111155   1.406   0.398  11.152  0.6678 -2.2414  0.0166
  751TMC3    H211156   1.223   0.061  11.334 -1.6659  0.4683  0.7700
  751TMC3    C711157   1.415   0.146  11.157  0.3052  0.1749  0.8004
  751TMC3    C811158   1.042   0.201  11.461  0.3066 -0.1492 -0.1361
  751TMC3    O111159   1.507   0.206  11.104 -0.1045 -0.1026 -0.0187
  751TMC3    O211160   1.013   0.267  11.560  0.8906  0.0637  0.4100
  752TMC3    C111161   0.594   0.196  16.830 -0.4921  0.2042  0.1930
  752TMC3    C211162   0.605   0.060  16.833 -0.0080 -0.7243  0.4702
  752TMC3    C311163   0.514   4.729  16.908 -0.0682 -0.0777 -0.5679
  752TMC3    C411164   0.514   0.264  16.921  0.2746 -0.2619 -0.0769
  752TMC3    C511165   0.437   0.181  17.001  0.1018  0.2938 -0.1104
  752TMC3    C611166   0.432   0.049  16.997 -0.2544  0.1814 -0.3025
  752TMC3     C11167   0.637   0.274  16.715 -0.1491 -0.2215  0.4645
  752TMC3     O11168   0.712   0.224  16.629 -0.5609 -0.0566  0.5366
  752TMC3     H11169   0.646   0.014  16.744 -0.8052 -0.7657  0.1222
  752TMC3    H111170   0.513   0.372  16.929  0.7976 -0.1403 -1.7378
  752TMC3    H211171   0.386   4.729  17.076  0.6672  0.3212  0.3373
  752TMC3    C711172   0.347   0.257  17.082 -0.1258  0.9740 -1.0940
  752TMC3    C811173   0.528   4.585  16.934  0.5785  0.0071 -0.3689
  752TMC3    O111174   0.387   0.364  17.126 -0.4925  0.1985 -0.2836
  752TMC3    O211175   0.428   4.520  16.954 -0.0539 -0.1416 -0.6809
  753TMC3    C111176   2.327   1.283  13.264  1.0378 -0.5620 -0.3723
  753TMC3    C211177   2.410   1.331  13.363  0.8145 -0.3837  0.3426
  753TMC3    C311178   2.540   1.288  13.353 -0.2650 -0.3094  0.9499
  753TMC3    C411179   2.378   1.213  13.151  0.8578  0.0621  0.7304
  753TMC3    C511180   2.515   1.184  13.148 -0.5738  0.0436  0.0960
  753TMC3    C611181   2.602   1.225  13.244  0.6616 -0.6570 -0.3178
  753TMC3     C11182   2.189   1.327  13.259 -0.0953  0.1702 -0.2806
  753TMC3     O11183   2.161   1.418  13.336 -0.3248  0.4445 -0.1568
  753TMC3     H11184   2.368   1.388  13.445  1.9557  0.7925  0.1036
  753TMC3    H111185   2.310   1.177  13.074  0.1294  1.7345  0.5936
  753TMC3    H211186   2.708   1.202  13.246  0.3133 -2.3122 -0.4700
  753TMC3    C711187   2.567   1.137  13.024  0.4053 -0.3173 -0.2374
  753TMC3    C811188   2.642   1.345  13.443 -0.1405  0.5052  0.0859
  753TMC3    O111189   2.493   1.160  12.928  0.1890 -0.0756  0.7611
  753TMC3    O211190   2.754   1.291  13.435 -0.4518  0.1423 -0.4313
  754MPD2     C11191   1.063   4.538  12.464 -0.2979  0.4465  0.0991
  754MPD2    C111192   0.934   4.512  12.510  0.3614 -0.0318  0.3310
  754MPD2    C211193   0.826   4.578  12.452  0.2972 -0.1280  0.2860
  754MPD2    C311194   0.846   4.675  12.357  0.0608 -0.0713 -0.0366
  754MPD2    C411195   0.971   4.710  12.315 -0.1088 -0.5309  0.0464
  754MPD2    C511196   1.073   4.628  12.356 -0.2765  0.1307  0.2529
  754MPD2     H11197   0.725   4.556  12.485 -0.4396 -0.5626 -2.2505
  754MPD2    H111198   0.996   0.048  12.241  2.2361 -1.7357 -0.4112
  754MPD2    H211199   1.150   4.511  12.522  0.6334 -0.1439 -1.5637
  754MPD2    H311200   1.174   4.652  12.324 -0.2030  0.2824  0.5962
  754MPD2     N11201   0.740   0.013  12.302 -0.1429 -0.4614 -0.2602
  754MPD2    H511202   0.758   0.105  12.263 -0.7247 -0.3223 -0.1962
  754MPD2    N111203   0.930   4.437  12.626  0.5519  0.1938  0.5799
  754MPD2    H711204   1.012   4.379  12.642  1.5317  1.0497 -1.2991
  755MPD2     C11205   0.514   0.687  12.799 -0.7632 -0.0243  0.1864
  755MPD2    C111206   0.456   0.576  12.857 -0.2021 -0.9751 -0.2309
  755MPD2    C211207   0.449   0.459  12.785 -0.1472 -0.8936  0.3397
  755MPD2    C311208   0.487   0.453  12.652 -0.1728 -0.3482  0.0450
  755MPD2    C411209   0.538   0.569  12.592  0.6031 -0.1378 -0.1965
  755MPD2    C511210   0.546   0.685  12.666  0.0452  0.2585 -0.3773
  755MPD2     H11211   0.421   0.365  12.832  2.6975 -0.2384  3.3129
  755MPD2    H111212   0.581   0.572  12.492 -1.2605  1.2800 -0.9463
  755MPD2    H211213   0.523   0.782  12.850  0.0961  0.5891 -1.1251
  755MPD2    H311214   0.600   0.771  12.630  1.7433 -0.9759 -0.7727
  755MPD2     N11215   0.475   0.334  12.573 -0.8227 -0.1748 -0.1816
  755MPD2    H511216   0.501   0.342  12.476  0.5727 -1.4835  0.0927
  755MPD2    N111217   0.415   0.573  12.991  0.1004  0.3901 -0.0733
  755MPD2    H711218   0.367   0.492  13.029 -0.3589  0.6101 -0.1761
  756MPD2     C11219   0.525   1.652   9.358 -0.5803  0.1133 -0.2900
  756MPD2    C111220   0.532   1.514   9.374  0.0816  0.5589  0.5735
  756MPD2    C211221   0.437   1.441   9.298 -0.6330  0.1202 -0.4053
  756MPD2    C311222   0.338   1.500   9.223 -0.2133 -0.0681  0.8155
  756MPD2    C411223   0.329   1.634   9.223  0.2045 -0.3109  0.8765
  756MPD2    C511224   0.431   1.707   9.281 -0.0555 -0.3014 -0.3666
  756MPD2     H11225   0.441   1.332   9.305 -0.4212  0.3884  3.7154
  756MPD2    H111226   0.242   1.686   9.185 -1.1954 -1.2979  2.7393
  756MPD2    H211227   0.595   1.721   9.404  0.3273 -1.5960  0.8883
  756MPD2    H311228   0.431   1.814   9.262  0.5090 -0.1684  0.3892
  756MPD2     N11229   0.234   1.417   9.162 -0.7165  0.1722 -0.1186
  756MPD2    H511230   0.242   1.316   9.157 -4.3507 -0.1283  0.5024
  756MPD2    N111231   0.616   1.452   9.479  0.7285 -0.4792 -0.6343
  756MPD2    H711232   0.601   1.352   9.489 -0.6830 -0.1270  0.8654
  757MPD2     C11233   0.214   0.556   9.044  0.1894 -0.2200 -0.0841
  757MPD2    C111234   0.274   0.638   9.131 -0.0472  0.3390 -0.7427
  757MPD2    C211235   0.243   0.776   9.119  0.6390  0.3130 -0.8761
  757MPD2    C311236   0.144   0.817   9.037 -0.0462  0.2526 -0.2037
  757MPD2    C411237   0.079   0.724   8.955  0.2702  0.5249 -0.0819
  757MPD2    C511238   0.115   0.592   8.962  0.5356 -0.4092 -0.2937
  757MPD2     H11239   0.281   0.842   9.196  1.1064  0.4463 -1.2200
  757MPD2    H111240   0.003   0.756   8.886  0.9163 -1.6656 -1.8193
  757MPD2    H211241   0.237   0.450   9.040 -0.1522 -0.2753 -0.6210
  757MPD2    H311242   0.076   0.521   8.889  1.2645 -0.9392 -0.1562
  757MPD2     N11243   0.094   0.948   9.052 -0.5439 -0.0210 -0.5634
  757MPD2    H511244   0.154   1.014   9.100 -0.9680 -0.2602  0.2812
  757MPD2    N111245   0.359   0.581   9.227  0.5189  0.3416 -0.1000
  757MPD2    H711246   0.351   0.481   9.238 -1.1840  0.4324 -0.4905
  758MPD2     C11247   1.397   0.037  15.407 -0.2279 -0.3032 -0.0333
  758MPD2    C111248   1.517   0.030  15.470  0.4454 -0.4061  0.3050
  758MPD2    C211249   1.528   0.053  15.606  0.5141 -0.8028 -0.0949
  758MPD2    C311250   1.409   0.094  15.673 -0.2534 -0.7609  0.9213
  758MPD2    C411251   1.289   0.120  15.603  0.2420 -0.2934  0.2703
  758MPD2    C511252   1.288   0.088  15.468  0.1237 -0.0700  0.1715
  758MPD2     H11253   1.621   0.042  15.662 -0.4821  0.5729  1.8238
  758MPD2    H111254   1.198   0.159  15.649  0.6271  0.3473  0.4771
  758MPD2    H211255   1.388   0.029  15.299 -0.9376 -0.2762  0.0212
  758MPD2    H311256   1.201   0.109  15.406 -0.3881  1.0755  1.2819
  758MPD2     N11257   1.407   0.123  15.814  0.7205  0.4872  0.3513
  758MPD2    H511258   1.322   0.169  15.843 -0.6720 -2.8983  1.6189
  758MPD2    N111259   1.620   0.007  15.380  0.1037  0.0760 -0.4789
  758MPD2    H711260   1.592   4.733  15.283  0.6987  0.7673 -0.7380
  759MPD2     C11261   3.999   3.361  10.806 -0.8013 -0.3530  0.4809
  759MPD2    C111262   3.907   3.333  10.700 -0.3191  0.2097 -0.3192
  759MPD2    C211263   3.907   3.417  10.592  0.3550 -0.0558  0.8089
  759MPD2    C311264   3.999   3.520  10.574  0.1841 -0.3106  0.3636
  759MPD2    C411265   4.083   3.544  10.679  0.4434  0.2374  0.3496
  759MPD2    C511266   4.090   3.469  10.789  0.7607 -0.5391  0.2728
  759MPD2     H11267   3.854   3.385  10.503  0.4568  1.0536  0.3405
  759MPD2    H111268   4.150   3.629  10.676  0.9176 -0.1846 -0.8718
  759MPD2    H211269   4.024   3.295  10.888 -2.0505 -2.2965 -0.6956
  759MPD2    H311270   4.181   3.496  10.842 -1.0571  0.3015  2.9456
  759MPD2     N11271   4.003   3.580  10.448  0.6997  0.5060  0.3897
  759MPD2    H511272   3.936   3.543  10.381  1.0253 -2.1263  1.4877
  759MPD2    N111273   3.819   3.220  10.697  0.0060 -0.1164  0.7012
  759MPD2    H711274   3.756   3.206  10.619  0.6818 -0.1259  0.1472
  760MPD2     C11275   4.050   0.641  11.279  0.3992  0.0195  0.0999
  760MPD2    C111276   4.101   0.680  11.402  0.0424 -0.2177  0.2934
  760MPD2    C211277   4.071   0.604  11.515  0.9091 -0.0583 -0.5312
  760MPD2    C311278   3.988   0.494  11.502  0.5836  0.5824  0.2932
  760MPD2    C411279   3.946   0.449  11.382 -0.0499  0.4051 -0.4343
  760MPD2    C511280   3.981   0.524  11.271  0.1522 -0.3306  0.3601
  760MPD2     H11281   4.114   0.641  11.608  0.4020  1.0004 -0.7140
  760MPD2    H111282   3.870   0.372  11.370  0.0514  0.5609 -2.1222
  760MPD2    H211283   4.068   0.703  11.193  1.9155  0.9084  1.0570
  760MPD2    H311284   3.940   0.492  11.176  2.3041 -0.8942 -0.3798
  760MPD2     N11285   3.977   0.403  11.610  0.6632  0.5287  0.0546
  760MPD2    H511286   3.935   0.313  11.587  1.0154  0.6913 -1.1767
  760MPD2    N111287   4.197   0.781  11.418 -0.8080  0.9163  0.3252
  760MPD2    H711288   4.231   0.793  11.513  0.9702 -0.4009 -0.1248
  761MPD2     C11289   0.742   4.537  11.523  0.2072  0.0251 -0.6576
  761MPD2    C111290   0.772   4.546  11.391  0.3444  0.4606 -0.3452
  761MPD2    C211291   0.839   4.662  11.350  0.0350  0.0268  0.0333
  761MPD2    C311292   0.887   0.018  11.434  0.0204 -0.3856  0.0201
  761MPD2    C411293   0.855   4.737  11.567 -0.0468 -0.2137  0.4978
  761MPD2    C511294   0.774   4.632  11.616  0.2076  0.2116 -0.3747
  761MPD2     H11295   0.863   4.672  11.244  1.5939 -1.0175  0.2746
  761MPD2    H111296   0.890   0.064  11.647  0.9021  1.7978 -1.5697
  761MPD2    H211297   0.690   4.447  11.553  0.9391 -0.7334 -1.6443
  761MPD2    H311298   0.743   4.635  11.719  1.3749 -0.5345 -0.0079
  761MPD2     N11299   0.979   0.107  11.383 -0.3370 -0.1266  0.4406
  761MPD2    H511300   1.011   0.094  11.288 -4.9245 -0.9505 -1.0055
  761MPD2    N111301   0.733   4.442  11.299 -0.6001 -0.0066  0.1948
  761MPD2    H711302   0.718   4.345  11.325 -1.1055 -0.2796 -1.1568
  762MPD2     C11303   0.861   4.429  10.488  0.2881  0.0115  0.0560
  762MPD2    C111304   0.931   4.346  10.572 -0.7287  0.7675 -0.3915
  762MPD2    C211305   1.060   4.310  10.535  0.3499 -0.4108  0.3426
  762MPD2    C311306   1.125   4.358  10.422 -0.1824 -0.9503  0.6563
  762MPD2    C411307   1.056   4.453  10.347 -0.4065 -0.2399  0.7562
  762MPD2    C511308   0.923   4.485  10.384  0.1012 -0.4879  0.3529
  762MPD2     H11309   1.109   4.241  10.603 -0.1603 -1.2593 -0.1436
  762MPD2    H111310   1.101   4.505  10.263 -0.2832 -0.0278  0.9525
  762MPD2    H211311   0.757   4.449  10.509  1.1568  1.4334  3.0338
  762MPD2    H311312   0.867   4.552  10.320  0.6204 -1.2357 -0.8827
  762MPD2     N11313   1.264   4.324  10.399 -0.2682 -0.5030  0.4105
  762MPD2    H511314   1.312   4.261  10.463 -0.6182 -1.6556 -0.4757
  762MPD2    N111315   0.870   4.292  10.691  0.1891 -0.1488  0.9593
  762MPD2    H711316   0.932   4.247  10.758  0.1098  1.4925  2.1109
  763MPD2     C11317   3.343   0.415  16.066  0.2023 -0.3190 -0.3530
  763MPD2    C111318   3.237   0.434  15.980 -0.5743 -0.4456 -0.0395
  763MPD2    C211319   3.183   0.560  15.962  0.0476 -0.0776 -0.8458
  763MPD2    C311320   3.228   0.667  16.042 -0.4036  0.0322 -0.1318
  763MPD2    C411321   3.327   0.639  16.132  0.1719 -0.3013  0.1278
  763MPD2    C511322   3.393   0.520  16.142  0.0876  0.5243 -0.3769
  763MPD2     H11323   3.105   0.566  15.887 -1.2685  0.7116  0.5802
  763MPD2    H111324   3.366   0.720  16.193  0.9749  0.1003 -0.9258
  763MPD2    H211325   3.387   0.321  16.097 -3.2830 -1.5923  0.7148
  763MPD2    H311326   3.471   0.508  16.216 -0.0424 -4.0078 -0.9847
  763MPD2     N11327   3.167   0.792  16.030  0.5411  0.9553 -0.2346
  763MPD2    H511328   3.105   0.810  15.952 -0.8343  2.1841  1.1263
  763MPD2    N111329   3.169   0.333  15.913 -0.1488  0.4717 -0.1900
  763MPD2    H711330   3.106   0.367  15.841  0.8788  1.6792 -0.5243
  764MPD2     C11331   1.467   1.782  17.143 -0.4070 -0.5012  0.2245
  764MPD2    C111332   1.398   1.709  17.050  0.4964 -0.2707  0.0936
  764MPD2    C211333   1.403   1.571  17.060  0.2112 -1.3526  0.0597
  764MPD2    C311334   1.472   1.511  17.166 -0.5370 -0.5422 -0.0941
  764MPD2    C411335   1.542   1.591  17.255  0.2649  0.6036 -0.4640
  764MPD2    C511336   1.532   1.725  17.242 -0.0520  0.3274  0.2401
  764MPD2     H11337   1.363   1.500  16.990 -2.6900  0.8435 -0.5064
  764MPD2    H111338   1.600   1.545  17.335 -1.4608 -2.7859 -1.1599
  764MPD2    H211339   1.472   1.889  17.128  0.6529 -0.5161  0.4612
  764MPD2    H311340   1.593   1.780  17.313  2.3585 -2.1097  0.0769
  764MPD2     N11341   1.477   1.371  17.169  0.3023 -0.5743 -0.1355
  764MPD2    H511342   1.420   1.319  17.102 -0.2823 -0.7173  0.4659
  764MPD2    N111343   1.327   1.765  16.939 -0.0453 -0.0805  0.5463
  764MPD2    H711344   1.267   1.700  16.888  1.1255 -0.6519 -0.1042
  765MPD2     C11345   0.704   4.148  15.314 -0.1440 -0.1358 -0.2630
  765MPD2    C111346   0.805   4.236  15.345 -0.1604  0.5204  0.3123
  765MPD2    C211347   0.941   4.197  15.350  0.0414  0.0776  0.1457
  765MPD2    C311348   0.965   4.059  15.335  0.5811 -0.4484 -1.0873
  765MPD2    C411349   0.859   3.971  15.313  0.1107  0.2040  0.6687
  765MPD2    C511350   0.732   4.014  15.295  0.4569  0.0889 -0.3687
  765MPD2     H11351   1.023   4.268  15.360 -1.2893  1.8079 -1.1270
  765MPD2    H111352   0.863   3.864  15.296 -1.5896 -0.2643  3.1102
  765MPD2    H211353   0.601   4.179  15.303  0.5222  2.0955 -0.2448
  765MPD2    H311354   0.645   3.955  15.270 -0.5765  1.4764 -0.0269
  765MPD2     N11355   1.102   4.014  15.323  0.0450  0.7929 -0.2268
  765MPD2    H511356   1.177   4.079  15.302  3.1846 -2.4713  0.9132
  765MPD2    N111357   0.759   4.365  15.371 -0.2082 -0.1817  0.0400
  765MPD2    H711358   0.660   4.381  15.354  0.1152  0.8207 -0.8815
  766MPD2     C11359   0.140   4.668  15.217 -0.4189  0.2491 -0.8034
  766MPD2    C111360   0.260   4.629  15.269  0.0248  0.4126 -0.6791
  766MPD2    C211361   0.351   4.555  15.194  0.5055 -0.3900 -1.1477
  766MPD2    C311362   0.320   4.502  15.068 -1.2142 -0.0032 -0.1331
  766MPD2    C411363   0.194   4.531  15.018  0.3476 -0.2317  0.2577
  766MPD2    C511364   0.108   4.608  15.095 -0.3131  0.5775 -0.3231
  766MPD2     H11365   0.442   4.535  15.249 -0.4953 -1.0303  0.2695
  766MPD2    H111366   0.156   4.482  14.930  0.2162 -1.7353  1.1533
  766MPD2    H211367   0.072   0.000  15.264  0.3153  0.2768  0.2095
  766MPD2    H311368   0.009   4.633  15.059 -0.2521 -2.7405 -2.6996
  766MPD2     N11369   0.406   4.424  14.990  0.1425 -0.0331 -0.4108
  766MPD2    H511370   0.376   4.403  14.895  0.7954 -1.5669 -0.2899
  766MPD2    N111371   0.282   4.685  15.397  0.1310  0.2099 -0.2075
  766MPD2    H711372   0.201   4.734  15.433  2.0764  2.0735  1.5725
  767MPD2     C11373   0.154   4.691  14.746 -0.2590  0.6259  0.3295
  767MPD2    C111374   0.284   4.648  14.736  0.2435  0.5014  0.2872
  767MPD2    C211375   0.319   4.540  14.656 -0.2756 -0.5083 -0.1202
  767MPD2    C311376   0.220   4.479  14.578 -0.6263  0.1253 -0.9162
  767MPD2    C411377   0.086   4.515  14.597  0.0621  0.7966 -0.7693
  767MPD2    C511378   0.056   4.614  14.691  0.3310 -0.0622 -0.1292
  767MPD2     H11379   0.423   4.516  14.635  0.1038  0.4792  0.6373
  767MPD2    H111380   0.002   4.458  14.558  1.0170  0.4551 -2.3213
  767MPD2    H211381   0.130   0.031  14.816 -0.8412  1.8987 -1.2828
  767MPD2    H311382   4.694   4.647  14.712  0.5974  0.0763  0.9022
  767MPD2     N11383   0.259   4.388  14.474  0.4722  0.2859 -0.4292
  767MPD2    H511384   0.360   4.376  14.473  0.2886 -1.3206  0.4820
  767MPD2    N111385   0.381   4.729  14.802 -0.2156  0.4576  0.4965
  767MPD2    H711386   0.339   0.058  14.866 -0.5130 -0.1393  0.9373
  768MPD2     C11387   0.823   3.164  10.619 -0.3433  0.4877  0.3551
  768MPD2    C111388   0.887   3.248  10.713 -0.1271 -0.1599  0.8785
  768MPD2    C211389   1.006   3.205  10.768 -0.0731  0.2076  0.1691
  768MPD2    C311390   1.067   3.092  10.713  0.5284 -0.2294  0.2546
  768MPD2    C411391   1.002   3.018  10.621  0.0197 -0.3588  0.4171
  768MPD2    C511392   0.878   3.050  10.575 -0.0097  0.1298  0.6859
  768MPD2     H11393   1.055   3.260  10.849 -0.9845 -0.2761  1.0389
  768MPD2    H111394   1.046   2.922  10.597  0.9289 -0.4992  2.6031
  768MPD2    H211395   0.723   3.194  10.591 -0.8604  0.0130  1.6954
  768MPD2    H311396   0.821   2.974  10.524  0.8538 -0.4297  0.5459
  768MPD2     N11397   1.197   3.051  10.756  1.0430  0.5345  0.9087
  768MPD2    H511398   1.226   2.958  10.725 -0.8609  1.2555 -3.0484
  768MPD2    N111399   0.836   3.374  10.756 -0.0628  0.1093 -0.0513
  768MPD2    H711400   0.874   3.410  10.843 -1.8511  0.3197  0.6440
  769MPD2     C11401   2.321   1.039  14.586  0.2690  0.2657 -0.2681
  769MPD2    C111402   2.277   0.956  14.684 -0.1626 -0.8909 -0.5510
  769MPD2    C211403   2.319   0.969  14.808 -0.3377  0.2841 -0.2483
  769MPD2    C311404   2.386   1.081  14.846  0.8877 -0.3115 -0.2725
  769MPD2    C411405   2.417   1.178  14.750  0.0065  0.0246  0.1031
  769MPD2    C511406   2.388   1.150  14.617 -0.1760  0.6013 -0.4662
  769MPD2     H11407   2.292   0.906  14.892 -0.7061 -2.7662 -2.6652
  769MPD2    H111408   2.477   1.267  14.761  3.1072 -2.2580  1.4538
  769MPD2    H211409   2.294   1.028  14.482  1.1731  0.6787 -0.5404
  769MPD2    H311410   2.421   1.221  14.543 -1.2590 -0.6928 -2.1873
  769MPD2     N11411   2.421   1.106  14.983  0.0651 -0.2135  0.0714
  769MPD2    H511412   2.402   1.036  15.054 -2.8390  0.7967  0.2487
  769MPD2    N111413   2.202   0.850  14.635  0.2591  0.1030  0.5459
  769MPD2    H711414   2.171   0.853  14.538  1.5724 -0.1833  0.1188
  770MPD2     C11415   1.950   4.533  14.488 -0.1059  0.2910  0.2628
  770MPD2    C111416   1.834   4.607  14.457 -0.4455 -0.0532  0.0473
  770MPD2    C211417   1.826   0.003  14.476 -0.1318  0.1248  0.1327
  770MPD2    C311418   1.943   0.069  14.528 -0.2274 -0.2434 -0.1978
  770MPD2    C411419   2.063   0.003  14.547 -0.1279 -0.5149  0.7909
  770MPD2    C511420   2.063   4.603  14.522  0.3850 -0.1572 -0.5460
  770MPD2     H11421   1.734   0.057  14.459  1.3215  2.7623  0.7955
  770MPD2    H111422   2.152   0.045  14.592 -0.0600  0.4335 -0.2189
  770MPD2    H211423   1.955   4.427  14.471 -0.6050  0.1356  1.0780
  770MPD2    H311424   2.153   4.546  14.542 -0.1355 -0.6604  0.3374
  770MPD2     N11425   1.939   0.210  14.536 -0.5957 -0.5090 -0.1527
  770MPD2    H511426   1.853   0.256  14.507 -1.0996 -2.1193 -1.2085
  770MPD2    N111427   1.723   4.531  14.407  0.0648  0.2991  0.0040
  770MPD2    H711428   1.746   4.433  14.395 -1.6249  0.0503 -1.1559
  771MPD2     C11429   2.971   3.680  13.302 -0.5803  0.0765  0.0724
  771MPD2    C111430   2.869   3.776  13.295  0.2866  0.5924 -0.6502
  771MPD2    C211431   2.750   3.740  13.225  0.5060  0.2252  0.2531
  771MPD2    C311432   2.734   3.623  13.173 -0.7673 -0.3891 -0.8670
  771MPD2    C411433   2.839   3.526  13.177  1.0088 -0.5348  0.7985
  771MPD2    C511434   2.953   3.558  13.245 -0.4867 -0.4768 -0.3840
  771MPD2     H11435   2.661   3.801  13.221  0.3212 -0.1117 -0.6424
  771MPD2    H111436   2.843   3.430  13.127  0.8074  0.3909 -0.9734
  771MPD2    H211437   3.068   3.698  13.347 -1.2704 -0.0525  1.6064
  771MPD2    H311438   3.040   3.495  13.232 -0.3808 -0.4311  0.1066
  771MPD2     N11439   2.622   3.608  13.093 -0.3153  0.1754  0.1186
  771MPD2    H511440   2.561   3.688  13.080 -0.8451 -0.6523 -2.5127
  771MPD2    N111441   2.883   3.910  13.340 -0.0895  0.6570  0.5696
  771MPD2    H711442   2.804   3.969  13.315 -0.3926  0.6584  1.5375
  772MPD2     C11443   2.448   4.472  13.307 -0.3432 -0.5395 -0.0291
  772MPD2    C111444   2.481   4.337  13.291  0.0211  0.1747  0.2113
  772MPD2    C211445   2.384   4.243  13.278  1.0304  0.3487  0.2514
  772MPD2    C311446   2.246   4.281  13.291  0.2057 -0.1185 -1.2026
  772MPD2    C411447   2.212   4.413  13.327  0.2738  0.3430  0.0734
  772MPD2    C511448   2.315   4.510  13.321  0.1927 -0.1530 -0.3576
  772MPD2     H11449   2.414   4.139  13.273  0.4357  0.2708 -1.5516
  772MPD2    H111450   2.113   4.448  13.353 -0.5219 -2.6520  1.1104
  772MPD2    H211451   2.526   4.547  13.316 -2.4860  1.5478  1.2706
  772MPD2    H311452   2.299   4.616  13.337 -1.0927 -0.4758  0.5151
  772MPD2     N11453   2.134   4.192  13.291 -0.5762  0.5045  0.4978
  772MPD2    H511454   2.041   4.231  13.303 -1.2003 -0.5665 -0.7734
  772MPD2    N111455   2.617   4.295  13.291  0.6197 -0.4397  0.7261
  772MPD2    H711456   2.620   4.194  13.283 -1.1695 -0.4629  0.4282
  773MPD2     C11457   1.710   0.679  17.722  0.1027 -0.2639 -0.4908
  773MPD2    C111458   1.755   0.591  17.631  0.2023 -0.0840 -0.1276
  773MPD2    C211459   1.819   0.477  17.680 -0.0135  0.0660  0.2329
  773MPD2    C311460   1.854   0.466   0.064  0.5776  0.2678  1.0007
  773MPD2    C411461   1.808   0.561   0.147  0.4386 -0.0643  0.5052
  773MPD2    C511462   1.739   0.673   0.104  0.5885  0.5151 -0.4482
  773MPD2     H11463   1.842   0.394  17.614 -0.4042  0.3022 -0.1978
  773MPD2    H111464   1.836   0.560   0.252  1.8509 -0.8907  0.1139
  773MPD2    H211465   1.640   0.755  17.691  1.2849  0.9279 -0.2384
  773MPD2    H311466   1.721   0.754   0.174  1.7566 -1.8038  2.5595
  773MPD2     N11467   1.928   0.348   0.099  0.4072  0.3698 -0.3008
  773MPD2    H511468   1.962   0.284   0.028  2.8302 -0.0405  1.2488
  773MPD2    N111469   1.727   0.598  17.491  0.4956  0.4374 -0.0550
  773MPD2    H711470   1.731   0.511  17.438 -1.0984  0.5921 -0.4579
  774MPD2     C11471   0.316   4.227  13.334 -0.0034 -0.2287 -0.1784
  774MPD2    C111472   0.450   4.225  13.323  0.4302 -0.2670 -0.1641
  774MPD2    C211473   0.504   4.310  13.227 -1.0536 -0.0477 -1.0601
  774MPD2    C311474   0.431   4.387  13.143  0.3775  0.1707 -0.4426
  774MPD2    C411475   0.291   4.379  13.160  0.1291 -0.3486  0.0268
  774MPD2    C511476   0.232   4.305  13.261  0.3438  0.2925  0.0667
  774MPD2     H11477   0.610   4.323  13.208 -0.7930  0.3517  0.7120
  774MPD2    H111478   0.217   4.424  13.094  0.4596 -1.8535 -1.3727
  774MPD2    H211479   0.269   4.174  13.416 -1.1329 -0.8574 -1.2311
  774MPD2    H311480   0.124   4.302  13.248  0.1220  1.9219  1.4688
  774MPD2     N11481   0.500   4.459  13.045 -0.3715 -0.4995 -0.3959
  774MPD2    H511482   0.600   4.445  13.037  0.3814  4.0476  0.8575
  774MPD2    N111483   0.529   4.157  13.421 -0.5740  0.0617  0.1338
  774MPD2    H711484   0.478   4.099  13.487  0.7852 -1.9614 -0.5727
  775MPD2     C11485   2.642   0.925  15.437  0.1063 -0.9138 -0.0293
  775MPD2    C111486   2.672   1.014  15.535  1.1930 -0.4194  0.0750
  775MPD2    C211487   2.756   1.118  15.517  0.0625 -0.6426  0.5468
  775MPD2    C311488   2.822   1.130  15.391 -0.6376  0.2736 -0.1593
  775MPD2    C411489   2.790   1.041  15.292  0.0920  0.8182 -0.0026
  775MPD2    C511490   2.706   0.942  15.315 -0.2367 -0.2603 -0.9760
  775MPD2     H11491   2.792   1.187  15.592 -0.8922  1.2293 -0.7080
  775MPD2    H111492   2.830   1.038  15.191  2.2926 -0.9226  0.9318
  775MPD2    H211493   2.570   0.844  15.449  2.3973 -2.7267  1.3747
  775MPD2    H311494   2.674   0.881  15.231 -0.4232 -0.5091 -0.7258
  775MPD2     N11495   2.907   1.233  15.350  0.0250  0.2004  0.2882
  775MPD2    H511496   2.933   1.240  15.252 -0.5026 -0.7291  0.0851
  775MPD2    N111497   2.590   1.004  15.647 -0.2335  0.1557 -0.2348
  775MPD2    H711498   2.540   0.916  15.660 -1.5507  0.9840  0.3115
  776MPD2     C11499   1.275   1.678  10.916 -0.2434  0.0939 -0.2170
  776MPD2    C111500   1.345   1.691  11.036 -0.0611  0.0759 -0.3177
  776MPD2    C211501   1.425   1.802  11.055  0.5485 -1.2116 -0.0053
  776MPD2    C311502   1.440   1.903  10.961  0.7592 -0.6045 -0.0152
  776MPD2    C411503   1.367   1.894  10.842  0.0685 -0.0476 -0.2826
  776MPD2    C511504   1.282   1.780  10.823  0.1982 -0.3356 -0.3430
  776MPD2     H11505   1.482   1.805  11.147 -0.4651 -1.1421  0.6297
  776MPD2    H111506   1.357   1.978  10.775 -0.0144 -0.4994 -0.8328
  776MPD2    H211507   1.205   1.596  10.902 -1.3299  1.3126 -1.9770
  776MPD2    H311508   1.231   1.775  10.727  1.0070 -1.8651 -0.7020
  776MPD2     N11509   1.516   2.017  10.971  0.0250 -0.0769 -0.4918
  776MPD2    H511510   1.530   2.064  10.882  0.4685 -0.0039 -0.3832
  776MPD2    N111511   1.326   1.591  11.142 -0.9087 -0.0939 -0.1673
  776MPD2    H711512   1.269   1.511  11.115 -0.2823 -0.6614  0.1740
  777MPD2     C11513   2.387   3.435   0.469  0.4997  0.0927 -0.1681
  777MPD2    C111514   2.297   3.365   0.552 -0.5059  0.4125  0.4740
  777MPD2    C211515   2.203   3.285   0.488  0.1531  0.1846  0.4788
  777MPD2    C311516   2.191   3.272   0.353 -0.3676 -1.1529 -0.2522
  777MPD2    C411517   2.286   3.330   0.272  0.2734 -0.2463  0.7024
  777MPD2    C511518   2.379   3.410   0.329 -0.0413 -0.3862  0.0808
  777MPD2     H11519   2.131   3.229   0.547  1.0580 -1.3064  0.1436
  777MPD2    H111520   2.294   3.317   0.164 -2.6036  0.5655  0.3870
  777MPD2    H211521   2.461   3.495   0.521 -0.9215 -0.0938  2.1002
  777MPD2    H311522   2.451   3.454   0.260 -1.7216 -0.4455 -1.6992
  777MPD2     N11523   2.078   3.203   0.299  0.0666 -0.0543 -0.1301
  777MPD2    H511524   2.028   3.146   0.366 -0.9088  0.3189 -0.5319
  777MPD2    N111525   2.301   3.391   0.688 -0.2285  0.3119  0.2399
  777MPD2    H711526   2.369   3.462   0.709 -0.8983  0.6132  1.3833
  778MPD2     C11527   2.764   3.206  14.125  0.3616 -0.5337  0.1809
  778MPD2    C111528   2.755   3.277  14.239  0.5259  0.0754 -0.3624
  778MPD2    C211529   2.799   3.407  14.243  0.3011  0.3501  0.1969
  778MPD2    C311530   2.861   3.465  14.133 -0.0917 -0.0723 -0.2258
  778MPD2    C411531   2.864   3.394  14.012  0.0921 -0.2479  0.0091
  778MPD2    C511532   2.819   3.270  14.007 -0.0500  0.1273  0.7333
  778MPD2     H11533   2.800   3.460  14.337 -0.6752 -1.5837  1.3060
  778MPD2    H111534   2.913   3.439  13.927 -0.1188  0.4042  0.2348
  778MPD2    H211535   2.730   3.104  14.116 -1.6419  0.0533  1.2014
  778MPD2    H311536   2.823   3.221  13.910  0.1068 -0.1312  0.8675
  778MPD2     N11537   2.930   3.589  14.142  0.1016  0.1449  0.1315
  778MPD2    H511538   2.944   3.622  14.237 -1.1636  0.4235  0.2132
  778MPD2    N111539   2.697   3.208  14.350  0.5769 -0.2791 -0.2964
  778MPD2    H711540   2.668   3.113  14.330 -1.6560  0.5209 -0.8715
  779MPD2     C11541   2.673   2.678  13.362 -0.0182  0.0625 -0.0548
  779MPD2    C111542   2.735   2.678  13.489  0.0611  0.2315  0.4967
  779MPD2    C211543   2.766   2.802  13.548 -0.0280 -0.6203  0.0304
  779MPD2    C311544   2.757   2.923  13.479 -0.1741  0.3630 -0.1038
  779MPD2    C411545   2.686   2.921  13.358 -0.0960  0.6360 -0.0783
  779MPD2    C511546   2.647   2.802  13.309  0.2069  0.8692  0.2621
  779MPD2     H11547   2.814   2.790  13.644  1.2861 -0.5603 -0.6309
  779MPD2    H111548   2.660   3.011  13.302  0.2080  0.9283  0.2469
  779MPD2    H211549   2.632   2.591  13.312 -0.6728  0.9075 -0.9990
  779MPD2    H311550   2.589   2.818  13.219  2.4672 -0.0698 -1.3961
  779MPD2     N11551   2.797   3.037  13.542 -0.1808  0.2419  0.3381
  779MPD2    H511552   2.868   3.030  13.614 -1.1170  2.8520  1.4998
  779MPD2    N111553   2.767   2.559  13.557  0.0885  0.3855  0.0436
  779MPD2    H711554   2.795   2.562  13.654  1.6247 -0.1983 -0.3924
  780MPD2     C11555   2.590   2.664   0.748  0.6075  0.9090 -0.0314
  780MPD2    C111556   2.480   2.657   0.669  0.2329 -0.0231 -0.0690
  780MPD2    C211557   2.500   2.683   0.535 -0.1661  0.6011 -0.7454
  780MPD2    C311558   2.615   2.727   0.479 -0.2223  0.4716 -0.3638
  780MPD2    C411559   2.722   2.738   0.565 -0.3036 -0.0445 -0.3652
  780MPD2    C511560   2.712   2.701   0.694  0.0252  0.1978 -0.1969
  780MPD2     H11561   2.420   2.651   0.469 -0.5517  0.8695 -0.4131
  780MPD2    H111562   2.819   2.771   0.530 -0.9234  2.2507  0.0913
  780MPD2    H211563   2.590   2.634   0.852  0.8168  0.6163 -0.1165
  780MPD2    H311564   2.795   2.708   0.764  0.8206  3.4151 -1.4806
  780MPD2     N11565   2.621   2.760   0.338 -0.0200  0.2769  0.0273
  780MPD2    H511566   2.544   2.733   0.277 -1.0834 -0.2539  1.6078
  780MPD2    N111567   2.354   2.611   0.725  0.0900 -0.0558 -0.1007
  780MPD2    H711568   2.347   2.589   0.824 -1.5658 -2.8741 -0.8324
  781MPD2     C11569   3.145   4.535  11.988  0.6638 -0.6676 -0.6475
  781MPD2    C111570   3.267   4.557  12.046 -0.2818 -0.0633 -0.3531
  781MPD2    C211571   3.342   4.666  12.008  0.9332  0.0591  0.2928
  781MPD2    C311572   3.297   0.015  11.909  0.2645 -0.1224  0.1793
  781MPD2    C411573   3.172   4.729  11.852  0.3760 -0.6277  0.1446
  781MPD2    C511574   3.100   4.613  11.882  0.1723  0.1587  0.4004
  781MPD2     H11575   3.441   4.678  12.052  1.5106  0.4054 -1.0847
  781MPD2    H111576   3.139   0.058  11.773 -0.7034 -0.9062  0.3592
  781MPD2    H211577   3.076   4.452  12.004 -0.0779 -0.3173 -2.0544
  781MPD2    H311578   3.006   4.596  11.831 -0.0408  0.9813  0.5197
  781MPD2     N11579   3.381   0.121  11.872 -0.0856 -0.0769 -0.0445
  781MPD2    H511580   3.330   0.181  11.807 -1.5529  1.2454  2.3354
  781MPD2    N111581   3.305   4.480  12.156 -0.8931  0.1306 -0.3047
  781MPD2    H711582   3.397   4.504  12.192  0.1617 -0.5145 -2.5527
  782MPD2     C11583   1.670   0.116  10.021  0.8869  0.1476  0.4206
  782MPD2    C111584   1.763   0.159  10.118  0.6092  0.2030  0.2355
  782MPD2    C211585   1.783   0.298  10.126 -0.3948 -0.5032  0.1934
  782MPD2    C311586   1.723   0.391  10.041  0.2500  0.1901 -0.7399
  782MPD2    C411587   1.625   0.343   9.953  0.0655 -0.2507 -0.5038
  782MPD2    C511588   1.605   0.205   9.942 -0.5276  0.3243  0.3513
  782MPD2     H11589   1.843   0.339  10.206 -0.0621  3.4745 -2.0927
  782MPD2    H111590   1.560   0.400   9.888  0.4577 -0.0717 -0.7370
  782MPD2    H211591   1.645   0.011  10.015  1.2300  0.1429 -0.9300
  782MPD2    H311592   1.525   0.168   9.877  0.3128 -0.2306 -0.3690
  782MPD2     N11593   1.747   0.527  10.063 -0.5574 -0.0597 -0.7985
  782MPD2    H511594   1.801   0.552  10.146 -0.6506  1.4599 -1.1816
  782MPD2    N111595   1.826   0.063  10.190 -0.1523  0.1599  0.1701
  782MPD2    H711596   1.799   4.703  10.194  1.9915 -0.5108 -1.7175
  783MPD2     C11597   1.349   4.547  11.022  0.3263  0.1323 -0.5949
  783MPD2    C111598   1.408   4.673  11.033 -0.3983  0.5341  0.0406
  783MPD2    C211599   1.486   4.713  10.923  0.0556 -0.8316  0.0189
  783MPD2    C311600   1.508   4.636  10.811 -0.3709  0.0974  0.0292
  783MPD2    C411601   1.435   4.516  10.794 -0.0738 -0.0124 -0.5636
  783MPD2    C511602   1.364   4.476  10.909 -0.2346 -0.3668  0.2828
  783MPD2     H11603   1.552   0.057  10.948 -0.0484 -0.8264  0.2869
  783MPD2    H111604   1.443   4.448  10.709 -1.2585  0.7610 -1.3086
  783MPD2    H211605   1.294   4.509  11.108  0.0079 -1.3709 -1.4612
  783MPD2    H311606   1.320   4.377  10.917 -1.8580  0.2672 -0.6258
  783MPD2     N11607   1.614   4.666  10.723  0.2618 -0.2033  0.6583
  783MPD2    H511608   1.680   4.734  10.759  1.1269  0.1896 -1.6766
  783MPD2    N111609   1.380   0.016  11.140  0.1060 -0.0435 -0.3821
  783MPD2    H711610   1.318   4.716  11.211  1.7552  0.6361  1.4349
  784MPD2     C11611   4.183   0.571   0.246 -0.2219  0.4808 -0.5879
  784MPD2    C111612   4.152   0.569   0.381 -0.2567  0.3300  0.5013
  784MPD2    C211613   4.049   0.648   0.425 -0.3032  0.9696  0.1776
  784MPD2    C311614   3.978   0.726   0.329  0.3515 -0.1189 -0.3849
  784MPD2    C411615   4.018   0.728   0.194  0.6160  0.4913 -0.1790
  784MPD2    C511616   4.125   0.653   0.153  0.4555  0.3617 -0.1296
  784MPD2     H11617   4.023   0.653   0.530  0.0597 -0.0972  0.3156
  784MPD2    H111618   3.976   0.795   0.120  0.4569  0.6497  0.0520
  784MPD2    H211619   4.257   0.504   0.204  0.5117  0.8679  0.0969
  784MPD2    H311620   4.156   0.651   0.049  0.1172  0.4584 -0.2319
  784MPD2     N11621   3.875   0.808   0.381 -0.8707  0.5917  0.2868
  784MPD2    H511622   3.828   0.787   0.468 -1.8611 -0.1906 -0.4358
  784MPD2    N111623   4.240   0.511   0.475  0.6120  0.6456  0.1622
  784MPD2    H711624   4.218   0.524   0.574 -0.6033  0.7138 -0.1157
  785MPD2     C11625   4.152   4.083  10.717 -0.6411 -0.0146  0.1283
  785MPD2    C111626   4.066   4.187  10.703 -0.3927  0.1214  0.6909
  785MPD2    C211627   3.958   4.173  10.624  0.2566  0.0672  0.3619
  785MPD2    C311628   3.916   4.053  10.572 -0.6529  0.3790 -0.2149
  785MPD2    C411629   3.989   3.942  10.604 -0.0890 -0.2710 -0.4404
  785MPD2    C511630   4.112   3.958  10.667 -0.5428 -0.0749 -0.0988
  785MPD2     H11631   3.903   4.263  10.600 -0.0304 -0.1837  0.0761
  785MPD2    H111632   3.970   3.842  10.568  1.7609 -0.8901  0.2818
  785MPD2    H211633   4.241   4.087  10.779 -0.1802 -1.4973 -0.4562
  785MPD2    H311634   4.174   3.870  10.680  0.8805  0.9630  0.1641
  785MPD2     N11635   3.792   4.046  10.505 -0.3916  0.2053 -0.4437
  785MPD2    H511636   3.738   4.129  10.486  4.0253  2.9948 -0.6814
  785MPD2    N111637   4.106   4.315  10.756  0.0420  0.7675  0.1402
  785MPD2    H711638   4.199   4.320  10.797  0.8299  1.3936 -1.7077
  786MPD2     C11639   3.399   2.193  14.479 -0.0585  0.2264  0.5566
  786MPD2    C111640   3.398   2.069  14.531 -0.5782 -0.5545  0.5297
  786MPD2    C211641   3.433   2.046  14.665 -0.4403 -1.1181  0.0490
  786MPD2    C311642   3.452   2.156  14.752  0.6148  0.0176 -0.2097
  786MPD2    C411643   3.449   2.281  14.696  0.4120  0.1068  0.4911
  786MPD2    C511644   3.420   2.300  14.562 -0.4420 -0.3903  0.1149
  786MPD2     H11645   3.441   1.945  14.703  0.7501 -0.8087  0.6193
  786MPD2    H111646   3.450   2.369  14.760 -3.6682  0.7640 -0.3055
  786MPD2    H211647   3.391   2.215  14.374 -0.6431  1.6408  0.8939
  786MPD2    H311648   3.406   2.399  14.520  3.0447 -0.9489 -2.3628
  786MPD2     N11649   3.480   2.150  14.892  0.4490  0.2093  0.3513
  786MPD2    H511650   3.501   2.236  14.942  2.2627 -1.0370  1.7422
  786MPD2    N111651   3.391   1.954  14.447 -0.0598 -0.1648  0.2552
  786MPD2    H711652   3.406   1.867  14.497  0.9335 -0.6507 -0.9006
  787MPD2     C11653   3.729   1.431  14.534  0.3187  0.2759  0.2428
  787MPD2    C111654   3.666   1.397  14.421  0.4509 -0.3711  0.0777
  787MPD2    C211655   3.694   1.280  14.353 -0.4682  0.1006 -1.1712
  787MPD2    C311656   3.770   1.187  14.415  0.4263 -0.0850  0.7833
  787MPD2    C411657   3.820   1.213  14.543 -0.5057 -0.6687  0.0772
  787MPD2    C511658   3.802   1.334  14.605 -0.2076  0.4555  0.3712
  787MPD2     H11659   3.651   1.260  14.256 -0.4960 -2.6880 -0.6012
  787MPD2    H111660   3.892   1.157  14.601  0.4344  0.5378  0.0875
  787MPD2    H211661   3.722   1.533  14.571 -2.4023  1.1524 -2.6102
  787MPD2    H311662   3.845   1.355  14.702 -0.8044 -0.7262  0.8926
  787MPD2     N11663   3.798   1.074  14.339 -0.4738 -0.3554  0.1920
  787MPD2    H511664   3.739   1.069  14.256 -0.5839 -2.7870  0.4339
  787MPD2    N111665   3.590   1.498  14.359  0.0208  0.1922  0.1040
  787MPD2    H711666   3.604   1.589  14.403  2.1475 -0.5028  0.8875
  788MPD2     C11667   0.691   0.311   0.524 -0.3677  0.1579  0.1294
  788MPD2    C111668   0.746   0.271   0.405  0.6669  0.6054 -0.7209
  788MPD2    C211669   0.795   0.359   0.314 -0.3184  0.9782  0.2685
  788MPD2    C311670   0.780   0.499   0.334 -0.4609 -0.1513  0.4096
  788MPD2    C411671   0.707   0.541   0.444 -0.1913 -0.1293  0.2149
  788MPD2    C511672   0.674   0.451   0.540  0.3629 -0.4935 -0.7413
  788MPD2     H11673   0.826   0.332   0.213  2.2711  0.2040  1.2707
  788MPD2    H111674   0.699   0.647   0.465 -1.3143 -0.7454  2.8025
  788MPD2    H211675   0.667   0.251   0.611 -0.1108 -1.3181 -0.8103
  788MPD2    H311676   0.621   0.474   0.632  0.7010 -1.3234 -0.3455
  788MPD2     N11677   0.807   0.600   0.235 -0.2026  0.0442  0.5028
  788MPD2    H511678   0.755   0.685   0.251  2.0130  1.7361 -1.2322
  788MPD2    N111679   0.751   0.132   0.376  0.0488  0.3632  0.6227
  788MPD2    H711680   0.806   0.101   0.297 -0.5480  2.5229 -0.6464
  789MPD2     C11681   1.123   0.048  16.257  0.7049  0.2301  0.3067
  789MPD2    C111682   1.031   0.082  16.160  0.1591 -0.5078  0.6787
  789MPD2    C211683   0.920   0.161  16.177 -0.3560 -0.7436 -0.0385
  789MPD2    C311684   0.883   0.178  16.305 -0.2801  0.2996 -0.3228
  789MPD2    C411685   0.972   0.144  16.410  0.1906  0.0196  0.3361
  789MPD2    C511686   1.089   0.083  16.378  0.4628  0.4140 -0.2162
  789MPD2     H11687   0.848   0.157  16.097  0.8749  3.2607 -1.3585
  789MPD2    H111688   0.948   0.147  16.516  3.5774 -0.1099  1.1086
  789MPD2    H211689   1.213   4.727  16.242 -0.9363 -1.9030 -1.1403
  789MPD2    H311690   1.148   0.062  16.467  1.0133 -2.2616 -1.2270
  789MPD2     N11691   0.752   0.216  16.344  0.0975 -0.2784  0.0869
  789MPD2    H511692   0.725   0.218  16.442  1.6895 -0.4542  0.5257
  789MPD2    N111693   1.042   0.041  16.028 -0.2494 -0.5668  0.0323
  789MPD2    H711694   0.960   0.066  15.973  1.4605  1.1514 -1.7341
  790MPD2     C11695   1.295   1.705  13.804 -0.7894  1.2331 -0.5405
  790MPD2    C111696   1.386   1.656  13.712  0.6093 -0.3157  0.5293
  790MPD2    C211697   1.348   1.578  13.608  0.1329  0.4346  0.8707
  790MPD2    C311698   1.214   1.544  13.594 -0.0922 -0.8990  0.2121
  790MPD2    C411699   1.123   1.588  13.691  0.0125  0.1633 -0.1950
  790MPD2    C511700   1.169   1.666  13.796  0.0629 -0.5669  0.5758
  790MPD2     H11701   1.417   1.537  13.536 -0.1211  0.6640  0.4960
  790MPD2    H111702   1.021   1.551  13.699 -0.1193  0.9959  2.0804
  790MPD2    H211703   1.329   1.763  13.890  1.0240  0.9197 -1.0338
  790MPD2    H311704   1.102   1.708  13.870 -0.2609  0.2618 -0.1787
  790MPD2     N11705   1.181   1.462  13.482 -0.5852 -0.0178 -1.0091
  790MPD2    H511706   1.254   1.465  13.411  1.7316 -3.0236  1.2670
  790MPD2    N111707   1.520   1.701  13.727 -0.2628  0.6971 -0.4054
  790MPD2    H711708   1.532   1.771  13.799  1.9407 -0.5823  0.4768
  791MPD2     C11709   0.462   1.140  13.344  0.5915  0.4537  0.8272
  791MPD2    C111710   0.517   1.210  13.234  0.0698 -0.5297 -0.7008
  791MPD2    C211711   0.432   1.258  13.131 -0.0744 -0.4229 -0.0586
  791MPD2    C311712   0.293   1.222  13.141  1.2004 -0.1732 -0.2476
  791MPD2    C411713   0.244   1.156  13.247  0.4717 -0.4283  0.1390
  791MPD2    C511714   0.328   1.113  13.348  0.7580 -0.4931  0.2086
  791MPD2     H11715   0.464   1.322  13.051 -0.4498  0.7457  0.7208
  791MPD2    H111716   0.138   1.135  13.263  0.1943  1.6773  1.1011
  791MPD2    H211717   0.525   1.114  13.428  2.8377  0.9386 -0.6906
  791MPD2    H311718   0.283   1.059  13.430  0.9181  0.5964  1.0185
  791MPD2     N11719   0.206   1.277  13.050 -0.0041 -0.2780 -0.7195
  791MPD2    H511720   0.257   1.318  12.972 -1.1803  0.7810 -0.9454
  791MPD2    N111721   0.648   1.239  13.232 -0.0034 -0.3687  0.1167
  791MPD2    H711722   0.696   1.212  13.318 -0.0734 -2.5565 -0.5141
  792MPD2     C11723   1.519   1.316  10.376 -0.4179  0.3617 -0.2132
  792MPD2    C111724   1.498   1.356  10.502  0.5222  0.6946 -0.3150
  792MPD2    C211725   1.415   1.282  10.586 -0.8743 -0.4403 -0.8925
  792MPD2    C311726   1.350   1.171  10.540  0.4227 -0.4914  0.2043
  792MPD2    C411727   1.375   1.139  10.407 -0.6478  0.5630 -0.3823
  792MPD2    C511728   1.463   1.201  10.325 -0.5509  0.3142 -0.1368
  792MPD2     H11729   1.389   1.311  10.687 -1.4459 -1.8922 -0.6217
  792MPD2    H111730   1.327   1.051  10.367 -0.0431 -0.1061  0.3759
  792MPD2    H211731   1.588   1.375  10.316 -1.0243  0.6019 -0.6724
  792MPD2    H311732   1.487   1.176  10.222 -1.3582 -0.7092 -0.0674
  792MPD2     N11733   1.249   1.101  10.609  0.4970 -0.1167 -0.4841
  792MPD2    H511734   1.208   1.024  10.557  0.0634  0.6129 -1.2229
  792MPD2    N111735   1.565   1.474  10.543  0.2699  0.5569  0.7997
  792MPD2    H711736   1.632   1.521  10.484  2.3874 -2.2645  0.9441
  793MPD2     C11737   0.553   1.074  10.152  0.1533  0.4716 -0.1873
  793MPD2    C111738   0.675   1.142  10.159 -0.0782 -0.6400 -0.4191
  793MPD2    C211739   0.760   1.118  10.267  0.2080  0.1528 -0.1563
  793MPD2    C311740   0.725   1.036  10.374  0.0645 -0.3285  0.1920
  793MPD2    C411741   0.608   0.962  10.356  0.4053 -0.1161 -0.5917
  793MPD2    C511742   0.520   0.986  10.253  0.2059 -0.4333  0.4450
  793MPD2     H11743   0.856   1.167  10.272 -0.5301  1.7404 -1.6452
  793MPD2    H111744   0.584   0.897  10.440  1.2980  0.7343  0.3103
  793MPD2    H211745   0.502   1.074  10.056  2.1283 -1.0691 -1.2312
  793MPD2    H311746   0.432   0.923  10.243  0.7981 -1.0603 -0.7862
  793MPD2     N11747   0.800   1.038  10.492  0.0002 -0.0376  0.3765
  793MPD2    H511748   0.875   1.105  10.494  0.3772 -0.4352 -0.8822
  793MPD2    N111749   0.729   1.204  10.049 -0.4428 -0.6852 -0.3329
  793MPD2    H711750   0.822   1.244  10.054  0.6638 -3.1723 -0.8013
  794MPD2     C11751   1.730   1.067  16.766 -0.2206 -0.0044 -0.6299
  794MPD2    C111752   1.649   0.960  16.745 -0.4330  0.2502 -0.7147
  794MPD2    C211753   1.610   0.946  16.613  0.5963 -0.1303  0.6182
  794MPD2    C311754   1.638   1.033  16.515 -0.3133 -0.8522  0.8905
  794MPD2    C411755   1.709   1.143  16.542  0.6502  0.3748  0.1182
  794MPD2    C511756   1.758   1.158  16.668  0.6240 -0.0746  0.1275
  794MPD2     H11757   1.560   0.852  16.593 -1.8342  1.0420  1.1195
  794MPD2    H111758   1.724   1.220  16.468  0.8913 -0.4106 -0.6436
  794MPD2    H211759   1.763   1.104  16.863  1.8480 -2.0635 -0.5636
  794MPD2    H311760   1.814   1.246  16.695 -0.2310  1.5661 -3.4814
  794MPD2     N11761   1.603   1.026  16.377 -0.2100  0.2861 -0.3825
  794MPD2    H511762   1.629   1.109  16.325 -0.1234  0.0760 -0.6743
  794MPD2    N111763   1.618   0.869  16.847 -0.4743 -0.2602 -1.5188
  794MPD2    H711764   1.555   0.793  16.823  0.0870 -1.1318 -0.2431
  795MPD2     C11765   3.822   2.910  13.617  0.4457  0.0529 -0.0722
  795MPD2    C111766   3.796   2.814  13.519 -0.2100 -0.6695 -0.4520
  795MPD2    C211767   3.876   2.707  13.499 -0.6282  0.4676  0.0338
  795MPD2    C311768   3.982   2.687  13.583 -0.0032 -0.4091 -0.2563
  795MPD2    C411769   4.011   2.777  13.681  0.0882  0.3463 -0.6581
  795MPD2    C511770   3.933   2.890  13.700  0.3664 -0.2170 -0.2840
  795MPD2     H11771   3.857   2.639  13.417  1.5346 -1.4430  1.1139
  795MPD2    H111772   4.084   2.752  13.757 -2.1619 -1.2455  1.0057
  795MPD2    H211773   3.756   2.994  13.633 -2.2107 -1.9750 -0.4508
  795MPD2    H311774   3.961   2.942  13.790  2.0243  0.7120 -1.3479
  795MPD2     N11775   4.063   2.569  13.568 -0.4573  0.7859 -0.6723
  795MPD2    H511776   4.018   2.487  13.528  1.3804 -0.3134 -0.4878
  795MPD2    N111777   3.699   2.817  13.421 -0.0460  0.5345 -0.4955
  795MPD2    H711778   3.695   2.734  13.364 -2.0351 -0.4238  1.0034
  796MPD2     C11779   3.417   4.349  15.602 -0.3966 -0.4826  0.2753
  796MPD2    C111780   3.455   4.414  15.717  0.1685 -0.0790  1.0092
  796MPD2    C211781   3.455   4.552  15.726 -0.1005 -0.3047  0.2271
  796MPD2    C311782   3.400   4.627  15.622  0.3745  1.3812 -0.0582
  796MPD2    C411783   3.354   4.559  15.509  0.2951 -0.9394  0.1154
  796MPD2    C511784   3.368   4.422  15.488 -0.1752 -0.5222  0.5253
  796MPD2     H11785   3.479   4.611  15.813  3.6137 -0.4830 -0.6860
  796MPD2    H111786   3.312   4.615  15.426  3.7580 -1.2178 -1.8281
  796MPD2    H211787   3.441   4.244  15.592  0.6334 -0.0536 -1.6850
  796MPD2    H311788   3.325   4.384  15.396 -2.8293  0.3885  1.3688
  796MPD2     N11789   3.402   0.033  15.632  0.2464  0.3344 -0.1500
  796MPD2    H511790   3.439   0.079  15.714 -0.5168  0.3583  0.1787
  796MPD2    N111791   3.513   4.332  15.819  0.3240  0.3654  0.3134
  796MPD2    H711792   3.524   4.232  15.803 -0.3227  0.1679  1.1259
  797MPD2     C11793   4.586   3.668  17.130 -0.3551 -0.4039  1.2295
  797MPD2    C111794   4.598   3.787  17.202  0.6416 -0.0604 -0.2623
  797MPD2    C211795   4.536   3.898  17.148  0.8246  0.7181 -0.0892
  797MPD2    C311796   4.455   3.892  17.036 -0.0920 -0.7937 -0.1101
  797MPD2    C411797   4.442   3.770  16.978  0.5780  0.7520 -0.3486
  797MPD2    C511798   4.505   3.659  17.025 -0.1258 -0.0546 -0.2413
  797MPD2     H11799   4.555   3.995  17.191 -1.2638  0.3605  1.6357
  797MPD2    H111800   4.379   3.748  16.893 -0.8848  0.1004  0.9014
  797MPD2    H211801   4.632   3.578  17.168  4.5405  1.0821 -1.2137
  797MPD2    H311802   4.500   3.566  16.969 -1.5586 -0.5823  0.7437
  797MPD2     N11803   4.397   4.002  16.973  0.3991 -0.2689  0.0837
  797MPD2    H511804   4.345   3.983  16.888  3.1937 -2.5691 -1.1235
  797MPD2    N111805   4.686   3.798  17.309 -0.0862  0.3933  0.3464
  797MPD2    H711806   4.692   3.891  17.349 -0.8306  0.8008 -0.4691
  798MPD2     C11807   4.711   4.526  17.231 -0.8461 -0.7735  0.0602
  798MPD2    C111808   4.631   4.413  17.221  0.0695 -0.7951 -0.4578
  798MPD2    C211809   4.665   4.297  17.285 -0.7635 -0.1744  0.1426
  798MPD2    C311810   0.049   4.289  17.349 -0.0265  0.4075 -0.4402
  798MPD2    C411811   0.132   4.399  17.345  0.5979 -0.6776 -0.0862
  798MPD2    C511812   0.094   4.520  17.284 -0.4862  0.0283  0.8921
  798MPD2     H11813   4.596   4.215  17.270 -1.9448  1.0673 -1.1522
  798MPD2    H111814   0.234   4.391  17.380  0.4399 -0.1823  0.4834
  798MPD2    H211815   4.686   4.622  17.186 -0.8530 -0.4705  0.7152
  798MPD2    H311816   0.153   4.610  17.282 -1.0797  0.3820 -1.0618
  798MPD2     N11817   0.087   4.162  17.397  0.7046  0.7320 -0.8810
  798MPD2    H511818   0.028   4.086  17.364 -0.3911  0.4205  1.7929
  798MPD2    N111819   4.499   4.419  17.168 -0.0507  0.1217 -0.1352
  798MPD2    H711820   4.451   4.329  17.169 -1.6454  0.9803  0.1576
  799MPD2     C11821   3.447   0.937  14.523 -0.4671 -0.4104 -0.5694
  799MPD2    C111822   3.346   0.870  14.445  0.4976 -0.3009  0.2410
  799MPD2    C211823   3.283   0.937  14.345 -0.1932 -0.4072 -0.0245
  799MPD2    C311824   3.321   1.066  14.312  0.3525  0.1213 -0.6897
  799MPD2    C411825   3.408   1.129  14.397 -0.0093  0.2190 -0.6188
  799MPD2    C511826   3.465   1.068  14.504  0.0824  0.7519 -0.6438
  799MPD2     H11827   3.228   0.878  14.272  1.0101 -0.8091 -0.5990
  799MPD2    H111828   3.438   1.228  14.366 -0.1169  0.4549  0.0398
  799MPD2    H211829   3.495   0.880  14.601 -2.0447 -2.1559 -0.8816
  799MPD2    H311830   3.549   1.120  14.549  0.9925 -0.4501 -0.9758
  799MPD2     N11831   3.262   1.145  14.214 -0.3737 -0.7081  0.2428
  799MPD2    H511832   3.303   1.233  14.183 -2.9818  0.9663  1.5454
  799MPD2    N111833   3.315   0.730  14.443  0.1512 -0.5263 -0.5134
  799MPD2    H711834   3.249   0.686  14.379  1.7787 -1.7071 -1.3704
  800MPD2     C11835   3.796   2.016  13.995  0.4114  0.2624 -0.6869
  800MPD2    C111836   3.868   1.930  13.917  0.0968  0.1764 -0.0105
  800MPD2    C211837   3.798   1.857  13.823 -0.8050  0.4937  0.1994
  800MPD2    C311838   3.659   1.854  13.819  0.3363 -0.3362 -0.3815
  800MPD2    C411839   3.583   1.928  13.911  0.0902 -0.4153  0.0529
  800MPD2    C511840   3.653   2.009  14.003  0.0595 -0.1182 -0.4211
  800MPD2     H11841   3.854   1.792  13.756 -3.4304 -1.6813  0.1216
  800MPD2    H111842   3.476   1.942  13.907  0.2556  1.1802  0.9881
  800MPD2    H211843   3.846   2.092  14.054  0.7022 -0.5435  0.1013
  800MPD2    H311844   3.604   2.086  14.062  0.7706 -2.2759  2.9897
  800MPD2     N11845   3.602   1.773  13.717 -0.8312  0.0580  0.2337
  800MPD2    H511846   3.657   1.698  13.676 -1.0341  0.3984 -0.6542
  800MPD2    N111847   4.009   1.947  13.918 -0.0368 -0.4290  0.4160
  800MPD2    H711848   4.061   1.996  13.990  0.3321 -2.1836  1.3405
  801MPD2     C11849   4.315   2.528  13.967 -0.0955  0.0903  0.3790
  801MPD2    C111850   4.254   2.418  14.024  0.2350  0.0972  0.0748
  801MPD2    C211851   4.159   2.424  14.117  0.5879  0.1696  0.2417
  801MPD2    C311852   4.099   2.544  14.141  0.1466 -0.6479  0.1335
  801MPD2    C411853   4.145   2.653  14.068  0.0011  0.1110 -0.2504
  801MPD2    C511854   4.258   2.653  13.988  0.2836 -0.6566  0.0559
  801MPD2     H11855   4.134   2.333  14.171 -0.5179  0.0676 -0.4380
  801MPD2    H111856   4.100   2.749  14.090  2.3879  1.0526  0.5234
  801MPD2    H211857   4.397   2.521  13.896  0.3329 -1.5076  1.0419
  801MPD2    H311858   4.301   2.744  13.949  1.1416 -0.7037  0.9095
  801MPD2     N11859   3.995   2.563  14.233  0.2809 -0.2935  0.3513
  801MPD2    H511860   3.945   2.651  14.224 -0.0134 -0.4891  0.0770
  801MPD2    N111861   4.294   2.286  13.992 -0.3080  0.2772  0.6196
  801MPD2    H711862   4.249   2.208  14.039  0.6276 -0.6991 -0.1197
  802MPD2     C11863   3.647   3.725   0.250 -0.3312 -0.0724 -0.2275
  802MPD2    C111864   3.553   3.627   0.246 -0.2295 -0.4454  0.1402
  802MPD2    C211865   3.592   3.511   0.185  0.0825  0.1295  0.6411
  802MPD2    C311866   3.708   3.494   0.108 -0.6264  0.6537 -0.4484
  802MPD2    C411867   3.803   3.593   0.111 -0.1712 -0.9042 -0.3858
  802MPD2    C511868   3.768   3.705   0.185 -0.4052  0.1007  0.3639
  802MPD2     H11869   3.523   3.428   0.177 -0.4277  0.6867 -0.8762
  802MPD2    H111870   3.886   3.605   0.042 -1.4310 -0.3896 -1.8267
  802MPD2    H211871   3.625   3.827   0.278 -1.1270  0.3612 -2.3739
  802MPD2    H311872   3.846   3.781   0.192 -1.2154  0.8628  1.0705
  802MPD2     N11873   3.722   3.379   0.027 -0.0368  1.0847  0.6257
  802MPD2    H511874   3.647   3.311   0.029  1.9161 -1.0653 -0.1984
  802MPD2    N111875   3.426   3.638   0.301  0.0770 -0.4470  0.1479
  802MPD2    H711876   3.364   3.558   0.301  0.7241 -0.9420  0.6485
  803MPD2     C11877   4.052   1.181  11.385 -0.3793  0.0938 -0.0934
  803MPD2    C111878   4.099   1.296  11.454  0.1621  0.7505  0.2757
  803MPD2    C211879   4.079   1.305  11.590 -0.4929  0.3790 -0.0413
  803MPD2    C311880   4.025   1.197  11.661  0.0133  0.0068 -0.2211
  803MPD2    C411881   3.982   1.083  11.588  0.2588  0.5514  0.5238
  803MPD2    C511882   3.999   1.075  11.451  0.3506  0.3972  0.0046
  803MPD2     H11883   4.118   1.391  11.643 -0.1574  0.9261 -1.1781
  803MPD2    H111884   3.946   0.997  11.643  1.1172  0.5968  1.1548
  803MPD2    H211885   4.065   1.163  11.279 -1.7697  0.5357 -0.3408
  803MPD2    H311886   3.966   0.989  11.394  0.2703  1.0409 -0.9270
  803MPD2     N11887   3.996   1.197  11.801  0.0955 -0.0139 -0.5844
  803MPD2    H511888   3.962   1.116  11.852  1.0595 -0.3065 -0.4137
  803MPD2    N111889   4.176   1.397  11.388 -0.0006 -0.4395  0.7662
  803MPD2    H711890   4.216   1.470  11.447 -3.0402  1.2875  0.7007
  804MPD2     C11891   4.123   2.917  17.196  0.1149 -0.1247 -0.3858
  804MPD2    C111892   4.193   2.840  17.291 -0.2545  0.4709  0.3963
  804MPD2    C211893   4.317   2.883  17.336  0.0037  0.1298  1.1885
  804MPD2    C311894   4.374   3.004  17.302 -0.5828 -0.4958  0.0960
  804MPD2    C411895   4.306   3.075  17.203  0.7156 -0.6662 -0.6158
  804MPD2    C511896   4.180   3.033  17.151  0.2861  0.6068 -0.0393
  804MPD2     H11897   4.376   2.817  17.398 -0.0055 -1.5719 -0.6275
  804MPD2    H111898   4.349   3.167  17.166  0.9923 -1.0047 -1.1359
  804MPD2    H211899   4.019   2.906  17.169 -0.4904 -0.5233  2.1168
  804MPD2    H311900   4.130   3.085  17.071  2.2711  1.2716 -0.8450
  804MPD2     N11901   4.504   3.031  17.344  0.1803  0.5327  0.1289
  804MPD2    H511902   4.552   2.971  17.411 -1.8961 -1.1204  0.1533
  804MPD2    N111903   4.138   2.718  17.343  0.2824  0.0794 -0.4009
  804MPD2    H711904   4.190   2.669  17.416  3.1084  1.8634 -1.2085
  805MPD2     C11905   3.038   0.879  15.085 -0.1651 -0.6872  0.4808
  805MPD2    C111906   3.100   1.003  15.068  0.1941  0.0121 -0.0674
  805MPD2    C211907   3.217   1.034  15.131 -0.0093  0.5615 -0.0968
  805MPD2    C311908   3.276   0.944  15.211 -0.7215 -0.3913 -0.0668
  805MPD2    C411909   3.230   0.820  15.226  0.4834  0.1887 -0.1829
  805MPD2    C511910   3.115   0.788  15.157 -0.0180  0.3523 -0.0580
  805MPD2     H11911   3.261   1.130  15.106  0.7970 -0.1061 -1.2202
  805MPD2    H111912   3.280   0.739  15.278 -0.8120 -0.2445  0.3708
  805MPD2    H211913   2.954   0.840  15.029  0.8354 -0.4400 -1.1947
  805MPD2    H311914   3.072   0.689  15.160 -0.7352  0.6865  0.4190
  805MPD2     N11915   3.398   0.982  15.270 -0.0351 -0.2213 -0.1292
  805MPD2    H511916   3.438   1.073  15.255 -1.1899 -0.2347 -3.3708
  805MPD2    N111917   3.039   1.108  14.998  0.0340 -0.2116  0.1871
  805MPD2    H711918   3.104   1.184  14.978  0.9029 -0.8193  0.7022
  806MPD2     C11919   3.790   0.610  17.673 -0.4197 -0.5754  0.5294
  806MPD2    C111920   3.697   0.677   0.004  0.0063 -0.7999  0.7273
  806MPD2    C211921   3.674   0.816  17.731 -0.2409  0.2704 -0.2445
  806MPD2    C311922   3.754   0.886  17.649 -0.0056 -0.0387 -0.6301
  806MPD2    C411923   3.840   0.817  17.563  0.7787  0.0816 -0.1440
  806MPD2    C511924   3.856   0.675  17.576  0.5572  0.1394 -0.7473
  806MPD2     H11925   3.588   0.865   0.024  1.2415  1.5069  1.3250
  806MPD2    H111926   3.905   0.867  17.492 -0.5429  4.0159  1.4823
  806MPD2    H211927   3.810   0.505  17.691  1.3051 -0.0185  1.9308
  806MPD2    H311928   3.932   0.615  17.528  1.5210  0.4001  0.4511
  806MPD2     N11929   3.750   1.028  17.643 -0.1082 -0.4121 -0.4907
  806MPD2    H511930   3.685   1.066  17.712 -0.5488 -0.9379 -0.6170
  806MPD2    N111931   3.647   0.611   0.119  0.5467 -0.3240 -0.0703
  806MPD2    H711932   3.686   0.525   0.155  3.1016  0.9718  0.2174
  807MPD2     C11933   3.004   0.354   0.617  0.3459 -0.2602  0.0980
  807MPD2    C111934   3.084   0.438   0.704  0.0527 -0.5585 -0.4984
  807MPD2    C211935   3.054   0.440   0.845  0.5835  0.2349  0.5756
  807MPD2    C311936   2.939   0.372   0.888  0.0375  0.3115 -0.8249
  807MPD2    C411937   2.868   0.296   0.800 -0.0717  0.3347  0.0060
  807MPD2    C511938   2.905   0.278   0.672  0.3169  0.3032  0.1893
  807MPD2     H11939   3.117   0.496   0.913  1.4407  0.1065 -0.1154
  807MPD2    H111940   2.770   0.254   0.815 -0.5120  1.8430  1.3117
  807MPD2    H211941   3.025   0.349   0.511  2.1484  2.6836  0.3396
  807MPD2    H311942   2.845   0.213   0.610  1.2275  1.4131 -1.8647
  807MPD2     N11943   2.909   0.388   1.024  0.5030  0.6180 -0.5691
  807MPD2    H511944   2.975   0.443   1.079 -0.0856 -0.2391  0.9977
  807MPD2    N111945   3.195   0.510   0.656 -0.3872  0.1220  0.1583
  807MPD2    H711946   3.254   0.554   0.726  1.0172 -0.1597 -0.8574
  808MPD2     C11947   3.900   2.550   9.282 -0.3498 -0.3394  0.4498
  808MPD2    C111948   3.898   2.532   9.415 -0.5716 -0.4941  0.1724
  808MPD2    C211949   3.912   2.634   9.501 -0.2221  0.1383  0.2276
  808MPD2    C311950   3.913   2.760   9.453 -0.9262  0.0926  0.3505
  808MPD2    C411951   3.919   2.780   9.314 -0.0719 -0.2336  0.1162
  808MPD2    C511952   3.915   2.677   9.231 -0.0628  0.0438 -0.9748
  808MPD2     H11953   3.914   2.621   9.608 -0.9049 -0.7596  0.1246
  808MPD2    H111954   3.909   2.876   9.264  0.7274 -0.2736 -0.1194
  808MPD2    H211955   3.911   2.469   9.211  0.7216 -0.9382  1.2941
  808MPD2    H311956   3.913   2.707   9.127 -1.8495 -0.7731 -1.1630
  808MPD2     N11957   3.925   2.871   9.542  0.0995 -0.5788  0.1022
  808MPD2    H511958   3.956   2.957   9.498 -2.1737 -0.7114 -1.7025
  808MPD2    N111959   3.871   2.407   9.471  0.5935 -0.5068  0.1151
  808MPD2    H711960   3.866   2.406   9.573 -0.4063 -1.2381  0.0529
  809MPD2     C11961   4.315   3.744   9.475  0.4957  1.1777 -0.2718
  809MPD2    C111962   4.370   3.614   9.478 -0.2219 -0.2203  0.4472
  809MPD2    C211963   4.305   3.515   9.558  0.5317  0.5506  0.1172
  809MPD2    C311964   4.181   3.547   9.615  0.1760 -0.1974 -0.3749
  809MPD2    C411965   4.135   3.674   9.611 -0.4749  0.6386  0.1920
  809MPD2    C511966   4.197   3.774   9.541  0.0999  0.0817  0.7501
  809MPD2     H11967   4.352   3.418   9.548  2.8512  1.6717  0.1481
  809MPD2    H111968   4.038   3.698   9.652 -1.2895 -0.0594 -1.3175
  809MPD2    H211969   4.364   3.819   9.414  2.0064  0.6889  0.3366
  809MPD2    H311970   4.156   3.874   9.529  1.2541  0.7019  1.9385
  809MPD2     N11971   4.093   3.443   9.666 -1.0505  0.1610  0.0157
  809MPD2    H511972   4.002   3.474   9.700 -1.0247 -0.0512  0.2806
  809MPD2    N111973   4.489   3.574   9.402 -0.4351  0.4344  0.0119
  809MPD2    H711974   4.522   3.478   9.406 -0.5654  0.3971  0.2329
  810MPD2     C11975   3.545   1.225  10.272  0.7914 -0.2004  0.3921
  810MPD2    C111976   3.417   1.248  10.313 -0.1573  0.4370 -0.2810
  810MPD2    C211977   3.370   1.379  10.310 -0.3936 -0.2949  0.1449
  810MPD2    C311978   3.450   1.481  10.263  0.2593  0.3560  0.5178
  810MPD2    C411979   3.574   1.446  10.211 -0.0777 -0.3625  0.8979
  810MPD2    C511980   3.619   1.322  10.218 -0.7621 -0.0324 -0.9082
  810MPD2     H11981   3.274   1.405  10.355  0.3391 -1.2936  2.2409
  810MPD2    H111982   3.641   1.526  10.180 -0.9469 -1.0567 -2.6733
  810MPD2    H211983   3.592   1.127  10.270  1.0432 -0.0534 -0.9005
  810MPD2    H311984   3.721   1.303  10.188  0.6659  3.0204  2.0340
  810MPD2     N11985   3.421   1.622  10.266 -0.0223 -0.0869 -0.1301
  810MPD2    H511986   3.489   1.691  10.235 -0.6663  0.7933  0.4264
  810MPD2    N111987   3.340   1.137  10.371  0.2705  0.2228  0.2975
  810MPD2    H711988   3.398   1.054  10.379  1.4420  1.0125  0.0449
  811MPD2     C11989   2.727   0.648  10.046 -0.3540 -0.0844 -0.3983
  811MPD2    C111990   2.842   0.719  10.044  0.0203 -0.7046  0.2586
  811MPD2    C211991   2.868   0.808   9.942 -0.0060 -1.0280 -0.0295
  811MPD2    C311992   2.773   0.830   9.845  0.5110  0.2542 -0.0775
  811MPD2    C411993   2.669   0.745   9.839  0.5881 -0.0488 -0.3246
  811MPD2    C511994   2.643   0.651   9.940  0.2095 -0.3780 -0.1739
  811MPD2     H11995   2.961   0.864   9.940  0.7081 -2.2293 -0.2171
  811MPD2    H111996   2.605   0.747   9.752 -0.7306 -0.4498  0.6249
  811MPD2    H211997   2.710   0.582  10.130  3.6474  1.0349  1.2680
  811MPD2    H311998   2.547   0.601   9.941 -0.1564  0.3551  1.4729
  811MPD2     N11999   2.799   0.946   9.763 -0.1373 -0.3171 -0.6940
  811MPD2    H512000   2.866   1.014   9.797  0.9454 -3.0354  2.5878
  811MPD2    N112001   2.917   0.714  10.160 -1.0535 -0.1204  0.1760
  811MPD2    H712002   2.881   0.665  10.242  1.9364 -1.1789  0.8425
  812MPD2     C12003   1.660   1.398  12.034 -0.9687 -0.1208 -0.4267
  812MPD2    C112004   1.655   1.492  12.128  0.7067 -0.3878 -0.6652
  812MPD2    C212005   1.711   1.468  12.252 -0.1084 -0.1593 -0.2852
  812MPD2    C312006   1.780   1.352  12.279 -0.3579  0.5902  0.1742
  812MPD2    C412007   1.784   1.254  12.179 -0.3537 -0.6919 -0.6150
  812MPD2    C512008   1.719   1.279  12.064 -0.4204 -0.5760 -0.1827
  812MPD2     H12009   1.693   1.547  12.324  0.8606 -1.2041  1.0971
  812MPD2    H112010   1.835   1.160  12.198 -1.6195 -1.2872 -0.1623
  812MPD2    H212011   1.619   1.413  11.935  0.8887  0.8525 -1.0366
  812MPD2    H312012   1.721   1.203  11.986 -0.3257 -0.9769  0.2121
  812MPD2     N12013   1.822   1.330  12.412  0.2877  0.3544 -0.6861
  812MPD2    H512014   1.812   1.411  12.472  1.1472 -0.1174  0.1027
  812MPD2    N112015   1.614   1.616  12.081 -0.9066 -0.4765 -0.1178
  812MPD2    H712016   1.603   1.619  11.981  2.7379 -2.8907 -0.6213
  813MPD2     C12017   1.844   3.252  12.926  0.6684  0.2040 -0.4689
  813MPD2    C112018   1.727   3.291  12.867 -0.1336 -0.6302 -0.1104
  813MPD2    C212019   1.605   3.283  12.940 -0.2912 -0.4876  0.5367
  813MPD2    C312020   1.597   3.231  13.072 -0.6722 -0.1355 -0.5350
  813MPD2    C412021   1.719   3.190  13.122  0.2650  0.0425 -0.9390
  813MPD2    C512022   1.836   3.196  13.052 -0.0847 -0.4655 -0.5238
  813MPD2     H12023   1.517   3.328  12.895 -0.7937  2.0078  4.0151
  813MPD2    H112024   1.733   3.155  13.223  1.4185  3.7064  0.2045
  813MPD2    H212025   1.938   3.278  12.879  2.0027 -1.8866  0.9830
  813MPD2    H312026   1.927   3.162  13.100  0.5148  0.2312 -1.1651
  813MPD2     N12027   1.481   3.232  13.149 -0.3204  0.5736 -0.3496
  813MPD2    H512028   1.393   3.248  13.100  0.4757 -2.3763 -2.7349
  813MPD2    N112029   1.746   3.367  12.755 -0.4568 -0.1219  0.0301
  813MPD2    H712030   1.843   3.395  12.746 -0.6449  0.7834  0.8099
  814MPD2     C12031   1.479   4.600  12.421  0.2078 -0.1572  0.2301
  814MPD2    C112032   1.613   4.604  12.409  0.3694 -0.1106 -0.0520
  814MPD2    C212033   1.681   4.721  12.438 -0.4132  0.1814 -0.2426
  814MPD2    C312034   1.621   0.094  12.495 -0.1541 -0.3495  0.5157
  814MPD2    C412035   1.484   0.092  12.500  0.0099 -0.4939  0.0956
  814MPD2    C512036   1.419   4.713  12.472  0.5952  0.6473 -0.7274
  814MPD2     H12037   1.788   4.714  12.427 -0.4186  0.0918 -0.2448
  814MPD2    H112038   1.436   0.183  12.537  0.4165 -0.7666  1.3121
  814MPD2    H212039   1.415   4.522  12.383  1.0663 -0.5955 -0.3186
  814MPD2    H312040   1.312   4.710  12.489  0.8477 -2.5854  0.3213
  814MPD2     N12041   1.686   0.216  12.535  0.0162 -0.1747  0.1029
  814MPD2    H512042   1.634   0.291  12.579 -2.9057 -2.0574 -0.1808
  814MPD2    N112043   1.686   4.498  12.351 -0.1193  0.2808 -0.1681
  814MPD2    H712044   1.781   4.523  12.324 -0.5088  1.3584 -0.5330
  815MPD2     C12045   2.277   3.114  11.747  0.6440 -0.1653  0.3053
  815MPD2    C112046   2.202   3.007  11.707  0.1220  0.3941 -0.6805
  815MPD2    C212047   2.078   2.989  11.767  0.0877  0.5408 -0.2087
  815MPD2    C312048   2.025   3.088  11.856  0.1138 -0.8562  0.1903
  815MPD2    C412049   2.088   3.208  11.874  0.4249 -0.5641 -0.2896
  815MPD2    C512050   2.217   3.211  11.829 -0.0885  0.7105 -0.1925
  815MPD2     H12051   2.007   2.920  11.723 -0.6651 -1.2021  3.7486
  815MPD2    H112052   2.047   3.294  11.924  1.4555  0.6074 -1.4440
  815MPD2    H212053   2.379   3.134  11.716  0.0933  1.8104 -0.2507
  815MPD2    H312054   2.275   3.297  11.860 -0.7244 -0.0600  3.0839
  815MPD2     N12055   1.895   3.064  11.902  1.6287 -0.0819 -0.0374
  815MPD2    H512056   1.852   2.980  11.866  2.0512 -0.9226  1.4317
  815MPD2    N112057   2.258   2.923  11.604  0.6716  0.1167 -0.3650
  815MPD2    H712058   2.340   2.960  11.558  0.6412 -1.3014 -1.5570
  816MPD2     C12059   2.391   2.158  16.865  0.6579  0.0012  0.8152
  816MPD2    C112060   2.480   2.261  16.870  0.3655 -0.3403  0.1699
  816MPD2    C212061   2.610   2.241  16.826 -0.4735 -0.5047  0.7073
  816MPD2    C312062   2.658   2.111  16.821 -0.2861 -0.5418  0.0517
  816MPD2    C412063   2.568   2.002  16.832 -0.5179 -0.2265 -0.3290
  816MPD2    C512064   2.434   2.032  16.848 -0.0356 -0.5395  0.1449
  816MPD2     H12065   2.682   2.322  16.817  0.1708 -0.8404  2.9369
  816MPD2    H112066   2.593   1.896  16.830 -0.3560 -0.1669 -1.6625
  816MPD2    H212067   2.286   2.169  16.891 -0.0301 -0.1541 -1.8916
  816MPD2    H312068   2.356   1.957  16.846  0.7084 -1.2769 -2.3826
  816MPD2     N12069   2.797   2.107  16.794 -0.2666  0.7031  0.2228
  816MPD2    H512070   2.847   2.194  16.776  0.2031 -0.2058 -2.9364
  816MPD2    N112071   2.436   2.387  16.918 -0.4796 -0.8079  0.2689
  816MPD2    H712072   2.339   2.413  16.932 -0.3671  0.0677 -0.5292
  817MPD2     C12073   1.114   3.483   9.955  0.5466  0.2929 -0.1846
  817MPD2    C112074   1.221   3.469   9.876 -0.1119 -0.9223 -0.1245
  817MPD2    C212075   1.271   3.580   9.804  0.3026  0.0978 -0.6271
  817MPD2    C312076   1.215   3.704   9.829  0.0863 -0.1107  0.8564
  817MPD2    C412077   1.111   3.714   9.917  0.1487  0.2477  0.1014
  817MPD2    C512078   1.060   3.608   9.981  0.8318  0.1657  0.4881
  817MPD2     H12079   1.363   3.568   9.748  0.3345 -2.6891  0.0140
  817MPD2    H112080   1.071   3.811   9.943 -1.9299 -0.3902 -0.7460
  817MPD2    H212081   1.072   3.402  10.014  0.1870 -0.3027 -1.2595
  817MPD2    H312082   0.977   3.611  10.051  0.1963  1.0347 -0.3102
  817MPD2     N12083   1.281   3.821   9.785 -0.5304  0.1919 -0.2519
  817MPD2    H512084   1.376   3.807   9.751  0.4475 -0.1493  2.6002
  817MPD2    N112085   1.294   3.348   9.870 -0.2470  0.2959 -0.1083
  817MPD2    H712086   1.389   3.355   9.835 -1.3169  0.1590 -3.0423
  818MPD2     C12087   0.492   4.333   9.929  0.3170  0.0960 -0.1412
  818MPD2    C112088   0.387   4.295  10.007  0.2147 -0.0228  0.2419
  818MPD2    C212089   0.286   4.218   9.960 -0.5737  0.0793  0.0031
  818MPD2    C312090   0.273   4.178   9.831  0.4340 -0.2048  0.2283
  818MPD2    C412091   0.384   4.203   9.753  0.6197  0.5769  0.3141
  818MPD2    C512092   0.483   4.295   9.801 -0.1055 -0.7811 -0.5370
  818MPD2     H12093   0.221   4.184  10.039 -1.4017  0.6860 -0.4229
  818MPD2    H112094   0.398   4.173   9.650  1.0059 -0.9708  0.8257
  818MPD2    H212095   0.572   4.398   9.964  1.1511 -0.1135 -1.6212
  818MPD2    H312096   0.559   4.328   9.730 -0.8787 -1.6433 -1.7499
  818MPD2     N12097   0.174   4.081   9.783 -0.0588  0.8580 -0.2232
  818MPD2    H512098   0.182   4.054   9.686  1.3664  2.4555 -0.5286
  818MPD2    N112099   0.373   4.340  10.138 -0.2793  0.4208  0.5902
  818MPD2    H712100   0.297   4.296  10.191 -0.9615  0.4792 -0.3445
  819MPD2     C12101   3.978   0.886  15.270  0.3864 -0.3437 -0.0052
  819MPD2    C112102   3.917   0.780  15.333  0.1933  0.5756  0.4049
  819MPD2    C212103   3.979   0.725  15.447 -0.4397  0.4384 -1.0834
  819MPD2    C312104   4.092   0.778  15.506  0.3616 -0.4280  0.0646
  819MPD2    C412105   4.153   0.878  15.433 -0.2549 -0.0666  0.5355
  819MPD2    C512106   4.096   0.936  15.325 -0.2318 -0.4248 -0.2523
  819MPD2     H12107   3.936   0.637  15.494  2.9698 -1.4158 -1.4929
  819MPD2    H112108   4.246   0.921  15.466  0.5043 -0.5772 -0.9265
  819MPD2    H212109   3.924   0.946  15.198 -0.3693 -1.1609 -0.1310
  819MPD2    H312110   4.142   1.022  15.278 -0.6823 -0.8945 -1.5690
  819MPD2     N12111   4.152   0.706  15.616  0.0520 -0.1238 -0.0070
  819MPD2    H512112   4.101   0.623  15.643  0.1933  0.4288  1.9283
  819MPD2    N112113   3.796   0.728  15.271 -0.1760  0.1357  0.4969
  819MPD2    H712114   3.762   0.769  15.185 -0.9397 -1.5848 -0.0239
  820MPD2     C12115   2.968   0.709  14.687  0.5073 -0.0274 -0.3484
  820MPD2    C112116   3.074   0.801  14.699  0.5479 -0.0982 -0.0954
  820MPD2    C212117   3.185   0.762  14.774  0.1395  0.3948 -0.0470
  820MPD2    C312118   3.191   0.639  14.835  0.0317  0.3154  0.4648
  820MPD2    C412119   3.075   0.560  14.824 -0.1818  0.8636 -0.8663
  820MPD2    C512120   2.965   0.595  14.755  0.5613  0.1678 -0.0747
  820MPD2     H12121   3.266   0.833  14.788 -0.9693  1.5306  0.6205
  820MPD2    H112122   3.079   0.467  14.880  0.1534  0.5187 -1.4496
  820MPD2    H212123   2.888   0.740  14.621  1.7765  1.0319 -1.3985
  820MPD2    H312124   2.883   0.524  14.743 -0.4987  1.1313  1.5349
  820MPD2     N12125   3.290   0.588  14.919 -0.0959  0.2695  0.2247
  820MPD2    H512126   3.271   0.499  14.965 -1.9397  0.9833  0.8323
  820MPD2    N112127   3.048   0.921  14.626  0.1975  0.2701 -0.5047
  820MPD2    H712128   2.961   0.929  14.573 -1.4595  1.7667  2.4135
  821MPD2     C12129   3.554   2.120  13.094  0.5509 -0.2394  0.0396
  821MPD2    C112130   3.618   2.005  13.121 -0.3769 -0.1508  0.1824
  821MPD2    C212131   3.753   1.992  13.104  0.1866 -0.3710 -0.6556
  821MPD2    C312132   3.824   2.093  13.033 -0.4733  0.1740 -0.0847
  821MPD2    C412133   3.759   2.211  13.007 -0.2191 -0.2227  0.2030
  821MPD2    C512134   3.629   2.221  13.042 -0.0964 -0.4786  0.2879
  821MPD2     H12135   3.805   1.905  13.144  1.4242  0.1982 -1.0337
  821MPD2    H112136   3.815   2.292  12.962 -0.0357 -0.1200  0.6108
  821MPD2    H212137   3.451   2.143  13.116  0.7343 -0.5603  1.2209
  821MPD2    H312138   3.574   2.310  13.015 -0.0793 -0.2314  1.0713
  821MPD2     N12139   3.961   2.080  12.998 -0.2668 -0.0538  0.6437
  821MPD2    H512140   4.000   2.152  12.938  0.5470 -1.3177 -0.3635
  821MPD2    N112141   3.556   1.895  13.182  0.4505 -0.2920 -0.1501
  821MPD2    H712142   3.612   1.819  13.218  2.3893  0.8758 -0.7365
  822MPD2     C12143   4.606   1.962  15.886 -0.2057 -1.0052  0.8250
  822MPD2    C112144   4.702   2.046  15.931  0.2434 -0.7027 -0.0860
  822MPD2    C212145   4.670   2.171  15.971  0.2214 -0.2776 -0.1270
  822MPD2    C312146   4.530   2.212  15.962  0.1647 -0.6190 -0.0870
  822MPD2    C412147   4.441   2.129  15.907  0.0003  0.3871 -0.0235
  822MPD2    C512148   4.473   2.000  15.870  0.2832  0.2113 -0.2350
  822MPD2     H12149   0.008   2.233  16.017 -0.8065  0.1906  0.9666
  822MPD2    H112150   4.336   2.156  15.905 -0.0096  0.4089  0.6737
  822MPD2    H212151   4.622   1.863  15.846 -0.3336 -0.0764 -1.5392
  822MPD2    H312152   4.401   1.926  15.840  0.2106  0.7849 -1.4811
  822MPD2     N12153   4.507   2.342  16.014  0.4508  0.3138  0.1082
  822MPD2    H512154   4.579   2.390  16.066  1.2882 -0.1400 -0.6444
  822MPD2    N112155   0.095   2.008  15.957 -0.4971  0.7824 -0.6466
  822MPD2    H712156   0.155   2.077  16.001 -0.9768  0.4036  0.6103
  823MPD2     C12157   4.252   2.609  16.814  0.2080 -0.4596  0.0749
  823MPD2    C112158   4.317   2.538  16.711  0.1253  0.1427 -0.2480
  823MPD2    C212159   4.384   2.425  16.744 -0.5037 -0.4794  0.5543
  823MPD2    C312160   4.405   2.390  16.879 -0.5270 -0.4412 -0.2378
  823MPD2    C412161   4.334   2.456  16.973  0.7071 -0.6185  0.2296
  823MPD2    C512162   4.248   2.559  16.943 -0.6801 -0.3951 -0.0002
  823MPD2     H12163   4.437   2.372  16.666 -2.1908  0.6995 -1.4044
  823MPD2    H112164   4.330   2.420  17.075  2.6807  1.9224  1.1801
  823MPD2    H212165   4.187   2.694  16.793  0.1947 -0.7342 -0.9793
  823MPD2    H312166   4.196   2.616  17.019  0.0511 -1.5755  1.3951
  823MPD2     N12167   4.488   2.280  16.920 -1.2571 -0.2727  0.5797
  823MPD2    H512168   4.482   2.243  17.015  0.0130 -0.2430  0.6735
  823MPD2    N112169   4.300   2.577  16.576  0.6083  0.5951 -0.0252
  823MPD2    H712170   4.243   2.659  16.562 -0.0970 -0.0378 -0.8035
  824MPD2     C12171   0.501   1.243  16.092  0.0558  0.2941 -0.1356
  824MPD2    C112172   0.523   1.338  15.997 -0.2696 -0.5346  0.4036
  824MPD2    C212173   0.556   1.300  15.867 -0.3107 -0.2423 -0.4210
  824MPD2    C312174   0.565   1.165  15.839 -1.0145  0.4964 -0.1825
  824MPD2    C412175   0.536   1.065  15.932  0.0700 -0.2738 -0.7086
  824MPD2    C512176   0.495   1.108  16.056 -0.1829 -0.1850 -0.5139
  824MPD2     H12177   0.576   1.365  15.782 -0.6175 -0.1896 -0.4551
  824MPD2    H112178   0.541   0.961  15.902 -2.3321 -1.2866  2.4861
  824MPD2    H212179   0.460   1.271  16.189 -0.6125  0.6857 -0.5356
  824MPD2    H312180   0.463   1.036  16.130 -0.0713 -0.7605 -1.0213
  824MPD2     N12181   0.593   1.142  15.703 -0.2943 -0.5088 -0.4192
  824MPD2    H512182   0.643   1.213  15.650  0.0866 -1.6290 -1.5494
  824MPD2    N112183   0.499   1.476  16.033  0.2662 -0.1823 -0.5782
  824MPD2    H712184   0.480   1.496  16.131  2.6264  2.2410 -0.6169
  825MPD2     C12185   1.175   1.412  15.418 -0.7446  0.4172  0.0698
  825MPD2    C112186   1.038   1.432  15.397  0.0829 -1.0012  0.6466
  825MPD2    C212187   0.993   1.557  15.371 -0.1207 -0.2930  0.3332
  825MPD2    C312188   1.077   1.665  15.365 -0.6763 -0.0630  0.3922
  825MPD2    C412189   1.215   1.649  15.384  0.4744  0.2857 -0.3882
  825MPD2    C512190   1.256   1.522  15.413  0.2325  0.0007  0.5758
  825MPD2     H12191   0.887   1.576  15.358 -0.0909 -0.7751 -0.5577
  825MPD2    H112192   1.285   1.727  15.359 -0.7151  1.9520  1.4961
  825MPD2    H212193   1.220   1.316  15.438 -0.9075 -0.3336 -3.2096
  825MPD2    H312194   1.364   1.516  15.424  0.0692  0.4481  2.3343
  825MPD2     N12195   1.035   1.797  15.337 -0.6686  0.2069  0.4154
  825MPD2    H512196   1.110   1.864  15.343 -0.2097 -0.2645 -0.1392
  825MPD2    N112197   0.952   1.316  15.392  0.2434  0.0814  0.1263
  825MPD2    H712198   0.987   1.222  15.404  0.7563  0.2056 -0.4247
  826MPD2     C12199   0.300   0.492  13.807 -0.1184  0.8119 -0.5146
  826MPD2    C112200   0.322   0.617  13.760  0.3707 -0.8229  0.4470
  826MPD2    C212201   0.226   0.715  13.791  0.4527 -0.0505 -0.0214
  826MPD2    C312202   0.115   0.690  13.871 -0.2939 -0.8036  0.4491
  826MPD2    C412203   0.092   0.560  13.915 -0.5369 -0.6094  0.3874
  826MPD2    C512204   0.184   0.461  13.876 -0.2588 -0.3861 -0.0138
  826MPD2     H12205   0.241   0.811  13.744  0.2778  0.2304  0.4994
  826MPD2    H112206   0.010   0.518  13.972 -0.0728 -0.6183  1.0568
  826MPD2    H212207   0.375   0.416  13.786 -0.9895 -0.3665  0.6718
  826MPD2    H312208   0.166   0.355  13.890 -1.7594  0.1281  1.9331
  826MPD2     N12209   0.036   0.797  13.914  0.4756  0.0808 -0.6199
  826MPD2    H512210   4.706   0.768  13.983 -0.5821 -0.6479 -1.9792
  826MPD2    N112211   0.442   0.645  13.694 -0.2440  0.5682 -0.2124
  826MPD2    H712212   0.505   0.566  13.681 -0.6675 -0.0892  1.6837
  827MPD2     C12213   0.853   2.904   9.773 -0.5114 -0.3024  0.1775
  827MPD2    C112214   0.799   2.794   9.835 -0.0934  1.0786  0.5309
  827MPD2    C212215   0.671   2.756   9.802 -0.1652  0.0159  0.5841
  827MPD2    C312216   0.594   2.831   9.714 -0.2254  0.1196  0.0367
  827MPD2    C412217   0.655   2.935   9.651  0.1146 -0.0091 -0.7247
  827MPD2    C512218   0.782   2.961   9.677  0.0192 -0.0831 -0.0667
  827MPD2     H12219   0.621   2.683   9.864 -4.0507 -1.1124 -3.8327
  827MPD2    H112220   0.599   2.994   9.580 -0.3470  0.9837  0.4474
  827MPD2    H212221   0.947   2.947   9.805  0.9442 -2.2096 -1.4644
  827MPD2    H312222   0.832   3.045   9.630 -0.8417  1.6242  2.0769
  827MPD2     N12223   0.461   2.791   9.693 -0.1806  0.0075 -0.3447
  827MPD2    H512224   0.422   2.731   9.765  0.8295 -0.4468 -0.1765
  827MPD2    N112225   0.878   2.724   9.933  0.0600  0.0312 -0.4373
  827MPD2    H712226   0.970   2.765   9.943 -0.5627  0.2146  4.6580
  828MPD2     C12227   4.634   2.480  11.754 -0.2374  0.5565  0.2542
  828MPD2    C112228   4.508   2.493  11.693  0.1002 -0.1343  0.0671
  828MPD2    C212229   4.489   2.461  11.561 -0.2895  0.4358  0.6638
  828MPD2    C312230   4.588   2.393  11.497 -0.5205 -0.4574  1.0923
  828MPD2    C412231   4.715   2.382  11.553 -0.2930  0.4177  0.3694
  828MPD2    C512232   0.002   2.424  11.682 -0.5128  0.7640  0.6154
  828MPD2     H12233   4.392   2.483  11.519 -0.1569 -0.0941  0.0750
  828MPD2    H112234   0.060   2.339  11.499 -0.2175 -1.4681  2.0182
  828MPD2    H212235   4.656   2.515  11.854  2.1316  0.7404 -0.3325
  828MPD2    H312236   0.104   2.422  11.718 -0.0565 -1.4397 -0.7886
  828MPD2     N12237   4.581   2.341  11.368  0.4362 -0.5615 -0.0528
  828MPD2    H512238   4.655   2.281  11.334  1.5946  1.7724 -1.6002
  828MPD2    N112239   4.398   2.553  11.760  0.0612 -0.1485  0.7340
  828MPD2    H712240   4.325   2.591  11.701 -1.1773 -0.8156  1.8254
  829MPD2     C12241   3.737   2.595  11.350 -0.2656  0.4017  0.5427
  829MPD2    C112242   3.669   2.614  11.471 -0.0074 -0.1529  0.6324
  829MPD2    C212243   3.746   2.642  11.582  0.1000 -0.3337 -1.0422
  829MPD2    C312244   3.890   2.632  11.576  0.3740  0.0530  0.3930
  829MPD2    C412245   3.953   2.610  11.450 -1.2520  0.2632 -0.4476
  829MPD2    C512246   3.874   2.581  11.343  0.2093 -0.5412  0.3939
  829MPD2     H12247   3.690   2.651  11.675 -0.1354  1.4065 -1.3715
  829MPD2    H112248   4.061   2.615  11.439 -1.2193  1.2796  0.2578
  829MPD2    H212249   3.697   2.593  11.250 -0.7953 -0.6294  0.7707
  829MPD2    H312250   3.921   2.565  11.246  1.4494 -2.8097  1.3521
  829MPD2     N12251   3.980   2.655  11.685 -0.1680  0.9782 -0.0474
  829MPD2    H512252   4.079   2.664  11.670 -0.0060 -3.5271 -1.7857
  829MPD2    N112253   3.531   2.603  11.475 -0.4569 -0.0597  0.0378
  829MPD2    H712254   3.487   2.590  11.385  0.5850  1.4314 -0.6860
  830MPD2     C12255   0.009   0.380  15.920 -0.0149 -0.1120  0.0129
  830MPD2    C112256   4.642   0.389  15.841  0.4515 -0.3482 -0.4774
  830MPD2    C212257   4.650   0.478  15.731 -0.1402 -0.7498  0.0258
  830MPD2    C312258   0.031   0.532  15.693 -0.0518  0.2309  0.1420
  830MPD2    C412259   0.144   0.518  15.770  0.0453  0.0038  0.5102
  830MPD2    C512260   0.129   0.444  15.887  0.1260 -0.6782  0.1727
  830MPD2     H12261   4.563   0.516  15.679  1.4877  1.8184 -0.8332
  830MPD2    H112262   0.230   0.583  15.754  0.3274 -0.7353 -0.9933
  830MPD2    H212263   0.014   0.337  16.019  0.5348 -0.4186 -0.1446
  830MPD2    H312264   0.213   0.447  15.955 -1.8247  0.1098  2.5508
  830MPD2     N12265   0.054   0.620  15.578 -0.4908  0.6367  0.1691
  830MPD2    H512266   0.151   0.649  15.573  0.1668 -1.4608  0.4314
  830MPD2    N112267   4.516   0.338  15.891 -0.3914 -0.1014 -0.4301
  830MPD2    H712268   4.503   0.304  15.986 -1.3853 -1.3105 -1.0029
  831MPD2     C12269   0.169   2.533  16.371 -0.1944  0.5919  0.0707
  831MPD2    C112270   0.158   2.431  16.279 -0.0539 -0.4069  0.1611
  831MPD2    C212271   0.045   2.350  16.288 -0.4382  0.0104 -0.1504
  831MPD2    C312272   4.685   2.362  16.386  0.2458  0.7808 -0.2106
  831MPD2    C412273   4.692   2.474  16.463  0.7807 -0.5099 -0.3947
  831MPD2    C512274   0.070   2.549  16.459 -0.7001 -0.2919  0.3095
  831MPD2     H12275   0.040   2.274  16.211 -0.9200 -0.2845  0.1754
  831MPD2    H112276   4.612   2.505  16.529  0.5155  2.8205 -2.2872
  831MPD2    H212277   0.258   2.595  16.379 -1.5632  2.6763 -0.9238
  831MPD2    H312278   0.074   2.638  16.520 -0.0439  0.3911 -0.7370
  831MPD2     N12279   4.575   2.275  16.392  0.1814 -0.0080  0.8161
  831MPD2    H512280   4.492   2.302  16.443 -0.9879 -1.9748 -0.0434
  831MPD2    N112281   0.274   2.413  16.195  0.4040  0.5631  0.0477
  831MPD2    H712282   0.344   2.486  16.199  0.6622  0.2278  1.6727
  832MPD2     C12283   3.283   3.449  16.936 -0.4401  0.6567  0.1827
  832MPD2    C112284   3.256   3.579  16.902 -0.4075 -0.1811  0.2002
  832MPD2    C212285   3.140   3.607  16.831  0.8988  0.1731  0.2943
  832MPD2    C312286   3.048   3.507  16.807 -0.2118  0.4245  0.2750
  832MPD2    C412287   3.080   3.381  16.847 -0.3416 -0.6647  0.3181
  832MPD2    C512288   3.195   3.348  16.913  0.7474 -0.5283 -0.4669
  832MPD2     H12289   3.105   3.708  16.817  1.3775  0.2911 -0.0201
  832MPD2    H112290   3.006   3.305  16.828  1.4989 -3.6192  4.7977
  832MPD2    H212291   3.376   3.428  16.989 -0.2845 -2.0661 -1.1552
  832MPD2    H312292   3.228   3.249  16.942  0.3661 -0.0475  1.6384
  832MPD2     N12293   2.921   3.526  16.750  0.3731  0.2497  0.1976
  832MPD2    H512294   2.856   3.449  16.740  0.5202 -0.0727  1.8583
  832MPD2    N112295   3.349   3.675  16.939 -0.0405 -0.5772  0.2064
  832MPD2    H712296   3.423   3.655  17.006 -0.5958 -2.4529  0.2476
  833MPD2     C12297   4.615   0.024  12.396  0.4326 -0.4000  0.0275
  833MPD2    C112298   4.700   0.123  12.438  0.4979  0.4412 -0.1178
  833MPD2    C212299   0.033   0.184  12.337  0.2214 -0.6428  0.3516
  833MPD2    C312300   0.026   0.148  12.208  0.0370 -0.0104  0.4163
  833MPD2    C412301   4.670   0.056  12.167  0.8279  0.2896  0.2434
  833MPD2    C512302   4.588   0.002  12.262  0.1974  0.3392  0.1104
  833MPD2     H12303   0.102   0.267  12.350  0.4181 -0.4511 -1.8940
  833MPD2    H112304   4.663   0.023  12.064  0.2504 -1.1364  0.7332
  833MPD2    H212305   4.556   4.704  12.466 -0.7730 -1.0744 -1.5513
  833MPD2    H312306   4.528   4.660  12.220 -0.7375  0.6297  0.9003
  833MPD2     N12307   0.121   0.208  12.119  0.5209 -0.4258  0.1205
  833MPD2    H512308   0.182   0.274  12.166  0.3401  0.6474 -1.1490
  833MPD2    N112309   4.704   0.158  12.577 -0.5161  0.7012 -0.4405
  833MPD2    H712310   4.628   0.121  12.632 -1.4627  0.2752 -2.0269
  834MPD2     C12311   4.575   0.750  11.338 -0.2717  0.3186 -0.8539
  834MPD2    C112312   4.534   0.626  11.381 -0.0179  0.7200 -0.9655
  834MPD2    C212313   4.581   0.580  11.505  0.4642 -0.0047 -0.4213
  834MPD2    C312314   4.679   0.653  11.572  0.2341 -0.5882 -0.1917
  834MPD2    C412315   4.714   0.780  11.537 -0.7635  0.1331  0.1465
  834MPD2    C512316   4.662   0.819  11.417  0.5711  0.1828  0.0714
  834MPD2     H12317   4.573   0.479  11.544  1.5831  0.2161  0.4112
  834MPD2    H112318   0.048   0.846  11.583 -0.3735 -0.6177  0.6085
  834MPD2    H212319   4.545   0.781  11.238  2.9001 -0.8428 -2.1526
  834MPD2    H312320   4.675   0.919  11.379  1.8218  0.0704  0.2083
  834MPD2     N12321   0.007   0.584  11.675  0.1075 -0.5193 -0.2996
  834MPD2    H512322   4.704   0.496  11.705  0.7833 -0.8397 -0.2935
  834MPD2    N112323   4.448   0.550  11.297 -0.0804 -0.4015 -0.4617
  834MPD2    H712324   4.436   0.570  11.199 -1.7269 -1.3329 -0.4462
  835MPD2     C12325   0.433   2.026  10.790  0.6816 -0.8793 -0.2592
  835MPD2    C112326   0.469   2.138  10.860  0.4378 -0.6938  0.1921
  835MPD2    C212327   0.542   2.125  10.975 -0.1314  0.2034  0.7614
  835MPD2    C312328   0.585   1.994  11.019  0.0477 -0.0067 -0.1794
  835MPD2    C412329   0.549   1.884  10.944  0.4127 -0.2938  0.1578
  835MPD2    C512330   0.469   1.903  10.834 -0.1565 -0.3584 -0.0358
  835MPD2     H12331   0.572   2.208  11.037  1.9770 -0.1823  0.2530
  835MPD2    H112332   0.564   1.780  10.972 -1.0136 -0.9412 -1.4313
  835MPD2    H212333   0.375   2.032  10.699 -0.5314 -1.7841  0.4537
  835MPD2    H312334   0.433   1.812  10.788  0.8531  0.5440 -2.5722
  835MPD2     N12335   0.655   1.963  11.137  0.5492  0.4647  0.0100
  835MPD2    H512336   0.677   1.869  11.167 -1.7928  0.6807  2.4413
  835MPD2    N112337   0.436   2.270  10.813  0.3810 -0.1122  0.3237
  835MPD2    H712338   0.442   2.344  10.882  0.2168 -0.5772  0.8382
  836MPD2     C12339   0.460   1.923  12.004 -0.1778  0.1857  0.4499
  836MPD2    C112340   0.469   2.025  11.911 -0.6113 -0.0977 -0.1389
  836MPD2    C212341   0.384   2.133  11.931 -0.2395 -0.5332 -0.3173
  836MPD2    C312342   0.316   2.147  12.045 -0.2491 -0.0640  0.6811
  836MPD2    C412343   0.315   2.049  12.139 -0.1665 -0.6680  0.0610
  836MPD2    C512344   0.381   1.932  12.115 -0.0345  0.2926 -0.6620
  836MPD2     H12345   0.355   2.205  11.854  0.8106 -0.8520 -1.0061
  836MPD2    H112346   0.263   2.054  12.233 -2.4320  1.3400 -1.3103
  836MPD2    H212347   0.524   1.837  11.992 -1.4933 -0.8813  1.0406
  836MPD2    H312348   0.387   1.852  12.187 -0.0696  1.6712  0.8803
  836MPD2     N12349   0.225   2.256  12.071  0.1622  0.2707  0.2695
  836MPD2    H512350   0.168   2.252  12.155 -0.6002  1.4656 -0.1919
  836MPD2    N112351   0.551   2.003  11.802  0.0111 -0.0798  0.7012
  836MPD2    H712352   0.619   1.928  11.809 -2.5926 -2.5666 -1.0171
  837MPD2     C12353   3.226   1.395   9.859 -0.0865 -0.0347 -0.0367
  837MPD2    C112354   3.158   1.439   9.753  0.1728 -0.8876 -0.5321
  837MPD2    C212355   3.142   1.578   9.735 -1.0762 -0.4887  0.4256
  837MPD2    C312356   3.197   1.667   9.825  0.8772 -0.4147  0.4118
  837MPD2    C412357   3.280   1.617   9.924  0.3757  0.1967  0.2062
  837MPD2    C512358   3.285   1.482   9.946 -0.4775  0.6388  0.5581
  837MPD2     H12359   3.082   1.609   9.650 -0.4375 -2.9265 -0.9263
  837MPD2    H112360   3.313   1.677  10.008  0.7760 -1.0676  0.9500
  837MPD2    H212361   3.238   1.287   9.864  2.9825  0.2411 -1.5164
  837MPD2    H312362   3.332   1.450  10.039 -0.5849 -1.0548  0.0343
  837MPD2     N12363   3.158   1.805   9.807 -0.4471  0.2454  0.2379
  837MPD2    H512364   3.119   1.824   9.715  2.3183 -0.9921 -1.1678
  837MPD2    N112365   3.101   1.333   9.678 -0.4468 -0.0772  0.0361
  837MPD2    H712366   3.123   1.239   9.710 -1.6649 -0.3754 -0.0030
  838MPD2     C12367   2.045   0.999  11.645  0.2094 -0.4154 -0.2898
  838MPD2    C112368   1.923   0.936  11.639 -0.0844  0.3303 -0.0487
  838MPD2    C212369   1.865   0.889  11.759  0.1945  0.4518  0.3820
  838MPD2    C312370   1.922   0.907  11.883  0.0301  0.0673  0.4529
  838MPD2    C412371   2.038   0.981  11.888  0.1293 -0.1366  0.0190
  838MPD2    C512372   2.107   1.008  11.767  0.0676 -0.1398  0.1224
  838MPD2     H12373   1.767   0.844  11.756  1.1671 -1.6241  0.0818
  838MPD2    H112374   2.099   0.992  11.977 -1.3032 -0.9035  1.0769
  838MPD2    H212375   2.101   1.022  11.555  0.4720  2.4446  0.6049
  838MPD2    H312376   2.209   1.043  11.770  0.3137 -0.8695  0.3198
  838MPD2     N12377   1.861   0.847  12.001  0.4207  0.1093  0.0437
  838MPD2    H512378   1.785   0.783  11.980  0.4652  0.2502 -0.5377
  838MPD2    N112379   1.854   0.903  11.516 -0.2686 -0.1656 -0.4349
  838MPD2    H712380   1.770   0.846  11.521 -2.5504  3.0174 -2.1851
  839MPD2     C12381   1.456   0.237  11.628 -0.0261 -1.0454  0.0409
  839MPD2    C112382   1.526   0.191  11.519 -0.4150  0.0473  0.3651
  839MPD2    C212383   1.592   0.283  11.441  0.0716 -1.0682 -0.8157
  839MPD2    C312384   1.572   0.416  11.453  0.1651 -0.2020 -0.6501
  839MPD2    C412385   1.500   0.464  11.558  0.6828  0.3066  0.5838
  839MPD2    C512386   1.443   0.371  11.644 -0.0599 -0.6254  0.0103
  839MPD2     H12387   1.648   0.248  11.355  1.5983 -0.6689  0.0147
  839MPD2    H112388   1.492   0.568  11.588 -1.5436  0.4539 -0.5561
  839MPD2    H212389   1.402   0.168  11.692 -1.2036  0.6905  0.9117
  839MPD2    H312390   1.379   0.403  11.725  0.7105  0.5369  0.1600
  839MPD2     N12391   1.624   0.520  11.369 -0.3382  0.0394 -0.8767
  839MPD2    H512392   1.598   0.610  11.407  0.3243 -0.4517  0.7475
  839MPD2    N112393   1.574   0.056  11.510  0.2247 -0.3475  0.1190
  839MPD2    H712394   1.656   0.038  11.452 -1.2739 -0.4628 -1.9905
  840MPD2     C12395   1.215   3.112  10.229  0.0116 -0.1802 -0.0517
  840MPD2    C112396   1.258   2.998  10.297  0.8874  0.7275 -0.0698
  840MPD2    C212397   1.361   3.011  10.388  0.1123  0.4131  0.2753
  840MPD2    C312398   1.429   3.130  10.400  0.0568  0.4709 -0.1373
  840MPD2    C412399   1.384   3.240  10.336  0.7023 -0.3223  0.6818
  840MPD2    C512400   1.280   3.230  10.246  0.1048 -0.1814 -0.4348
  840MPD2     H12401   1.402   2.925  10.439 -1.6486 -0.8170 -0.3816
  840MPD2    H112402   1.443   3.330  10.350 -1.5231  0.9247  1.9984
  840MPD2    H212403   1.144   3.114  10.147 -1.8194 -0.9008  1.5232
  840MPD2    H312404   1.252   3.318  10.190  2.3161  1.9793  1.8589
  840MPD2     N12405   1.549   3.135  10.481  0.2213  0.1502 -0.3596
  840MPD2    H512406   1.597   3.224  10.485 -0.7555  0.6874 -0.5739
  840MPD2    N112407   1.177   2.888  10.267  0.1302  0.2334  0.3344
  840MPD2    H712408   1.103   2.911  10.202  1.1038  1.4949 -0.3250
  841MPD2     C12409   1.085   2.109  14.974  0.4447 -0.3383 -0.1636
  841MPD2    C112410   1.117   2.041  14.856 -0.1139 -0.5947  0.1693
  841MPD2    C212411   1.247   2.047  14.808 -0.7926 -0.4485 -0.5191
  841MPD2    C312412   1.337   2.117  14.879 -0.5181 -0.7302  0.6282
  841MPD2    C412413   1.298   2.206  14.976 -1.0099  0.1144  0.8026
  841MPD2    C512414   1.170   2.202  15.025 -0.0841  0.0862  0.6012
  841MPD2     H12415   1.269   1.983  14.722  0.6211 -0.4350 -0.1676
  841MPD2    H112416   1.364   2.275  15.028  0.0982 -0.9760  0.8340
  841MPD2    H212417   0.992   2.095  15.028  0.4826  0.4543  0.0953
  841MPD2    H312418   1.140   2.269  15.104  1.6188  2.0113 -0.3716
  841MPD2     N12419   1.469   2.114  14.825 -0.0016 -0.1672  0.4769
  841MPD2    H512420   1.489   2.042  14.755  2.3892  0.6551  0.3036
  841MPD2    N112421   1.030   1.961  14.786  0.2766 -0.8702  1.2064
  841MPD2    H712422   1.061   1.903  14.709  0.1164 -0.6414  0.9702
  842MPD2     C12423   2.502   3.873  16.642 -0.9810 -0.4896 -0.0452
  842MPD2    C112424   2.403   3.777  16.647  0.0049  1.2536  0.1452
  842MPD2    C212425   2.379   3.704  16.760 -0.7346  0.2420 -0.2473
  842MPD2    C312426   2.441   3.737  16.876  0.0122  0.3243 -0.0376
  842MPD2    C412427   2.551   3.823  16.873  0.5691  0.7685 -0.5593
  842MPD2    C512428   2.585   3.887  16.755  0.4025  0.2121 -0.5088
  842MPD2     H12429   2.295   3.636  16.767  1.7570 -2.5715  1.8614
  842MPD2    H112430   2.607   3.843  16.963 -0.3056  2.0618 -0.3100
  842MPD2    H212431   2.517   3.934  16.554 -1.0573  0.1748  0.3970
  842MPD2    H312432   2.674   3.946  16.738  1.3363 -1.2422 -0.6628
  842MPD2     N12433   2.416   3.682  17.007  0.5168  0.3905 -0.1680
  842MPD2    H512434   2.481   3.715  17.078 -0.5461  0.9280  0.5637
  842MPD2    N112435   2.330   3.759  16.525 -0.4349 -0.1554 -0.1415
  842MPD2    H712436   2.361   3.813  16.444  0.4770  1.4054  1.2663
  843MPD2     C12437   4.217   4.351  17.435 -1.1492 -0.2928  0.1537
  843MPD2    C112438   4.316   4.260  17.471  0.0637 -0.4595  0.1624
  843MPD2    C212439   4.437   4.313  17.527 -0.0019  0.3174  0.6679
  843MPD2    C312440   4.455   4.451  17.543  0.3993  0.5229 -0.7076
  843MPD2    C412441   4.354   4.533  17.493 -0.2736 -0.0042  0.9763
  843MPD2    C512442   4.245   4.481  17.440 -0.4570  0.1417  0.2175
  843MPD2     H12443   4.514   4.251  17.572  1.4366  2.7259  1.5592
  843MPD2    H112444   4.366   4.641  17.498  1.5187 -0.0973 -1.1976
  843MPD2    H212445   4.123   4.311  17.397 -0.3390  0.9692 -3.2183
  843MPD2    H312446   4.172   4.547  17.394  0.3272  0.4894 -0.5291
  843MPD2     N12447   4.570   4.515  17.602 -0.0912  0.1182  0.0571
  843MPD2    H512448   4.570   4.616  17.610 -0.2718  0.1247 -0.0059
  843MPD2    N112449   4.291   4.123  17.456  0.4840 -0.0445  0.3294
  843MPD2    H712450   4.193   4.095  17.451  0.3013  0.5936  0.3918
  844MPD2     C12451   2.927   3.146  16.245 -0.0833  1.0654 -0.0901
  844MPD2    C112452   3.057   3.104  16.245 -0.9141 -0.4319 -0.1799
  844MPD2    C212453   3.153   3.177  16.311 -0.5405  0.6395 -1.0414
  844MPD2    C312454   3.116   3.293  16.374 -0.0113  0.3376  0.2667
  844MPD2    C412455   2.983   3.332  16.387 -0.8728  0.2450  0.5069
  844MPD2    C512456   2.890   3.258  16.322 -0.7666 -0.9417 -0.4044
  844MPD2     H12457   3.258   3.153  16.308 -1.2312 -2.5095  0.3663
  844MPD2    H112458   2.953   3.419  16.444  0.8045 -0.2918  2.1635
  844MPD2    H212459   2.846   3.099  16.191 -1.1204 -0.4288  2.7246
  844MPD2    H312460   2.790   3.298  16.333 -0.7435 -1.2969  1.0985
  844MPD2     N12461   3.223   3.374  16.424  0.2782 -0.4038  0.0846
  844MPD2    H512462   3.316   3.340  16.405 -0.6952 -2.1024 -1.6951
  844MPD2    N112463   3.102   2.996  16.166 -0.0439 -0.1457 -0.5633
  844MPD2    H712464   3.200   2.973  16.167  0.4122  1.8153 -0.1751
  845MPD2     C12465   3.391   4.355  16.570  0.1440  0.4871  0.6377
  845MPD2    C112466   3.311   4.284  16.658  0.3731  0.4311 -0.0974
  845MPD2    C212467   3.327   4.144  16.664  0.5471  0.9954  0.1208
  845MPD2    C312468   3.418   4.077  16.579 -0.1989  0.6199 -0.0287
  845MPD2    C412469   3.491   4.153  16.488  0.2660 -0.5443  0.4315
  845MPD2    C512470   3.477   4.288  16.487  0.6786  0.3984 -0.7632
  845MPD2     H12471   3.277   4.083  16.738 -0.0779 -1.1309 -2.0483
  845MPD2    H112472   3.561   4.109  16.418 -2.3017 -2.2705 -1.0507
  845MPD2    H212473   3.382   4.462  16.551 -0.0097  0.4129  0.2915
  845MPD2    H312474   3.542   4.337  16.415  2.0016 -1.2610 -0.7105
  845MPD2     N12475   3.433   3.937  16.600  0.2174  0.0713  0.0951
  845MPD2    H512476   3.377   3.893  16.672  0.5788 -0.4004  0.0879
  845MPD2    N112477   3.221   4.355  16.747 -0.2739  0.0565  0.3225
  845MPD2    H712478   3.209   4.454  16.732  0.3681  0.1581  0.4776
  846MPD2     C12479   4.098   4.372  13.629 -0.0593 -0.1078 -0.6262
  846MPD2    C112480   3.976   4.438  13.635  0.2972  0.5725 -0.4779
  846MPD2    C212481   3.926   4.465  13.767 -0.5544 -0.5795 -0.4656
  846MPD2    C312482   3.998   4.433  13.879  0.1265 -0.5485 -0.2119
  846MPD2    C412483   4.115   4.371  13.867  0.4629  0.2996  0.1411
  846MPD2    C512484   4.162   4.337  13.746 -0.9991  0.1847  0.0989
  846MPD2     H12485   3.826   4.499  13.788  0.1158  0.5351  0.8804
  846MPD2    H112486   4.169   4.322  13.947  1.4316  0.6984 -0.2675
  846MPD2    H212487   4.146   4.336  13.538 -1.7449 -0.4707 -1.3745
  846MPD2    H312488   4.251   4.275  13.741  0.5762  2.5629 -1.3745
  846MPD2     N12489   3.944   4.461  14.008  0.3074  0.2535  0.6389
  846MPD2    H512490   3.859   4.516  14.019 -0.7939 -1.4391  0.6462
  846MPD2    N112491   3.921   4.488  13.519 -0.2296  0.2844 -0.7010
  846MPD2    H712492   3.844   4.554  13.528  0.4898  0.8202  1.4778
  847MPD2     C12493   4.522   0.582  14.661 -0.3571 -0.7797  0.2274
  847MPD2    C112494   4.579   0.704  14.690 -0.2480 -0.0624  0.0758
  847MPD2    C212495   4.712   0.711  14.721  0.2963 -0.1580 -0.8245
  847MPD2    C312496   0.053   0.598  14.731 -0.3024 -0.6554 -0.1133
  847MPD2    C412497   4.737   0.482  14.702 -0.1479 -0.0504 -0.2743
  847MPD2    C512498   4.597   0.465  14.661 -0.6034  0.2028  0.4513
  847MPD2     H12499   0.005   0.812  14.742 -0.5870  0.1489 -0.9600
  847MPD2    H112500   0.060   0.393  14.705  0.1414  0.1246 -0.9625
  847MPD2    H212501   4.418   0.573  14.631 -0.0604  1.5866 -1.5622
  847MPD2    H312502   4.554   0.368  14.639  1.7157 -1.2321  2.1570
  847MPD2     N12503   0.183   0.624  14.788 -0.1190  0.0601  0.8629
  847MPD2    H512504   0.207   0.721  14.805  1.9845 -0.2590 -0.1916
  847MPD2    N112505   4.515   0.829  14.683  0.4145  0.0621  0.7680
  847MPD2    H712506   4.582   0.904  14.699 -0.5262  0.6014  2.1300
  848MPD2     C12507   2.606   3.619  16.018 -0.4024  0.3680 -0.1907
  848MPD2    C112508   2.684   3.693  16.103  1.4641 -0.5718 -0.9455
  848MPD2    C212509   2.733   3.813  16.061  0.3213 -0.1128  0.0621
  848MPD2    C312510   2.727   3.852  15.924 -0.4183 -0.3479  0.6164
  848MPD2    C412511   2.648   3.779  15.835 -0.5024 -0.1279 -0.0108
  848MPD2    C512512   2.595   3.665  15.886  0.3417  0.5882 -0.5787
  848MPD2     H12513   2.776   3.863  16.146 -1.3841 -0.3578  1.0771
  848MPD2    H112514   2.642   3.802  15.730  3.4170 -0.8319 -0.3823
  848MPD2    H212515   2.555   3.526  16.043  0.2326  0.3894  1.1885
  848MPD2    H312516   2.542   3.600  15.818 -0.8642  0.3346  0.5999
  848MPD2     N12517   2.780   3.977  15.871  1.1117  0.4193  0.6186
  848MPD2    H512518   2.752   3.985  15.774  0.8321  0.1666  0.6762
  848MPD2    N112519   2.698   3.657  16.240 -0.2406  0.0548 -0.8394
  848MPD2    H712520   2.766   3.711  16.292  0.7985 -0.5909 -1.5473
  849MPD2     C12521   1.676   3.157  14.222 -0.2780  0.4023  0.6935
  849MPD2    C112522   1.723   3.124  14.100  0.4330  0.0968  0.0155
  849MPD2    C212523   1.781   3.000  14.075 -0.7604 -0.6387  0.0065
  849MPD2    C312524   1.802   2.917  14.185  0.1457 -0.6261 -0.0731
  849MPD2    C412525   1.754   2.953  14.307 -0.7862  0.2697  1.2652
  849MPD2    C512526   1.698   3.078  14.322 -0.6641 -0.1629 -0.0268
  849MPD2     H12527   1.811   2.986  13.972  1.7613  2.9549  0.2494
  849MPD2    H112528   1.765   2.890  14.394 -2.8576 -2.5539 -0.5395
  849MPD2    H212529   1.643   3.258  14.242 -0.6842  0.5648 -0.8136
  849MPD2    H312530   1.672   3.111  14.422 -0.2894 -0.1180  0.0530
  849MPD2     N12531   1.868   2.792  14.177  0.3822  0.5092 -0.5921
  849MPD2    H512532   1.887   2.735  14.259  0.4426  0.7120 -0.4666
  849MPD2    N112533   1.719   3.213  13.988 -0.5588 -0.8372  0.4904
  849MPD2    H712534   1.763   3.175  13.905  0.7764 -1.0058  1.2832
  850MPD2     C12535   4.610   1.860  14.711 -0.2698  0.0229 -0.3941
  850MPD2    C112536   4.586   1.868  14.848 -0.1340  0.4753  0.6357
  850MPD2    C212537   4.689   1.840  14.934  0.2336 -0.0498 -0.2695
  850MPD2    C312538   0.076   1.812  14.884 -0.9893 -0.3306  0.7588
  850MPD2    C412539   0.099   1.793  14.747 -0.0822 -0.3043  0.4633
  850MPD2    C512540   4.732   1.826  14.661  0.2010  0.8420 -0.1042
  850MPD2     H12541   4.682   1.861  15.041  0.0788  1.3913 -0.5611
  850MPD2    H112542   0.196   1.766  14.706 -1.6569 -0.6819 -3.0370
  850MPD2    H212543   4.534   1.886  14.638 -1.6160  0.3929  1.1404
  850MPD2    H312544   0.003   1.808  14.555 -0.3555 -1.1085  0.1878
  850MPD2     N12545   0.178   1.772  14.966  0.2938 -0.2955  0.4498
  850MPD2    H512546   0.261   1.744  14.916  0.1005  2.0861 -1.1774
  850MPD2    N112547   4.455   1.901  14.882  0.4735  1.0162  0.2049
  850MPD2    H712548   4.403   1.924  14.798  0.8816 -2.7510 -1.0960
  851MPD2     C12549   0.166   1.519  15.508 -0.4426  0.2541  0.1930
  851MPD2    C112550   0.058   1.493  15.425 -0.2514 -0.3184  0.4567
  851MPD2    C212551   0.046   1.362  15.379 -0.4035  0.0353 -1.5824
  851MPD2    C312552   0.149   1.267  15.405 -0.9173  0.6904  0.3321
  851MPD2    C412553   0.260   1.299  15.486  0.4276 -0.3786 -0.2103
  851MPD2    C512554   0.269   1.428  15.539 -0.1573  0.2462 -0.7153
  851MPD2     H12555   4.697   1.328  15.324  0.3162 -0.9817 -2.0837
  851MPD2    H112556   0.336   1.225  15.507  1.4733  1.7687  3.6136
  851MPD2    H212557   0.188   1.619  15.542 -3.7218  1.4847 -1.2930
  851MPD2    H312558   0.360   1.453  15.593 -1.0765 -0.0728  0.9799
  851MPD2     N12559   0.115   1.139  15.358  0.0181  0.3703 -0.1602
  851MPD2    H512560   0.032   1.132  15.301 -0.2879 -0.4017  0.3820
  851MPD2    N112561   4.707   1.596  15.399  0.2779 -0.4491  0.1647
  851MPD2    H712562   4.725   1.682  15.450  0.6149 -0.1794 -0.4007
  852MPD2     C12563   3.885   4.104   9.789 -0.2955  0.4741 -1.1203
  852MPD2    C112564   3.903   4.185   9.896  0.5353  0.1216  0.3278
  852MPD2    C212565   3.998   4.290   9.895 -0.1564 -0.0656  0.3049
  852MPD2    C312566   4.072   4.314   9.782 -0.4863  0.1251 -0.3756
  852MPD2    C412567   4.059   4.227   9.678 -0.9706  0.1137 -0.7004
  852MPD2    C512568   3.970   4.123   9.685  0.4593  0.3534  0.9879
  852MPD2     H12569   4.015   4.342   9.988  1.0595  1.3548 -0.7232
  852MPD2    H112570   4.107   4.242   9.582 -1.1139  0.9565 -0.6442
  852MPD2    H212571   3.805   4.030   9.780 -0.7711  0.8185  0.2431
  852MPD2    H312572   3.968   4.059   9.598  3.8003 -1.9859  2.6231
  852MPD2     N12573   4.149   4.432   9.787  0.1262 -0.3423 -0.3968
  852MPD2    H512574   4.171   4.475   9.876  0.2943 -1.3796  0.0614
  852MPD2    N112575   3.832   4.181  10.015 -0.2361  0.1981  0.2061
  852MPD2    H712576   3.848   4.252  10.087  0.1181  2.1714 -1.8204
  853MPD2     C12577   1.349   3.435  12.347  0.6380 -0.8989  0.3587
  853MPD2    C112578   1.281   3.538  12.296  0.7580 -0.7273  0.4193
  853MPD2    C212579   1.305   3.586  12.171  0.4201  0.1204 -0.5087
  853MPD2    C312580   1.409   3.530  12.098  0.0126  0.4104 -0.4503
  853MPD2    C412581   1.471   3.411  12.150  0.7033  0.2240  0.0388
  853MPD2    C512582   1.443   3.367  12.274  0.7076 -0.0855  0.3579
  853MPD2     H12583   1.265   3.682  12.140  1.2025  1.8003  3.8160
  853MPD2    H112584   1.538   3.352  12.090 -1.1991 -0.9210 -0.9773
  853MPD2    H212585   1.325   3.383  12.439  0.6185 -2.2193 -0.3922
  853MPD2    H312586   1.489   3.281  12.320  0.8899  0.0606  0.4483
  853MPD2     N12587   1.462   3.582  11.976  0.1079  0.3470 -0.1685
  853MPD2    H512588   1.534   3.522  11.937  0.3850  0.8520 -0.4287
  853MPD2    N112589   1.180   3.594  12.379 -1.3513 -0.2969  0.0815
  853MPD2    H712590   1.171   3.566  12.477  0.1179  0.6257  0.4832
  854MPD2     C12591   2.661   3.576  12.684 -0.0384 -0.6716  0.4194
  854MPD2    C112592   2.697   3.706  12.705  0.0914  0.1074  0.4879
  854MPD2    C212593   2.815   3.731  12.768  0.3718 -0.3905  0.2417
  854MPD2    C312594   2.901   3.635  12.806  0.2604 -0.3418  0.5662
  854MPD2    C412595   2.865   3.502  12.787  0.4470 -0.5882  0.5216
  854MPD2    C512596   2.742   3.470  12.724 -0.4991  0.6512 -0.7056
  854MPD2     H12597   2.839   3.832  12.798 -0.4109  0.8521 -3.2955
  854MPD2    H112598   2.934   3.420  12.808  1.1201  0.4788  2.3708
  854MPD2    H212599   2.558   3.554  12.657  0.1918  1.0685 -1.9539
  854MPD2    H312600   2.718   3.374  12.680  0.2601 -0.0281  0.3493
  854MPD2     N12601   3.036   3.653  12.859  0.0369  0.0051 -0.1556
  854MPD2    H512602   3.089   3.569  12.879 -0.4210 -0.4145 -0.7182
  854MPD2    N112603   2.614   3.814  12.665  0.2924 -0.1457 -0.0882
  854MPD2    H712604   2.555   3.793  12.585  1.4790  1.9177 -1.5235
  855MPD2     C12605   3.433   3.815  13.672  0.2582 -0.1626  0.2593
  855MPD2    C112606   3.446   3.702  13.591 -0.2010  0.2711 -0.0306
  855MPD2    C212607   3.465   3.709  13.457  0.5599  0.5095 -0.2436
  855MPD2    C312608   3.445   3.836  13.402 -0.5932  0.6831 -0.5011
  855MPD2    C412609   3.437   3.952  13.480 -0.6774 -0.1610 -0.0455
  855MPD2    C512610   3.431   3.940  13.615 -0.0632 -0.1220  0.7499
  855MPD2     H12611   3.476   3.619  13.399  0.9262  0.8905 -0.7679
  855MPD2    H112612   3.413   4.048  13.435  0.0451  0.2362  0.4234
  855MPD2    H212613   3.412   3.799  13.777  0.6032  0.7100  0.4621
  855MPD2    H312614   3.407   4.028  13.673 -2.2842 -0.0446 -0.2803
  855MPD2     N12615   3.431   3.856  13.268  0.3827 -0.4612  0.8173
  855MPD2    H512616   3.410   3.949  13.234 -0.1149 -1.4086 -1.5110
  855MPD2    N112617   3.462   3.573  13.660  0.0133 -0.3600  0.9046
  855MPD2    H712618   3.448   3.565  13.761  2.7307 -2.0570  1.1504
  856MPD2     C12619   0.845   4.083  13.933  0.1979 -0.3732 -0.5581
  856MPD2    C112620   0.872   4.190  13.848 -0.3055  0.2242 -0.3690
  856MPD2    C212621   0.766   4.270  13.801 -0.0314  0.0379  0.0262
  856MPD2    C312622   0.639   4.225  13.824 -0.2191  0.2450  0.2506
  856MPD2    C412623   0.614   4.109  13.896  0.5015  0.2786  0.3092
  856MPD2    C512624   0.716   4.037  13.945  0.5734 -0.8113 -0.0293
  856MPD2     H12625   0.787   4.355  13.736  0.7180 -0.0157  0.1985
  856MPD2    H112626   0.510   4.079  13.901  1.7168 -4.3048 -2.5438
  856MPD2    H212627   0.925   4.022  13.973  0.5863  1.2858  1.2031
  856MPD2    H312628   0.694   3.944  13.995  0.8421  0.1083  1.8106
  856MPD2     N12629   0.522   4.284  13.769 -0.2844  0.5720  0.5444
  856MPD2    H512630   0.433   4.250  13.804 -0.2134  1.1980  1.3266
  856MPD2    N112631   1.004   4.232  13.815 -0.2059  0.1057  0.1039
  856MPD2    H712632   1.004   4.322  13.768 -1.4070 -0.1471 -0.4069
  857MPD2     C12633   1.981   1.936  13.138  0.7700  0.2237 -0.1165
  857MPD2    C112634   1.977   2.018  13.027 -1.0365 -0.2034  0.4366
  857MPD2    C212635   2.053   2.134  13.037  0.1166 -0.1798  0.3981
  857MPD2    C312636   2.132   2.167  13.142  0.1980 -0.3957 -0.3233
  857MPD2    C412637   2.120   2.088  13.253  0.5138 -0.1650 -0.0447
  857MPD2    C512638   2.051   1.968  13.254  0.3030  0.6579  0.3006
  857MPD2     H12639   2.070   2.199  12.953 -1.7070  0.4209  0.5096
  857MPD2    H112640   2.178   2.101  13.343  0.9781 -1.1835 -0.1984
  857MPD2    H212641   1.920   1.846  13.143 -2.3786  2.3583  0.3608
  857MPD2    H312642   2.049   1.904  13.341 -1.0910  1.3992  0.8105
  857MPD2     N12643   2.217   2.280  13.126 -0.5600  0.7067 -0.0478
  857MPD2    H512644   2.202   2.338  13.044 -1.2869  0.9031  0.2288
  857MPD2    N112645   1.899   1.970  12.917  0.0757  0.2204  0.2655
  857MPD2    H712646   1.868   1.874  12.929 -0.7643  0.3384 -1.0649
  858MPD2     C12647   3.332   1.684  16.268  0.1988 -0.2645 -0.4381
  858MPD2    C112648   3.321   1.553  16.312 -0.2654  0.0961 -0.4094
  858MPD2    C212649   3.316   1.525  16.447  0.4764 -0.9785  1.1951
  858MPD2    C312650   3.332   1.624  16.541  0.3031  1.2430 -0.2933
  858MPD2    C412651   3.344   1.753  16.499  0.1720  1.1165 -0.0502
  858MPD2    C512652   3.346   1.779  16.365  0.0978 -0.3343 -0.0432
  858MPD2     H12653   3.300   1.426  16.490 -2.1509 -1.3708 -0.7026
  858MPD2    H112654   3.363   1.838  16.564  0.1088 -0.8239  2.4741
  858MPD2    H212655   3.334   1.710  16.163  4.3008  0.7541 -0.1226
  858MPD2    H312656   3.371   1.882  16.342 -2.4881 -0.2734 -2.6473
  858MPD2     N12657   3.331   1.607  16.684  0.5635 -0.2443  0.5132
  858MPD2    H512658   3.360   1.690  16.734 -0.1811  0.6976 -0.6198
  858MPD2    N112659   3.315   1.450  16.218  0.0826 -0.4314  1.1656
  858MPD2    H712660   3.337   1.472  16.122  0.0104  0.9344  1.4700
  859MPD2     C12661   1.699   3.048  15.611 -0.6376  0.2068  0.5113
  859MPD2    C112662   1.782   2.993  15.517  0.4955 -0.1025  0.2632
  859MPD2    C212663   1.845   2.875  15.546 -0.2255  0.2550 -0.3200
  859MPD2    C312664   1.818   2.807  15.659 -0.5702 -0.3776  0.2640
  859MPD2    C412665   1.745   2.867  15.760  0.1638 -0.1632 -0.1098
  859MPD2    C512666   1.687   2.990  15.736 -0.0935  0.4822 -0.2104
  859MPD2     H12667   1.904   2.826  15.469 -0.8141 -1.0963  0.0905
  859MPD2    H112668   1.727   2.802  15.846 -0.7933 -2.3787 -1.9924
  859MPD2    H212669   1.653   3.146  15.598  0.3535  0.6765  0.5984
  859MPD2    H312670   1.627   3.040  15.811 -0.3192 -1.8168  1.1160
  859MPD2     N12671   1.877   2.682  15.693  0.1286  0.3661 -0.0076
  859MPD2    H512672   1.860   2.636  15.782 -0.5864  0.1652 -0.2449
  859MPD2    N112673   1.804   3.069  15.398  0.5628 -0.1616 -0.9649
  859MPD2    H712674   1.764   3.162  15.394  3.5316  1.2632  2.1945
  860MPD2     C12675   3.620   3.668  11.330  0.6918  0.1110 -0.5781
  860MPD2    C112676   3.710   3.631  11.426  0.8919  0.1227  0.4608
  860MPD2    C212677   3.659   3.531  11.517 -0.1706 -0.8911  0.4268
  860MPD2    C312678   3.523   3.497  11.526  0.4086 -0.1224 -0.6516
  860MPD2    C412679   3.440   3.540  11.433 -0.0799 -0.1059  0.2645
  860MPD2    C512680   3.487   3.623  11.333  0.8167  0.7546 -0.7986
  860MPD2     H12681   3.729   3.486  11.586  1.5219  2.7587  1.0713
  860MPD2    H112682   3.336   3.507  11.436 -0.2736  0.5130  0.2275
  860MPD2    H212683   3.649   3.727  11.244 -0.5012 -0.3757 -1.3234
  860MPD2    H312684   3.421   3.662  11.256  1.5451  1.3492 -1.1133
  860MPD2     N12685   3.465   3.413  11.634  0.8113 -0.5524  0.1473
  860MPD2    H512686   3.366   3.390  11.636  0.7285 -0.0428  1.4963
  860MPD2    N112687   3.842   3.674  11.443  0.1140  0.4560 -0.4591
  860MPD2    H712688   3.903   3.620  11.504 -0.6539 -3.1088 -2.8314
  861MPD2     C12689   2.872   1.743  10.695 -0.5458 -0.2922  0.1656
  861MPD2    C112690   2.754   1.767  10.755  0.1927  0.1799  0.1408
  861MPD2    C212691   2.653   1.821  10.679 -0.4474 -0.3425 -0.2710
  861MPD2    C312692   2.676   1.860  10.546  0.3191  0.6551 -0.2390
  861MPD2    C412693   2.788   1.822  10.480  0.2626  0.4531 -0.1234
  861MPD2    C512694   2.891   1.770  10.559 -0.1887 -0.1047 -0.1123
  861MPD2     H12695   2.556   1.847  10.722 -1.0706 -0.4666 -1.6118
  861MPD2    H112696   2.819   1.857  10.382 -0.4097 -0.0810 -0.5310
  861MPD2    H212697   2.963   1.708  10.743 -0.4396 -0.5380 -0.2160
  861MPD2    H312698   2.981   1.741  10.507  0.2686  1.3565 -0.1361
  861MPD2     N12699   2.580   1.937  10.472  0.2455  0.4789  0.3661
  861MPD2    H512700   2.601   1.948  10.374 -2.7889 -0.4516 -0.4046
  861MPD2    N112701   2.732   1.730  10.896 -0.0768  0.3080 -0.1697
  861MPD2    H712702   2.638   1.735  10.932  0.1641 -1.7495  0.7343
  862MPD2     C12703   2.223   2.277   9.942  0.0495 -0.4318  0.0138
  862MPD2    C112704   2.264   2.177  10.025 -0.0041 -0.1712 -0.1672
  862MPD2    C212705   2.208   2.055  10.024  0.2606 -0.5906  0.0041
  862MPD2    C312706   2.113   2.021   9.928 -0.6608  0.0280 -0.5344
  862MPD2    C412707   2.070   2.123   9.847 -0.1078 -0.3111  0.3904
  862MPD2    C512708   2.121   2.250   9.863  0.1529  0.4957  1.0798
  862MPD2     H12709   2.236   1.984  10.100  0.2586 -0.1171  0.4506
  862MPD2    H112710   1.994   2.095   9.775 -0.3737  0.8222  0.2270
  862MPD2    H212711   2.269   2.375   9.953 -2.0197  0.4338  0.8749
  862MPD2    H312712   2.086   2.334   9.804  0.2796 -0.1767  0.0388
  862MPD2     N12713   2.060   1.889   9.913  0.3811 -0.0422  0.1251
  862MPD2    H512714   1.981   1.886   9.850 -0.0506  0.3041  0.6499
  862MPD2    N112715   2.346   2.193  10.131  0.2970 -0.4373 -0.0795
  862MPD2    H712716   2.346   2.122  10.203  1.7784 -0.7685 -0.4167
  863MPD2     C12717   1.759   4.412  16.345  0.5467 -0.3372 -0.2421
  863MPD2    C112718   1.717   4.530  16.398 -0.1413  0.1623  0.3758
  863MPD2    C212719   1.777   4.569  16.522 -0.2140  0.2858 -0.4230
  863MPD2    C312720   1.875   4.488  16.585 -0.1012  0.1056 -0.0883
  863MPD2    C412721   1.907   4.368  16.523  0.4324  0.3353  1.4051
  863MPD2    C512722   1.851   4.331  16.404 -0.1162  0.2078  0.6923
  863MPD2     H12723   1.764   4.670  16.560 -2.6860  0.2827 -1.3162
  863MPD2    H112724   1.979   4.302  16.570 -0.3416  0.2470  2.4563
  863MPD2    H212725   1.726   4.372  16.250 -2.6000  2.3398 -0.2691
  863MPD2    H312726   1.881   4.240  16.354 -0.5936  0.2700  0.2913
  863MPD2     N12727   1.946   4.520  16.700 -0.7018 -0.4475  0.2484
  863MPD2    H512728   2.005   4.448  16.741  1.5050  2.5581  2.4236
  863MPD2    N112729   1.624   4.607  16.323  0.2465  0.4271 -0.3973
  863MPD2    H712730   1.580   4.570  16.239  1.0382 -0.7667 -0.2774
  864MPD2     C12731   1.908   1.298  17.098  0.4299  0.3359 -0.6785
  864MPD2    C112732   2.010   1.214  17.048 -0.2436  0.5128 -0.2942
  864MPD2    C212733   2.125   1.269  16.992 -0.4518 -0.0776  0.1372
  864MPD2    C312734   2.142   1.413  16.994  0.0252  1.2495 -0.2314
  864MPD2    C412735   2.036   1.489  17.042  0.4415  0.1235 -0.4635
  864MPD2    C512736   1.921   1.438  17.092  0.2298  0.1104  0.5608
  864MPD2     H12737   2.206   1.220  16.939  1.8340  1.1386  2.4796
  864MPD2    H112738   2.046   1.596  17.030 -2.3594  0.4342 -0.0091
  864MPD2    H212739   1.821   1.250  17.141  0.9550 -1.0482 -1.1585
  864MPD2    H312740   1.837   1.503  17.114  0.6730  0.8215  0.1302
  864MPD2     N12741   2.254   1.477  16.931  0.2452  0.9043  0.0798
  864MPD2    H512742   2.250   1.576  16.911  0.1063  0.6398 -1.1550
  864MPD2    N112743   1.981   1.072  17.037  0.0615  0.5307  0.4470
  864MPD2    H712744   1.912   1.038  17.103  0.0959 -2.0471 -0.8712
  865MPD2     C12745   2.658   1.522  16.074  0.2106 -0.1769 -0.4810
  865MPD2    C112746   2.542   1.474  16.134 -0.1215  0.1176  0.1071
  865MPD2    C212747   2.494   1.534  16.249 -0.6164 -0.1104  0.6718
  865MPD2    C312748   2.561   1.644  16.301 -1.2852  0.0267  0.0684
  865MPD2    C412749   2.665   1.704  16.230 -0.3901  0.5199  0.3185
  865MPD2    C512750   2.710   1.642  16.121  0.1715 -0.2235  0.4674
  865MPD2     H12751   2.410   1.491  16.302 -0.6190 -0.8069  0.1100
  865MPD2    H112752   2.720   1.786  16.275 -1.0931  0.6638  0.9085
  865MPD2    H212753   2.690   1.477  15.981 -2.0044 -0.7502 -0.9568
  865MPD2    H312754   2.805   1.672  16.077 -0.5369  3.1662  1.2230
  865MPD2     N12755   2.554   1.679  16.438  0.7435  0.3644 -0.3971
  865MPD2    H512756   2.618   1.750  16.472 -0.4017 -0.0860  2.6578
  865MPD2    N112757   2.478   1.364  16.073  0.3483  0.0390 -0.2533
  865MPD2    H712758   2.526   1.332  15.989 -1.0314 -1.7397 -0.3696
  866MPD2     C12759   3.373   1.733  11.086 -0.4310  1.2354  0.2157
  866MPD2    C112760   3.374   1.815  10.976  0.1200 -0.4459 -0.3068
  866MPD2    C212761   3.264   1.903  10.956 -0.6210  0.5024 -0.2833
  866MPD2    C312762   3.152   1.905  11.036 -0.5265  0.0100 -0.0739
  866MPD2    C412763   3.162   1.833  11.155 -0.1261  0.4545 -0.2293
  866MPD2    C512764   3.270   1.746  11.170 -0.4747 -0.8384 -0.1223
  866MPD2     H12765   3.258   1.956  10.861 -0.3827 -0.4692 -0.8427
  866MPD2    H112766   3.085   1.829  11.231 -0.8926  1.2300 -0.9540
  866MPD2    H212767   3.464   1.684  11.119  0.0785  0.5343 -2.2389
  866MPD2    H312768   3.277   1.688  11.261  0.4715  0.8693  0.8965
  866MPD2     N12769   3.036   1.987  11.010  0.6236 -0.7763  0.3493
  866MPD2    H512770   2.969   1.993  11.086 -0.3865  2.5795 -0.7922
  866MPD2    N112771   3.489   1.809  10.889  0.0845  0.4134 -0.0398
  866MPD2    H712772   3.560   1.738  10.905 -1.3459 -0.8204  0.8116
  867MPD2     C12773   0.908   1.455  16.105 -0.3402  0.3493  0.3607
  867MPD2    C112774   1.017   1.422  16.185  1.3578  0.1879 -0.1372
  867MPD2    C212775   1.045   1.495  16.304  0.0825  0.4742 -0.4050
  867MPD2    C312776   0.959   1.607  16.325  0.2639  0.7543  0.3876
  867MPD2    C412777   0.852   1.635  16.246 -0.4683  0.2951  0.1497
  867MPD2    C512778   0.826   1.561  16.140  0.1376 -0.4946  0.2192
  867MPD2     H12779   1.123   1.473  16.376  0.3676 -1.0503 -1.1713
  867MPD2    H112780   0.774   1.704  16.277 -1.2683 -0.5640  0.0379
  867MPD2    H212781   0.881   1.400  16.016 -0.5205  1.5571 -0.3273
  867MPD2    H312782   0.736   1.570  16.081  0.8256  2.7772 -0.3408
  867MPD2     N12783   0.988   1.699  16.433  0.0533 -0.5648 -0.4634
  867MPD2    H512784   0.928   1.781  16.433 -0.3115 -0.8266  0.8674
  867MPD2    N112785   1.105   1.325  16.136  0.8276 -0.6818  0.2718
  867MPD2    H712786   1.074   1.289  16.046  1.4924  1.2614 -0.7440
  868MPD2     C12787   2.553   0.730  12.920  0.2125  0.3179 -0.2397
  868MPD2    C112788   2.609   0.652  13.010 -0.1587  0.0925 -0.3805
  868MPD2    C212789   2.549   0.630  13.132  0.6980  0.7903 -0.0471
  868MPD2    C312790   2.417   0.662  13.145  0.1380  0.4219  0.6538
  868MPD2    C412791   2.363   0.746  13.049 -0.1686  0.0094 -0.9886
  868MPD2    C512792   2.429   0.781  12.940  1.0706  0.2973 -0.1907
  868MPD2     H12793   2.598   0.572  13.209 -0.7653 -1.0124 -0.4682
  868MPD2    H112794   2.273   0.803  13.070  0.2151 -0.1354  1.0163
  868MPD2    H212795   2.601   0.749  12.824 -0.2620 -0.1031 -0.5648
  868MPD2    H312796   2.381   0.848  12.870 -0.1622 -0.8640 -0.4544
  868MPD2     N12797   2.364   0.652  13.268 -0.4929  1.3779  0.4665
  868MPD2    H512798   2.423   0.619  13.344 -0.1799  0.6806 -0.0816
  868MPD2    N112799   2.734   0.600  12.967  0.1724 -0.1358 -0.0964
  868MPD2    H712800   2.747   0.604  12.866  0.2304  2.2534 -0.0044
  869MPD2     C12801   3.377   2.897   0.619 -0.3830  0.9717  0.6958
  869MPD2    C112802   3.465   2.902   0.509  0.5324 -0.2577  0.6983
  869MPD2    C212803   3.563   2.999   0.515  0.0959  0.7828  0.1314
  869MPD2    C312804   3.578   3.082   0.625  0.5109 -0.7323 -0.0922
  869MPD2    C412805   3.490   3.071   0.732 -0.7132  0.1254 -0.0383
  869MPD2    C512806   3.395   2.976   0.730 -0.4722  0.6628 -0.5718
  869MPD2     H12807   3.636   3.013   0.437 -1.4084  0.3723 -1.3453
  869MPD2    H112808   3.503   3.130   0.823  2.8925  0.7226 -0.9483
  869MPD2    H212809   3.299   2.823   0.632  1.4234 -1.0465 -0.0788
  869MPD2    H312810   3.341   2.950   0.820 -1.1872  1.5634 -0.7442
  869MPD2     N12811   3.673   3.189   0.634  0.0422  0.0825 -0.9146
  869MPD2    H512812   3.673   3.246   0.717 -0.4363 -0.4690 -0.5299
  869MPD2    N112813   3.450   2.801   0.412 -0.3069  0.4160  0.3176
  869MPD2    H712814   3.374   2.734   0.419  0.1626 -0.1564  0.0501
  870MPD2     C12815   3.116   1.198   1.354 -0.4380  0.4018 -0.2899
  870MPD2    C112816   3.250   1.241   1.357 -0.2804 -0.3659 -0.5246
  870MPD2    C212817   3.282   1.365   1.411 -0.4308  0.1255  0.9040
  870MPD2    C312818   3.181   1.451   1.450 -0.3076 -0.5371 -0.4433
  870MPD2    C412819   3.053   1.406   1.465 -0.4712  0.0311  0.2705
  870MPD2    C512820   3.030   1.274   1.418  0.3265 -0.3278  0.1076
  870MPD2     H12821   3.383   1.403   1.401 -1.1650  1.9362  0.4909
  870MPD2    H112822   2.968   1.462   1.503 -0.6368 -1.0479  1.4965
  870MPD2    H212823   3.091   1.095   1.331  0.7401 -0.1102  0.7465
  870MPD2    H312824   2.932   1.230   1.437  0.1220  0.9086  1.9369
  870MPD2     N12825   3.220   1.583   1.469 -0.3532 -0.3085  0.5856
  870MPD2    H512826   3.316   1.611   1.452 -0.2373 -1.0199  0.0995
  870MPD2    N112827   3.354   1.167   1.293 -0.0092 -0.0595  0.2806
  870MPD2    H712828   3.332   1.074   1.259  0.6327 -0.0890 -0.0526
  871MPD2     C12829   4.727   1.767  16.370  0.3257  0.1024 -0.3798
  871MPD2    C112830   4.733   1.715  16.500  0.6091 -0.5041 -0.2793
  871MPD2    C212831   0.025   1.581  16.518 -0.4069  0.4246 -0.7757
  871MPD2    C312832   0.031   1.500  16.407  0.6423  0.7759 -0.2812
  871MPD2    C412833   0.027   1.559  16.278  0.1453  0.4807  0.1454
  871MPD2    C512834   0.006   1.691  16.266 -0.2369  0.0156  0.2307
  871MPD2     H12835   0.042   1.541  16.617 -2.5150  0.2621 -0.4868
  871MPD2    H112836   0.037   1.506  16.184  0.1875  0.1511  0.3360
  871MPD2    H212837   4.688   1.866  16.355 -0.7443 -0.8917 -4.0601
  871MPD2    H312838   4.737   1.748  16.174  0.5065 -0.0130  0.1471
  871MPD2     N12839   0.045   1.358  16.430 -0.3860 -0.3243 -0.0212
  871MPD2    H512840   0.024   1.320  16.521 -2.7135 -1.6494 -1.1089
  871MPD2    N112841   4.726   1.813  16.602 -0.5870  0.4909  0.2247
  871MPD2    H712842   4.711   1.908  16.570  0.6887  1.7161  3.2872
  872MPD2     C12843   0.539   3.575  13.878  0.2350 -0.0341 -0.2231
  872MPD2    C112844   0.484   3.692  13.838 -0.4665 -1.0538  0.3735
  872MPD2    C212845   0.356   3.729  13.879  0.0249  0.1912  0.0759
  872MPD2    C312846   0.299   3.656  13.977 -0.3576  0.0709 -0.0214
  872MPD2    C412847   0.361   3.548  14.029 -0.2404  0.7375  0.3617
  872MPD2    C512848   0.485   3.512  13.986 -0.1854  0.1594 -0.5002
  872MPD2     H12849   0.320   3.819  13.831 -0.3285 -0.8769 -1.6601
  872MPD2    H112850   0.308   3.487  14.101 -0.5877 -0.7997 -1.1664
  872MPD2    H212851   0.633   3.532  13.844 -0.8296 -2.5052  0.0091
  872MPD2    H312852   0.535   3.421  14.017 -0.1588  0.2060 -0.4046
  872MPD2     N12853   0.173   3.704  14.033 -0.3642  0.3156 -0.2028
  872MPD2    H512854   0.135   3.663  14.118  0.9453 -0.8441 -0.1604
  872MPD2    N112855   0.551   3.777  13.745 -0.3534 -0.2878  0.0869
  872MPD2    H712856   0.500   3.859  13.712  1.6956  0.5108 -1.0774
  873MPD2     C12857   3.026   3.596   0.727  0.6290 -0.1245  0.1872
  873MPD2    C112858   2.892   3.629   0.715  0.2879 -0.4217  0.0842
  873MPD2    C212859   2.804   3.532   0.678 -0.2302  0.1618  0.4242
  873MPD2    C312860   2.850   3.400   0.649 -0.1705  0.2191 -0.1722
  873MPD2    C412861   2.985   3.375   0.640  0.4129  0.1244 -1.2701
  873MPD2    C512862   3.070   3.475   0.684  0.1049  0.3872  0.2703
  873MPD2     H12863   2.697   3.544   0.662 -0.4360 -0.6878  1.1608
  873MPD2    H112864   3.029   3.276   0.632  1.3466  0.6225 -2.2910
  873MPD2    H212865   3.098   3.665   0.770  0.6074  0.5443 -0.8454
  873MPD2    H312866   3.174   3.447   0.699 -0.5871 -3.2269 -1.5569
  873MPD2     N12867   2.756   3.296   0.621 -0.1763  0.4428 -0.0824
  873MPD2    H512868   2.785   3.217   0.565  0.4751  1.1543 -0.7542
  873MPD2    N112869   2.845   3.755   0.755 -0.2513  0.1059 -0.4577
  873MPD2    H712870   2.916   3.820   0.790 -2.4692  2.4957 -0.4374
  874MPD2     C12871   2.206   3.924  15.708  0.3202 -0.0581 -1.0541
  874MPD2    C112872   2.281   3.918  15.823  0.9343  0.3005 -0.6208
  874MPD2    C212873   2.390   4.006  15.835  0.7520 -0.3168  0.0167
  874MPD2    C312874   2.411   4.104  15.750 -0.0418  0.5185  0.1829
  874MPD2    C412875   2.326   4.113  15.642 -0.5800 -0.5206 -0.4280
  874MPD2    C512876   2.225   4.021  15.618  0.0295  0.5223 -0.0480
  874MPD2     H12877   2.460   3.992  15.916 -0.7272  0.6873  1.4714
  874MPD2    H112878   2.324   4.191  15.567 -1.3448  1.9226  2.1321
  874MPD2    H212879   2.122   3.857  15.696 -0.2564  0.1706  1.7424
  874MPD2    H312880   2.161   4.029  15.531 -1.4344 -3.8101  0.6357
  874MPD2     N12881   2.517   4.196  15.776 -0.1958 -0.6092  0.1478
  874MPD2    H512882   2.556   4.194  15.870 -2.7302 -1.1846  1.2058
  874MPD2    N112883   2.247   3.831  15.928  0.1486  0.0265 -0.6468
  874MPD2    H712884   2.169   3.768  15.915 -0.1133  0.3309 -0.5428
  875MPD2     C12885   2.575   2.167  14.244 -0.0126 -0.3813  0.3211
  875MPD2    C112886   2.673   2.244  14.182  0.3927 -0.1421 -0.7036
  875MPD2    C212887   2.747   2.337  14.257  0.1871  0.2150 -0.3496
  875MPD2    C312888   2.743   2.327  14.392 -0.2523 -0.3529  0.0100
  875MPD2    C412889   2.652   2.245  14.458 -0.3992  0.5230  0.8654
  875MPD2    C512890   2.572   2.163  14.381 -0.1899 -0.4406  0.2096
  875MPD2     H12891   2.819   2.405  14.212 -2.0183  2.1642 -0.9557
  875MPD2    H112892   2.658   2.234  14.565  1.6971  0.3646  0.7437
  875MPD2    H212893   2.512   2.102  14.185  0.9672 -0.1156 -1.0182
  875MPD2    H312894   2.481   2.123  14.423  1.2288 -2.3144  1.5205
  875MPD2     N12895   2.834   2.401  14.470  0.8182 -0.0397 -0.4257
  875MPD2    H512896   2.894   2.470  14.425 -0.0414  1.7806  1.1927
  875MPD2    N112897   2.677   2.245  14.045 -0.2617 -0.1949  0.6165
  875MPD2    H712898   2.609   2.186  13.999  1.7606 -0.5608 -1.9315
  876MPD2     C12899   2.156   3.206  15.642  0.0138 -0.6040  0.0390
  876MPD2    C112900   2.258   3.279  15.694 -0.4209  0.3259 -0.2498
  876MPD2    C212901   2.313   3.232  15.811  0.0013  0.4193  0.3440
  876MPD2    C312902   2.272   3.115  15.868 -0.2984  0.7725 -0.6080
  876MPD2    C412903   2.180   3.039  15.798  0.4015  0.1589 -0.2234
  876MPD2    C512904   2.118   3.090  15.693  0.1561 -0.2990 -0.0825
  876MPD2     H12905   2.407   3.274  15.844  0.6967 -1.8382  1.2539
  876MPD2    H112906   2.154   2.936  15.820  0.3077  0.3773  0.7172
  876MPD2    H212907   2.107   3.245  15.553  2.8862 -0.0177 -1.2874
  876MPD2    H312908   2.043   3.035  15.638 -0.9644  0.7935  0.3693
  876MPD2     N12909   2.337   3.077  15.989  0.0682  0.4203  0.3592
  876MPD2    H512910   2.417   3.132  16.020  1.5694 -0.7534 -1.4659
  876MPD2    N112911   2.313   3.388  15.609 -0.1482 -0.2314  0.3417
  876MPD2    H712912   2.266   3.400  15.520  0.4392  0.0330  0.0653
  877MPD2     C12913   2.109   3.746  15.059 -0.0823 -0.0130 -0.1111
  877MPD2    C112914   2.246   3.738  15.039  0.3254 -0.0063 -0.1435
  877MPD2    C212915   2.288   3.729  14.908  0.5548 -1.5078  0.6007
  877MPD2    C312916   2.193   3.722  14.801 -0.4797 -0.6266 -0.1451
  877MPD2    C412917   2.062   3.739  14.826 -0.0572 -0.3078  0.0665
  877MPD2    C512918   2.022   3.745  14.954  0.0833  1.2607  0.2592
  877MPD2     H12919   2.388   3.703  14.876  1.7003  2.0389  1.2068
  877MPD2    H112920   1.984   3.727  14.752 -0.4606  0.4942  0.3663
  877MPD2    H212921   2.069   3.733  15.159 -2.7891 -0.6609 -1.2854
  877MPD2    H312922   1.918   3.750  14.982  0.0661 -0.9804  0.5711
  877MPD2     N12923   2.228   3.685  14.669  0.2378  0.0411 -0.6628
  877MPD2    H512924   2.154   3.664  14.603  3.2071 -0.9980 -3.6850
  877MPD2    N112925   2.346   3.741  15.142  0.4705 -1.1220 -0.5368
  877MPD2    H712926   2.438   3.724  15.103  1.6123 -2.7228  2.7836
  878MPD2     C12927   1.268   3.710  13.190  0.0799 -0.3537  0.7478
  878MPD2    C112928   1.397   3.673  13.155 -0.2940 -0.8107 -0.6669
  878MPD2    C212929   1.467   3.586  13.236  0.1451  0.5166 -0.1628
  878MPD2    C312930   1.420   3.549  13.361  0.3912  0.1110  0.2329
  878MPD2    C412931   1.289   3.581  13.392 -0.0124 -0.2636 -0.2607
  878MPD2    C512932   1.220   3.667  13.314 -0.2618 -0.4876 -0.1489
  878MPD2     H12933   1.565   3.550  13.207  0.1432  0.7103 -0.4100
  878MPD2    H112934   1.233   3.541  13.476  0.7041 -2.6237 -0.9018
  878MPD2    H212935   1.212   3.774  13.122 -0.9355 -0.0338  1.8921
  878MPD2    H312936   1.120   3.702  13.336 -0.3401  0.2353 -1.6149
  878MPD2     N12937   1.508   3.477  13.445 -0.3253  0.7219 -0.0831
  878MPD2    H512938   1.601   3.447  13.415 -2.2785 -1.1708 -4.1842
  878MPD2    N112939   1.451   3.718  13.027  0.2664  0.6407 -0.1207
  878MPD2    H712940   1.385   3.750  12.956  1.3376 -1.7052 -2.1627
  879MPD2     C12941   2.217   0.224  16.625 -0.1386  0.1641  1.1188
  879MPD2    C112942   2.276   0.107  16.673 -0.0429 -0.7250 -0.6067
  879MPD2    C212943   2.265   4.733  16.587  0.3055 -0.5698  0.5173
  879MPD2    C312944   2.192   4.727  16.474 -0.0927  0.0166  0.0493
  879MPD2    C412945   2.115   0.092  16.448  0.4826  0.7119 -0.5614
  879MPD2    C512946   2.127   0.212  16.521  0.3944 -0.0844  0.7071
  879MPD2     H12947   2.314   4.640  16.613 -2.2237 -1.8509  0.7308
  879MPD2    H112948   2.044   0.091  16.366  0.8422 -0.8961 -0.8579
  879MPD2    H212949   2.226   0.318  16.678 -1.7370  0.7671  0.3209
  879MPD2    H312950   2.071   0.302  16.497  1.1872 -0.5697 -3.0274
  879MPD2     N12951   2.182   4.618  16.387 -0.0830 -0.5940  0.1116
  879MPD2    H512952   2.114   4.635  16.314  1.7317 -2.0113 -1.9177
  879MPD2    N112953   2.365   0.112  16.784 -0.0426 -0.5628 -0.3758
  879MPD2    H712954   2.379   0.201  16.830 -0.4513 -0.4035 -0.5593
  880MPD2     C12955   3.485   1.687   0.044  0.0659 -0.8967  0.0748
  880MPD2    C112956   3.467   1.681   0.177  0.0847  1.4287 -0.0996
  880MPD2    C212957   3.468   1.557   0.238  0.6061  0.1861 -0.1910
  880MPD2    C312958   3.470   1.439   0.164 -0.5064  0.0249 -0.1007
  880MPD2    C412959   3.486   1.447   0.023  0.1144 -0.0219  0.2961
  880MPD2    C512960   3.492   1.568  17.715  0.1375  0.1113  0.8498
  880MPD2     H12961   3.473   1.557   0.346  1.6016  1.5088 -0.2428
  880MPD2    H112962   3.487   1.362  17.706 -0.8855 -0.3726  0.7268
  880MPD2    H212963   3.478   1.781  17.742  0.4338 -0.2884  1.1140
  880MPD2    H312964   3.508   1.581  17.608  0.8932 -1.8911  0.7278
  880MPD2     N12965   3.479   1.317   0.236 -0.1384 -0.4791  0.6144
  880MPD2    H512966   3.458   1.333   0.334  0.3270  0.1035  0.6166
  880MPD2    N112967   3.470   1.804   0.254  0.2662 -0.0358 -0.5721
  880MPD2    H712968   3.490   1.889   0.203  1.7307  0.1404  0.2947
  881MPD2     C12969   3.922   2.641   0.180  0.1686  0.6377  0.0677
  881MPD2    C112970   3.928   2.514   0.133  0.0138  0.0868  0.3509
  881MPD2    C212971   3.867   2.414   0.196  0.7265 -0.8944  0.7856
  881MPD2    C312972   3.805   2.433   0.322 -0.1259 -0.5112 -0.2910
  881MPD2    C412973   3.820   2.554   0.381 -0.0414 -0.1281 -0.0269
  881MPD2    C512974   3.875   2.655   0.309  0.7689 -0.4346 -0.1879
  881MPD2     H12975   3.867   2.315   0.152 -0.7199  0.0559 -1.3431
  881MPD2    H112976   3.784   2.580   0.480 -0.4422 -1.4175  0.1613
  881MPD2    H212977   3.977   2.727   0.142 -1.2032  1.9255  0.9689
  881MPD2    H312978   3.870   2.751   0.359 -1.5530 -1.1210  0.8741
  881MPD2     N12979   3.736   2.327   0.395 -0.6201  0.3519  0.2266
  881MPD2    H512980   3.675   2.359   0.470  0.2603 -0.1261  1.1637
  881MPD2    N112981   3.967   2.497  17.742 -0.3141 -0.1501 -0.0131
  881MPD2    H712982   3.995   2.577  17.687  1.1519 -0.0729  0.8372
  882MPD2     C12983   2.010   3.741  13.872  0.4375  0.0209 -0.1279
  882MPD2    C112984   2.005   3.740  14.014  0.5808 -0.1218  0.7199
  882MPD2    C212985   1.880   3.720  14.070 -1.1499 -0.7833 -0.3719
  882MPD2    C312986   1.760   3.715  13.995 -0.1628  0.6101  0.0639
  882MPD2    C412987   1.770   3.712  13.861  0.0340  0.2755  0.2284
  882MPD2    C512988   1.895   3.727  13.797  0.9065  0.0710 -0.5264
  882MPD2     H12989   1.880   3.707  14.178  0.8339 -2.6370 -0.5877
  882MPD2    H112990   1.687   3.690  13.795  0.0949  3.5861 -0.9697
  882MPD2    H212991   2.101   3.758  13.816 -0.9293  1.3143 -1.9272
  882MPD2    H312992   1.904   3.714  13.690 -2.1043 -2.6916 -0.4708
  882MPD2     N12993   1.633   3.708  14.053  0.1964 -0.5070 -0.0150
  882MPD2    H512994   1.553   3.731  13.994  0.6223 -1.3562 -0.9293
  882MPD2    N112995   2.124   3.742  14.093 -0.3718  0.2621  0.7157
  882MPD2    H712996   2.212   3.733  14.042  0.8023 -0.3755  2.8539
  883MPD2     C12997   4.437   4.017  16.514  0.1215  0.0192  0.1930
  883MPD2    C112998   4.461   4.111  16.415 -0.7356  0.4774  0.0449
  883MPD2    C212999   4.570   4.199  16.435  0.2131 -0.0029  0.0115
  883MPD2    C313000   4.656   4.187  16.544  0.7502  0.6923 -0.7380
  883MPD2    C413001   4.632   4.084  16.634  0.0912  1.2112 -0.2218
  883MPD2    C513002   4.517   4.008  16.621  0.1153 -0.5933 -0.0170
  883MPD2     H13003   4.589   4.271  16.357 -2.2858  1.3433  0.6284
  883MPD2    H113004   4.686   4.070  16.726 -3.5192 -2.8551  1.3071
  883MPD2    H213005   4.353   3.948  16.509  1.2807 -1.3594 -0.3291
  883MPD2    H313006   4.501   3.930  16.694  2.9881 -1.6942 -0.5466
  883MPD2     N13007   0.028   4.280  16.558 -0.0569  0.2805  0.8063
  883MPD2    H513008   0.039   4.353  16.489 -3.0018  0.1713  0.2163
  883MPD2    N113009   4.383   4.122  16.298 -0.1920 -0.3000 -0.1477
  883MPD2    H713010   4.405   4.200  16.238 -0.5394  0.0810  0.2221
  884MPD2     C13011   1.297   4.441  14.962 -0.2740  0.1628  0.6085
  884MPD2    C113012   1.217   4.457  14.849  0.4309 -0.0221 -0.2895
  884MPD2    C213013   1.100   4.528  14.856  0.5133  0.9863 -0.3940
  884MPD2    C313014   1.069   4.601  14.973 -0.1608 -0.4961  0.1694
  884MPD2    C413015   1.166   4.612  15.074  0.2542 -0.2623 -0.2601
  884MPD2    C513016   1.278   4.533  15.069  0.1828  0.1745 -0.4056
  884MPD2     H13017   1.040   4.524  14.765 -0.3221 -0.6416  0.2414
  884MPD2    H113018   1.150   4.678  15.158 -0.4116 -0.9758  0.1846
  884MPD2    H213019   1.387   4.382  14.959 -0.0657  0.6534 -2.2909
  884MPD2    H313020   1.342   4.521  15.156 -0.4733 -1.1579 -0.1104
  884MPD2     N13021   0.946   4.670  14.983  0.8878 -0.0034  0.2569
  884MPD2    H513022   0.887   4.652  14.903 -1.6440  0.7500  1.9513
  884MPD2    N113023   1.252   4.410  14.721 -0.7714 -0.7839 -0.1432
  884MPD2    H713024   1.177   4.425  14.655 -0.9480 -0.8043  0.0526
  885MPD2     C13025   4.476   0.425   0.024  0.1560 -0.5137  0.4594
  885MPD2    C113026   4.444   0.298  17.731  0.4643 -0.2900  0.3249
  885MPD2    C213027   4.414   0.287  17.600  0.2287 -0.3326 -0.0899
  885MPD2    C313028   4.413   0.394  17.514  0.4388  0.3053 -0.2269
  885MPD2    C413029   4.452   0.511  17.560 -0.7410  0.4261 -0.4510
  885MPD2    C513030   4.496   0.526  17.690  0.1794  0.3880 -0.0851
  885MPD2     H13031   4.386   0.192  17.556 -1.3210  1.0387 -2.0756
  885MPD2    H113032   4.458   0.596  17.494 -0.7211  0.0413 -0.9396
  885MPD2    H213033   4.501   0.435   0.129  1.1621 -0.5162  0.2210
  885MPD2    H313034   4.546   0.616  17.727  0.2130 -0.6398  2.3589
  885MPD2     N13035   4.382   0.361  17.380  0.0055 -0.1689 -0.2037
  885MPD2    H513036   4.339   0.272  17.358 -2.4311  1.1025 -0.6386
  885MPD2    N113037   4.431   0.193   0.071 -0.7643 -0.3003 -0.0375
  885MPD2    H713038   4.450   0.205   0.170 -2.6394  0.6930  0.1962
  886MPD2     C13039   0.868   3.131  14.838  0.2505  0.0799  0.6596
  886MPD2    C113040   0.978   3.155  14.918  0.8172  0.0502  0.1412
  886MPD2    C213041   0.981   3.260  15.008  0.2788  0.2110 -0.3633
  886MPD2    C313042   0.877   3.354  15.005 -1.1187 -0.3085 -0.5951
  886MPD2    C413043   0.763   3.331  14.932  0.9031 -0.2392  0.1478
  886MPD2    C513044   0.759   3.211  14.862  0.0474  0.7569 -0.3442
  886MPD2     H13045   1.064   3.281  15.073  0.5397  0.1972 -0.6905
  886MPD2    H113046   0.672   3.390  14.937  0.3870 -1.0384  0.2717
  886MPD2    H213047   0.863   3.042  14.777 -1.6086  1.3236 -1.0038
  886MPD2    H313048   0.664   3.172  14.827  0.7015  0.3637 -1.6841
  886MPD2     N13049   0.898   3.469  15.088 -0.7321 -0.0358  0.0241
  886MPD2    H513050   0.990   3.471  15.131 -1.2695 -0.1302  1.1850
  886MPD2    N113051   1.103   3.084  14.913 -0.1547  0.0910 -0.1308
  886MPD2    H713052   1.176   3.122  14.973  1.4647  0.5332 -2.4049
  887MPD2     C13053   1.408   3.074  15.404 -0.8694 -0.8455  0.2595
  887MPD2    C113054   1.456   3.132  15.292 -0.5020  0.2065 -0.1307
  887MPD2    C213055   1.475   3.271  15.280  0.2214  0.3229  0.7741
  887MPD2    C313056   1.434   3.355  15.387 -0.4983  0.5013  0.2025
  887MPD2    C413057   1.371   3.293  15.494  0.1285  0.2759  0.0215
  887MPD2    C513058   1.362   3.154  15.505  0.7791  0.0185 -0.0459
  887MPD2     H13059   1.501   3.317  15.185 -1.3123  0.6064  0.4833
  887MPD2    H113060   1.326   3.349  15.575  0.0298  1.5596 -0.9219
  887MPD2    H213061   1.384   2.968  15.415  0.7870 -1.1674  0.6803
  887MPD2    H313062   1.317   3.103  15.589  2.2007  3.5711  2.8789
  887MPD2     N13063   1.439   3.501  15.380 -0.0721 -0.1154  0.2417
  887MPD2    H513064   1.370   3.552  15.433  0.5417  1.0915 -0.1272
  887MPD2    N113065   1.469   3.064  15.167  0.6078 -0.2087  0.6102
  887MPD2    H713066   1.488   3.110  15.079  0.3754  0.2022  0.7752
  888MPD2     C13067   3.026   3.223  14.603 -0.0566 -0.7697 -0.1277
  888MPD2    C113068   3.011   3.219  14.739  0.4392 -0.2318 -0.9654
  888MPD2    C213069   3.039   3.339  14.806 -0.0724 -0.4089  0.2386
  888MPD2    C313070   3.037   3.464  14.739  0.3722 -0.2166  0.0823
  888MPD2    C413071   3.042   3.462  14.602 -0.0987  0.2078  1.1577
  888MPD2    C513072   3.045   3.343  14.542  0.7952 -0.3201  0.2808
  888MPD2     H13073   3.038   3.332  14.914  3.5136  1.7417  0.4281
  888MPD2    H113074   3.038   3.552  14.541  1.0941 -1.2218 -1.0421
  888MPD2    H213075   3.030   3.132  14.544  0.4418 -0.3275 -0.7600
  888MPD2    H313076   3.046   3.353  14.435 -2.1353 -0.4640  0.2393
  888MPD2     N13077   3.036   3.595  14.798 -0.1081 -0.3547  0.6437
  888MPD2    H513078   3.027   3.672  14.732  0.7646 -0.7235  0.0856
  888MPD2    N113079   2.983   3.105  14.820  0.2716  0.4123  0.0245
  888MPD2    H713080   2.978   3.121  14.920  1.1631  1.5706 -0.1212
  889MPD2     C13081   2.093   2.805  12.804  0.8696  0.6324 -0.5508
  889MPD2    C113082   2.226   2.820  12.832  1.3502 -0.1839  0.0683
  889MPD2    C213083   2.279   2.947  12.847  0.0047 -0.0477 -0.6657
  889MPD2    C313084   2.214   3.055  12.797  0.4431  0.3353  0.8297
  889MPD2    C413085   2.078   3.041  12.754 -1.3261 -0.3800 -0.0100
  889MPD2    C513086   2.024   2.915  12.753 -0.0541  0.3335 -0.7315
  889MPD2     H13087   2.384   2.959  12.872  0.2918  0.2813 -1.9859
  889MPD2    H113088   2.031   3.123  12.701 -0.7157 -0.0127  0.0150
  889MPD2    H213089   2.067   2.702  12.786 -2.1633  1.2800  0.0889
  889MPD2    H313090   1.927   2.909  12.706 -0.9176 -0.1214  1.1014
  889MPD2     N13091   2.280   3.179  12.806 -0.2628  0.0952 -0.0739
  889MPD2    H513092   2.377   3.175  12.837 -0.9645  0.2965  2.1879
  889MPD2    N113093   2.291   2.706  12.895  0.2393  0.4479 -0.3535
  889MPD2    H713094   2.245   2.617  12.911 -0.3151  1.1165  1.7056
  890MPD2     C13095   2.310   4.353  14.309  0.6708  0.2147  0.6356
  890MPD2    C113096   2.351   4.440  14.416 -0.1645  0.5938 -0.0810
  890MPD2    C213097   2.383   4.379  14.535  0.2875  0.3997 -0.7245
  890MPD2    C313098   2.376   4.245  14.552  0.5672 -1.3281 -0.2880
  890MPD2    C413099   2.339   4.163  14.444  0.0066 -1.1739 -0.5543
  890MPD2    C513100   2.301   4.220  14.324  0.1043 -0.9062  0.4850
  890MPD2     H13101   2.401   4.439  14.623 -0.2917 -0.1953 -0.1937
  890MPD2    H113102   2.338   4.055  14.456  2.0157 -0.8635  2.4614
  890MPD2    H213103   2.281   4.388  14.211  2.4308 -0.0605  0.0140
  890MPD2    H313104   2.270   4.158  14.241  1.0415  0.2233 -0.7196
  890MPD2     N13105   2.400   4.195  14.684 -0.5158 -0.1658 -0.2975
  890MPD2    H513106   2.415   4.263  14.757 -1.6337  1.0296 -1.1996
  890MPD2    N113107   2.353   4.576  14.388 -0.4301  0.4403 -0.0725
  890MPD2    H713108   2.325   4.603  14.294 -0.6274  1.3249  0.2345
  891MPD2     C13109   0.198   2.953  16.569 -0.1403 -0.2901  0.0405
  891MPD2    C113110   0.225   3.089  16.528 -0.0421 -0.2046 -0.2402
  891MPD2    C213111   0.353   3.135  16.542 -0.0628 -0.7212  0.2172
  891MPD2    C313112   0.454   3.056  16.591 -0.0810 -0.1288 -1.0900
  891MPD2    C413113   0.431   2.926  16.627 -1.2355 -0.1997  0.8029
  891MPD2    C513114   0.302   2.875  16.612  0.0296  0.1025  0.5012
  891MPD2     H13115   0.381   3.236  16.513  0.1837 -0.9063 -0.1785
  891MPD2    H113116   0.500   2.869  16.688 -2.2599 -1.7266  0.5456
  891MPD2    H213117   0.096   2.916  16.572 -0.8486  1.5562 -1.5560
  891MPD2    H313118   0.276   2.775  16.645 -0.5290 -1.1797 -3.8262
  891MPD2     N13119   0.584   3.111  16.606 -0.1037 -0.2355  0.2958
  891MPD2    H513120   0.596   3.212  16.599  1.6516 -0.4831 -0.4781
  891MPD2    N113121   0.118   3.164  16.479 -0.2276 -0.0194  0.5421
  891MPD2    H713122   0.027   3.121  16.493  0.9487 -2.9796 -0.7857
  892MPD2     C13123   1.206   4.033  14.936  0.9164 -0.0802 -0.1440
  892MPD2    C113124   1.138   4.059  14.818 -0.6028 -0.3439  0.3584
  892MPD2    C213125   1.191   4.001  14.704  0.2163 -0.2099  0.4066
  892MPD2    C313126   1.298   3.911  14.716 -0.2679  0.2600  0.0101
  892MPD2    C413127   1.369   3.895  14.830 -0.3289  0.7279  0.2458
  892MPD2    C513128   1.316   3.955  14.946  0.2373  0.7324  0.0489
  892MPD2     H13129   1.143   4.022  14.609  0.1349 -2.7705 -0.1057
  892MPD2    H113130   1.453   3.827  14.837 -0.4408  0.8409  2.8240
  892MPD2    H213131   1.170   4.077  15.028 -0.3189  0.8950 -1.0982
  892MPD2    H313132   1.367   3.940  15.041  1.2624  2.2894 -0.2630
  892MPD2     N13133   1.349   3.849  14.599  0.2220  0.1991  0.0554
  892MPD2    H513134   1.441   3.808  14.608  1.2260  2.5138  0.4643
  892MPD2    N113135   1.016   4.134  14.803 -0.0266  1.3823  0.1622
  892MPD2    H713136   0.964   4.125  14.717 -0.6846  3.4525  0.3370
  893MPD2     C13137   3.026   1.637   1.141  0.1381  0.6943  0.6280
  893MPD2    C113138   2.973   1.755   1.182  0.7171  0.0824  0.4965
  893MPD2    C213139   2.849   1.759   1.242 -0.1917  0.0832 -0.2086
  893MPD2    C313140   2.772   1.646   1.263 -0.3341  0.1179  0.4633
  893MPD2    C413141   2.829   1.531   1.212 -0.0523 -0.4757 -0.3590
  893MPD2    C513142   2.952   1.530   1.149  0.9217 -0.4602 -0.5126
  893MPD2     H13143   2.808   1.847   1.291 -0.9444 -0.2729 -0.1976
  893MPD2    H113144   2.781   1.435   1.222  0.0967 -0.2182  2.8917
  893MPD2    H213145   3.123   1.632   1.092 -0.3544 -2.3811 -0.0114
  893MPD2    H313146   2.999   1.438   1.118  1.3923  0.1559 -1.6343
  893MPD2     N13147   2.653   1.656   1.329  0.5941  0.3599  0.1201
  893MPD2    H513148   2.615   1.562   1.340 -0.7815  1.0252  1.0057
  893MPD2    N113149   3.047   1.873   1.158  0.2282  0.2116 -0.5437
  893MPD2    H713150   3.127   1.865   1.096  0.2790  1.3558 -0.6212
  894MPD2     C13151   1.100   4.688   0.597  0.7825 -0.8138  0.2599
  894MPD2    C113152   1.010   0.024   0.668  0.3988 -0.1171 -0.0205
  894MPD2    C213153   0.996   0.159   0.643  0.3205 -0.2085  0.4167
  894MPD2    C313154   1.074   0.224   0.551  0.3955 -0.4586 -0.1187
  894MPD2    C413155   1.172   0.155   0.484  0.5292 -0.0534 -0.2727
  894MPD2    C513156   1.178   0.019   0.506  0.6094 -1.0436  0.2161
  894MPD2     H13157   0.928   0.220   0.701  1.7983  0.9551  0.9311
  894MPD2    H113158   1.246   0.199   0.418  0.9597 -0.6445 -0.1930
  894MPD2    H213159   1.117   4.581   0.599 -0.6797 -1.0578 -0.3046
  894MPD2    H313160   1.240   4.690   0.447 -0.1888  0.5290 -2.3670
  894MPD2     N13161   1.063   0.363   0.547  0.2419  0.0549 -0.1491
  894MPD2    H513162   0.996   0.406   0.610 -0.1047  1.6147 -1.5986
  894MPD2    N113163   0.921   4.706   0.760  0.0943 -0.1733 -0.0381
  894MPD2    H713164   0.864   0.032   0.813  1.4096  1.7695 -0.9997
  895MPD2     C13165   0.186   3.203  13.453  0.1796 -0.3147 -1.0055
  895MPD2    C113166   0.124   3.120  13.367 -0.2085  0.2406 -0.6864
  895MPD2    C213167   0.181   3.000  13.331 -0.3488  0.6450  0.1714
  895MPD2    C313168   0.318   2.989  13.350 -0.7252  0.6607 -0.0276
  895MPD2    C413169   0.394   3.076  13.420 -0.1387  0.0006  0.5967
  895MPD2    C513170   0.322   3.181  13.480  0.4150  0.1527  0.0855
  895MPD2     H13171   0.124   2.928  13.274 -1.2695  1.5850 -0.0848
  895MPD2    H113172   0.498   3.061  13.447 -0.5317 -1.4869  1.2845
  895MPD2    H213173   0.142   3.291  13.499 -2.2716 -1.7834 -0.5275
  895MPD2    H313174   0.379   3.242  13.550  0.0199  0.6108  0.0066
  895MPD2     N13175   0.377   2.880  13.282 -0.0084 -0.0416  0.1726
  895MPD2    H513176   0.315   2.823  13.225 -0.2180 -0.2337  0.5839
  895MPD2    N113177   4.735   3.141  13.312 -0.2789  0.3549 -0.4150
  895MPD2    H713178   4.704   3.073  13.243  0.0863 -0.2454  0.0088
  896MPD2     C13179   2.367   1.673   1.124  0.0303 -0.2414 -0.2889
  896MPD2    C113180   2.375   1.537   1.082 -0.5860  0.1914 -1.1818
  896MPD2    C213181   2.281   1.441   1.122  0.3994  0.7702 -0.3373
  896MPD2    C313182   2.167   1.481   1.188 -0.2355 -0.5896  1.4190
  896MPD2    C413183   2.159   1.611   1.233  0.3553 -0.0685  0.6089
  896MPD2    C513184   2.252   1.701   1.189 -0.6103 -0.2474  0.1748
  896MPD2     H13185   2.289   1.341   1.083  3.0759 -0.3951  3.2647
  896MPD2    H113186   2.067   1.648   1.275 -0.3250 -0.9319 -0.1213
  896MPD2    H213187   2.449   1.743   1.111 -0.7098  1.0547  2.1134
  896MPD2    H313188   2.244   1.803   1.225  2.8325  0.0036  0.2813
  896MPD2     N13189   2.071   1.384   1.215 -0.1798 -0.2882 -0.0951
  896MPD2    H513190   2.080   1.292   1.172 -1.0909 -0.0860 -0.7228
  896MPD2    N113191   2.490   1.502   0.998 -0.1992  0.2303  0.2194
  896MPD2    H713192   2.529   1.585   0.955 -0.4817 -0.8307 -2.0566
  897MPD2     C13193   3.168   3.514  10.643 -0.3959 -0.0294 -0.7162
  897MPD2    C113194   3.165   3.462  10.518  0.0118  0.4386  0.1922
  897MPD2    C213195   3.105   3.339  10.500 -0.0925  0.1620  0.6666
  897MPD2    C313196   3.060   3.271  10.610  0.9266  0.1734 -0.8672
  897MPD2    C413197   3.066   3.326  10.737 -0.0496 -0.6467  0.8598
  897MPD2    C513198   3.119   3.448  10.748  0.4328 -0.4224 -1.1967
  897MPD2     H13199   3.083   3.296  10.403  0.9257 -0.4660  0.7103
  897MPD2    H113200   3.022   3.285  10.827 -0.1738 -0.5731  0.8331
  897MPD2    H213201   3.202   3.616  10.662 -0.4921  0.2943 -2.3362
  897MPD2    H313202   3.124   3.498  10.844  1.3805 -0.7020 -1.1036
  897MPD2     N13203   3.004   3.141  10.588  0.1853  0.0109 -0.1778
  897MPD2    H513204   3.001   3.105  10.493  0.1813  1.5382 -0.7605
  897MPD2    N113205   3.220   3.538  10.413  0.1668 -0.3444 -0.1564
  897MPD2    H713206   3.254   3.628  10.446 -4.1426  0.8714  0.9010
  898MPD2     C13207   1.228   3.652  17.075 -0.1798  0.0586 -0.0557
  898MPD2    C113208   1.249   3.731  17.186 -0.0231 -0.4080 -0.5044
  898MPD2    C213209   1.146   3.817  17.225 -0.2004 -0.0467 -0.5706
  898MPD2    C313210   1.019   3.795  17.164 -1.2650 -0.2868  0.4160
  898MPD2    C413211   0.996   3.701  17.066  0.2998 -0.8853  0.3772
  898MPD2    C513212   1.101   3.633  17.020  0.3920 -0.7633 -0.2814
  898MPD2     H13213   1.165   3.885  17.307 -1.7195 -0.3560  0.0502
  898MPD2    H113214   0.896   3.689  17.027  0.3898 -0.5079  0.0291
  898MPD2    H213215   1.300   3.584  17.032 -0.7113 -2.0593  2.4067
  898MPD2    H313216   1.082   3.556  16.946  0.2080  0.5927 -1.6387
  898MPD2     N13217   0.917   3.886  17.202  0.1758 -0.4655  0.4834
  898MPD2    H513218   0.824   3.866  17.166 -0.2565  1.0242  0.7815
  898MPD2    N113219   1.373   3.741  17.253 -0.0551 -0.4143 -0.5641
  898MPD2    H713220   1.377   3.804  17.332  1.8430  0.5166 -1.3903
  899MPD2     C13221   2.281   4.313  17.444 -0.2520 -0.5503 -0.4965
  899MPD2    C113222   2.160   4.329  17.388 -0.1749  0.1580  0.0455
  899MPD2    C213223   2.051   4.257  17.433 -0.0735  0.1495  0.2791
  899MPD2    C313224   2.066   4.154  17.523 -0.6321 -0.3099  0.2514
  899MPD2    C413225   2.198   4.132  17.574  0.1103 -0.0617  0.8518
  899MPD2    C513226   2.302   4.205  17.529 -0.1487  0.2065  0.5346
  899MPD2     H13227   1.961   4.269  17.373 -1.1816 -4.8151  0.9865
  899MPD2    H113228   2.224   4.054  17.645  0.8310 -0.7152 -0.1187
  899MPD2    H213229   2.359   4.385  17.421 -0.6402  0.5329  1.5766
  899MPD2    H313230   2.401   4.196  17.573  0.8602 -1.7834 -2.1783
  899MPD2     N13231   1.957   4.090  17.579  0.1675  0.3403 -0.1369
  899MPD2    H513232   1.977   4.006  17.633  0.3514  0.7353  0.4102
  899MPD2    N113233   2.148   4.426  17.289 -0.4741 -0.3688 -0.1996
  899MPD2    H713234   2.220   4.497  17.280 -2.5600  1.9518  1.3065
  900MPD2     C13235   0.702   1.173  12.537 -0.0789 -0.2080 -0.6662
  900MPD2    C113236   0.634   1.102  12.445 -0.3385  0.1381 -0.1582
  900MPD2    C213237   0.520   1.155  12.399 -0.3895  0.5945  0.4832
  900MPD2    C313238   0.475   1.283  12.434  0.1873  0.1912 -0.2920
  900MPD2    C413239   0.554   1.354  12.519 -0.4084  0.1151  0.2414
  900MPD2    C513240   0.665   1.294  12.572 -0.1446 -0.2088  0.3653
  900MPD2     H13241   0.456   1.102  12.329 -1.7016  0.2886  1.8933
  900MPD2    H113242   0.520   1.446  12.565  2.1661  0.6570  1.0838
  900MPD2    H213243   0.787   1.127  12.586  0.0908 -0.2561 -1.0068
  900MPD2    H313244   0.725   1.344  12.648  0.8391 -1.5641  0.4677
  900MPD2     N13245   0.350   1.335  12.391  0.1585 -0.8878 -0.3417
  900MPD2    H513246   0.288   1.262  12.357  0.5468 -1.8358  0.9783
  900MPD2    N113247   0.700   0.989  12.396 -0.2926  1.1788 -0.7940
  900MPD2    H713248   0.773   0.951  12.454 -1.4259  1.2253  0.6522
  901MPD2     C13249   0.748   0.003  11.959 -0.7417 -0.0249  0.1390
  901MPD2    C113250   0.881   0.046  11.949  0.9836 -0.4701 -0.2700
  901MPD2    C213251   0.907   0.183  11.949 -0.0846 -0.5712 -0.8120
  901MPD2    C313252   0.818   0.283  11.975  0.6358 -0.3242  0.4218
  901MPD2    C413253   0.687   0.240  11.972 -0.4863 -0.9794  0.1920
  901MPD2    C513254   0.658   0.106  11.961  0.4007  0.4943  0.2274
  901MPD2     H13255   1.008   0.222  11.949 -0.8037  1.3154  1.6127
  901MPD2    H113256   0.597   0.298  11.989  0.2668  0.0475  0.6495
  901MPD2    H213257   0.715   4.639  11.972 -0.7655  0.2342  2.2670
  901MPD2    H313258   0.552   0.083  11.961  0.2320  1.2350 -2.1767
  901MPD2     N13259   0.856   0.418  11.995  0.1431 -0.7687  0.4177
  901MPD2    H513260   0.955   0.443  11.995 -0.0093 -0.1895 -0.7416
  901MPD2    N113261   0.985   4.687  11.945 -0.0983  0.2137  0.5611
  901MPD2    H713262   0.957   4.592  11.964  1.0020  0.0119  1.1548
  902MPD2     C13263   0.299   3.621  11.886  0.7079  0.0573  0.4389
  902MPD2    C113264   0.199   3.676  11.807  0.5627 -0.1484 -0.8405
  902MPD2    C213265   0.201   3.664  11.670  0.3548 -0.5597 -0.2782
  902MPD2    C313266   0.307   3.600  11.610  0.3796 -0.1612  0.3082
  902MPD2    C413267   0.401   3.540  11.687 -0.2241 -0.3305 -0.3346
  902MPD2    C513268   0.398   3.550  11.823 -0.4911  0.2329 -0.2654
  902MPD2     H13269   0.119   3.699  11.608  1.1346  1.2236 -0.2928
  902MPD2    H113270   0.483   3.481  11.646  1.8620 -0.3975  3.9754
  902MPD2    H213271   0.297   3.629  11.994  1.8196  0.9277  0.3848
  902MPD2    H313272   0.469   3.498  11.886 -0.0409 -1.2318 -2.0053
  902MPD2     N13273   0.320   3.577  11.475 -0.1667  0.0432  0.5414
  902MPD2    H513274   0.401   3.520  11.452 -0.3505 -0.4270  1.0504
  902MPD2    N113275   0.094   3.746  11.876 -0.3031  0.1027 -0.0515
  902MPD2    H713276   0.099   3.754  11.977  1.8740  0.8680 -0.2214
  903MPD2     C13277   0.022   4.092  11.072  0.9522  0.0382  0.0702
  903MPD2    C113278   0.010   3.954  11.074  0.0895  0.8342  0.8704
  903MPD2    C213279   4.638   3.899  11.145  0.7540  0.3882 -0.0611
  903MPD2    C313280   4.557   3.979  11.219 -0.2593  0.1669 -1.3830
  903MPD2    C413281   4.574   4.114  11.218 -0.0683 -1.0271  0.4095
  903MPD2    C513282   4.671   4.179  11.139  0.4583 -0.0097  0.1944
  903MPD2     H13283   4.608   3.795  11.138 -2.6046  1.2936  0.6908
  903MPD2    H113284   4.507   4.174  11.278 -0.7781 -1.9593  0.5495
  903MPD2    H213285   0.090   4.152  11.014  0.5028  0.5573  0.0755
  903MPD2    H313286   4.680   4.287  11.142 -1.7590  0.0978  2.7063
  903MPD2     N13287   4.454   3.911  11.293  0.5502 -0.3071  0.2880
  903MPD2    H513288   4.461   3.809  11.293  0.4397 -0.3107  3.7677
  903MPD2    N113289   0.101   3.879  10.999  0.4358 -0.0200 -0.6138
  903MPD2    H713290   0.194   3.917  10.988 -0.3578  1.1856 -3.2150
  904MPD2     C13291   0.338   2.702  13.637  0.2147 -0.8138  0.1980
  904MPD2    C113292   0.263   2.697  13.758 -0.1993  0.6750  0.6565
  904MPD2    C213293   0.328   2.713  13.882  0.1552 -0.7754  0.9171
  904MPD2    C313294   0.463   2.724  13.883  0.0612  0.0788 -0.3158
  904MPD2    C413295   0.542   2.731  13.762  0.4760 -0.3926  0.1064
  904MPD2    C513296   0.480   2.713  13.640  0.6789  0.2220 -0.1386
  904MPD2     H13297   0.266   2.709  13.971  0.7171 -3.1768  1.1899
  904MPD2    H113298   0.640   2.775  13.761  1.5871 -2.8570 -0.1577
  904MPD2    H213299   0.292   2.703  13.539  0.4950  1.1198  0.0733
  904MPD2    H313300   0.528   2.750  13.550 -1.7178 -1.2068 -2.0137
  904MPD2     N13301   0.521   2.741  14.009  0.2359  0.0085 -0.5084
  904MPD2    H513302   0.453   2.729  14.084 -1.0002  0.1066 -1.6074
  904MPD2    N113303   0.131   2.662  13.740 -0.3414 -0.2462 -0.0501
  904MPD2    H713304   0.096   2.670  13.645  3.8631 -1.0995 -1.6658
  905MPD2     C13305   4.478   2.535  13.182 -0.6937 -0.7340  0.6281
  905MPD2    C113306   4.567   2.617  13.253  0.1844  0.3283  0.2085
  905MPD2    C213307   4.686   2.638  13.193 -0.1104  0.2099 -0.1487
  905MPD2    C313308   4.729   2.555  13.083 -0.9198 -0.0254 -0.6122
  905MPD2    C413309   4.645   2.463  13.025  0.8020 -0.4936  0.0342
  905MPD2    C513310   4.521   2.458  13.069  0.1670 -0.5477  0.3156
  905MPD2     H13311   0.017   2.713  13.228 -1.2917  1.2105  0.0122
  905MPD2    H113312   4.672   2.384  12.955  0.1700  1.4338 -2.3461
  905MPD2    H213313   4.388   2.505  13.235 -1.5292 -2.4561 -1.7799
  905MPD2    H313314   4.438   2.402  13.028 -0.4946 -0.1508  1.1345
  905MPD2     N13315   0.128   2.550  13.041  0.9960  0.5417  0.3686
  905MPD2    H513316   0.146   2.472  12.978 -0.1418  1.6523 -1.3549
  905MPD2    N113317   4.537   2.685  13.373 -0.2846 -0.4577 -0.4275
  905MPD2    H713318   4.438   2.695  13.393  0.0848 -2.3760  2.3571
  906MPD2     C13319   1.952   2.881  11.165 -0.2055  0.5395  0.5422
  906MPD2    C113320   1.874   2.845  11.052 -0.1742 -0.2677  0.1630
  906MPD2    C213321   1.801   2.738  11.067 -0.1821  0.0185  0.3530
  906MPD2    C313322   1.784   2.675  11.190 -0.4312 -1.0877 -0.1472
  906MPD2    C413323   1.850   2.714  11.301  0.2224  0.0445  0.5697
  906MPD2    C513324   1.952   2.809  11.284 -0.7808 -0.1790  0.3146
  906MPD2     H13325   1.732   2.717  10.986 -1.8485  0.3555  1.6754
  906MPD2    H113326   1.845   2.663  11.397 -1.9371  0.8778  0.8988
  906MPD2    H213327   2.031   2.955  11.157 -1.0083  1.2232 -1.2409
  906MPD2    H313328   2.019   2.845  11.362 -2.6620  1.1525  1.3089
  906MPD2     N13329   1.691   2.571  11.214 -0.4195 -0.0679  0.2261
  906MPD2    H513330   1.684   2.522  11.302 -0.0750 -0.3697  0.0887
  906MPD2    N113331   1.858   2.920  10.930 -0.3458 -0.3712 -1.0459
  906MPD2    H713332   1.810   2.884  10.848 -1.6278 -2.3216  0.5887
  907MPD2     C13333   1.098   2.322  15.837  0.1223 -0.5205 -0.7632
  907MPD2    C113334   1.135   2.215  15.754  0.0576  0.0402  0.3574
  907MPD2    C213335   1.255   2.155  15.779  0.4167  0.3138 -0.5341
  907MPD2    C313336   1.340   2.189  15.883 -0.8659 -0.5601  0.1529
  907MPD2    C413337   1.309   2.297  15.961  0.0759 -0.3925  0.3595
  907MPD2    C513338   1.187   2.354  15.937 -0.0078 -0.3157 -0.2549
  907MPD2     H13339   1.291   2.072  15.720  2.6391  0.6281  0.3956
  907MPD2    H113340   1.364   2.340  16.044 -0.0319  0.7114 -0.1399
  907MPD2    H213341   0.997   2.360  15.835  0.2329 -0.1315  0.6356
  907MPD2    H313342   1.148   2.424  16.010 -0.2571 -0.0648 -0.6300
  907MPD2     N13343   1.457   2.115  15.901 -0.2339 -0.2576 -0.4703
  907MPD2    H513344   1.463   2.028  15.850  0.0897 -0.6812  0.2773
  907MPD2    N113345   1.061   2.167  15.648  0.1366 -0.0490  0.2400
  907MPD2    H713346   1.081   2.073  15.614  1.3474 -0.0574  0.9783
  908MPD2     C13347   3.746   3.361   9.571 -0.1479 -0.9210 -0.2056
  908MPD2    C113348   3.653   3.291   9.637 -0.5969  0.3700 -0.1792
  908MPD2    C213349   3.560   3.346   9.720 -0.2491 -0.1334 -0.0880
  908MPD2    C313350   3.571   3.479   9.758 -0.2869 -0.7429 -0.3200
  908MPD2    C413351   3.673   3.560   9.696 -0.0415  0.1881  0.1869
  908MPD2    C513352   3.754   3.495   9.604  0.6150 -0.3082 -0.0301
  908MPD2     H13353   3.486   3.288   9.774  0.3062  0.7152  1.5791
  908MPD2    H113354   3.693   3.666   9.710  0.0121  0.2840 -0.6012
  908MPD2    H213355   3.821   3.319   9.505 -0.8338  2.7515 -3.2873
  908MPD2    H313356   3.823   3.560   9.551  0.2232  0.3704  0.2865
  908MPD2     N13357   3.472   3.537   9.846  0.2589  0.1973  0.2755
  908MPD2    H513358   3.396   3.480   9.881  0.0335  0.7012  0.6129
  908MPD2    N113359   3.647   3.156   9.595 -0.2620 -0.3573  0.0962
  908MPD2    H713360   3.697   3.132   9.510  1.2707 -1.7219  1.3896
  909MPD2     C13361   3.883   0.903  11.066  0.5562  0.7968 -0.1363
  909MPD2    C113362   3.875   1.038  11.045  0.1200 -0.2880 -0.6423
  909MPD2    C213363   3.797   1.117  11.129  0.4547  0.7239 -0.1964
  909MPD2    C313364   3.722   1.069  11.231  0.7539 -0.0951  0.5694
  909MPD2    C413365   3.735   0.933  11.254  0.0840 -0.2009 -0.3965
  909MPD2    C513366   3.813   0.858  11.176 -0.8455 -0.3934 -0.5623
  909MPD2     H13367   3.804   1.224  11.108 -2.4418  1.0634  0.5774
  909MPD2    H113368   3.672   0.877  11.322  1.2151  0.6138  1.3302
  909MPD2    H213369   3.950   0.840  11.009  0.3574 -1.7147  2.3529
  909MPD2    H313370   3.804   0.751  11.190  0.3918 -0.4065  0.1290
  909MPD2     N13371   3.657   1.164  11.314  0.7108  0.4217  0.3330
  909MPD2    H513372   3.679   1.263  11.305 -1.0718  0.6115 -2.0711
  909MPD2    N113373   3.939   1.108  10.941 -0.1494 -0.5259 -0.3132
  909MPD2    H713374   3.927   1.209  10.944 -1.2156 -0.6856  0.6239
  910MPD2     C13375   0.813   2.909  16.256 -0.1464 -0.1422 -0.0479
  910MPD2    C113376   0.859   2.814  16.169  0.9171  0.7103  0.3095
  910MPD2    C213377   0.800   2.826  16.038 -0.7004  0.2408 -0.2283
  910MPD2    C313378   0.698   2.923  16.009 -0.3629  0.2616 -1.0347
  910MPD2    C413379   0.657   3.007  16.109  0.1119 -0.0429 -0.4794
  910MPD2    C513380   0.717   2.999  16.228  0.7406  0.5084 -0.1041
  910MPD2     H13381   0.842   2.761  15.962 -2.2738 -1.2495  0.1721
  910MPD2    H113382   0.594   3.093  16.092 -0.6199 -1.0436 -2.7918
  910MPD2    H213383   0.850   2.902  16.357  2.3598  2.0869 -0.7884
  910MPD2    H313384   0.688   3.061  16.312  2.4047  2.6650 -1.1025
  910MPD2     N13385   0.634   2.932  15.877 -0.0764 -0.0360 -0.0030
  910MPD2    H513386   0.576   3.013  15.860 -0.1280 -0.2233 -0.7202
  910MPD2    N113387   0.959   2.718  16.205 -0.1184  0.2447  0.0351
  910MPD2    H713388   0.966   2.638  16.142 -0.6150  0.9082 -0.8591
  911MPD2     C13389   3.424   3.113  15.907  0.0425 -0.5718 -0.3338
  911MPD2    C113390   3.408   3.198  16.014 -0.3104  0.6616 -0.5172
  911MPD2    C213391   3.324   3.307  16.008 -0.2070  0.7043 -0.0015
  911MPD2    C313392   3.256   3.333  15.894 -0.3463  0.0006  0.3583
  911MPD2    C413393   3.288   3.264  15.780 -0.4936 -0.9473  0.1195
  911MPD2    C513394   3.365   3.149  15.789  0.4643  0.1278 -0.3769
  911MPD2     H13395   3.301   3.372  16.092 -0.0089  0.7532  0.0143
  911MPD2    H113396   3.237   3.290  15.689  0.1955  1.0624  0.3005
  911MPD2    H213397   3.480   3.021  15.915  1.7806  0.6611  1.8008
  911MPD2    H313398   3.385   3.087  15.702 -3.2319  0.6083 -1.5497
  911MPD2     N13399   3.161   3.437  15.885  0.2097 -0.2286 -0.8795
  911MPD2    H513400   3.111   3.452  15.798  0.2830  0.4347 -0.8081
  911MPD2    N113401   3.470   3.159  16.130 -0.7952  0.3239  0.0454
  911MPD2    H713402   3.499   3.062  16.124  0.0605  0.5629  0.2589
  912MPD2     C13403   3.046   3.269  15.458  0.4563 -0.1770 -0.2063
  912MPD2    C113404   2.982   3.259  15.576 -0.3630  0.3515 -0.6541
  912MPD2    C213405   3.003   3.138  15.650 -0.0702 -0.1752 -0.0681
  912MPD2    C313406   3.100   3.041  15.613 -0.4620  0.7225 -0.7367
  912MPD2    C413407   3.161   3.062  15.494 -0.8926  0.1348  0.8894
  912MPD2    C513408   3.125   3.167  15.412 -0.1519 -0.6726 -0.3724
  912MPD2     H13409   2.960   3.130  15.749  1.6936  1.2793  0.8281
  912MPD2    H113410   3.240   2.993  15.467 -0.8398  0.7990 -0.7037
  912MPD2    H213411   3.036   3.358  15.396  1.9601 -2.4937 -3.7703
  912MPD2    H313412   3.175   3.165  15.316  2.5120  1.5526  0.9622
  912MPD2     N13413   3.128   2.941  15.714 -0.4799  0.0123 -0.8689
  912MPD2    H513414   3.070   2.941  15.797  0.9759  1.4912  0.1524
  912MPD2    N113415   2.901   3.367  15.621 -0.5647  0.2125  0.1130
  912MPD2    H713416   2.897   3.444  15.556 -1.0017  0.2371  0.1719
  913MPD2     C13417   2.875   4.682  10.296  0.7855 -0.2068 -0.2834
  913MPD2    C113418   2.937   0.057  10.346 -0.6747  0.7579  0.7140
  913MPD2    C213419   2.967   0.160  10.257 -0.5526  0.0230  0.4343
  913MPD2    C313420   2.938   0.150  10.123  0.7065  0.0390 -0.3456
  913MPD2    C413421   2.862   0.044  10.074 -0.1067  0.1687  0.1603
  913MPD2    C513422   2.833   4.683  10.162 -0.1084 -0.2960 -0.1113
  913MPD2     H13423   3.004   0.254  10.296  0.1233 -0.7147  1.5949
  913MPD2    H113424   2.817   0.041   9.976 -0.5023  0.2987  0.3376
  913MPD2    H213425   2.853   4.594  10.356 -0.1436 -0.2843 -0.7451
  913MPD2    H313426   2.768   4.601  10.134  2.3167 -1.4438 -2.3265
  913MPD2     N13427   2.972   0.258  10.036 -0.0068  0.0113  0.1909
  913MPD2    H513428   2.952   0.244   9.938 -1.7838 -0.1554  0.5681
  913MPD2    N113429   2.981   0.065  10.481  0.3752 -0.1095  0.3250
  913MPD2    H713430   2.955   4.730  10.546  1.1829  0.0017  0.7722
  914MPD2     C13431   1.912   0.202  12.136 -0.7073 -0.1063 -0.8957
  914MPD2    C113432   1.785   0.256  12.160  0.2733 -0.1036 -0.0625
  914MPD2    C213433   1.672   0.170  12.152 -0.7451 -0.4219 -0.2996
  914MPD2    C313434   1.690   0.045  12.103  0.4965 -0.3751  0.0839
  914MPD2    C413435   1.816   4.738  12.067  0.3680 -0.0951  0.2261
  914MPD2    C513436   1.923   0.075  12.086 -0.3440 -0.3283  0.2935
  914MPD2     H13437   1.570   0.203  12.166 -0.3881  1.5049 -2.3013
  914MPD2    H113438   1.827   4.636  12.032  0.6031 -1.4947  4.3324
  914MPD2    H213439   1.998   0.268  12.127  0.8005 -2.0807 -0.8076
  914MPD2    H313440   2.023   0.041  12.062 -1.4670 -3.4715  0.0581
  914MPD2     N13441   1.571   4.713  12.085 -0.5648 -0.2616 -0.1397
  914MPD2    H513442   1.482   0.014  12.113  0.2888  0.0163  2.2157
  914MPD2    N113443   1.771   0.395  12.168  0.4444  0.0067 -0.4716
  914MPD2    H713444   1.850   0.445  12.128  0.5239  1.8292  2.0220
  915MPD2     C13445   4.508   4.655  15.368  0.3447  0.8122 -0.3759
  915MPD2    C113446   4.405   4.735  15.322  0.2075 -0.0716  0.6728
  915MPD2    C213447   4.313   0.034  15.409  0.3064 -0.5455  0.3458
  915MPD2    C313448   4.327   0.016  15.543  0.1922  0.2273  0.4568
  915MPD2    C413449   4.437   4.684  15.587  0.2333  0.1788 -0.4568
  915MPD2    C513450   4.529   4.637  15.499  0.0071 -0.1249 -0.6017
  915MPD2     H13451   4.226   0.091  15.378 -0.3363 -0.3168  2.5308
  915MPD2    H113452   4.447   4.648  15.689  0.7717  1.0906 -0.1902
  915MPD2    H213453   4.576   4.608  15.297 -1.2434  0.2822 -1.5584
  915MPD2    H313454   4.617   4.579  15.526  1.0041  1.0997 -1.2473
  915MPD2     N13455   4.225   0.061  15.634 -0.3843  0.4303  0.3966
  915MPD2    H513456   4.138   0.101  15.600  0.4982  1.6499 -0.4527
  915MPD2    N113457   4.392   4.736  15.184 -0.3146  0.1118 -0.6809
  915MPD2    H713458   4.449   4.664  15.142 -0.3649 -0.5655  0.3961
  916MPD2     C13459   2.767   2.909  15.714 -0.3526 -0.6277  0.1284
  916MPD2    C113460   2.765   2.802  15.800 -0.0650  0.0495 -1.3649
  916MPD2    C213461   2.815   2.681  15.756  0.2964  0.0632 -0.0341
  916MPD2    C313462   2.852   2.663  15.619 -0.1869  0.2915 -0.2814
  916MPD2    C413463   2.868   2.775  15.537 -0.7701 -0.4278  0.1204
  916MPD2    C513464   2.822   2.899  15.586  0.1004  0.4869  0.0689
  916MPD2     H13465   2.814   2.595  15.821 -3.4573  0.3592  0.3425
  916MPD2    H113466   2.896   2.764  15.433 -1.7811  2.7073 -0.4854
  916MPD2    H213467   2.726   3.007  15.737 -4.4855 -2.4539  0.5061
  916MPD2    H313468   2.821   2.984  15.519  0.9025  1.5931  1.4620
  916MPD2     N13469   2.878   2.529  15.584  0.4270  0.4300  0.5048
  916MPD2    H513470   2.888   2.466  15.663  0.0981  1.4664  1.3806
  916MPD2    N113471   2.711   2.827  15.929  0.0497  0.5123  0.2277
  916MPD2    H713472   2.691   2.920  15.965 -2.6926  0.5305 -1.2643
  917MPD2     C13473   2.054   0.385  11.108  0.1253 -0.5993  1.5426
  917MPD2    C113474   2.087   0.475  11.204 -0.5006 -0.2364 -0.4915
  917MPD2    C213475   2.112   0.605  11.159 -0.9492  0.4214  0.1354
  917MPD2    C313476   2.096   0.640  11.025  0.2049 -0.1482 -0.1895
  917MPD2    C413477   2.061   0.547  10.928  0.0306  0.7589 -0.3681
  917MPD2    C513478   2.051   0.416  10.977  0.1264  0.5092  0.2295
  917MPD2     H13479   2.141   0.679  11.232 -0.0564  0.7420 -0.5329
  917MPD2    H113480   2.043   0.573  10.824  0.6120 -1.2074 -0.9458
  917MPD2    H213481   2.045   0.279  11.129  1.2604 -0.6045  1.9581
  917MPD2    H313482   2.022   0.332  10.914  0.3355 -0.4057  1.3371
  917MPD2     N13483   2.132   0.771  10.974 -0.6378  0.8188  0.7829
  917MPD2    H513484   2.141   0.772  10.873  1.9538 -1.8317  1.0022
  917MPD2    N113485   2.076   0.434  11.336  0.3666  0.0329 -1.5275
  917MPD2    H713486   2.071   0.333  11.341  1.4493  0.0536  0.1194
  918MPD2     C13487   2.362   0.852  12.210 -0.2483 -0.2029  0.5502
  918MPD2    C113488   2.384   0.881  12.078 -0.3396 -0.3524  0.4572
  918MPD2    C213489   2.309   0.818  11.981 -0.1691 -0.2133  0.0278
  918MPD2    C313490   2.215   0.732  12.019 -0.0877 -0.1211  0.5278
  918MPD2    C413491   2.203   0.693  12.151  0.3103  0.2012  0.2451
  918MPD2    C513492   2.268   0.758  12.246  0.8198  0.7613 -0.6423
  918MPD2     H13493   2.326   0.840  11.876  0.9802 -1.7688 -0.0946
  918MPD2    H113494   2.129   0.619  12.178 -0.9786  2.0044  1.6182
  918MPD2    H213495   2.397   0.912  12.293 -1.5923 -1.2749  1.8951
  918MPD2    H313496   2.245   0.736  12.350 -0.2905 -2.7079 -1.6372
  918MPD2     N13497   2.136   0.664  11.917 -0.4393 -0.2907  0.1533
  918MPD2    H513498   2.156   0.706  11.827  1.5359 -2.3920 -0.4020
  918MPD2    N113499   2.494   0.968  12.036 -0.6684 -0.8195 -0.0075
  918MPD2    H713500   2.531   0.956  11.942  1.2697  1.0021  0.5192
  919MPD2     C13501   2.768   4.512  11.914 -0.8239 -0.1842 -0.6242
  919MPD2    C113502   2.799   4.401  11.841 -0.0658 -0.4267 -0.2964
  919MPD2    C213503   2.767   4.404  11.703  0.0870  0.3292 -0.4823
  919MPD2    C313504   2.713   4.515  11.648 -0.4477  0.3217  0.3645
  919MPD2    C413505   2.688   4.625  11.726  0.5282 -0.0599  0.4128
  919MPD2    C513506   2.727   4.630  11.858 -0.1761 -0.2072 -0.0952
  919MPD2     H13507   2.797   4.321  11.640  2.9722  0.0273  1.2921
  919MPD2    H113508   2.622   4.693  11.675 -0.5937  0.2267  2.2335
  919MPD2    H213509   2.788   4.509  12.021 -2.7200  0.3424 -0.2631
  919MPD2    H313510   2.689   4.711  11.919 -2.8295 -1.0674 -0.5743
  919MPD2     N13511   2.674   4.526  11.516  0.5714 -0.1888 -0.8046
  919MPD2    H513512   2.647   4.616  11.478 -5.0865 -1.7065 -0.3540
  919MPD2    N113513   2.831   4.275  11.898 -0.5223  0.1876 -0.8136
  919MPD2    H713514   2.825   4.196  11.835  1.7864 -0.8839  0.2887
  920MPD2     C13515   2.709   0.301  10.637  0.2775  0.0143 -0.2813
  920MPD2    C113516   2.643   0.189  10.608  0.6625 -0.5299 -0.1776
  920MPD2    C213517   2.621   0.090  10.703  0.5364 -0.1362 -0.7767
  920MPD2    C313518   2.673   0.107  10.835 -0.6540  0.2350 -0.1606
  920MPD2    C413519   2.734   0.225  10.869  0.1581 -0.1416 -0.5348
  920MPD2    C513520   2.752   0.319  10.771 -0.4568 -0.1203 -0.3826
  920MPD2     H13521   2.564   0.000  10.682  0.3717  0.0384 -1.0823
  920MPD2    H113522   2.771   0.248  10.968  2.0023 -1.4941 -0.9120
  920MPD2    H213523   2.745   0.372  10.564  0.7149 -0.7091 -0.7760
  920MPD2    H313524   2.800   0.411  10.803  0.1820 -0.5782 -0.0229
  920MPD2     N13525   2.634   0.006  10.921  0.5142 -0.4329  0.3488
  920MPD2    H513526   2.587   4.666  10.878 -0.5874 -0.0763  0.9081
  920MPD2    N113527   2.615   0.154  10.477  0.1081 -0.3270  0.8678
  920MPD2    H713528   2.575   0.060  10.471 -0.8023  0.1020  0.1593
  921MPD2     C13529   4.327   3.082  16.735  0.3599 -0.3369 -0.7756
  921MPD2    C113530   4.284   3.161  16.626  0.0475  0.0742  0.4238
  921MPD2    C213531   4.145   3.177  16.612  0.3523 -0.4891  0.5172
  921MPD2    C313532   4.056   3.107  16.688  0.2034  0.6041  0.0464
  921MPD2    C413533   4.100   3.017  16.790  0.1039  0.1849 -0.0892
  921MPD2    C513534   4.234   3.019  16.818  0.2918  0.6216  0.4940
  921MPD2     H13535   4.107   3.240  16.532  0.9336 -0.1345  0.5217
  921MPD2    H113536   4.039   2.953  16.852 -0.1346 -0.4849 -1.0099
  921MPD2    H213537   4.433   3.058  16.743  0.6587  1.4437  0.5167
  921MPD2    H313538   4.267   2.958  16.902  1.4576  0.3618 -0.1546
  921MPD2     N13539   3.916   3.109  16.652 -0.2380  0.9010 -0.0394
  921MPD2    H513540   3.853   3.053  16.709  1.9525 -1.6471 -0.1135
  921MPD2    N113541   4.394   3.218  16.548  0.1201 -0.3116  0.5220
  921MPD2    H713542   4.488   3.202  16.583 -0.1876 -0.1463  1.4294
  922MPD2     C13543   0.309   0.722  17.165 -0.1422 -0.8881  0.3539
  922MPD2    C113544   0.250   0.820  17.092  0.1680 -0.5384  0.2930
  922MPD2    C213545   0.146   0.892  17.156  0.1565  0.0332 -0.2081
  922MPD2    C313546   0.095   0.866  17.282 -0.3610  0.4660 -0.3893
  922MPD2    C413547   0.148   0.753  17.347  0.2350 -0.0288  0.4393
  922MPD2    C513548   0.255   0.683  17.291  0.2249 -0.7046  0.8381
  922MPD2     H13549   0.094   0.961  17.091 -0.2186 -1.4670 -1.4876
  922MPD2    H113550   0.115   0.717  17.444  1.7491 -1.2868  0.4974
  922MPD2    H213551   0.392   0.661  17.130  0.4900 -0.2238  0.6920
  922MPD2    H313552   0.305   0.605  17.347 -0.0470 -0.7983  0.9477
  922MPD2     N13553   4.710   0.935  17.324  0.0437 -0.4917  0.0232
  922MPD2    H513554   4.664   0.995  17.257 -0.6630 -1.7578 -0.6455
  922MPD2    N113555   0.302   0.879  16.971 -0.5760  0.4518 -0.7952
  922MPD2    H713556   0.270   0.970  16.939  3.0848  1.1403 -2.4875
  923MPD2     C13557   0.223   3.852   8.952  0.4282 -0.6861  0.0892
  923MPD2    C113558   0.206   3.811   9.080  0.0088  0.7518  0.4378
  923MPD2    C213559   0.251   3.692   9.133  0.5271  0.0348  0.2494
  923MPD2    C313560   0.318   3.606   9.044 -0.4173 -0.6360  0.0903
  923MPD2    C413561   0.338   3.650   8.914 -0.5319  0.9476 -0.1483
  923MPD2    C513562   0.293   3.767   8.871 -0.2310 -0.1119  0.3000
  923MPD2     H13563   0.230   3.666   9.236 -0.3535  0.2018  0.1134
  923MPD2    H113564   0.411   3.601   8.851  0.2457  1.4711  0.3359
  923MPD2    H213565   0.182   3.943   8.908  0.8085 -0.8482 -0.5971
  923MPD2    H313566   0.316   3.793   8.768  2.1503  1.3803  1.2047
  923MPD2     N13567   0.378   3.488   9.087 -0.4397 -0.4726 -0.0565
  923MPD2    H513568   0.351   3.456   9.179  0.7191  1.7476  1.0410
  923MPD2    N113569   0.130   3.904   9.159 -0.1364 -0.2045  0.2467
  923MPD2    H713570   0.083   3.979   9.110  4.0146  3.1953  1.5449
  924MPD2     C13571   2.081   1.332  15.951 -1.1821 -0.5562 -0.3428
  924MPD2    C113572   1.951   1.356  16.003  0.2336  0.1264 -0.6196
  924MPD2    C213573   1.873   1.466  15.955  0.5701  0.4699  0.5006
  924MPD2    C313574   1.946   1.561  15.875  0.1631 -0.5260 -0.5371
  924MPD2    C413575   2.070   1.532  15.824 -0.5413  0.3421 -0.3022
  924MPD2    C513576   2.134   1.416  15.861 -0.2348 -0.0442 -0.6153
  924MPD2     H13577   1.770   1.484  15.983  0.0096 -0.0738 -1.1975
  924MPD2    H113578   2.136   1.606  15.779  1.0126 -1.6825 -1.3528
  924MPD2    H213579   2.132   1.244  15.987 -2.3081 -0.9030  0.3919
  924MPD2    H313580   2.236   1.397  15.827  0.4355  2.5578 -0.0744
  924MPD2     N13581   1.895   1.686  15.837  0.3688  0.4987 -0.1115
  924MPD2    H513582   1.960   1.741  15.781 -0.9829  1.7978 -0.4160
  924MPD2    N113583   1.904   1.265  16.104 -0.2983 -0.5748 -0.2450
  924MPD2    H713584   1.959   1.180  16.117  2.2763  1.3570  1.3845
  925MPD2     C13585   0.303   4.017  14.707 -0.1168 -0.4062 -0.2080
  925MPD2    C113586   0.175   4.064  14.677  0.3644  0.3581 -0.1457
  925MPD2    C213587   0.110   4.140  14.766  0.2580  0.3473 -0.1273
  925MPD2    C313588   0.164   4.157  14.894  0.9356 -0.4637  0.2273
  925MPD2    C413589   0.289   4.108  14.933 -1.0492 -0.2088 -0.3736
  925MPD2    C513590   0.355   4.048  14.831 -0.7442  0.2072 -0.4189
  925MPD2     H13591   0.014   4.177  14.731  0.6122  2.0364  0.6902
  925MPD2    H113592   0.327   4.109  15.034 -0.2185  2.0000 -0.7042
  925MPD2    H213593   0.342   3.941  14.640 -2.4082  0.1912 -2.2270
  925MPD2    H313594   0.446   3.995  14.856 -0.2564  0.8821 -0.7500
  925MPD2     N13595   0.089   4.208  14.999  0.5144 -0.1317 -0.2196
  925MPD2    H513596   0.131   4.183  15.088  2.1785 -2.1234 -1.5625
  925MPD2    N113597   0.107   4.027  14.556  0.1931  0.1022  0.0698
  925MPD2    H713598   0.018   4.075  14.547 -0.4672 -1.0064  0.6481
  926MPD2     C13599   3.986   2.549  13.172  0.0436  0.5479  0.3953
  926MPD2    C113600   3.857   2.539  13.132  0.2962 -0.2932  0.3146
  926MPD2    C213601   3.819   2.587  13.004  0.2076  0.5114  0.0487
  926MPD2    C313602   3.910   2.646  12.919  0.0293 -0.1152 -0.5802
  926MPD2    C413603   4.039   2.659  12.963  0.2191  0.5546  0.4158
  926MPD2    C513604   4.074   2.609  13.086  0.7963  0.7224  0.9374
  926MPD2     H13605   3.714   2.589  12.978 -0.0780 -0.2671  1.1696
  926MPD2    H113606   4.120   2.699  12.903  1.3081  0.2327  1.6748
  926MPD2    H213607   4.039   2.506  13.256 -0.4857 -0.0041  0.4472
  926MPD2    H313608   4.179   2.604  13.114  0.4414 -1.8758  1.7591
  926MPD2     N13609   3.875   2.712  12.800 -0.3849 -1.0108  0.0240
  926MPD2    H513610   3.949   2.770  12.763  1.2465 -2.3926  1.1050
  926MPD2    N113611   3.756   2.468  13.210 -0.3066 -0.3099  0.2579
  926MPD2    H713612   3.659   2.469  13.180 -0.9956 -2.7732  2.3764
  927MPD2     C13613   3.140   0.485  17.200 -0.0072 -0.1547 -0.4107
  927MPD2    C113614   3.209   0.363  17.196  0.3938 -0.2183  0.0627
  927MPD2    C213615   3.285   0.328  17.079  0.5123 -0.4417  0.0955
  927MPD2    C313616   3.299   0.423  16.972 -0.9524  0.2521  0.3552
  927MPD2    C413617   3.236   0.549  16.981 -0.0890  0.4694  0.4450
  927MPD2    C513618   3.151   0.571  17.093 -0.1931  0.0422 -0.2078
  927MPD2     H13619   3.336   0.233  17.074 -0.1066 -0.6719 -1.8525
  927MPD2    H113620   3.236   0.628  16.907 -4.2764  1.4469  1.4956
  927MPD2    H213621   3.069   0.507  17.278 -0.8119 -0.4999 -1.0516
  927MPD2    H313622   3.100   0.666  17.102 -1.6863 -0.6971 -1.0077
  927MPD2     N13623   3.376   0.395  16.855  0.3584  0.0886 -0.4966
  927MPD2    H513624   3.385   0.476  16.794 -3.5669  2.2870  1.7987
  927MPD2    N113625   3.187   0.277  17.312 -0.5607 -0.3199  0.0755
  927MPD2    H713626   3.128   0.327  17.378  0.5912  0.7210  0.3058
  928MPD2     C13627   1.104   3.224   0.551  0.5561 -0.1461 -0.8405
  928MPD2    C113628   1.226   3.247   0.604  0.6882 -0.3945 -0.3347
  928MPD2    C213629   1.343   3.243   0.531 -0.4026  0.1930  0.2250
  928MPD2    C313630   1.338   3.206   0.399 -0.1534 -0.8741 -0.1891
  928MPD2    C413631   1.217   3.174   0.342 -0.4522  0.4003 -1.2022
  928MPD2    C513632   1.101   3.193   0.414  0.7262  0.0162  0.7181
  928MPD2     H13633   1.439   3.262   0.577 -1.0543  4.2802 -0.1099
  928MPD2    H113634   1.207   3.158   0.235 -0.9994  1.3164 -1.2924
  928MPD2    H213635   1.012   3.231   0.608  0.7820  3.1795 -0.9118
  928MPD2    H313636   1.011   3.196   0.352  0.9189 -6.5064  0.1577
  928MPD2     N13637   1.455   3.185   0.322  0.0595  0.4182  0.2507
  928MPD2    H513638   1.433   3.172   0.223 -0.2171  1.4204  0.1859
  928MPD2    N113639   1.217   3.268   0.748 -0.3889 -0.1467  0.0098
  928MPD2    H713640   1.124   3.256   0.785  0.0870 -2.3842  0.4844
  929MPD2     C13641   0.601   3.416   9.622  0.1050  0.0854  0.5640
  929MPD2    C113642   0.495   3.359   9.695 -0.1683 -1.2944 -0.4722
  929MPD2    C213643   0.373   3.426   9.692 -0.0588  0.1183 -0.0599
  929MPD2    C313644   0.351   3.549   9.626  0.0072  0.6928 -0.1007
  929MPD2    C413645   0.461   3.611   9.567 -0.8637 -0.1114  0.3989
  929MPD2    C513646   0.584   3.536   9.555  0.3042  0.3112  0.5553
  929MPD2     H13647   0.289   3.392   9.751 -0.9546 -0.7336 -1.8302
  929MPD2    H113648   0.456   3.711   9.526 -0.3006 -0.1487  0.2398
  929MPD2    H213649   0.702   3.376   9.622 -0.7135 -2.0028  0.6568
  929MPD2    H313650   0.667   3.575   9.497 -0.5401  2.3429  0.7313
  929MPD2     N13651   0.236   3.628   9.630 -0.0239 -0.4140  0.0018
  929MPD2    H513652   0.249   3.726   9.605 -1.2765  0.2060  1.7231
  929MPD2    N113653   0.532   3.254   9.782 -0.2084 -0.3053 -0.2731
  929MPD2    H713654   0.627   3.222   9.798 -0.6150  0.3477  3.5570
  930MPD2     C13655   2.852   0.410  13.919 -0.1132  0.4147 -0.0348
  930MPD2    C113656   2.982   0.370  13.921  0.0441  0.2306  0.0709
  930MPD2    C213657   3.050   0.358  13.804  0.0653  0.3304  0.2865
  930MPD2    C313658   2.994   0.384  13.681 -0.9265  0.4802  0.2235
  930MPD2    C413659   2.866   0.425  13.674 -0.1271 -0.2861  0.2275
  930MPD2    C513660   2.795   0.436  13.791 -0.4819 -0.7921 -0.1196
  930MPD2     H13661   3.153   0.324  13.806  0.2470  0.8667  0.1223
  930MPD2    H113662   2.822   0.443  13.577  0.7812  0.0723 -0.1193
  930MPD2    H213663   2.797   0.430  14.010  0.8438 -1.8629  1.0264
  930MPD2    H313664   2.690   0.454  13.768 -0.4259 -0.5416 -0.1717
  930MPD2     N13665   3.058   0.353  13.556 -0.0582  0.0518 -0.0783
  930MPD2    H513666   2.994   0.367  13.479 -1.5432  0.3117  1.1910
  930MPD2    N113667   3.046   0.372  14.044  0.4154  0.6113  0.1947
  930MPD2    H713668   2.987   0.397  14.123  0.3176  0.7175  0.0884
  931MPD2     C13669   3.591   4.541  17.723  0.0223 -0.1930  0.2128
  931MPD2    C113670   3.489   4.592   0.051  0.0639  0.0080 -0.5164
  931MPD2    C213671   3.489   4.563   0.193  0.0900 -0.0850  0.8821
  931MPD2    C313672   3.581   4.479   0.243 -0.4457  0.0496 -0.0842
  931MPD2    C413673   3.675   4.429   0.163 -0.4027 -0.1148 -0.1956
  931MPD2    C513674   3.683   4.457   0.028  0.3234 -0.6929 -0.9409
  931MPD2     H13675   3.405   4.595   0.254  1.2749 -0.6213  2.7816
  931MPD2    H113676   3.758   4.368   0.198 -0.4456  0.5824  1.1069
  931MPD2    H213677   3.608   4.556  17.617 -0.5492 -0.4112  0.0891
  931MPD2    H313678   3.758   4.409  17.717  0.3972 -2.7241  0.6976
  931MPD2     N13679   3.582   4.441   0.381 -0.2441  0.8904  0.5252
  931MPD2    H513680   3.658   4.379   0.408  0.4402  0.7069 -1.8212
  931MPD2    N113681   3.401   4.677  17.739 -0.0700  0.7481 -0.5554
  931MPD2    H713682   3.417   4.689  17.639 -0.4385  1.9383 -0.4791
  932MPD2     C13683   3.864   4.637  11.184  0.3285 -0.4121  0.5852
  932MPD2    C113684   3.991   4.588  11.168  0.2066 -0.9007  0.1725
  932MPD2    C213685   4.010   4.452  11.146  0.0072 -0.5439 -0.5879
  932MPD2    C313686   3.902   4.364  11.126 -0.1039 -0.0027 -0.3308
  932MPD2    C413687   3.778   4.415  11.144 -0.1822  0.5454  0.5817
  932MPD2    C513688   3.759   4.547  11.178  0.5467 -0.3850  0.5027
  932MPD2     H13689   4.112   4.417  11.132  0.8285  1.7424 -0.3993
  932MPD2    H113690   3.688   4.358  11.122 -0.0179 -0.0382  1.4010
  932MPD2    H213691   3.846   0.005  11.197 -4.2097 -0.9617 -1.2818
  932MPD2    H313692   3.658   4.588  11.181  1.5781  2.2485 -0.1460
  932MPD2     N13693   3.920   4.225  11.086  0.0686 -0.3334 -0.4960
  932MPD2    H513694   3.833   4.174  11.085 -0.0556 -0.1116 -1.3127
  932MPD2    N113695   4.104   4.682  11.158 -0.2359 -0.8805 -0.0082
  932MPD2    H713696   4.196   4.646  11.136 -0.5312 -2.7488  1.7573
  933MPD2     C13697   0.796   3.229   1.368  0.0246  0.3544 -0.3279
  933MPD2    C113698   0.828   3.333   1.278  0.0479  0.9827 -0.0146
  933MPD2    C213699   0.722   3.402   1.220 -0.3910  0.7872 -0.2205
  933MPD2    C313700   0.593   3.375   1.254 -0.3090  0.5331  0.2677
  933MPD2    C413701   0.558   3.276   1.344  0.1122  0.5842 -0.4340
  933MPD2    C513702   0.664   3.210   1.401 -0.0694 -0.6143  0.1438
  933MPD2     H13703   0.735   3.469   1.135 -2.4924  1.6070  0.0908
  933MPD2    H113704   0.455   3.255   1.370 -0.0849  2.1151  0.0106
  933MPD2    H213705   0.872   3.162   1.407  1.1972  1.5510 -0.5393
  933MPD2    H313706   0.635   3.120   1.455 -0.7261 -1.3491 -1.4369
  933MPD2     N13707   0.496   3.439   1.175  0.1411  0.1111 -0.2704
  933MPD2    H513708   0.531   3.517   1.120  1.5301 -0.6416 -0.4780
  933MPD2    N113709   0.968   3.356   1.247 -0.0448  1.0171  0.4798
  933MPD2    H713710   1.036   3.301   1.299 -0.6502 -0.7535 -0.6191
  934MPD2     C13711   2.278   0.575   1.807  0.4650 -0.1879  0.0777
  934MPD2    C113712   2.276   0.650   1.694  0.2980 -0.3784  0.0110
  934MPD2    C213713   2.193   0.614   1.593 -0.0121 -0.1485 -0.0813
  934MPD2    C313714   2.104   0.507   1.608  0.4062 -0.1771 -0.6754
  934MPD2    C413715   2.108   0.441   1.724  0.0400 -0.5465 -0.1363
  934MPD2    C513716   2.195   0.470   1.824 -0.4294 -0.0667  0.2619
  934MPD2     H13717   2.193   0.671   1.501 -3.1554 -1.7472 -1.1058
  934MPD2    H113718   2.046   0.355   1.748 -0.9740 -0.1866 -1.4764
  934MPD2    H213719   2.346   0.607   1.885  0.8230  2.1811 -1.1796
  934MPD2    H313720   2.197   0.408   1.914 -0.1954  0.9313  0.9439
  934MPD2     N13721   2.013   0.461   1.511  0.2707  0.0749  0.0281
  934MPD2    H513722   1.960   0.377   1.529 -1.6678  1.9201  2.9550
  934MPD2    N113723   2.357   0.760   1.683 -0.4923 -0.5825 -0.1411
  934MPD2    H713724   2.371   0.791   1.587  0.6551  2.8538  1.1380
  935MPD2     C13725   2.073   4.371   1.329  0.5926 -0.3122  0.5290
  935MPD2    C113726   2.020   4.415   1.204  0.0190  1.4151  0.6311
  935MPD2    C213727   1.969   4.544   1.198 -0.2226 -0.0378  0.0161
  935MPD2    C313728   1.970   4.630   1.303 -0.2006  0.5117  0.4408
  935MPD2    C413729   2.025   4.580   1.429 -0.2363  0.0578  0.2021
  935MPD2    C513730   2.077   4.455   1.440  0.0334  1.0597  0.6781
  935MPD2     H13731   1.938   4.580   1.100  2.8865 -1.8305 -1.6111
  935MPD2    H113732   2.036   4.653   1.508  2.1411  1.1818 -1.1946
  935MPD2    H213733   2.117   4.272   1.328  0.8498 -0.2129  1.7817
  935MPD2    H313734   2.123   4.414   1.528 -0.0188  1.4390  0.8832
  935MPD2     N13735   1.919   0.023   1.304 -0.4274  0.1359 -0.7191
  935MPD2    H513736   1.926   0.080   1.388 -1.3131 -2.1938  0.9236
  935MPD2    N113737   2.017   4.334   1.088  0.0311 -0.4260 -0.0486
  935MPD2    H713738   1.967   4.382   1.014  0.4602  0.2617  0.1078
  936MPD2     C13739   0.724   1.674  12.519 -0.3370 -0.0707 -0.4217
  936MPD2    C113740   0.664   1.785  12.564  0.1706 -0.0483 -0.4911
  936MPD2    C213741   0.666   1.895  12.483  1.2154 -0.8108  0.0193
  936MPD2    C313742   0.727   1.901  12.353 -0.7476 -0.5957  0.2181
  936MPD2    C413743   0.798   1.789  12.317  0.1906  0.1003  0.2157
  936MPD2    C513744   0.788   1.680  12.403  0.0919  0.5106  0.6733
  936MPD2     H13745   0.607   1.983  12.506  2.1422 -0.0976 -0.3017
  936MPD2    H113746   0.860   1.787  12.228  1.4018 -0.9115  1.0921
  936MPD2    H213747   0.728   1.578  12.571  0.0548  1.0227  1.5549
  936MPD2    H313748   0.838   1.589  12.370 -2.2437 -0.2077 -0.8495
  936MPD2     N13749   0.709   2.013  12.270 -0.1091  0.1487 -0.0003
  936MPD2    H513750   0.655   2.089  12.311 -0.2898  0.3480 -0.5993
  936MPD2    N113751   0.612   1.805  12.697  0.4649 -0.0054  0.2068
  936MPD2    H713752   0.560   1.887  12.727  1.3862 -0.2104  2.3673
  937MPD2     C13753   3.120   3.792  11.528  0.3500 -0.0586  0.1895
  937MPD2    C113754   3.172   3.907  11.593  0.0110 -0.6596  0.3457
  937MPD2    C213755   3.219   4.007  11.507 -0.3510  0.2309  0.5591
  937MPD2    C313756   3.236   3.985  11.372  0.3313 -0.0873  0.0943
  937MPD2    C413757   3.207   3.856  11.320  0.1924 -0.0752  0.0619
  937MPD2    C513758   3.136   3.770  11.392 -0.4287 -0.4043  0.1832
  937MPD2     H13759   3.230   4.104  11.555 -0.3388  0.4252  0.1697
  937MPD2    H113760   3.235   3.830  11.218 -0.5264 -1.8486  0.3094
  937MPD2    H213761   3.056   3.721  11.578  0.2479  0.3072  0.5799
  937MPD2    H313762   3.102   3.679  11.344  0.2572 -0.4607 -0.1973
  937MPD2     N13763   3.262   4.094  11.291  0.3158 -0.0436 -0.1824
  937MPD2    H513764   3.278   4.182  11.339 -0.0960 -0.0981  0.0559
  937MPD2    N113765   3.132   3.950  11.722  0.1936 -0.7381 -0.8370
  937MPD2    H713766   3.156   4.044  11.750 -0.5125 -1.4505  2.1505
  938MPD2     C13767   1.475   0.031   0.195 -1.0123 -0.4280 -0.3266
  938MPD2    C113768   1.504   0.072   0.328 -0.2972  0.6470 -0.1928
  938MPD2    C213769   1.500   4.714   0.430  0.2640  0.2790 -0.6393
  938MPD2    C313770   1.493   4.578   0.408 -0.5144 -0.3433 -0.2009
  938MPD2    C413771   1.466   4.544   0.276  0.1762  0.2876  0.3326
  938MPD2    C513772   1.464   4.636   0.170 -0.0000 -0.4906 -0.6720
  938MPD2     H13773   1.509   0.018   0.529 -1.1631  0.2169 -0.4797
  938MPD2    H113774   1.460   4.440   0.248  3.5096 -0.1287  1.0691
  938MPD2    H213775   1.467   0.091   0.105 -2.2496  1.6312  1.1478
  938MPD2    H313776   1.444   4.611   0.067 -2.1229  0.4176 -0.4728
  938MPD2     N13777   1.500   4.478   0.505 -0.0571  0.0398 -0.6608
  938MPD2    H513778   1.489   4.383   0.472 -3.1597  1.3309 -3.3110
  938MPD2    N113779   1.520   0.213   0.365  0.3472 -0.4383  0.0389
  938MPD2    H713780   1.522   0.237   0.463  2.3082 -0.7121  0.0686
  939MPD2     C13781   2.402   1.067   0.723  0.0129  0.0445  0.3564
  939MPD2    C113782   2.361   1.172   0.644  0.0320  0.4393 -0.5241
  939MPD2    C213783   2.433   1.207   0.529 -0.0108  0.8129 -0.6990
  939MPD2    C313784   2.531   1.128   0.486 -0.3332 -0.0173 -0.0507
  939MPD2    C413785   2.563   1.015   0.564  0.1064 -0.1569 -0.7961
  939MPD2    C513786   2.503   0.993   0.686 -0.2843  1.0251  0.4785
  939MPD2     H13787   2.399   1.289   0.467  1.3865  2.2910  0.4953
  939MPD2    H113788   2.638   0.941   0.540 -0.1755 -1.4529  2.3581
  939MPD2    H213789   2.362   1.047   0.822  1.5840  0.5320  1.0905
  939MPD2    H313790   2.544   0.916   0.749  2.5161  3.0677  1.1677
  939MPD2     N13791   2.585   1.155   0.355  0.1813 -0.3289 -0.4960
  939MPD2    H513792   2.536   1.214   0.290  0.0858  1.2547  1.0009
  939MPD2    N113793   2.257   1.249   0.701  0.9813 -0.0916 -0.0360
  939MPD2    H713794   2.219   1.217   0.789 -0.0106  4.7882  1.3174
  940MPD2     C13795   0.907   2.572  13.238  0.1114  0.0417 -0.6874
  940MPD2    C113796   0.899   2.438  13.266 -0.9158  0.1546 -0.0201
  940MPD2    C213797   0.928   2.343  13.171  0.0246 -0.2101  0.2333
  940MPD2    C313798   0.964   2.371  13.040  0.0893  0.1533  0.1030
  940MPD2    C413799   0.975   2.510  13.010  0.9103 -0.4355 -0.3835
  940MPD2    C513800   0.952   2.602  13.112  0.7977 -0.7393  0.0543
  940MPD2     H13801   0.930   2.242  13.211  0.0352 -0.5585 -0.6369
  940MPD2    H113802   1.002   2.537  12.908 -1.3632  0.7799 -0.6459
  940MPD2    H213803   0.884   2.656  13.303  1.1491  1.3767 -2.0193
  940MPD2    H313804   0.955   2.708  13.087  0.5642 -1.0651 -1.3844
  940MPD2     N13805   0.977   2.272  12.931  0.2584  0.0046  0.2897
  940MPD2    H513806   0.987   2.310  12.837  1.5437  0.9044  0.7848
  940MPD2    N113807   0.857   2.394  13.398 -0.7351 -0.3624 -0.9936
  940MPD2    H713808   0.845   2.293  13.406 -2.7465 -0.0266  0.0962
  941MPD2     C13809   4.421   1.573   9.398 -0.0180 -0.3986 -0.5270
  941MPD2    C113810   4.558   1.582   9.420 -0.1921 -0.8475 -0.4685
  941MPD2    C213811   4.637   1.469   9.436  0.0633 -0.0539 -0.0922
  941MPD2    C313812   4.569   1.345   9.424 -0.0269 -0.7211  0.3359
  941MPD2    C413813   4.435   1.339   9.400  0.7017  0.3905  0.3474
  941MPD2    C513814   4.369   1.452   9.376  0.0334 -0.4867  0.2125
  941MPD2     H13815   0.005   1.473   9.453 -0.2422  0.1128  1.8069
  941MPD2    H113816   4.381   1.246   9.385  1.6021  0.1817 -1.6587
  941MPD2    H213817   4.367   1.661   9.364  1.2709  0.0771 -1.3577
  941MPD2    H313818   4.266   1.455   9.340  0.3022  0.8660 -0.4286
  941MPD2     N13819   4.625   1.219   9.438 -0.0459 -0.0565  0.2301
  941MPD2    H513820   4.564   1.139   9.454 -2.0983  1.5214  0.2180
  941MPD2    N113821   4.617   1.712   9.434 -0.1126 -0.4065 -0.3340
  941MPD2    H713822   4.717   1.711   9.451  0.5330 -1.6438 -4.1510
  942MPD2     C13823   3.015   3.753   9.919  0.4024  0.3792  0.2061
  942MPD2    C113824   3.016   3.611   9.906  0.6284  0.3317 -0.0669
  942MPD2    C213825   3.093   3.564   9.798  0.0407  0.0230 -0.1088
  942MPD2    C313826   3.168   3.651   9.716  0.5308 -0.1247  0.2756
  942MPD2    C413827   3.171   3.780   9.746 -0.0702  0.0327  0.2036
  942MPD2    C513828   3.092   3.835   9.845  0.2222  0.3198  0.5119
  942MPD2     H13829   3.096   3.457   9.781 -0.9010  0.2048 -1.3980
  942MPD2    H113830   3.220   3.852   9.682  1.2228 -1.9177 -1.0111
  942MPD2    H213831   2.958   3.794  10.001 -1.7613  1.7491 -1.9941
  942MPD2    H313832   3.089   3.942   9.862 -0.0816  0.1626  1.4801
  942MPD2     N13833   3.236   3.612   9.598  0.1853 -1.0099 -0.6339
  942MPD2    H513834   3.296   3.680   9.553  0.9724 -1.6477 -0.5411
  942MPD2    N113835   2.943   3.522   9.991  0.0177 -0.5023  0.4820
  942MPD2    H713836   2.943   3.425   9.958  2.2800 -0.2070 -0.3730
  943MPD2     C13837   3.655   1.425   9.202 -0.2374 -0.3775  0.2826
  943MPD2    C113838   3.781   1.432   9.257  0.0145  0.0291 -0.2097
  943MPD2    C213839   3.847   1.556   9.241  0.2294  0.1293  0.0527
  943MPD2    C313840   3.786   1.668   9.189 -0.4320 -0.1144  0.2219
  943MPD2    C413841   3.658   1.653   9.141 -0.2967 -0.3382  0.5349
  943MPD2    C513842   3.602   1.533   9.145  0.4509 -0.9854  0.4074
  943MPD2     H13843   3.952   1.555   9.271  0.0294  0.0638  0.7527
  943MPD2    H113844   3.604   1.738   9.100 -0.0187 -0.0123  0.8459
  943MPD2    H213845   3.604   1.330   9.210 -0.5192 -0.1880  0.6953
  943MPD2    H313846   3.499   1.518   9.114  0.9486  0.0336 -1.6714
  943MPD2     N13847   3.843   1.798   9.193  0.1212  0.4308  0.1835
  943MPD2    H513848   3.795   1.865   9.134  0.3619 -0.0135 -0.5184
  943MPD2    N113849   3.830   1.318   9.323  0.0590 -0.1019 -0.4035
  943MPD2    H713850   3.774   1.232   9.320 -1.1406  0.7620 -2.8041
  944MPD2     C13851   3.820   0.535  10.838 -0.0736 -0.7546  0.2369
  944MPD2    C113852   3.805   0.644  10.758  0.2907 -0.0961  0.0673
  944MPD2    C213853   3.708   0.737  10.782  0.5173 -0.0630 -0.1385
  944MPD2    C313854   3.632   0.724  10.894 -0.1587  0.6198  0.8827
  944MPD2    C413855   3.650   0.613  10.975 -0.6826  0.0246  0.5067
  944MPD2    C513856   3.739   0.518  10.943  0.2394 -0.0257  0.8900
  944MPD2     H13857   3.695   0.826  10.722  0.5229  0.4752  0.6521
  944MPD2    H113858   3.586   0.598  11.060  1.8579 -3.7486  1.7611
  944MPD2    H213859   3.898   0.461  10.820 -0.4305 -0.7043 -1.5908
  944MPD2    H313860   3.750   0.432  11.008  1.3837  0.0289  0.7652
  944MPD2     N13861   3.552   0.838  10.930 -0.0343  0.1523 -0.4640
  944MPD2    H513862   3.546   0.906  10.855 -1.1279  1.2362  0.5785
  944MPD2    N113863   3.887   0.650  10.642 -0.1659  0.0938 -0.7547
  944MPD2    H713864   3.966   0.586  10.638  0.4832  0.8347  0.3027
    1TMC1    C113865   2.676   1.086  14.163 -0.9558  0.6528  0.3012
    1TMC1    C213866   2.750   0.979  14.209  0.0765 -0.2525  0.1379
    1TMC1    C313867   2.738   0.857  14.146  0.2695  0.9558 -0.1691
    1TMC1    C413868   2.579   1.067  14.071  0.5257  0.3734  0.9362
    1TMC1    C513869   2.573   0.947  14.008  0.5758 -0.5849 -0.1167
    1TMC1    C613870   2.645   0.831  14.050  0.1257 -0.2911 -0.0064
    1TMC1     C13871   2.673   1.199  14.257 -0.3012  0.5849 -0.1123
    1TMC1     O13872   2.775   1.209  14.324 -0.2277 -0.2967  0.1750
    1TMC1     H13873   2.826   0.985  14.286  0.4777  2.2889 -0.4491
    1TMC1    H113874   2.521   1.154  14.043 -1.7191 -2.2611 -2.5419
    1TMC1    H213875   2.639   0.735  14.000  0.5045 -0.8873  1.0935
    1TMC1    C713876   2.474   0.938  13.903 -0.2989  0.5415 -0.0344
    1TMC1    C813877   2.807   0.743  14.181  0.3606 -0.0992 -0.0724
    1TMC1    O113878   2.378   1.012  13.896 -0.2736 -0.0393  0.3836
    1TMC1    O213879   2.762   0.629  14.178  0.2875 -0.2552  0.3978
    1TMC1    O313880   2.505   0.851  13.808  0.4922  0.1931 -0.0858
    1TMC1    H313881   2.598   0.819  13.810  0.2039 -0.7118 -1.9437
    1TMC1    O513882   2.931   0.783  14.213  0.0884 -0.4940  0.3649
    1TMC1    H513883   2.964   0.871  14.185  0.9395 -1.2813 -1.0893
    2MPD2     C13884   2.508   1.640  14.481 -0.3978 -0.2173  0.2872
    2MPD2    C113885   2.443   1.613  14.360 -0.1198 -0.0059  0.4451
    2MPD2    C213886   2.461   1.504  14.285  0.3145  0.7091  0.0229
    2MPD2    C313887   2.552   1.404  14.320  0.2933 -0.2356 -0.3630
    2MPD2    C413888   2.623   1.429  14.440  0.3263  0.6249  0.3845
    2MPD2    C513889   2.600   1.544  14.516  0.3265  0.5055 -0.1247
    2MPD2     H13890   2.398   1.484  14.199  0.8855  0.6190 -0.3709
    2MPD2    H113891   2.699   1.358  14.470 -2.8864 -2.2166  1.7943
    2MPD2    H213892   2.486   1.733  14.533 -1.0522 -0.8141  1.0744
    2MPD2    H313893   2.657   1.559  14.607  0.7451 -0.3722 -0.2412
    2MPD2     N13894   2.571   1.294  14.236 -0.2982 -0.6163 -0.1576
    2MPD2    H513895   2.500   1.284  14.164 -0.1969 -4.1514  0.2269
    2MPD2    N113896   2.354   1.714  14.315  0.0549  0.1017 -0.5030
    2MPD2    H713897   2.326   1.781  14.386 -2.8250  1.3043 -2.7691
    3TMC2    C113898   2.244   1.850  14.146  0.6483 -0.1993  0.2773
    3TMC2    C213899   2.155   1.891  14.235 -0.0862 -0.0007  0.5887
    3TMC2    C313900   2.096   2.015  14.215  1.0994  0.2935 -0.5479
    3TMC2    C413901   2.287   1.933  14.049  0.1591 -0.7185  0.5829
    3TMC2    C513902   2.241   2.062  14.041 -0.1053 -0.3143 -0.1375
    3TMC2    C613903   2.148   2.105  14.123 -0.1660 -0.5369 -0.0527
    3TMC2     C13904   2.340   1.740  14.180  0.0914  0.5228  0.0020
    3TMC2     O13905   2.415   1.696  14.095 -0.3111 -0.1549 -0.3409
    3TMC2     H13906   2.117   1.819  14.307  3.0717 -1.2813  0.9784
    3TMC2    H113907   2.355   1.896  13.973 -1.2380 -1.4523 -0.3159
    3TMC2    H213908   2.129   2.212  14.124  2.8969  0.0001 -0.7005
    3TMC2    C713909   2.295   2.141  13.929  0.2558 -0.1498 -0.3403
    3TMC2    C813910   2.021   2.080  14.313  0.5260 -0.0028  1.3261
    3TMC2    O113911   2.418   2.143  13.925  0.1925 -0.1913 -0.4292
    3TMC2    O213912   1.943   2.166  14.270 -0.4334 -0.5716  0.2333
    3TMC2    O513913   2.105   2.091  14.418  0.4750  0.1819 -0.0811
    3TMC2    H513914   2.165   2.015  14.432  1.5100  1.1623  0.7437
    4TMC2    C113915   1.753   2.794  13.388 -0.4517 -0.3651  0.1854
    4TMC2    C213916   1.666   2.857  13.471  0.2433  0.6019 -0.0337
    4TMC2    C313917   1.673   2.825  13.602 -0.3403 -0.2145 -0.2058
    4TMC2    C413918   1.837   2.697  13.427  0.0967  0.1101  0.1775
    4TMC2    C513919   1.836   2.667  13.562 -0.0443 -0.8631 -0.0513
    4TMC2    C613920   1.750   2.730  13.651 -0.5486 -0.4443 -0.5922
    4TMC2     C13921   1.745   2.816  13.245 -0.2673 -0.5263  0.1361
    4TMC2     O13922   1.853   2.822  13.181  0.0647 -0.1810  0.4626
    4TMC2     H13923   1.601   2.939  13.442 -1.2517 -0.3075  0.7303
    4TMC2    H113924   1.889   2.645  13.348  0.2178  0.0251  0.3141
    4TMC2    H213925   1.759   2.703  13.755 -1.0068  1.3009 -0.1049
    4TMC2    C713926   1.914   2.555  13.612  0.3025  0.8578  0.3033
    4TMC2    C813927   1.599   2.904  13.689  0.0288  0.1716  0.2024
    4TMC2    O113928   1.871   2.508  13.716  0.1651  0.4774 -0.3262
    4TMC2    O213929   1.513   2.979  13.643  0.3070  0.7729 -0.4876
    4TMC2    O513930   1.617   2.873  13.819 -0.2470  0.1661 -0.0854
    4TMC2    H513931   1.683   2.809  13.852  0.0961  1.2409  1.3437
    5MPD2     C13932   1.446   2.953  12.856  0.6737  0.2591 -0.5238
    5MPD2    C113933   1.370   2.943  12.967  0.6690 -0.0392  0.1325
    5MPD2    C213934   1.437   2.900  13.075  0.3305  0.0309  0.3579
    5MPD2    C313935   1.576   2.879  13.079  0.2607  0.4182 -0.4674
    5MPD2    C413936   1.653   2.893  12.970  0.1342  0.7011 -0.2179
    5MPD2    C513937   1.582   2.936  12.859  0.6131 -0.6307 -0.3527
    5MPD2     H13938   1.380   2.874  13.164  1.9987  1.6925  1.8970
    5MPD2    H113939   1.761   2.883  12.964  0.3052  0.4945  3.2256
    5MPD2    H213940   1.400   2.989  12.764  0.1444  1.6801  0.2954
    5MPD2    H313941   1.641   2.960  12.771  1.7163  1.1207  0.8538
    5MPD2     N13942   1.618   2.840  13.211 -0.0181  0.0950 -0.7581
    5MPD2    H513943   1.552   2.821  13.285  1.0421  0.2966  0.2263
    5MPD2    N113944   1.233   2.976  12.958  0.0795 -0.1901  0.0953
    5MPD2    H713945   1.196   2.999  12.866  0.7084 -1.7150 -0.5415
    6MPD1     C13946   4.422   4.098  12.756 -0.6250  0.2500  0.3873
    6MPD1    C113947   4.475   4.152  12.875  0.2998 -0.6725  0.3253
    6MPD1    C213948   4.593   4.099  12.924 -0.4235 -0.1521  0.0074
    6MPD1    C313949   4.648   3.982  12.861  0.5748  0.2391  0.0114
    6MPD1    C413950   4.589   3.936  12.748  1.0713  0.3536  0.0380
    6MPD1    C513951   4.481   3.991  12.696  0.4515  0.4150  0.2895
    6MPD1     H13952   4.639   4.151  13.007  0.3877 -1.1279  0.1624
    6MPD1    H113953   4.617   3.850  12.689  0.7614 -1.6810  2.8708
    6MPD1    H213954   4.346   4.141  12.692  0.1102  0.0292 -0.6344
    6MPD1    H313955   4.448   3.957  12.598  0.8635 -1.1266  0.6795
    6MPD1     N13956   0.031   3.909  12.907  0.3662  0.2242 -0.4276
    6MPD1    H513957   0.063   3.836  12.844 -0.3169 -1.6962  1.4894
    6MPD1    N113958   4.424   4.274  12.924  0.2213  0.1802  0.5654
    6MPD1    H613959   4.459   4.310  13.012  0.0405  0.6072  0.4606
    6MPD1    H713960   4.322   4.273  12.920  0.2313 -1.7935  0.8390
    7MPD2     C13961   0.585   3.502  13.459  0.0322  0.6306  0.0979
    7MPD2    C113962   0.564   3.493  13.323 -0.2824 -0.0751  0.6595
    7MPD2    C213963   0.606   3.377  13.265  0.2208 -0.3098  0.2339
    7MPD2    C313964   0.679   3.281  13.329 -0.1690 -0.4469 -0.6275
    7MPD2    C413965   0.714   3.304  13.458 -0.1419 -0.3970  0.2795
    7MPD2    C513966   0.661   3.404  13.526  0.4959 -0.2207 -0.8186
    7MPD2     H13967   0.603   3.374  13.157 -0.4246 -1.0780  0.2725
    7MPD2    H113968   0.786   3.240  13.509  1.8393  1.1519 -0.5528
    7MPD2    H213969   0.555   3.587  13.519 -2.5014 -0.1367 -0.0812
    7MPD2    H313970   0.694   3.421  13.628 -0.0091  1.5502 -0.9564
    7MPD2     N13971   0.743   3.169  13.262 -0.2130 -0.0200  0.1725
    7MPD2    H513972   0.812   3.118  13.316  0.7647 -0.2016 -1.2441
    7MPD2    N113973   0.491   3.581  13.241 -0.2663 -0.0815 -0.0544
    7MPD2    H713974   0.478   3.544  13.147 -0.4955 -1.8364  0.6676
    8TMC3    C113975   0.778   2.999  13.081 -0.7688 -0.5238 -0.1930
    8TMC3    C213976   0.913   3.013  13.113  0.1891 -0.6058 -0.3253
    8TMC3    C313977   1.006   2.988  13.015 -0.4107  0.5007  0.0214
    8TMC3    C413978   0.741   2.960  12.950 -0.1917  0.7700 -0.1791
    8TMC3    C513979   0.829   2.955  12.852  0.2749  0.1520  0.4978
    8TMC3    C613980   0.960   2.958  12.886 -0.2799 -0.2661 -0.4747
    8TMC3     C13981   0.705   3.120  13.135 -0.4623  0.7148  0.3508
    8TMC3     O13982   0.615   3.155  13.060  0.1979  0.8812 -0.6288
    8TMC3     H13983   0.958   3.047  13.205 -0.6245  2.4331 -1.0162
    8TMC3    H113984   0.639   2.951  12.915 -0.1535 -0.4998  0.0356
    8TMC3    H213985   1.032   2.944  12.806 -0.3614 -2.1693 -0.2247
    8TMC3    C713986   0.802   3.051  12.746 -0.0472 -0.3848 -0.3135
    8TMC3    C813987   1.139   2.954  13.058  0.2310 -0.4321 -1.0052
    8TMC3    O113988   0.878   3.047  12.649 -0.2853  0.9513 -0.0216
    8TMC3    O213989   1.157   2.905  13.165  0.5130 -0.1544  0.3138
    9TMC3    C113990   0.239   3.874  13.017  0.1617 -0.0967  0.1347
    9TMC3    C213991   0.291   3.832  12.896 -0.6533  0.0356  0.4707
    9TMC3    C313992   0.396   3.746  12.904  0.1166 -0.4877 -0.3115
    9TMC3    C413993   0.296   3.847  13.144  0.1801  0.5358 -0.1934
    9TMC3    C513994   0.405   3.769  13.139  0.4515 -0.6844 -0.5191
    9TMC3    C613995   0.458   3.717  13.023 -0.3025 -0.5345  0.9341
    9TMC3     C13996   0.107   3.939  13.015  0.3528  0.1092 -0.2290
    9TMC3     O13997   0.083   4.018  13.104  0.2816  0.1818  0.0772
    9TMC3     H13998   0.252   3.866  12.800 -0.5109  0.0739  0.4267
    9TMC3    H113999   0.250   3.874  13.238  0.7734  1.7822 -0.2689
    9TMC3    H214000   0.560   3.680  13.012 -0.5959 -0.4143 -1.9733
    9TMC3    C714001   0.440   3.708  13.267 -0.2875  0.6885  0.5168
    9TMC3    C814002   0.453   3.691  12.782  0.7125 -0.0401 -0.6306
    9TMC3    O114003   0.414   3.754  13.372 -0.4075  0.0150 -0.0187
    9TMC3    O214004   0.490   3.772  12.702 -0.6043  0.4034  0.1869
   10MPD2     C14005   0.735   3.301  12.588 -0.1080 -0.2384  0.4736
   10MPD2    C114006   0.673   3.264  12.708 -0.8039  1.2192 -0.3514
   10MPD2    C214007   0.587   3.348  12.767 -0.1346  0.1709 -0.1680
   10MPD2    C314008   0.562   3.475  12.725  0.3223  0.1644 -0.7493
   10MPD2    C414009   0.623   3.514  12.606 -0.4041  0.5000 -0.2456
   10MPD2    C514010   0.703   3.430  12.539 -0.5541 -0.6290  0.3943
   10MPD2     H14011   0.537   3.324  12.861  1.4900 -2.1830  0.0761
   10MPD2    H114012   0.595   3.610  12.564  0.8339  0.9293 -0.1056
   10MPD2    H214013   0.802   3.232  12.538 -0.0823 -0.9085  1.4210
   10MPD2    H314014   0.746   3.458  12.444 -2.0280  0.2772 -0.0187
   10MPD2     N14015   0.483   3.557  12.805 -0.2546 -0.0779 -0.1933
   10MPD2    H514016   0.418   3.507  12.865 -0.7691  0.6326 -0.1605
   10MPD2    N114017   0.701   3.140  12.774  0.0666 -0.3540  0.3965
   10MPD2    H714018   0.653   3.128  12.862  1.8457  0.9596  1.5450
   11MPD2     C14019   2.359   2.330  13.710 -0.0235  0.2661 -0.3360
   11MPD2    C114020   2.232   2.312  13.763  0.3752  0.3009 -0.5553
   11MPD2    C214021   2.125   2.368  13.699  0.9571 -0.0973 -0.3003
   11MPD2    C314022   2.141   2.457  13.595  0.2078  0.3031  0.1657
   11MPD2    C414023   2.268   2.470  13.536  0.7842  0.6773  0.4790
   11MPD2    C514024   2.375   2.398  13.590 -0.0423 -0.6988  0.2049
   11MPD2     H14025   2.029   2.340  13.741  0.3401  1.4200 -0.6927
   11MPD2    H114026   2.275   2.522  13.441  2.0952 -0.3582  0.0185
   11MPD2    H214027   2.445   2.272  13.740  0.0804  0.1382 -0.8817
   11MPD2    H314028   2.472   2.391  13.543 -0.6026 -0.3205 -1.0095
   11MPD2     N14029   2.038   2.542  13.550  0.5168 -0.1413  0.1062
   11MPD2    H514030   2.047   2.611  13.476 -0.1208 -0.0586  0.0993
   11MPD2    N114031   2.200   2.222  13.867 -0.0611 -0.1952 -0.3169
   11MPD2    H714032   2.105   2.198  13.895 -0.6317  0.3327 -1.8045
    1MPD1     C14033   4.287   3.821  15.674  0.2687 -0.6181  0.3544
    1MPD1    C114034   4.293   3.704  15.748 -1.0324 -0.0049  0.0042
    1MPD1    C214035   4.372   3.703  15.860  0.2312  0.4903  0.4086
    1MPD1    C314036   4.427   3.822  15.909 -0.5920 -0.6327 -0.5069
    1MPD1    C414037   4.421   3.942  15.837  0.3498  0.3687 -0.5225
    1MPD1    C514038   4.350   3.933  15.713  0.1862 -0.1825 -0.3373
    1MPD1     H14039   4.391   3.609  15.910 -0.3653  0.3674  0.4038
    1MPD1    H114040   4.465   4.036  15.868 -0.9813  0.2021  1.8257
    1MPD1    H214041   4.227   3.828  15.584 -0.8159 -0.0078  1.1088
    1MPD1    H314042   4.336   4.024  15.655  1.2909  0.1359 -0.0981
    1MPD1     N14043   4.508   3.831  16.021 -0.0227  0.2768  0.2712
    1MPD1    H514044   4.552   3.921  16.036  0.4277  0.0634  0.2204
    1MPD1    N114045   4.238   3.586  15.696  0.4526 -0.1501  0.3943
    1MPD1    H614046   4.152   3.617  15.650 -0.2703 -1.8486  0.6264
    1MPD1    H714047   4.221   3.521  15.773  1.5893  0.1363  0.8843
    2MPD1     C14048   0.051   3.293  16.915  0.4332 -1.0292  0.0986
    2MPD1    C114049   0.165   3.315  16.848  0.5342 -0.5348  0.1756
    2MPD1    C214050   0.159   3.407  16.744  0.6046 -0.3041 -0.5086
    2MPD1    C314051   0.039   3.475  16.709  0.6826  0.4090 -0.0740
    2MPD1    C414052   4.662   3.449  16.787  0.5775  0.2314  0.4483
    2MPD1    C514053   4.670   3.355  16.888  0.3402 -0.0607 -0.3018
    2MPD1     H14054   0.249   3.416  16.684  0.9609  1.9195  0.3897
    2MPD1    H114055   4.572   3.508  16.780  1.1566  0.6565 -3.1525
    2MPD1    H214056   0.056   3.214  16.989  0.3849  0.6870  1.9573
    2MPD1    H314057   4.578   3.323  16.935  0.6358  0.1184  0.3855
    2MPD1     N14058   0.034   3.559  16.599 -0.6148  0.4665  0.0801
    2MPD1    H514059   0.117   3.567  16.542 -2.2795 -1.3110 -2.5656
    2MPD1    N114060   0.270   3.218  16.853 -0.0418  0.1644  0.8758
    2MPD1    H614061   0.245   3.145  16.786  2.4657 -0.9710  1.1534
    2MPD1    H714062   0.267   3.177  16.946  4.3193  0.1627  0.9977
    3TMC3    C114063   4.681   3.702  16.443 -0.6177  0.0193  0.1717
    3TMC3    C214064   0.050   3.787  16.433  0.1432 -0.5475  0.1355
    3TMC3    C314065   0.055   3.868  16.326 -0.8482 -0.3355 -0.5476
    3TMC3    C414066   4.592   3.689  16.341 -0.6283 -0.1520 -0.3138
    3TMC3    C514067   4.602   3.767  16.233 -0.1606  0.4405  0.2943
    3TMC3    C614068   4.713   3.855  16.215 -0.4721  0.5219 -0.3435
    3TMC3     C14069   4.658   3.625  16.556 -0.5381 -0.6133  0.0904
    3TMC3     O14070   4.543   3.591  16.578  0.0885 -0.0904 -0.0848
    3TMC3     H14071   0.113   3.798  16.521 -0.1492 -1.7159  0.5025
    3TMC3    H114072   4.502   3.633  16.365 -0.3542 -0.5720 -0.2753
    3TMC3    H214073   4.731   3.910  16.123 -1.0739  0.3596 -0.5607
    3TMC3    C714074   4.516   3.732  16.113 -0.1254 -0.3989  0.0954
    3TMC3    C814075   0.169   3.957  16.311 -0.2936 -0.1019  0.6337
    3TMC3    O114076   4.446   3.634  16.127  0.0396 -0.1103 -0.4990
    3TMC3    O214077   0.272   3.921  16.357 -0.8457  0.6810  0.0388
    4MPD1     C14078   0.437   4.314  16.037  0.3633  0.3795  0.7139
    4MPD1    C114079   0.478   4.229  16.145 -0.0498 -0.5422 -0.1623
    4MPD1    C214080   0.379   4.156  16.212  0.3427 -0.1805  0.1721
    4MPD1    C314081   0.246   4.150  16.175  0.1259 -0.0705 -0.1569
    4MPD1    C414082   0.212   4.235  16.069 -0.1403  0.1671  0.5524
    4MPD1    C514083   0.305   4.315  16.010 -0.1198  0.4306  0.2719
    4MPD1     H14084   0.412   4.095  16.295  1.1646  0.2527  0.1717
    4MPD1    H114085   0.110   4.226  16.033  0.0418  0.8005 -0.1080
    4MPD1    H214086   0.501   4.380  15.981  0.3208 -0.2695 -0.1193
    4MPD1    H314087   0.282   4.376  15.923  0.2681 -0.6960 -0.6134
    4MPD1     N14088   0.145   4.064  16.229  0.3456 -0.8300 -0.8457
    4MPD1    H514089   0.049   4.070  16.198  0.1017  0.0601  0.0768
    4MPD1    N114090   0.599   4.244  16.216 -0.5029 -0.0955 -0.2949
    4MPD1    H614091   0.675   4.266  16.153 -0.7270 -1.5960 -1.0767
    4MPD1    H714092   0.626   4.159  16.265  2.5157  0.5211 -0.8865
    1TCq1    O114093   1.553   3.449  10.125 -0.2520  0.5815  0.5328
    1TCq1    C114094   1.653   3.518  10.062 -0.5531 -0.6875 -0.7271
    1TCq1    O214095   1.733   3.466   9.989 -0.0154 -0.8763 -0.2872
    1TCq1    C214096   1.627   3.658  10.041 -0.2369 -0.1564 -0.3777
    1TCq1    C314097   1.739   3.729  10.002 -0.4902 -0.4786  0.5325
    1TCq1    C414098   1.728   3.866   9.992  0.0640 -0.5638  0.2306
    1TCq1    C514099   1.607   3.923  10.020  0.2462  0.7346 -0.6362
    1TCq1    C614100   1.500   3.850  10.066 -0.7287 -1.2236  0.4475
    1TCq1    C714101   1.502   3.717  10.062  0.0521  0.1890  0.2315
    1TCq1    C814102   1.384   3.922  10.102 -1.0607 -0.8095  0.2117
    1TCq1    O414103   1.391   4.041  10.069 -0.1739  0.7534  0.7530
    1TCq1    C914104   1.849   3.949   9.997 -0.4707 -0.1620  0.1096
    1TCq1    O514105   1.955   3.900   9.950 -0.2662  0.1028 -0.4752
    1TCq1    O614106   1.849   4.041  10.085  0.0472  0.2102  0.7540
    1TCq1    H114107   1.475   3.502  10.152 -0.9864 -0.7226  0.9861
    1TCq1    H214108   1.837   3.681  10.010 -0.5949 -0.8656 -0.5352
    1TCq1    H314109   1.602   4.031  10.021 -1.2679  0.6606  0.9894
    1TCq1    H414110   1.421   3.651  10.093 -0.0475  0.8399  1.3266
    2MPD1     C14111   0.927   4.001  10.314 -0.1171 -0.2404 -0.2790
    2MPD1    C114112   0.959   3.868  10.336 -0.0151  0.2693  0.7335
    2MPD1    C214113   1.084   3.825  10.303  0.1762 -1.0601 -0.3761
    2MPD1    C314114   1.172   3.909  10.231 -1.3046 -0.4638 -0.2345
    2MPD1    C414115   1.134   4.041  10.210  0.4131 -0.5013  0.0674
    2MPD1    C514116   1.013   4.082  10.254  0.2201  0.2511 -0.7384
    2MPD1     H14117   1.116   3.727  10.334 -0.7889 -1.5228 -0.8460
    2MPD1    H114118   1.184   4.112  10.145 -1.1312  1.7918  1.3791
    2MPD1    H214119   0.831   4.042  10.344  1.5126  2.0618  1.7765
    2MPD1    H314120   0.982   4.185  10.239  0.6844  0.6474  1.0605
    2MPD1     N14121   1.284   3.848  10.179  0.1504  0.3788  0.1188
    2MPD1    H514122   1.282   3.748  10.193 -1.2568  0.6101  1.5179
    2MPD1    N114123   0.884   3.785  10.419  0.2881 -0.1088 -0.1123
    2MPD1    H614124   0.916   3.689  10.413  0.7226  0.2241 -3.1303
    2MPD1    H714125   0.784   3.799  10.404  0.4314  2.7413  1.4764
    1TMC1    C114126   3.758   4.727   0.540 -0.5586  0.3379 -0.6374
    1TMC1    C214127   3.737   4.732   0.677  0.3372  0.4007  0.1633
    1TMC1    C314128   3.644   0.078   0.739  0.7350  0.7465 -0.9006
    1TMC1    C414129   3.669   0.056   0.459 -0.9333 -0.7197  0.5410
    1TMC1    C514130   3.574   0.127   0.528  0.7702  0.3280  0.1446
    1TMC1    C614131   3.555   0.151   0.662  0.0005 -0.1753  0.1967
    1TMC1     C14132   3.885   4.661   0.489 -0.1082 -0.1816 -0.7876
    1TMC1     O14133   3.952   4.597   0.571  0.2641 -0.0254 -0.6814
    1TMC1     H14134   3.812   4.693   0.746 -0.4533  0.5605  1.1231
    1TMC1    H114135   3.661   0.043   0.352 -0.6467  0.6188  0.3473
    1TMC1    H214136   3.475   0.208   0.709  0.8181  2.0945 -1.1812
    1TMC1    C714137   3.467   0.183   0.444  0.0267 -0.4076 -0.1155
    1TMC1    C814138   3.662   0.101   0.879 -0.0396 -0.0616 -0.0509
    1TMC1    O114139   3.496   0.238   0.342  0.0239 -0.8488  0.5924
    1TMC1    O214140   3.704   0.013   0.955 -0.2348 -0.0628  0.2267
    1TMC1    O314141   3.351   0.183   0.511  0.2889 -0.0773 -0.1380
    1TMC1    H314142   3.343   0.126   0.591  1.6466  0.3201  0.2791
    1TMC1    O514143   3.607   0.217   0.910 -0.2344  0.0541 -0.1232
    1TMC1    H514144   3.601   0.270   0.828 -2.3070  0.7187  0.4600
    2MPD1     C14145   4.128   4.438   0.098 -0.5594 -0.1465  0.9371
    2MPD1    C114146   4.063   4.547   0.040  0.4100 -0.0541 -0.7513
    2MPD1    C214147   3.992   4.625   0.131  0.1320  0.1331  0.4885
    2MPD1    C314148   3.979   4.599   0.267  1.1373 -0.0482  0.3908
    2MPD1    C414149   4.045   4.493   0.309  0.3986 -0.2203 -0.4051
    2MPD1    C514150   4.123   4.414   0.234  0.2420  0.0661 -0.1896
    2MPD1     H14151   3.916   4.689   0.088 -2.5957 -3.1983  0.3142
    2MPD1    H114152   4.042   4.454   0.410 -1.5175  3.4852  1.0087
    2MPD1    H214153   4.174   4.364   0.033 -0.5032 -0.2869  1.1358
    2MPD1    H314154   4.169   4.323   0.273 -2.7174 -0.5524  1.7986
    2MPD1     N14155   3.899   4.681   0.353 -0.2888  0.2537  0.0531
    2MPD1    H514156   3.839   0.010   0.305 -0.9189  0.6205  1.3783
    2MPD1    N114157   4.044   4.556  17.652  0.2303  0.1327 -0.1693
    2MPD1    H614158   4.010   4.649  17.625 -3.7920 -1.3406 -0.2536
    2MPD1    H714159   4.132   4.537  17.605  0.7067 -0.7668  1.1145
    1MPD1     C14160   1.574   2.631  11.785  0.3128  0.4911 -0.6655
    1MPD1    C114161   1.653   2.703  11.698 -0.4673 -0.0569 -0.5716
    1MPD1    C214162   1.785   2.708  11.735 -0.5872  0.6506  0.0309
    1MPD1    C314163   1.821   2.679  11.865  0.1388 -0.0714 -0.0723
    1MPD1    C414164   1.732   2.632  11.957  0.3348  0.6536  0.1593
    1MPD1    C514165   1.605   2.604  11.914  0.5112 -0.5327 -0.3412
    1MPD1     H14166   1.854   2.759  11.669  0.3460 -1.6658 -0.7798
    1MPD1    H114167   1.762   2.643  12.061  1.0882 -1.4496  0.1456
    1MPD1    H214168   1.472   2.607  11.757  0.4842 -0.8363 -0.1758
    1MPD1    H314169   1.525   2.563  11.975  0.1662  0.9639  0.2242
    1MPD1     N14170   1.950   2.730  11.899  0.3379  0.5191 -0.0800
    1MPD1    H514171   2.019   2.733  11.825 -1.5692 -1.7618 -1.9691
    1MPD1    N114172   1.603   2.735  11.570  0.4761 -0.3312  0.0499
    1MPD1    H614173   1.511   2.777  11.578  1.8809  3.2700 -2.9984
    1MPD1    H714174   1.653   2.805  11.516  2.0611 -1.1213  0.5170
    2MPD1     C14175   1.851   4.252  10.629  0.5895 -0.1702  0.0886
    2MPD1    C114176   1.843   4.151  10.723 -0.5749  0.3367 -0.1548
    2MPD1    C214177   1.918   4.038  10.713  0.5604  0.0028  0.0647
    2MPD1    C314178   2.028   4.038  10.632 -0.1928  0.1862 -0.4106
    2MPD1    C414179   2.041   4.136  10.543 -0.2260  0.1276 -0.4792
    2MPD1    C514180   1.948   4.236  10.535  0.1049  0.2355  0.9714
    2MPD1     H14181   1.908   3.971  10.798 -1.4633  2.1662  1.5557
    2MPD1    H114182   2.122   4.136  10.471  0.3336 -1.3482  0.1314
    2MPD1    H214183   1.790   4.341  10.620 -0.4092 -0.9472 -0.7986
    2MPD1    H314184   1.949   4.310  10.456  0.6261 -1.9584 -1.0839
    2MPD1     N14185   2.116   3.934  10.615  0.3601  0.1925  0.0260
    2MPD1    H514186   2.187   3.942  10.543  1.7895 -3.4051  1.0317
    2MPD1    N114187   1.737   4.148  10.820  0.3185 -0.3044  0.0665
    2MPD1    H614188   1.757   4.084  10.896 -3.1817 -2.5557 -0.9111
    2MPD1    H714189   1.718   4.242  10.854  2.3088 -0.1427  0.6957
    3MPD1     C14190   2.586   3.741   9.881 -0.3101 -0.2914  0.2599
    3MPD1    C114191   2.611   3.832   9.984 -0.6435  0.1300 -0.6772
    3MPD1    C214192   2.540   3.816  10.103 -0.0463 -0.9689  0.1416
    3MPD1    C314193   2.464   3.705  10.128 -0.1939 -0.2493  0.0160
    3MPD1    C414194   2.445   3.616  10.029 -0.5839 -0.4370  0.5641
    3MPD1    C514195   2.511   3.629   9.911 -0.3768 -0.5594  0.7518
    3MPD1     H14196   2.534   3.894  10.179  0.2762 -1.3065  0.5111
    3MPD1    H114197   2.385   3.529  10.051 -0.2095 -1.2295 -1.4965
    3MPD1    H214198   2.632   3.735   9.783 -0.2824  0.8019  0.2005
    3MPD1    H314199   2.485   3.561   9.831 -0.9973  0.6052 -0.0361
    3MPD1     N14200   2.404   3.695  10.261  0.4708 -0.0416 -0.0200
    3MPD1    H514201   2.408   3.782  10.313 -1.2367  1.7956 -2.9107
    3MPD1    N114202   2.680   3.953   9.962  0.1291 -0.1210 -0.0015
    3MPD1    H614203   2.713   3.995  10.049  0.6416  1.8008 -1.1100
    3MPD1    H714204   2.764   3.950   9.905  0.3981 -0.2025  0.4018
    4MPD2     C14205   2.482   3.310  12.045  0.5103 -0.6085 -0.2512
    4MPD2    C114206   2.497   3.187  12.001 -0.2803  0.2386 -0.6699
    4MPD2    C214207   2.578   3.161  11.895 -0.0287  0.7237 -0.1147
    4MPD2    C314208   2.627   3.262  11.811  0.4465 -0.1152 -0.4352
    4MPD2    C414209   2.604   3.394  11.852  0.2596  0.4166 -0.0332
    4MPD2    C514210   2.540   3.415  11.967 -0.2812  0.1033  0.6037
    4MPD2     H14211   2.605   3.058  11.872  2.6635  1.6207 -1.0045
    4MPD2    H114212   2.629   3.477  11.786 -1.5896 -0.2357 -1.5492
    4MPD2    H214213   2.415   3.337  12.127  2.5743  1.6704  0.6741
    4MPD2    H314214   2.526   3.518  11.997 -0.3636  0.4686 -0.7211
    4MPD2     N14215   2.703   3.222  11.697 -0.0329 -0.5462  0.3387
    4MPD2    H514216   2.713   3.125  11.669 -2.3381 -0.2638 -1.4973
    4MPD2    N114217   2.436   3.073  12.055 -0.0043 -0.7791  0.6773
    4MPD2    H714218   2.459   2.981  12.017  1.0104  0.1368 -0.9164
    5TMC3    C114219   2.296   2.915  12.146  0.6484 -0.1206 -0.2874
    5TMC3    C214220   2.167   2.903  12.111 -0.9481  0.2200 -0.0172
    5TMC3    C314221   2.128   2.802  12.034 -0.5309  0.1722  0.8533
    5TMC3    C414222   2.387   2.826  12.101 -0.0111 -0.2534 -0.1100
    5TMC3    C514223   2.352   2.714  12.031  0.6873  0.1083 -0.6517
    5TMC3    C614224   2.220   2.705  12.004  0.6525 -0.1595  0.9396
    5TMC3     C14225   2.337   3.054  12.144  0.1446  0.1493 -0.7455
    5TMC3     O14226   2.280   3.140  12.217 -0.0869  0.0289 -0.2995
    5TMC3     H14227   2.097   2.985  12.121  0.8671  1.6673  0.7581
    5TMC3    H114228   2.490   2.851  12.123  0.3748 -0.4530 -1.7435
    5TMC3    H214229   2.181   2.624  11.944  2.1663 -2.1693  2.6736
    5TMC3    C714230   2.431   2.724  11.905 -0.1653 -0.3753  0.2004
    5TMC3    C814231   1.986   2.779  12.023 -0.5195  0.7451 -0.5193
    5TMC3    O114232   2.504   2.821  11.908  0.2059 -0.0687  0.1249
    5TMC3    O214233   1.914   2.813  12.120  0.0408  0.3716  0.2977
    6TMC3    C114234   2.208   3.718  10.630  0.0196  0.6970  0.0790
    6TMC3    C214235   2.244   3.706  10.497 -0.1625 -0.0697  0.0632
    6TMC3    C314236   2.300   3.586  10.459 -0.7486  0.1332 -0.2156
    6TMC3    C414237   2.236   3.611  10.721  0.2827  0.4475 -0.0392
    6TMC3    C514238   2.281   3.494  10.668  0.1368 -0.0857 -0.2444
    6TMC3    C614239   2.323   3.477  10.541 -0.5340 -0.2546 -0.3138
    6TMC3     C14240   2.125   3.822  10.685 -0.2964  0.0867 -1.0738
    6TMC3     O14241   2.078   3.805  10.796 -0.1946 -0.1890  0.0916
    6TMC3     H14242   2.199   3.767  10.420  2.2475  1.2956 -0.2511
    6TMC3    H114243   2.207   3.613  10.825  0.5473 -1.0643  0.0608
    6TMC3    H214244   2.384   3.397  10.501 -0.6089 -1.2218  1.4986
    6TMC3    C714245   2.345   3.411  10.763 -0.4178  0.7260  0.4310
    6TMC3    C814246   2.362   3.572  10.327 -0.0232  0.7673  0.5474
    6TMC3    O114247   2.348   3.447  10.881  0.8355  1.3504 -0.1025
    6TMC3    O214248   2.382   3.464  10.277 -0.0519 -0.6189 -0.0842
    7MPD2     C14249   2.670   2.544  11.478 -0.1684 -0.1321 -0.1904
    7MPD2    C114250   2.669   2.669  11.539 -0.2485  0.0652  0.4253
    7MPD2    C214251   2.597   2.686  11.664 -0.6501 -0.9525  0.4298
    7MPD2    C314252   2.518   2.589  11.719  0.2800  0.0874 -1.6264
    7MPD2    C414253   2.533   2.461  11.659  0.7469 -0.6093  0.3980
    7MPD2    C514254   2.617   2.441  11.553 -0.0333  0.2016 -0.2343
    7MPD2     H14255   2.597   2.782  11.713 -0.8680 -0.2367 -0.9671
    7MPD2    H114256   2.497   2.370  11.706 -1.0082 -0.5069 -0.7661
    7MPD2    H214257   2.721   2.531  11.383 -0.0193  0.3409 -0.1755
    7MPD2    H314258   2.632   2.345  11.506 -1.3141  0.0342 -0.2860
    7MPD2     N14259   2.436   2.608  11.835 -0.2838 -0.0975 -0.7477
    7MPD2    H514260   2.376   2.529  11.857  0.4393 -0.5789 -0.5095
    7MPD2    N114261   2.735   2.771  11.468 -0.1477  0.6601  0.6582
    7MPD2    H714262   2.751   2.758  11.368 -0.3433  2.1502  0.4321
    8TMC3    C114263   2.815   3.007  11.444 -0.1707  0.0517 -0.2207
    8TMC3    C214264   2.749   3.034  11.331 -0.9320  0.2591 -0.6074
    8TMC3    C314265   2.723   3.161  11.298  0.4417  0.8092  0.2753
    8TMC3    C414266   2.851   3.110  11.527 -0.3435  0.0149  0.6371
    8TMC3    C514267   2.825   3.236  11.490  0.2737  0.7122 -1.0037
    8TMC3    C614268   2.761   3.270  11.373  0.4304 -0.2462 -0.0379
    8TMC3     C14269   2.772   2.894  11.527 -0.2555  0.2847 -0.1864
    8TMC3     O14270   2.763   2.925  11.645  0.1337  0.0927 -0.3640
    8TMC3     H14271   2.688   2.956  11.287  2.0001  0.2658 -4.7186
    8TMC3    H114272   2.914   3.088  11.613  0.8815 -0.1550 -0.3054
    8TMC3    H214273   2.727   3.371  11.354 -0.0307 -0.1527  1.3330
    8TMC3    C714274   2.764   3.312  11.606 -0.2966  0.4309  0.5185
    8TMC3    C814275   2.648   3.190  11.176 -0.5740  0.5583 -0.1560
    8TMC3    O114276   2.763   3.433  11.597 -0.5080 -0.0580  0.7580
    8TMC3    O214277   2.640   3.310  11.141 -0.2360 -0.3501  0.4092
    9MPD2     C14278   2.558   2.969  10.908  0.4337 -0.7400 -0.1929
    9MPD2    C114279   2.559   3.088  10.973 -0.0619  0.4595  0.0557
    9MPD2    C214280   2.488   3.197  10.919 -0.2542  0.5155  0.3011
    9MPD2    C314281   2.429   3.184  10.792  0.7701 -0.2884 -0.8291
    9MPD2    C414282   2.431   3.065  10.737  0.3506  0.3295 -0.0550
    9MPD2    C514283   2.490   2.952  10.788 -0.6206 -0.3288 -0.1317
    9MPD2     H14284   2.490   3.296  10.962  1.2205  1.4545 -1.8803
    9MPD2    H114285   2.394   3.048  10.636  0.2646  1.4172 -0.2068
    9MPD2    H214286   2.610   2.890  10.960  1.3315  0.8394  1.3043
    9MPD2    H314287   2.487   2.852  10.745  0.4627 -1.1716  1.7830
    9MPD2     N14288   2.363   3.286  10.720 -0.2887 -0.3010  0.0052
    9MPD2    H514289   2.322   3.272  10.628 -1.4524 -1.2545  0.6832
    9MPD2    N114290   2.625   3.079  11.097 -0.1971  0.0620  0.1593
    9MPD2    H714291   2.647   2.986  11.132  1.1584 -0.1367 -1.2167
    1MPD1     C14292   2.717   2.843  16.662  0.7049  0.0850 -0.0068
    1MPD1    C114293   2.747   2.831  16.527 -0.1308 -0.3194  0.1903
    1MPD1    C214294   2.757   2.708  16.459  0.0848 -0.2692  0.5037
    1MPD1    C314295   2.758   2.595  16.533 -0.8601 -0.9186 -0.5232
    1MPD1    C414296   2.723   2.600  16.666  0.1857 -0.4319 -0.4925
    1MPD1    C514297   2.705   2.722  16.735  0.2786  0.8791  0.2144
    1MPD1     H14298   2.761   2.705  16.351 -0.0491  0.6785  0.4763
    1MPD1    H114299   2.713   2.509  16.724  2.2307 -0.3588 -0.0079
    1MPD1    H214300   2.710   2.941  16.707  0.1509 -0.2140  0.5589
    1MPD1    H314301   2.692   2.713  16.842  1.3193  0.0204  0.2708
    1MPD1     N14302   2.762   2.472  16.473 -0.3894 -0.6018  0.6650
    1MPD1    H514303   2.714   2.407  16.534  0.4944 -1.4240  0.4945
    1MPD1    N114304   2.777   2.945  16.450  0.4824  0.6634 -0.1292
    1MPD1    H614305   2.837   2.937  16.369  0.4005  1.6569 -0.2933
    1MPD1    H714306   2.782   3.028  16.509  2.8149  1.0387 -0.8649
    2TMC2    C114307   2.676   2.208  16.104 -0.1376 -0.0726  0.1422
    2TMC2    C214308   2.644   2.104  16.183 -0.2138 -0.3394  0.5202
    2TMC2    C314309   2.656   2.115  16.316  0.1777 -0.2944 -0.3217
    2TMC2    C414310   2.729   2.320  16.160 -0.3113 -0.2819 -0.8473
    2TMC2    C514311   2.747   2.326  16.295 -0.2419  0.0014  0.3110
    2TMC2    C614312   2.715   2.225  16.375 -0.4362 -0.0720 -0.1007
    2TMC2     C14313   2.655   2.190  15.959 -0.4624 -0.7401  0.6854
    2TMC2     O14314   2.646   2.074  15.920 -0.0011  0.0649 -0.0716
    2TMC2     H14315   2.610   2.010  16.142  1.5351 -0.4205 -0.7676
    2TMC2    H114316   2.773   2.401  16.104  0.0630  0.8416  1.0850
    2TMC2    H214317   2.711   2.222  16.484  1.3024  0.8027 -0.0101
    2TMC2    C714318   2.814   2.438  16.352  1.1919 -0.1425  0.0565
    2TMC2    C814319   2.596   2.013  16.387  0.7000 -0.3698  0.3414
    2TMC2    O114320   2.877   2.508  16.275  0.6672 -0.2884  0.0197
    2TMC2    O214321   2.641   1.963  16.489 -0.2166 -0.1594  0.1460
    2TMC2    O514322   2.476   1.996  16.327 -0.1818  0.0454 -0.4150
    2TMC2    H514323   2.454   2.070  16.267 -0.5262 -0.2429 -0.6411
    3MPD1     C14324   2.513   2.367  15.499  1.0119  0.4510 -0.0387
    3MPD1    C114325   2.525   2.474  15.586  0.1860 -0.0727  0.8154
    3MPD1    C214326   2.556   2.452  15.717  0.0909 -0.1733 -0.5247
    3MPD1    C314327   2.584   2.328  15.764  0.0895  0.4567  0.2757
    3MPD1    C414328   2.575   2.222  15.679 -0.3749 -0.0703 -0.1016
    3MPD1    C514329   2.542   2.241  15.546 -0.3062  1.2359 -0.5463
    3MPD1     H14330   2.565   2.540  15.779  1.6346 -1.6217  1.3322
    3MPD1    H114331   2.596   2.118  15.703 -0.4984  0.3609  1.8822
    3MPD1    H214332   2.487   2.385  15.395  1.6955  0.1111 -0.2681
    3MPD1    H314333   2.525   2.157  15.480  2.3149  1.0250 -0.9629
    3MPD1     N14334   2.628   2.311  15.898  0.1426  0.1490 -0.6951
    3MPD1    H514335   2.637   2.401  15.946  0.0676  0.5033 -1.3448
    3MPD1    N114336   2.508   2.604  15.538 -0.1283  0.5727  0.1653
    3MPD1    H614337   2.490   2.601  15.438  0.0945  1.0921  0.1088
    3MPD1    H714338   2.587   2.665  15.560  1.7362 -1.4427 -0.8549
    1TMC1    C114339   0.646   1.265  11.326  0.0012  0.9269  0.2517
    1TMC1    C214340   0.677   1.216  11.453  0.3672  0.4207  0.4014
    1TMC1    C314341   0.744   1.092  11.451 -0.0197  0.3830 -0.2569
    1TMC1    C414342   0.676   1.207  11.205 -0.1699  0.0861  0.2162
    1TMC1    C514343   0.729   1.080  11.217  0.5865 -0.4200  0.6365
    1TMC1    C614344   0.762   1.022  11.334 -0.2123 -0.5180  0.5165
    1TMC1     C14345   0.585   1.400  11.323  0.3480 -0.1412 -0.3494
    1TMC1     O14346   0.577   1.460  11.213 -0.1862 -0.2310 -0.2110
    1TMC1     H14347   0.675   1.271  11.546  2.0097 -0.7407  1.1263
    1TMC1    H114348   0.653   1.246  11.107 -1.3476  1.1012  0.9075
    1TMC1    H214349   0.804   0.922  11.331 -0.8204 -0.7296 -1.0236
    1TMC1    C714350   0.722   1.005  11.096  0.0000  0.5762 -0.0643
    1TMC1    C814351   0.728   1.000  11.554  0.0573  0.4793  0.2012
    1TMC1    O114352   0.706   1.061  10.985  0.4057  0.4665 -1.0374
    1TMC1    O214353   0.641   1.013  11.644  0.4204  0.2553  0.3637
    1TMC1    O314354   0.637   0.900  11.126  0.1504 -0.2984 -0.0106
    1TMC1    H314355   0.639   0.888  11.223  0.0620 -2.2942 -0.2589
    1TMC1    O514356   0.842   0.923  11.565 -0.3214  0.5253 -0.7748
    1TMC1    H514357   0.893   0.943  11.483  0.9911 -0.0425 -0.1045
    2MPD2     C14358   0.475   1.678  11.370 -0.2036  0.1113  0.3428
    2MPD2    C114359   0.474   1.576  11.465  0.0639 -0.6790 -0.0746
    2MPD2    C214360   0.420   1.611  11.587  0.3294 -0.0365  0.3784
    2MPD2    C314361   0.353   1.731  11.606 -0.1124  0.2112  0.0121
    2MPD2    C414362   0.354   1.825  11.507 -0.6297  0.3136  0.2554
    2MPD2    C514363   0.416   1.797  11.384 -0.2782 -0.2100 -0.1406
    2MPD2     H14364   0.442   1.544  11.670 -0.8633 -0.3709  0.4266
    2MPD2    H114365   0.306   1.922  11.513 -2.2755 -0.3760 -2.1457
    2MPD2    H214366   0.516   1.666  11.271 -0.9013  0.8637 -0.0300
    2MPD2    H314367   0.410   1.870  11.304  0.4290  0.6601  0.5957
    2MPD2     N14368   0.306   1.755  11.734 -0.1635  0.5845  0.0964
    2MPD2    H514369   0.318   1.682  11.803 -3.9170 -0.1271 -0.0081
    2MPD2    N114370   0.539   1.444  11.447 -0.2244  1.0771 -0.1189
    2MPD2    H714371   0.515   1.374  11.516  1.9942  0.1023 -0.3460
    3TCq1    O114372   4.450   1.961  11.988 -0.5634  0.2453 -0.1707
    3TCq1    C114373   4.577   1.995  12.011 -0.2007  0.0748  0.3140
    3TCq1    O214374   4.614   2.106  12.052 -0.2632 -0.0223 -0.7964
    3TCq1    C214375   4.662   1.891  11.967 -0.0358  0.2714 -0.1099
    3TCq1    C314376   4.623   1.766  11.995 -0.0519  1.1003  0.2001
    3TCq1    C414377   4.705   1.668  11.957  0.0887  0.1166 -0.0528
    3TCq1    C514378   0.087   1.695  11.894  0.3327 -0.3033  0.7199
    3TCq1    C614379   0.131   1.826  11.884 -0.1339 -0.3140 -0.7164
    3TCq1    C714380   0.050   1.927  11.928  0.2861 -1.3552 -0.1553
    3TCq1    C814381   0.225   1.858  11.771  0.3604 -1.2854  0.3465
    3TCq1    O414382   0.194   1.953  11.703 -0.3186 -0.5518  0.1459
    3TCq1    C914383   4.664   1.532  11.964 -0.1012 -0.1614 -0.3985
    3TCq1    O514384   4.563   1.511  12.032  0.2417 -0.5025  0.0333
    3TCq1    O614385   0.010   1.445  11.928 -0.5820  0.0506 -0.9141
    3TCq1    H114386   4.431   1.877  11.941  2.7852 -0.9541  0.6492
    3TCq1    H214387   4.528   1.742  12.042  0.2688 -2.5096 -0.9483
    3TCq1    H314388   0.151   1.611  11.867 -0.0729 -0.2429 -0.4127
    3TCq1    H414389   0.077   2.031  11.913 -0.2901 -1.1146  0.5146
    1MPD2     C14390   4.339   2.346  15.246  0.2818 -0.5966  0.0574
    1MPD2    C114391   4.376   2.318  15.117  0.6661 -1.0014  0.2104
    1MPD2    C214392   4.509   2.303  15.093  0.8736  0.3870  0.1743
    1MPD2    C314393   4.602   2.301  15.203 -0.5439  0.3739  0.1160
    1MPD2    C414394   4.559   2.322  15.331 -0.0098  0.3032  0.4929
    1MPD2    C514395   4.430   2.339  15.351  0.8034 -0.2706  0.5005
    1MPD2     H14396   4.551   2.281  14.995  1.2401  2.6702 -0.1809
    1MPD2    H114397   4.615   2.334  15.422 -1.2081  0.0710  1.2607
    1MPD2    H214398   4.237   2.382  15.260  1.1125  0.4070  3.5292
    1MPD2    H314399   4.405   2.358  15.454 -0.0675 -0.3333  0.3051
    1MPD2     N14400   0.005   2.295  15.180 -0.4052 -0.6375 -0.3104
    1MPD2    H514401   0.028   2.312  15.082 -0.8254 -2.0636 -0.6474
    1MPD2    N114402   4.275   2.303  15.022  0.0865 -0.3570  0.1630
    1MPD2    H714403   4.179   2.328  15.045  0.2389  1.8076 -1.5359
    2TMC3    C114404   4.181   2.289  14.801  0.5609  0.4835  0.0441
    2TMC3    C214405   4.212   2.214  14.693  0.1139  0.0976 -0.0220
    2TMC3    C314406   4.227   2.262  14.566 -0.6039  0.1726 -0.3463
    2TMC3    C414407   4.146   2.420  14.779  0.8464  0.1504  0.2166
    2TMC3    C514408   4.168   2.475  14.659  0.0682  0.3524  0.2344
    2TMC3    C614409   4.203   2.403  14.551  0.1446  0.8156 -0.3888
    2TMC3     C14410   4.292   2.270  14.892  0.5862  0.2656 -0.4466
    2TMC3     O14411   4.392   2.231  14.839  0.0975 -0.2458 -0.2145
    2TMC3     H14412   4.243   2.110  14.703 -1.2835 -0.2847  0.2386
    2TMC3    H114413   4.125   2.484  14.863 -0.2678  0.3974 -0.2569
    2TMC3    H214414   4.212   2.459  14.458 -0.3185  1.1487 -0.2358
    2TMC3    C714415   4.106   2.608  14.641  0.3610  0.9242 -0.1716
    2TMC3    C814416   4.344   2.229  14.491  0.0276 -0.1249  0.3869
    2TMC3    O114417   4.000   2.625  14.698  0.0101 -0.0656 -0.2313
    2TMC3    O214418   4.345   2.245  14.368 -0.1110 -0.3495  0.1552
    3TCq1    O114419   4.289   3.315  13.591 -0.4192  0.1056  0.1208
    3TCq1    C114420   4.205   3.245  13.666 -0.6231 -0.1792  0.6728
    3TCq1    O214421   4.083   3.237  13.655  0.6398  0.1500 -0.6678
    3TCq1    C214422   4.272   3.224  13.792 -0.0810  0.0184  0.3357
    3TCq1    C314423   4.349   3.319  13.854  1.0023  0.4399 -0.2265
    3TCq1    C414424   4.374   3.297  13.986 -0.1487  0.4517  0.2742
    3TCq1    C514425   4.317   3.194  14.045  0.3136  0.4926  0.6529
    3TCq1    C614426   4.235   3.101  13.986  0.2601  0.2448  0.3134
    3TCq1    C714427   4.210   3.113  13.854  0.1088  0.7472 -0.4368
    3TCq1    C814428   4.131   3.024  14.065  0.1686  0.0792  0.3214
    3TCq1    O414429   4.018   3.013  14.021  0.0321  0.4855 -0.3952
    3TCq1    C914430   4.455   3.395  14.059 -0.2208 -0.7165 -0.7224
    3TCq1    O514431   4.472   3.372  14.183  0.3251 -0.2543  0.4496
    3TCq1    O614432   4.501   3.495  13.995  0.3324  0.2886  0.2446
    3TCq1    H114433   4.374   3.336  13.636 -0.0604  0.1528 -0.5742
    3TCq1    H214434   4.369   3.418  13.813  1.0339  0.3329 -0.4719
    3TCq1    H314435   4.335   3.203  14.152 -0.2956 -0.6295  0.8482
    3TCq1    H414436   4.165   3.030  13.801 -0.2534  0.1805  0.7672
    4MPD2     C14437   3.992   2.975  14.306  0.2888 -0.2427 -0.0349
    4MPD2    C114438   4.122   2.926  14.281  0.3779  1.5037 -0.2125
    4MPD2    C214439   4.178   2.835  14.370  0.4760  0.6357  0.4633
    4MPD2    C314440   4.104   2.783  14.466 -0.2530 -1.3244  0.2068
    4MPD2    C414441   3.970   2.815  14.477 -0.6788 -0.1648  0.3229
    4MPD2    C514442   3.918   2.907  14.399 -0.4466  0.1087 -0.0017
    4MPD2     H14443   4.280   2.800  14.357  0.6819  1.3250  0.2463
    4MPD2    H114444   3.906   2.777  14.556 -1.1411 -0.7713 -0.3378
    4MPD2    H214445   3.951   3.062  14.256 -1.4669 -1.4392 -0.6607
    4MPD2    H314446   3.821   2.947  14.427 -1.4677 -1.5668 -1.1289
    4MPD2     N14447   4.175   2.685  14.554 -0.5398 -0.8175 -0.6611
    4MPD2    H514448   4.271   2.660  14.531 -0.4786  0.8619 -2.2503
    4MPD2    N114449   4.195   2.970  14.173  0.6791  0.3095  0.4830
    4MPD2    H714450   4.295   2.955  14.174  0.7467  0.6639 -0.9496
    5TMC2    C114451   0.235   2.263  14.963  0.1466  0.7309 -0.5658
    5TMC2    C214452   0.310   2.151  14.962  0.5836  0.4614  0.0784
    5TMC2    C314453   0.336   2.096  15.084 -0.5882 -0.7926  0.1658
    5TMC2    C414454   0.207   2.328  15.076 -0.1038 -0.1636 -0.1077
    5TMC2    C514455   0.231   2.271  15.203  1.0470  0.3193  0.3896
    5TMC2    C614456   0.288   2.149  15.201  0.5271 -0.0196 -1.3152
    5TMC2     C14457   0.133   2.264  14.864  0.3250  0.2335 -0.4183
    5TMC2     O14458   0.040   2.341  14.889  0.4597 -0.6852 -0.4137
    5TMC2     H14459   0.347   2.109  14.869  1.7141  3.0081 -0.6111
    5TMC2    H114460   0.166   2.428  15.072 -1.6261 -0.8005 -0.4578
    5TMC2    H214461   0.277   2.083  15.287 -2.4884  1.7948 -0.3220
    5TMC2    C714462   0.105   2.266  15.269 -0.3108 -0.1411  0.6867
    5TMC2    C814463   0.432   1.991  15.081  0.5775 -0.5425  1.2089
    5TMC2    O114464   0.103   2.212  15.379 -0.2342 -0.1058 -0.0360
    5TMC2    O214465   0.458   1.920  14.986 -0.0404 -0.2539  0.0892
    5TMC2    O514466   0.500   2.003  15.201 -0.0975  0.4268 -0.1160
    5TMC2    H514467   0.458   2.065  15.264 -2.6187 -0.9713 -0.4191
    6MPD2     C14468   4.628   2.142  14.428  0.4435 -0.4665  0.4237
    6MPD2    C114469   4.579   2.190  14.548  0.1257 -0.5930  0.2892
    6MPD2    C214470   4.662   2.212  14.655 -0.6281 -0.3095 -0.1796
    6MPD2    C314471   0.058   2.182  14.655  0.4600  0.0108  0.7050
    6MPD2    C414472   0.106   2.128  14.533 -0.7345 -0.2882 -0.3208
    6MPD2    C514473   0.024   2.114  14.425 -0.6962 -0.6017 -0.5031
    6MPD2     H14474   4.612   2.256  14.741 -1.4902  1.5910 -1.6579
    6MPD2    H114475   0.209   2.097  14.522 -0.6072  0.1166 -0.2448
    6MPD2    H214476   4.567   2.119  14.341  0.6119 -1.8890  0.6789
    6MPD2    H314477   0.054   2.064  14.334  0.0267  0.0823 -0.6491
    6MPD2     N14478   0.152   2.182  14.761  0.1597 -0.2224 -0.2098
    6MPD2    H514479   0.247   2.147  14.751  0.5491  0.6524  0.5190
    6MPD2    N114480   4.446   2.205  14.576  0.3387 -0.3286  0.0817
    6MPD2    H714481   4.422   2.221  14.673 -2.3407  1.0072 -0.8205
  945NH4     N114482   1.483   4.222  16.937 -0.0584 -0.1778 -0.3543
  945NH4     H214483   1.465   4.150  17.010  0.0093  1.9803  1.8109
  945NH4     H314484   1.434   4.312  16.951 -1.5563 -0.7747 -1.7735
  945NH4     H414485   1.447   4.182  16.849  0.6895  0.3802 -0.9145
  945NH4     H514486   1.582   4.247  16.917 -0.4527  1.9136  0.2489
  946SOD     NA14487   3.213   1.240  12.696  0.0939 -0.0114  0.0083
  947SOD     NA14488   0.244   3.080  14.878 -0.0799  0.2434  0.2312
  948SOD     NA14489   4.459   4.260   5.993  0.0161 -0.0985 -0.2547
  949SOD     NA14490   1.082   2.692  13.582 -0.2562 -0.6226 -0.0532
  950SOD     NA14491   0.018   3.975  10.188 -0.3536  0.3227  0.0511
  951SOD     NA14492   4.392   1.454  16.270 -0.4335 -0.0697  0.0054
  952SOD     NA14493   0.353   4.154  12.107  0.1879 -0.1368 -0.6614
  953SOL     OW14494   0.268   2.903  11.418 -0.0284 -0.4660 -0.2337
  953SOL    HW114495   0.264   2.922  11.324  1.1762  1.9169  0.1949
  953SOL    HW214496   0.195   2.842  11.427 -1.1583  0.9059 -0.1802
  954SOL     OW14497   2.150   2.543   0.013  0.4634 -0.2319  0.2590
  954SOL    HW114498   2.224   2.512  17.712  0.0523  0.2049 -0.6033
  954SOL    HW214499   2.178   2.617   0.067 -2.3938 -0.2498  1.7831
  955SOL     OW14500   0.565   0.136   1.582 -0.1601 -0.0929 -1.0316
  955SOL    HW114501   0.553   0.194   1.657  2.6932 -1.8184  0.7715
  955SOL    HW214502   0.477   0.118   1.549 -0.9718 -0.6087  1.3775
  956SOL     OW14503   2.703   3.614  14.542 -0.1552 -0.3425 -0.5543
  956SOL    HW114504   2.612   3.630  14.564  0.1374  0.5160  0.0204
  956SOL    HW214505   2.714   3.519  14.546  1.0825 -0.1207  1.1670
  957SOL     OW14506   1.447   2.238  16.695  0.2673 -0.0002 -0.0961
  957SOL    HW114507   1.470   2.258  16.604 -0.4025  0.9067 -0.0713
  957SOL    HW214508   1.522   2.273  16.744  0.1657  1.0950 -0.7033
  958SOL     OW14509   4.067   2.930   5.182 -0.5480  0.2005 -0.0740
  958SOL    HW114510   3.976   2.959   5.179 -0.6471 -0.0823  0.1639
  958SOL    HW214511   4.095   2.994   5.247 -1.1866  0.1141  0.2811
  959SOL     OW14512   3.707   0.115   1.334 -0.3165  0.2392 -0.1778
  959SOL    HW114513   3.699   0.210   1.322  0.4067  0.1115 -1.6562
  959SOL    HW214514   3.618   0.090   1.357  0.4621  0.0914  2.6239
  960SOL     OW14515   4.674   4.608   6.559  0.6399 -0.4004  0.5454
  960SOL    HW114516   4.632   4.555   6.627 -1.6422  1.0045  0.2286
  960SOL    HW214517   0.016   4.556   6.546  1.5251  0.9093  0.7468
  961SOL     OW14518   2.816   3.642  10.958  0.3340 -0.1660 -0.2900
  961SOL    HW114519   2.843   3.617  11.046 -0.9981  2.0858  0.7577
  961SOL    HW214520   2.760   3.567  10.936 -1.6253  1.2804 -0.2374
  962SOL     OW14521   1.106   0.946   7.208  0.0974  0.3423 -0.0506
  962SOL    HW114522   1.185   0.894   7.224 -0.0404  0.4608  0.9935
  962SOL    HW214523   1.149   1.029   7.185  0.4862 -0.3344 -1.7798
  963SOL     OW14524   4.352   3.378  15.012 -0.1042  0.2963  0.4867
  963SOL    HW114525   4.389   3.355  15.098  0.7128 -1.6684 -0.3941
  963SOL    HW214526   4.288   3.307  15.003  0.2916 -0.0913  0.6622
  964SOL     OW14527   1.793   2.240   8.789 -0.5648  0.9480 -0.0055
  964SOL    HW114528   1.806   2.147   8.771 -1.0055  1.1534 -1.3644
  964SOL    HW214529   1.734   2.280   8.725  1.2928  1.3128 -1.4651
  965SOL     OW14530   0.766   3.580   9.205  0.0435 -0.2774 -0.2480
  965SOL    HW114531   0.851   3.621   9.188 -0.0965 -0.2238 -0.7988
  965SOL    HW214532   0.709   3.640   9.156 -0.8681 -1.4061 -0.5535
  966SOL     OW14533   1.387   2.487   5.393  0.2628  0.5060  0.0808
  966SOL    HW114534   1.414   2.561   5.446  1.2106  2.4477 -3.1095
  966SOL    HW214535   1.308   2.469   5.445  0.9975 -3.0263 -0.0294
  967SOL     OW14536   4.155   2.082  14.157 -0.2547  0.1396  0.0796
  967SOL    HW114537   4.231   2.065  14.212 -0.0674 -0.7423 -0.4652
  967SOL    HW214538   4.080   2.073  14.216  0.2135 -2.5155  0.2341
  968SOL     OW14539   1.556   0.559   3.221 -0.4993  0.7596 -0.1768
  968SOL    HW114540   1.640   0.589   3.185  0.2595 -1.5721 -0.3554
  968SOL    HW214541   1.543   0.479   3.170  0.3544 -0.0624  0.8829
  969SOL     OW14542   3.769   4.188  15.768 -0.3797  0.6631 -0.2063
  969SOL    HW114543   3.770   4.253  15.698  0.1626  1.4003  0.4894
  969SOL    HW214544   3.702   4.128  15.734 -1.5513  1.5895  0.4645
  970SOL     OW14545   3.020   1.512  16.102 -0.1453 -0.1907  0.5175
  970SOL    HW114546   3.003   1.498  16.195 -0.8177 -0.6111  0.3323
  970SOL    HW214547   3.085   1.582  16.097 -0.0395 -0.2032  1.5557
  971SOL     OW14548   1.381   1.088   8.574 -0.0806 -0.0059 -0.5730
  971SOL    HW114549   1.385   1.183   8.562  0.6820 -0.3079 -2.6647
  971SOL    HW214550   1.396   1.050   8.488 -1.7113 -0.0106 -0.8560
  972SOL     OW14551   0.748   4.542   6.734  0.0164 -0.9553 -0.2465
  972SOL    HW114552   0.720   4.489   6.808 -0.0341  1.7701  1.6654
  972SOL    HW214553   0.835   4.507   6.720 -0.0587 -0.8069 -1.1051
  973SOL     OW14554   4.350   0.185   8.247 -0.0792 -0.1836  0.3283
  973SOL    HW114555   4.257   0.176   8.227  0.3714 -1.8420 -1.0842
  973SOL    HW214556   4.345   0.244   8.322  2.2830 -1.3384  1.3911
  974SOL     OW14557   0.146   3.749   3.954  0.4883 -0.4488  0.0751
  974SOL    HW114558   0.117   3.704   3.875 -0.3704  0.7631 -0.3043
  974SOL    HW214559   0.160   3.669   4.004 -1.3387 -0.2621  0.8874
  975SOL     OW14560   1.979   2.951   3.777 -0.2007 -0.2944 -0.2361
  975SOL    HW114561   2.025   2.985   3.854 -1.5629 -1.3854  1.0604
  975SOL    HW214562   2.046   2.922   3.715 -1.8488  0.1601 -2.2398
  976SOL     OW14563   1.835   2.555   2.502  0.1920 -0.4360 -0.5397
  976SOL    HW114564   1.787   2.490   2.452 -1.1105  0.6022 -0.6262
  976SOL    HW214565   1.768   2.614   2.536 -0.7163 -3.1370  2.3879
  977SOL     OW14566   4.327   3.921   6.451  0.2254  0.3359  0.4327
  977SOL    HW114567   4.393   3.924   6.382 -0.0073 -0.1087  0.1832
  977SOL    HW214568   4.294   4.010   6.455 -0.3829  0.0033  3.0323
  978SOL     OW14569   0.251   4.269   6.095 -0.3776  0.1193  0.2308
  978SOL    HW114570   0.298   4.340   6.051 -2.6710 -0.6642 -3.4465
  978SOL    HW214571   0.300   4.240   6.172 -0.0576 -1.2519 -0.4878
  979SOL     OW14572   0.625   2.159   2.859 -0.2053 -0.3036  0.1100
  979SOL    HW114573   0.596   2.090   2.919 -0.5679 -0.4166 -0.1922
  979SOL    HW214574   0.682   2.212   2.915  0.1058 -0.4010 -0.1164
  980SOL     OW14575   1.105   2.998   1.375 -0.2135  0.1231 -0.8167
  980SOL    HW114576   1.118   3.086   1.409 -1.6584 -0.0067  0.0807
  980SOL    HW214577   1.162   2.998   1.298  0.5145 -0.5746 -0.2877
  981SOL     OW14578   2.593   1.792   6.488 -0.1321  0.0071  0.0815
  981SOL    HW114579   2.612   1.772   6.580 -1.3017 -0.9787  0.1232
  981SOL    HW214580   2.498   1.806   6.490 -0.3350 -1.2023 -1.2349
  982SOL     OW14581   3.848   1.557   2.249  0.6107 -0.1439  0.3456
  982SOL    HW114582   3.943   1.556   2.261  0.8520  0.3139 -1.5164
  982SOL    HW214583   3.832   1.465   2.226  2.5313 -0.3556 -0.1923
  983SOL     OW14584   1.803   4.177   8.951  0.6891 -0.3984  0.2901
  983SOL    HW114585   1.784   4.146   9.040  2.9034 -0.2591  0.8127
  983SOL    HW214586   1.877   4.231   8.981 -1.0121  1.1867  1.6481
  984SOL     OW14587   2.283   1.908  14.519 -0.8133 -0.1945 -0.2131
  984SOL    HW114588   2.338   1.966  14.571 -1.5338 -1.0671  1.5362
  984SOL    HW214589   2.248   1.849  14.585 -1.0917 -1.3278 -1.3795
  985SOL     OW14590   0.961   1.774   7.476  0.1086  0.4364  0.2659
  985SOL    HW114591   0.919   1.713   7.537  1.8629 -1.3992 -0.4024
  985SOL    HW214592   0.983   1.847   7.535  1.4122  0.8308 -0.7211
  986SOL     OW14593   4.283   4.337   3.061  0.0318 -0.5176  0.2161
  986SOL    HW114594   4.333   4.384   3.128 -0.4814 -0.6122  0.6633
  986SOL    HW214595   4.255   4.412   3.009 -0.3909 -1.3599 -0.7665
  987SOL     OW14596   0.710   3.750   5.573 -0.3800  0.0689 -0.4281
  987SOL    HW114597   0.765   3.727   5.648  1.6874  1.4619 -1.5084
  987SOL    HW214598   0.778   3.795   5.523  0.4064  0.8180  1.3232
  988SOL     OW14599   1.938   1.473   7.342  0.2656  0.3504  0.5366
  988SOL    HW114600   1.954   1.562   7.311 -0.1130 -0.2357 -1.3408
  988SOL    HW214601   1.962   1.488   7.434  0.5010  0.5837  0.4356
  989SOL     OW14602   2.378   1.644   8.265  0.0870  0.7016 -0.1713
  989SOL    HW114603   2.416   1.728   8.241 -0.5685  1.4425  1.4088
  989SOL    HW214604   2.439   1.573   8.246 -0.1328 -0.0808  1.9991
  990SOL     OW14605   0.273   3.567   3.544 -0.2812 -0.4312  0.2670
  990SOL    HW114606   0.226   3.589   3.464  2.4150  1.8883 -0.6518
  990SOL    HW214607   0.321   3.648   3.562 -1.8433  0.6598 -0.4913
  991SOL     OW14608   1.344   1.650  17.504 -0.2928 -0.4058  0.1713
  991SOL    HW114609   1.403   1.577  17.488 -0.5906 -0.3210 -1.2835
  991SOL    HW214610   1.391   1.717  17.555 -0.1067  1.9649 -3.1329
  992SOL     OW14611   0.529   0.210  13.946 -0.3280  0.0424  0.1385
  992SOL    HW114612   0.501   0.211  14.038 -1.4860 -0.3541 -0.2086
  992SOL    HW214613   0.554   0.302  13.941  1.4600 -0.4493  0.2663
  993SOL     OW14614   3.305   2.976   8.164  0.5316 -0.0602  0.3571
  993SOL    HW114615   3.285   3.035   8.236  0.7574 -0.8258  1.0477
  993SOL    HW214616   3.383   2.929   8.195  0.2079  0.0930  1.4142
  994SOL     OW14617   1.670   0.312  14.497  0.3060  0.3698 -0.4425
  994SOL    HW114618   1.616   0.306  14.576 -1.3528  2.6859 -1.3824
  994SOL    HW214619   1.604   0.272  14.440 -1.9363  1.0658  1.6953
  995SOL     OW14620   2.899   0.511  10.394 -0.0511  0.1377  0.1241
  995SOL    HW114621   2.824   0.451  10.388  0.6667 -0.5401 -2.0416
  995SOL    HW214622   2.968   0.444  10.396  0.0350  0.2077 -0.4321
  996SOL     OW14623   1.811   0.132   8.461 -0.1928 -0.4726  0.2327
  996SOL    HW114624   1.724   0.102   8.485 -0.9124  1.5285  0.1427
  996SOL    HW214625   1.800   0.223   8.431 -0.5265 -0.9466 -1.0791
  997SOL     OW14626   1.068   0.181   2.917 -0.2906  0.0887  0.1211
  997SOL    HW114627   1.009   0.180   2.993  1.5188  1.4392  1.5461
  997SOL    HW214628   1.119   0.262   2.924  1.3032 -0.9490  0.4539
  998SOL     OW14629   2.771   1.025   5.690 -0.6290 -0.1545 -0.3066
  998SOL    HW114630   2.788   0.989   5.777  2.3614  1.3067 -0.2805
  998SOL    HW214631   2.787   0.963   5.618 -0.8973 -0.0989 -0.4148
  999SOL     OW14632   4.554   3.004  16.952  0.3053 -0.6255  0.0803
  999SOL    HW114633   4.570   3.054  17.032 -0.4479 -3.4937  2.0158
  999SOL    HW214634   4.627   2.944  16.946  0.2128 -0.7305  0.0156
 1000SOL     OW14635   1.621   1.094   1.674 -0.3043  0.2601 -0.1513
 1000SOL    HW114636   1.547   1.056   1.626  0.5126 -0.0103 -1.1877
 1000SOL    HW214637   1.646   1.018   1.728 -0.2827  0.2783 -0.1356
 1001SOL     OW14638   0.087   4.023   6.272  0.3653  0.2782 -0.1499
 1001SOL    HW114639   0.152   4.093   6.280  0.6986 -0.0368 -0.0811
 1001SOL    HW214640   0.078   3.987   6.360  0.8959  2.6898  0.8834
 1002SOL     OW14641   1.468   3.231   2.114  0.2148  0.0444  0.1039
 1002SOL    HW114642   1.529   3.300   2.140 -0.2913  1.5467 -2.7157
 1002SOL    HW214643   1.530   3.187   2.056 -0.4277  0.7292 -1.1078
 1003SOL     OW14644   2.420   2.221   4.700  0.3584 -0.3190 -0.0051
 1003SOL    HW114645   2.387   2.262   4.779 -1.3976  0.0047 -0.9189
 1003SOL    HW214646   2.352   2.177   4.649 -0.3674 -0.9329  1.5091
 1004SOL     OW14647   1.919   1.366   1.664 -0.0614  0.4898  0.6774
 1004SOL    HW114648   1.928   1.274   1.640 -1.1430  1.2556 -2.7460
 1004SOL    HW214649   1.993   1.400   1.613 -0.4732 -0.9686 -0.9106
 1005SOL     OW14650   2.899   2.312   0.573 -0.3207 -0.7851  0.5563
 1005SOL    HW114651   2.983   2.316   0.620  0.2629  3.1206 -0.8753
 1005SOL    HW214652   2.846   2.297   0.652  1.3107  2.2014  2.2350
 1006SOL     OW14653   2.846   2.566   7.800 -0.5345  0.0183 -0.2765
 1006SOL    HW114654   2.865   2.482   7.842  1.0062  1.1627  1.2962
 1006SOL    HW214655   2.778   2.546   7.736 -0.5834  0.0043 -0.2197
 1007SOL     OW14656   3.542   3.516   6.017  0.2916 -0.2245 -0.6093
 1007SOL    HW114657   3.588   3.557   6.090 -0.0800 -1.5147  0.3389
 1007SOL    HW214658   3.499   3.592   5.978  1.9917  0.4006 -1.2950
 1008SOL     OW14659   1.080   1.930   5.744 -0.1059  0.5513 -0.1260
 1008SOL    HW114660   1.025   1.983   5.686  2.2099  0.8286 -2.0913
 1008SOL    HW214661   1.152   1.906   5.685 -0.5153  2.2219 -1.3118
 1009SOL     OW14662   1.650   1.591  16.600 -0.7857 -0.2883  0.0639
 1009SOL    HW114663   1.600   1.516  16.569 -0.2620 -1.0004  0.9754
 1009SOL    HW214664   1.689   1.541  16.671  0.3698  2.2035  1.1824
 1010SOL     OW14665   2.869   2.768   7.378 -0.2046  0.1073 -1.0200
 1010SOL    HW114666   2.779   2.784   7.405  0.6696  1.3831  1.2084
 1010SOL    HW214667   2.880   2.679   7.346 -1.1724 -0.1467 -0.6373
 1011SOL     OW14668   2.984   2.532   5.947  0.1361  0.3912  0.3621
 1011SOL    HW114669   3.001   2.553   5.855  2.2578 -0.6170  0.5291
 1011SOL    HW214670   2.907   2.476   5.946  1.1841 -1.1089  3.1833
 1012SOL     OW14671   4.139   3.748   3.079 -0.0896 -0.3415  0.2117
 1012SOL    HW114672   4.182   3.813   3.136  0.5942 -2.9641  2.7120
 1012SOL    HW214673   4.158   3.667   3.127 -2.9007 -0.3870  1.2244
 1013SOL     OW14674   4.670   1.153   0.494  0.3064  0.9788  0.3444
 1013SOL    HW114675   4.588   1.193   0.522 -2.7946 -2.1046 -4.2256
 1013SOL    HW214676   4.655   1.058   0.488 -2.3383  1.4047  0.1191
 1014SOL     OW14677   2.035   4.731   6.497 -0.0614 -0.3503 -0.1122
 1014SOL    HW114678   2.033   0.088   6.487 -3.4605 -0.6129 -1.8182
 1014SOL    HW214679   2.033   4.722   6.592 -2.1042  0.8533 -0.0498
 1015SOL     OW14680   1.175   0.292   6.279  0.1484  0.1821  0.2741
 1015SOL    HW114681   1.221   0.322   6.201 -2.7116  0.9543 -1.0899
 1015SOL    HW214682   1.169   0.199   6.260 -2.5030  0.1201  1.4799
 1016SOL     OW14683   2.962   0.809   5.210  0.3447 -0.3004  0.0242
 1016SOL    HW114684   3.051   0.824   5.178  0.4768  0.8245  0.9264
 1016SOL    HW214685   2.908   0.821   5.132  2.1928 -0.7786 -1.3455
 1017SOL     OW14686   0.792   4.153   2.134 -0.2085  0.1487 -0.7415
 1017SOL    HW114687   0.752   4.204   2.203  0.7283 -1.1063  0.7263
 1017SOL    HW214688   0.831   4.091   2.196  0.6745  2.0688  0.6208
 1018SOL     OW14689   1.326   0.947   9.449 -0.4956 -0.9479  0.3646
 1018SOL    HW114690   1.275   0.867   9.441  0.0032 -1.1575 -0.6835
 1018SOL    HW214691   1.379   0.935   9.370  0.7322 -0.0744  1.0668
 1019SOL     OW14692   3.729   0.553   4.694  0.4066 -0.0861  0.3694
 1019SOL    HW114693   3.737   0.645   4.720 -2.9910  0.4159 -0.4154
 1019SOL    HW214694   3.794   0.514   4.752  1.2967  2.0962  0.8329
 1020SOL     OW14695   0.211   4.142   2.097 -0.6086  0.1086 -0.2264
 1020SOL    HW114696   0.117   4.149   2.113 -0.0453  0.7730  2.7994
 1020SOL    HW214697   0.220   4.157   2.003 -0.9722 -1.7128 -0.5506
 1021SOL     OW14698   3.320   4.380   2.832  0.4436 -0.0031  0.1783
 1021SOL    HW114699   3.355   4.452   2.884  1.7206 -1.2519  1.0293
 1021SOL    HW214700   3.390   4.379   2.766 -1.2095  2.9022 -1.6579
 1022SOL     OW14701   4.104   4.191   4.184 -0.5021 -0.5773 -0.2091
 1022SOL    HW114702   4.173   4.222   4.242 -0.6288 -1.0310  0.1813
 1022SOL    HW214703   4.042   4.261   4.206  0.5196  0.6464 -1.2220
 1023SOL     OW14704   2.064   0.037   5.328  0.0615 -0.4730 -0.4028
 1023SOL    HW114705   2.158   0.054   5.329 -0.5602  3.1007 -1.7038
 1023SOL    HW214706   2.026   0.038   5.416 -1.0713 -1.6005 -0.8757
 1024SOL     OW14707   1.432   4.521   5.869 -0.2126 -0.7707  0.3937
 1024SOL    HW114708   1.420   4.535   5.775  2.0803 -1.4438 -0.0086
 1024SOL    HW214709   1.367   4.451   5.876 -1.3183  0.1834 -0.2858
 1025SOL     OW14710   3.953   3.663  17.446  0.0552  0.3510 -0.2547
 1025SOL    HW114711   3.961   3.717  17.524 -1.4135  0.8782 -0.4871
 1025SOL    HW214712   3.939   3.575  17.483 -1.3040  0.8225  0.3561
 1026SOL     OW14713   4.490   0.935   7.859  0.1511 -0.2300 -0.1833
 1026SOL    HW114714   4.423   0.901   7.918 -0.2096 -1.1452 -1.1142
 1026SOL    HW214715   4.514   0.855   7.811  1.3335 -1.5860  2.6513
 1027SOL     OW14716   2.115   2.193   3.175 -0.0243  0.6165 -0.2356
 1027SOL    HW114717   2.020   2.182   3.170  0.1136  0.1457 -1.6759
 1027SOL    HW214718   2.130   2.269   3.119  1.7686 -1.7661 -2.9423
 1028SOL     OW14719   3.975   0.452   6.347 -0.2829  0.7003 -0.2641
 1028SOL    HW114720   3.962   0.366   6.307 -2.4930  1.0703 -0.3720
 1028SOL    HW214721   4.039   0.487   6.285  1.0272 -0.1115  0.6506
 1029SOL     OW14722   1.122   0.984   8.300 -0.1729  0.4843  0.2537
 1029SOL    HW114723   1.108   1.042   8.374 -3.9317  0.2986 -0.3233
 1029SOL    HW214724   1.039   0.937   8.304 -1.7110  3.0922 -0.9687
 1030SOL     OW14725   2.469   4.034   2.161 -0.0161  0.2408 -0.4373
 1030SOL    HW114726   2.519   4.083   2.226 -0.1588 -0.9110  0.5298
 1030SOL    HW214727   2.530   4.050   2.089 -0.2514  2.2577 -0.1920
 1031SOL     OW14728   1.472   2.823  17.257  0.2944 -0.5182  0.2174
 1031SOL    HW114729   1.555   2.814  17.303 -1.0989  0.7133  2.9428
 1031SOL    HW214730   1.415   2.833  17.333  1.0509  0.8942  0.5885
 1032SOL     OW14731   3.408   1.904   6.632 -0.0606 -0.2111 -0.0202
 1032SOL    HW114732   3.350   1.841   6.590 -0.4066  0.7165 -0.9306
 1032SOL    HW214733   3.357   1.985   6.625 -1.3523 -0.8928  1.6733
 1033SOL     OW14734   2.139   0.537   5.882  0.0979  0.4432 -0.0718
 1033SOL    HW114735   2.065   0.586   5.916  1.2636 -0.5476  3.8091
 1033SOL    HW214736   2.206   0.576   5.938  1.5867 -0.6694 -1.0679
 1034SOL     OW14737   3.479   0.185   2.626  0.6167  0.2866  0.3206
 1034SOL    HW114738   3.427   0.202   2.547 -1.4935  2.3535  2.1610
 1034SOL    HW214739   3.446   0.098   2.649  0.6536  0.8926  2.6198
 1035SOL     OW14740   3.743   2.152   7.933 -0.1140  0.5158  0.1986
 1035SOL    HW114741   3.774   2.243   7.934 -1.7944  1.0988  0.5026
 1035SOL    HW214742   3.720   2.143   7.841 -0.6157 -0.2943  0.3959
 1036SOL     OW14743   0.901   1.839   4.269 -0.4244  0.4864  0.3468
 1036SOL    HW114744   0.901   1.873   4.358  0.4210 -1.7898  1.2361
 1036SOL    HW214745   0.977   1.781   4.261 -2.8330 -2.4108 -1.7926
 1037SOL     OW14746   4.358   3.448   4.726  0.4277  0.0501  0.1722
 1037SOL    HW114747   4.402   3.524   4.690 -0.2300  0.5697  0.4746
 1037SOL    HW214748   4.285   3.486   4.774  0.0321 -0.1131 -0.2940
 1038SOL     OW14749   3.362   1.709   1.877 -0.4182 -0.1426  0.2627
 1038SOL    HW114750   3.389   1.797   1.900  1.4434 -1.6799  3.9226
 1038SOL    HW214751   3.365   1.666   1.962  0.4376 -2.0757 -0.7436
 1039SOL     OW14752   0.573   1.216  14.044  0.3328  0.6484  0.0779
 1039SOL    HW114753   0.527   1.143  14.085 -0.0830  0.0734 -1.4368
 1039SOL    HW214754   0.496   1.272  14.043  0.1466  0.3676 -0.9732
 1040SOL     OW14755   2.918   3.628   7.964 -0.2117 -0.1187 -0.3266
 1040SOL    HW114756   2.944   3.613   7.874 -0.0730 -0.3514 -0.2457
 1040SOL    HW214757   2.878   3.543   7.984 -0.5096  0.0294 -0.2886
 1041SOL     OW14758   2.125   4.727  14.981 -0.0043 -0.1221  0.0274
 1041SOL    HW114759   2.129   0.084  14.989 -3.3950 -0.0017  0.2994
 1041SOL    HW214760   2.037   4.719  14.945  1.1976 -2.3324 -2.4408
 1042SOL     OW14761   2.318   3.564   4.949 -0.4799  0.0324 -0.7072
 1042SOL    HW114762   2.231   3.584   4.985 -0.5432 -2.4510  0.5526
 1042SOL    HW214763   2.360   3.650   4.946 -0.4444  0.1037  1.4144
 1043SOL     OW14764   0.874   3.296   8.502  0.9789  0.8392 -0.1028
 1043SOL    HW114765   0.828   3.302   8.419 -0.6921 -0.7237  0.7009
 1043SOL    HW214766   0.808   3.329   8.563  1.0649 -0.0358  0.4716
 1044SOL     OW14767   0.735   3.105   8.333  0.1712 -0.0633 -0.5902
 1044SOL    HW114768   0.670   3.150   8.387 -0.2064 -1.5844  0.2117
 1044SOL    HW214769   0.706   3.126   8.244  2.0719  3.8534 -0.2776
 1045SOL     OW14770   3.879   1.493   5.151  0.0539 -0.2590  0.2984
 1045SOL    HW114771   3.861   1.424   5.215  0.7586  0.1577  0.9427
 1045SOL    HW214772   3.924   1.559   5.203 -2.4826  1.0995  0.7858
 1046SOL     OW14773   1.448   2.062  17.504 -0.1377  0.5135 -0.9881
 1046SOL    HW114774   1.521   2.059  17.566  0.8712 -2.4348 -2.3781
 1046SOL    HW214775   1.476   2.114  17.429  0.6433  1.9686  0.2944
 1047SOL     OW14776   4.515   0.111   3.372 -0.0434 -0.0279 -0.5297
 1047SOL    HW114777   4.581   0.064   3.319 -0.0108 -1.4995  0.8060
 1047SOL    HW214778   4.569   0.172   3.423 -1.1856 -1.5992  2.5734
 1048SOL     OW14779   2.785   2.390   3.222 -0.2753  0.0879 -0.3183
 1048SOL    HW114780   2.839   2.371   3.298 -0.1196  2.2574  0.1280
 1048SOL    HW214781   2.705   2.431   3.254 -0.1666 -0.8615  1.1323
 1049SOL     OW14782   2.986   0.011  13.801 -0.1146 -0.1378 -0.0196
 1049SOL    HW114783   2.991   0.016  13.896 -0.4794  0.4413 -0.0323
 1049SOL    HW214784   2.894   4.724  13.806  0.3827 -1.5647  1.8504
 1050SOL     OW14785   4.350   3.846   1.608 -0.3292 -0.3342 -0.1694
 1050SOL    HW114786   4.347   3.939   1.630  0.8170 -0.7992  1.9341
 1050SOL    HW214787   4.445   3.840   1.599 -0.2015  0.4580  0.7129
 1051SOL     OW14788   3.533   0.236   1.908 -0.2029  0.1227 -0.1233
 1051SOL    HW114789   3.489   0.318   1.884  0.1663 -0.6969 -3.5872
 1051SOL    HW214790   3.622   0.252   1.876  0.1029 -0.4805  0.4233
 1052SOL     OW14791   1.620   4.456   2.698  0.1578  0.4599 -0.3613
 1052SOL    HW114792   1.556   4.527   2.703 -0.4644 -0.0509 -1.1668
 1052SOL    HW214793   1.585   4.392   2.759  1.2336  1.6090  1.4570
 1053SOL     OW14794   2.945   2.078  14.505 -0.1836  0.3503 -0.0047
 1053SOL    HW114795   3.000   2.108  14.432  1.8216 -0.7610  1.0380
 1053SOL    HW214796   2.874   2.140  14.515  0.6437  1.2901  0.0823
 1054SOL     OW14797   3.251   4.245   2.417 -0.1451 -0.3475  0.1027
 1054SOL    HW114798   3.240   4.197   2.334  0.7049  1.0174 -0.8088
 1054SOL    HW214799   3.160   4.245   2.446  0.3099 -0.6536  1.5324
 1055SOL     OW14800   1.391   4.710  10.116 -0.1258 -0.0731  0.1605
 1055SOL    HW114801   1.333   4.640  10.145 -2.4516  1.1719 -1.5450
 1055SOL    HW214802   1.407   0.020  10.197  0.1084  1.3519 -0.7129
 1056SOL     OW14803   0.737   0.021   1.443  0.1324  0.5023 -0.8633
 1056SOL    HW114804   0.701   4.670   1.444  1.9198 -0.1778  4.2512
 1056SOL    HW214805   0.682   0.059   1.512  2.3525 -1.1131  1.8072
 1057SOL     OW14806   2.963   1.348  11.011  0.3184 -0.7231 -0.1634
 1057SOL    HW114807   2.978   1.439  10.986  0.3819  0.3441  3.8300
 1057SOL    HW214808   2.991   1.308  10.929  1.0757 -0.8851  0.1747
 1058SOL     OW14809   4.041   2.629  16.500 -0.7307  0.3096  0.4236
 1058SOL    HW114810   4.028   2.550  16.553 -0.7625 -1.1675 -1.7845
 1058SOL    HW214811   3.948   2.650  16.496 -0.9940 -1.1374 -1.3397
 1059SOL     OW14812   3.621   2.713   4.203 -0.0226  0.8255  0.0076
 1059SOL    HW114813   3.654   2.623   4.210 -1.6284  0.3890  1.8447
 1059SOL    HW214814   3.658   2.728   4.116 -2.6031 -2.3353 -1.6259
 1060SOL     OW14815   4.160   0.252   1.527  0.4560  0.1556 -0.6471
 1060SOL    HW114816   4.178   0.265   1.621  0.9114 -0.1875 -0.6874
 1060SOL    HW214817   4.111   0.170   1.532 -0.6773  0.9232  0.7727
 1061SOL     OW14818   4.736   2.983  15.297  0.0980  0.4477 -0.2047
 1061SOL    HW114819   4.656   3.032  15.278  0.8276  1.1321 -1.5238
 1061SOL    HW214820   4.711   2.891  15.306 -0.8104  0.9004  1.8028
 1062SOL     OW14821   4.159   3.300   1.198 -0.4241 -0.2475  0.6614
 1062SOL    HW114822   4.097   3.373   1.188 -1.9493 -1.2951  2.6354
 1062SOL    HW214823   4.095   3.233   1.173  0.9559 -1.1376 -0.4801
 1063SOL     OW14824   0.008   3.656   7.952 -0.4608  0.0886  0.6295
 1063SOL    HW114825   4.694   3.583   7.985 -0.8631  0.6391  1.1913
 1063SOL    HW214826   0.093   3.637   7.992 -0.0252  0.2748 -0.1916
 1064SOL     OW14827   1.281   0.561   9.375 -0.3479  0.1589  0.0034
 1064SOL    HW114828   1.356   0.543   9.319  0.4329 -0.6961  1.2928
 1064SOL    HW214829   1.327   0.551   9.459  0.1581 -0.4608 -0.3469
 1065SOL     OW14830   3.515   0.944   2.125 -0.4879 -0.3097 -0.3430
 1065SOL    HW114831   3.582   0.974   2.187 -1.7283 -0.7812  1.1840
 1065SOL    HW214832   3.431   0.946   2.170 -2.0267 -3.1978 -3.0686
 1066SOL     OW14833   3.967   1.672  12.576 -0.1707  0.0402 -0.4964
 1066SOL    HW114834   4.016   1.598  12.539  2.2327  0.9533  0.8122
 1066SOL    HW214835   3.891   1.679  12.519 -0.6182 -0.1622  0.0807
 1067SOL     OW14836   0.760   1.672  11.138 -0.0727 -0.7861 -0.0658
 1067SOL    HW114837   0.697   1.605  11.166  0.0236  0.5050  3.1597
 1067SOL    HW214838   0.764   1.637  11.049 -2.4781 -1.0339 -0.0657
 1068SOL     OW14839   1.220   2.592   7.251 -0.6164 -0.0322 -0.2829
 1068SOL    HW114840   1.199   2.657   7.318 -0.8620 -2.2720  1.7660
 1068SOL    HW214841   1.244   2.515   7.301  1.3757 -0.1476 -1.4135
 1069SOL     OW14842   4.249   1.345   6.111 -0.7561  0.2931  0.5218
 1069SOL    HW114843   4.255   1.434   6.145  1.0358  1.9605 -4.0628
 1069SOL    HW214844   4.298   1.351   6.029  0.3440  0.0399  1.1563
 1070SOL     OW14845   2.490   1.960  14.935 -0.2086  0.2066  0.5137
 1070SOL    HW114846   2.565   2.006  14.897 -0.0465 -1.1006 -0.7421
 1070SOL    HW214847   2.453   2.022  14.998  0.0048  2.7129 -1.8196
 1071SOL     OW14848   3.227   1.406   2.485 -0.1606  0.5988 -0.1011
 1071SOL    HW114849   3.279   1.378   2.410  3.4106  3.1892  1.4332
 1071SOL    HW214850   3.255   1.339   2.547  0.2965  0.5670 -0.3351
 1072SOL     OW14851   2.825   0.251  14.824 -1.0021 -0.1132 -0.2562
 1072SOL    HW114852   2.816   0.176  14.765 -1.9757 -0.2950  0.1324
 1072SOL    HW214853   2.738   0.287  14.808 -0.1066  1.4589 -1.5299
 1073SOL     OW14854   3.600   0.722   7.382 -0.0300  0.1111 -0.4698
 1073SOL    HW114855   3.527   0.668   7.413  0.7610  0.5351  2.0548
 1073SOL    HW214856   3.671   0.671   7.421  0.9087  0.8380 -1.2207
 1074SOL     OW14857   2.680   1.787  12.379 -0.5149 -0.6497  0.8833
 1074SOL    HW114858   2.601   1.834  12.353  0.7920  0.7988 -0.4336
 1074SOL    HW214859   2.670   1.777  12.473  1.5778  0.4105  1.2107
 1075SOL     OW14860   2.076   1.704  10.484  0.5291  0.1485  0.5777
 1075SOL    HW114861   2.067   1.800  10.487  0.2188  0.0835  1.7775
 1075SOL    HW214862   2.152   1.674  10.532 -0.2163  0.6747  2.0851
 1076SOL     OW14863   4.183   4.025   2.835 -0.9621 -0.0024  0.0338
 1076SOL    HW114864   4.104   4.021   2.888 -0.5141  0.8385  0.7593
 1076SOL    HW214865   4.159   4.090   2.770  0.4085 -1.0306 -1.5045
 1077SOL     OW14866   1.646   2.622   6.543  0.1960  0.6157  0.1935
 1077SOL    HW114867   1.631   2.711   6.573  1.3819  0.8442  0.0670
 1077SOL    HW214868   1.676   2.631   6.453  1.6418  0.7646  0.7039
 1078SOL     OW14869   0.470   0.071   4.774  0.7419 -0.1684  0.1000
 1078SOL    HW114870   0.527   0.129   4.825 -0.2376  1.0193 -0.1477
 1078SOL    HW214871   0.532   0.019   4.722 -0.4240 -1.2306 -0.2213
 1079SOL     OW14872   2.140   0.074   9.017 -0.7319 -0.2221 -0.5451
 1079SOL    HW114873   2.199   0.001   8.996  0.7776  0.2595  2.1466
 1079SOL    HW214874   2.201   0.141   9.048  0.6839 -1.5608 -0.4351
 1080SOL     OW14875   3.120   4.695   6.533  0.3154 -0.1688  0.2556
 1080SOL    HW114876   3.169   4.650   6.464 -1.2883 -0.5814 -0.6191
 1080SOL    HW214877   3.126   0.047   6.502  2.2447  0.4077  2.2800
 1081SOL     OW14878   1.311   2.356  12.936 -0.2378 -0.5101  0.5864
 1081SOL    HW114879   1.301   2.301  13.014 -1.6578  0.1493  0.8522
 1081SOL    HW214880   1.306   2.444  12.974  0.1978  0.3120 -1.2777
 1082SOL     OW14881   0.631   0.996   2.112 -0.1000 -0.0328  0.3634
 1082SOL    HW114882   0.592   0.923   2.159 -0.6451  0.6520  0.9845
 1082SOL    HW214883   0.629   1.062   2.182 -0.1236 -0.0914  0.4182
 1083SOL     OW14884   2.340   4.341   2.266 -0.1500  0.0067 -0.4714
 1083SOL    HW114885   2.304   4.430   2.267  0.3119  0.1900  0.5569
 1083SOL    HW214886   2.347   4.334   2.361  1.2935  0.3100 -0.5528
 1084SOL     OW14887   1.836   0.959  17.642  0.0454 -0.1797  0.1230
 1084SOL    HW114888   1.760   0.987  17.693 -1.7403  2.0240 -3.7217
 1084SOL    HW214889   1.791   0.898  17.583  0.2227 -1.0891  0.9292
 1085SOL     OW14890   0.971   3.750  15.611 -1.3571 -0.2713 -0.5722
 1085SOL    HW114891   0.984   3.744  15.516 -0.2039 -0.1096 -0.4168
 1085SOL    HW214892   0.881   3.781  15.619 -1.2196  0.2380 -1.0195
 1086SOL     OW14893   1.903   4.509   5.805  0.0467  0.4079 -0.1061
 1086SOL    HW114894   1.968   4.545   5.865  1.2725 -2.1400  0.1073
 1086SOL    HW214895   1.961   4.505   5.729 -2.2330 -1.0707 -1.7598
 1087SOL     OW14896   1.357   0.954  15.590  0.0781 -0.0756 -0.1587
 1087SOL    HW114897   1.309   0.894  15.647  0.3351  0.5774  0.7555
 1087SOL    HW214898   1.380   0.896  15.518  0.8116  0.9451 -0.7565
 1088SOL     OW14899   4.601   3.385   7.730  0.2819 -0.5306  0.3105
 1088SOL    HW114900   4.507   3.398   7.742  0.3385  1.1622 -0.9894
 1088SOL    HW214901   4.607   3.307   7.675 -3.7834 -1.3041  0.9347
 1089SOL     OW14902   1.955   2.523  12.253  0.6963  0.2428  0.3864
 1089SOL    HW114903   2.046   2.529  12.281  0.4534 -1.9791  1.6209
 1089SOL    HW214904   1.942   2.616  12.269  1.2727  0.4239 -0.1803
 1090SOL     OW14905   2.092   1.223  11.324  0.1216 -0.0282 -0.2515
 1090SOL    HW114906   2.185   1.246  11.333 -0.1290  1.4847 -1.5088
 1090SOL    HW214907   2.085   1.128  11.315 -2.3089  0.2995 -1.7578
 1091SOL     OW14908   3.325   3.161   3.543 -0.3078  0.3146  0.1042
 1091SOL    HW114909   3.331   3.066   3.548 -0.4984  0.2248 -1.2430
 1091SOL    HW214910   3.234   3.177   3.519 -0.9044  0.1134  2.3311
 1092SOL     OW14911   2.617   3.620  13.987 -0.6499 -0.0053  0.2623
 1092SOL    HW114912   2.711   3.616  13.965 -0.6203  0.9040  0.2517
 1092SOL    HW214913   2.623   3.674  14.065 -1.9213  0.7496 -0.1639
 1093SOL     OW14914   0.647   2.037   5.170 -0.2439  0.0540 -0.8923
 1093SOL    HW114915   0.630   1.976   5.242 -1.1806 -0.4106 -1.5053
 1093SOL    HW214916   0.668   1.978   5.098 -1.2779  0.0675 -1.2139
 1094SOL     OW14917   3.731   0.976  13.487 -0.4497  0.0950 -0.3172
 1094SOL    HW114918   3.738   0.996  13.394  4.8928 -0.0877  0.0612
 1094SOL    HW214919   3.637   0.977  13.504 -0.1835  0.4608  1.1654
 1095SOL     OW14920   3.773   3.045   4.642 -0.2373 -0.1114  0.4176
 1095SOL    HW114921   3.800   2.996   4.564  1.7448  1.5065  0.0824
 1095SOL    HW214922   3.776   3.137   4.614 -1.1371  0.3104  1.6943
 1096SOL     OW14923   1.893   3.197  16.426  0.0034 -0.6564 -0.6790
 1096SOL    HW114924   1.873   3.114  16.383 -3.9301 -1.5845  2.8540
 1096SOL    HW214925   1.987   3.205  16.440 -0.1596 -2.2416  1.3448
 1097SOL     OW14926   1.591   3.531   8.433 -0.1507  0.0647  0.6076
 1097SOL    HW114927   1.585   3.444   8.394 -0.2877  1.1014 -1.6873
 1097SOL    HW214928   1.560   3.521   8.523 -0.4403  1.5939  0.6861
 1098SOL     OW14929   3.254   1.801   0.961  0.0520  0.5521 -0.2502
 1098SOL    HW114930   3.330   1.825   0.908  0.9766 -2.4376 -0.2457
 1098SOL    HW214931   3.303   1.823   1.040  0.2658  1.1101 -0.5344
 1099SOL     OW14932   0.231   0.443   9.638 -0.4910 -0.3347 -0.0488
 1099SOL    HW114933   0.217   0.538   9.645  0.5371  0.0807 -3.9241
 1099SOL    HW214934   0.164   0.434   9.569 -1.0144  1.5061  0.2202
 1100SOL     OW14935   3.679   2.776   8.603  0.7284 -0.1821  0.0354
 1100SOL    HW114936   3.752   2.769   8.541 -1.6850  0.7540 -2.8706
 1100SOL    HW214937   3.670   2.871   8.596 -0.2136 -0.4750 -2.4460
 1101SOL     OW14938   4.703   1.297   2.982 -0.0233  0.4307 -0.1747
 1101SOL    HW114939   0.015   1.378   2.971 -1.4433  1.3235 -0.1209
 1101SOL    HW214940   4.623   1.334   3.018  0.4553 -0.0207  1.3483
 1102SOL     OW14941   4.367   0.890   4.127  0.0372 -0.7054 -0.0288
 1102SOL    HW114942   4.390   0.919   4.215 -0.9297  2.2711 -0.7841
 1102SOL    HW214943   4.279   0.923   4.111 -0.1294 -1.0860  0.0871
 1103SOL     OW14944   0.313   3.394   9.355  0.3026 -0.0737 -0.0171
 1103SOL    HW114945   0.286   3.320   9.410  2.0020 -0.5856  0.1293
 1103SOL    HW214946   0.330   3.451   9.430  2.6405 -0.3408 -0.3684
 1104SOL     OW14947   0.475   0.372   5.998 -0.4270 -0.5088 -0.0672
 1104SOL    HW114948   0.531   0.383   5.921  1.3996  0.3460  1.4087
 1104SOL    HW214949   0.434   0.458   6.008  0.4024 -0.0487 -0.6639
 1105SOL     OW14950   2.996   1.195   2.407  0.1054  0.3919 -0.1753
 1105SOL    HW114951   3.076   1.248   2.416  0.2535  0.1355 -0.0007
 1105SOL    HW214952   2.943   1.255   2.460 -0.0548  0.7396 -0.7243
 1106SOL     OW14953   1.535   4.701   4.362  0.0117  0.8757 -0.7511
 1106SOL    HW114954   1.614   0.004   4.397  1.0759 -1.4823 -0.3617
 1106SOL    HW214955   1.466   4.729   4.422 -1.7316 -0.6625 -2.0273
 1107SOL     OW14956   3.124   3.304   3.763  0.5290 -0.8845  0.8281
 1107SOL    HW114957   3.194   3.354   3.721  0.2051 -1.9758 -0.9991
 1107SOL    HW214958   3.096   3.248   3.691 -2.1516  1.4383  0.0736
 1108SOL     OW14959   1.228   2.983  17.010  0.0714 -0.1551 -0.4863
 1108SOL    HW114960   1.268   3.030  16.937  2.3502 -2.3151 -0.6252
 1108SOL    HW214961   1.302   2.986  17.070 -0.2818 -0.5301 -0.0293
 1109SOL     OW14962   4.247   3.519   4.411  0.6984 -0.5277  0.0767
 1109SOL    HW114963   4.267   3.562   4.494  0.8481 -1.3630  0.4683
 1109SOL    HW214964   4.337   3.519   4.377  0.4539 -0.0956 -0.5766
 1110SOL     OW14965   0.205   3.510   0.485 -0.0658 -0.1717  0.3878
 1110SOL    HW114966   0.165   3.518   0.398 -1.4622 -0.8542  0.9627
 1110SOL    HW214967   0.200   3.604   0.500  1.1709  0.2183 -1.6457
 1111SOL     OW14968   1.720   1.866   8.270  0.0918  0.8686 -0.4600
 1111SOL    HW114969   1.631   1.853   8.303  0.0799 -0.3328 -0.9808
 1111SOL    HW214970   1.750   1.782   8.304  0.8387  1.2451 -0.1945
 1112SOL     OW14971   2.346   1.835   9.107  0.8095  0.3069  0.0337
 1112SOL    HW114972   2.382   1.892   9.039 -0.9325  1.3602  0.0004
 1112SOL    HW214973   2.308   1.896   9.170 -1.3935  3.2301 -4.1362
 1113SOL     OW14974   3.233   3.612   4.245 -0.2294  0.1796  0.3921
 1113SOL    HW114975   3.324   3.641   4.241 -0.8249  2.1054  0.7390
 1113SOL    HW214976   3.236   3.558   4.325 -1.4646  1.8460  1.5710
 1114SOL     OW14977   2.429   1.578  12.025 -0.1901  0.1440 -0.6575
 1114SOL    HW114978   2.382   1.497  12.006  1.0586 -1.1061  1.6193
 1114SOL    HW214979   2.392   1.641  11.963 -0.1593 -0.1674 -0.9951
 1115SOL     OW14980   2.885   4.591   0.264  0.3992 -0.1825  0.0927
 1115SOL    HW114981   2.977   4.595   0.290 -0.1561  1.7439  1.7472
 1115SOL    HW214982   2.860   4.674   0.303  0.8394 -0.7894  1.6670
 1116SOL     OW14983   2.796   2.850   5.051 -0.6696 -0.0556 -0.0837
 1116SOL    HW114984   2.812   2.871   4.959  1.3352 -2.0740 -0.2208
 1116SOL    HW214985   2.827   2.759   5.051 -0.7626 -0.1003  1.3257
 1117SOL     OW14986   2.425   1.218  16.507 -0.0578  0.6108  0.1865
 1117SOL    HW114987   2.345   1.256  16.544 -0.7631 -0.4025 -0.3029
 1117SOL    HW214988   2.400   1.214  16.414  2.1612 -0.2588 -0.3657
 1118SOL     OW14989   1.579   2.685  14.592 -0.0629 -0.1374 -0.2760
 1118SOL    HW114990   1.615   2.770  14.617 -0.2384 -0.1935  0.1745
 1118SOL    HW214991   1.655   2.638  14.558 -0.9602  0.4751 -3.0755
 1119SOL     OW14992   1.399   1.431   0.189  0.1840 -0.4542  0.5621
 1119SOL    HW114993   1.349   1.350   0.188  0.0344 -0.3365 -1.0238
 1119SOL    HW214994   1.478   1.396   0.231  0.9411  0.3439 -0.2014
 1120SOL     OW14995   0.695   2.556  15.432 -0.1116 -0.7860  0.2511
 1120SOL    HW114996   0.654   2.492  15.490  0.0189  1.1493  2.5170
 1120SOL    HW214997   0.705   2.505  15.352 -0.0882  0.2651 -0.4158
 1121SOL     OW14998   3.058   2.220   7.898  0.3764  0.1401 -0.2854
 1121SOL    HW114999   3.148   2.201   7.870 -0.0069 -0.6900 -0.9250
 1121SOL    HW215000   3.065   2.316   7.898  2.7964 -0.0171 -0.0489
 1122SOL     OW15001   4.353   1.549  11.663 -0.0857 -0.4264 -0.1099
 1122SOL    HW115002   4.346   1.463  11.705 -0.1496 -0.1999  0.3391
 1122SOL    HW215003   4.436   1.533  11.618 -0.8391 -0.9058 -1.3264
 1123SOL     OW15004   3.334   4.629  16.726 -0.1476 -0.1689 -0.7330
 1123SOL    HW115005   3.341   4.636  16.821  0.3547 -0.2857 -0.7602
 1123SOL    HW215006   3.301   4.713  16.695  1.9024  0.7998 -0.2666
 1124SOL     OW15007   3.306   3.686   6.328 -0.0807  0.3797  0.2356
 1124SOL    HW115008   3.214   3.682   6.304  0.1189  4.1193 -1.1121
 1124SOL    HW215009   3.349   3.632   6.262  0.7525 -0.3159  1.3391
 1125SOL     OW15010   0.071   4.605  16.005 -0.0820 -0.3978 -0.1720
 1125SOL    HW115011   0.121   4.577  15.928 -2.0606 -0.8977 -1.2755
 1125SOL    HW215012   4.725   4.564  15.983 -0.2761 -0.3936  0.5886
 1126SOL     OW15013   1.338   0.067   4.499  0.2151 -0.1785 -0.1595
 1126SOL    HW115014   1.374   0.126   4.564  0.1861 -2.0563  1.5592
 1126SOL    HW215015   1.244   0.083   4.497  0.1711 -0.2911  1.4835
 1127SOL     OW15016   0.267   1.433   9.576  0.1769  0.0909  0.0443
 1127SOL    HW115017   0.281   1.362   9.639  1.0557  0.2170 -0.0106
 1127SOL    HW215018   0.223   1.389   9.503  0.2841  0.5562 -0.3028
 1128SOL     OW15019   3.635   1.256   1.930  0.1377  0.7434 -0.1642
 1128SOL    HW115020   3.664   1.234   1.842  0.2620  0.6656 -0.1047
 1128SOL    HW215021   3.548   1.217   1.925  1.1789 -1.4643 -0.7590
 1129SOL     OW15022   4.011   4.054  17.477 -0.2971  0.3486 -0.1293
 1129SOL    HW115023   3.966   4.099  17.549  1.1674 -2.5307  2.5738
 1129SOL    HW215024   3.942   4.054  17.411  1.2639  1.4245 -1.7589
 1130SOL     OW15025   2.488   4.218   6.241 -0.4069 -0.3245  0.4050
 1130SOL    HW115026   2.407   4.167   6.234 -1.0212  0.6062  0.7434
 1130SOL    HW215027   2.541   4.188   6.167 -0.1140  1.5044 -0.1106
 1131SOL     OW15028   4.173   0.242   2.202 -0.2515 -0.0179  0.6432
 1131SOL    HW115029   4.165   0.269   2.293  3.0441  0.4875  0.7706
 1131SOL    HW215030   4.264   0.270   2.194  0.3170 -1.8652  0.6686
 1132SOL     OW15031   4.025   3.980  16.494 -0.4190  0.4803  0.1300
 1132SOL    HW115032   3.994   4.066  16.467  0.0833  0.7427  0.3874
 1132SOL    HW215033   4.078   3.963  16.416 -1.8609 -0.9152 -0.5416
 1133SOL     OW15034   4.379   4.057   3.480  0.5931  0.2044  0.7893
 1133SOL    HW115035   4.347   4.004   3.553 -2.5438  0.7418 -0.1888
 1133SOL    HW215036   4.425   4.130   3.522  0.5725  0.1975  0.8241
 1134SOL     OW15037   4.038   0.264  16.395 -0.1943  0.1958 -0.4907
 1134SOL    HW115038   4.049   0.316  16.475 -1.6053  0.6740 -0.5904
 1134SOL    HW215039   4.045   0.171  16.417  0.4967  0.2397 -0.5367
 1135SOL     OW15040   1.148   4.004  10.695 -0.2057 -0.7207 -0.4009
 1135SOL    HW115041   1.065   3.957  10.698  1.9475 -4.4480  0.4905
 1135SOL    HW215042   1.139   4.059  10.774 -0.0288  1.0095 -1.5893
 1136SOL     OW15043   2.778   3.284   5.382 -0.1857 -0.5167 -0.2070
 1136SOL    HW115044   2.796   3.207   5.328  0.8875 -0.4216  0.0239
 1136SOL    HW215045   2.683   3.286   5.370 -0.2052  1.0199  0.2456
 1137SOL     OW15046   1.780   3.672   1.583  0.2039 -0.2303  0.3837
 1137SOL    HW115047   1.729   3.654   1.504  1.0112 -0.5659 -0.0543
 1137SOL    HW215048   1.836   3.595   1.592 -0.5931 -0.5460  2.8837
 1138SOL     OW15049   3.726   0.392   1.362 -0.3093 -0.1775 -0.4497
 1138SOL    HW115050   3.691   0.443   1.435  1.3166  1.6870 -0.9693
 1138SOL    HW215051   3.820   0.393   1.384  0.1330 -2.5739 -2.2743
 1139SOL     OW15052   2.988   1.222   3.076  0.4123 -0.1911 -0.0953
 1139SOL    HW115053   3.051   1.281   3.118 -0.1570 -0.7279  1.5223
 1139SOL    HW215054   3.021   1.134   3.091  1.0820 -0.6596 -4.2051
 1140SOL     OW15055   3.374   2.637  16.976  0.3421  0.0665 -0.1488
 1140SOL    HW115056   3.286   2.655  16.943  0.9334  1.7909 -0.8288
 1140SOL    HW215057   3.375   2.641  17.071  1.0981  0.9334 -0.1877
 1141SOL     OW15058   1.891   1.012  17.318 -0.0779  0.0934 -0.2823
 1141SOL    HW115059   1.829   0.986  17.385  0.2689 -1.7835 -0.6864
 1141SOL    HW215060   1.972   1.030  17.366 -0.1113  0.2781 -0.2936
 1142SOL     OW15061   3.858   0.697   1.742  0.5049 -0.2338 -0.3159
 1142SOL    HW115062   3.836   0.786   1.769 -0.8738 -1.0862  1.3863
 1142SOL    HW215063   3.951   0.712   1.724  0.0439 -0.5022 -2.8388
 1143SOL     OW15064   2.150   0.283   8.402 -0.2778 -0.6402 -0.0548
 1143SOL    HW115065   2.123   0.242   8.484  0.2137 -0.5104  0.1698
 1143SOL    HW215066   2.121   0.212   8.344  1.0045 -1.5905  0.4844
 1144SOL     OW15067   1.922   1.497  15.276 -0.3483  0.0831  0.2492
 1144SOL    HW115068   1.903   1.486  15.369  1.3796  0.6163  0.6439
 1144SOL    HW215069   1.979   1.422  15.258 -0.7435 -0.2929  0.5457
 1145SOL     OW15070   1.671   3.628   8.832 -0.5876 -0.1303 -0.7394
 1145SOL    HW115071   1.693   3.554   8.775  0.4538 -0.6424  0.3217
 1145SOL    HW215072   1.692   3.591   8.918 -1.2998  1.8293  0.2843
 1146SOL     OW15073   1.617   2.510   5.093  0.0383 -0.5257  0.3414
 1146SOL    HW115074   1.572   2.431   5.123  1.1047  0.0518  3.5186
 1146SOL    HW215075   1.540   2.567   5.089  1.4219  1.3642  0.3888
 1147SOL     OW15076   4.686   0.987  12.854  0.1256 -0.1706 -0.5237
 1147SOL    HW115077   4.736   0.909  12.827 -1.4364 -1.7620  1.2196
 1147SOL    HW215078   4.728   1.004  12.938  0.4893 -0.2308 -0.6906
 1148SOL     OW15079   1.504   1.304  16.849 -0.6186  0.6763 -0.1950
 1148SOL    HW115080   1.582   1.323  16.798  1.3560 -2.0315  1.8665
 1148SOL    HW215081   1.447   1.356  16.792  0.0950  1.4319 -0.2221
 1149SOL     OW15082   4.153   4.075   8.507  0.4644 -0.5755  0.7629
 1149SOL    HW115083   4.233   4.098   8.555  0.7541  0.5726 -0.2476
 1149SOL    HW215084   4.090   4.121   8.562  1.0682  0.3190  0.6980
 1150SOL     OW15085   0.254   1.948   9.921 -0.0768  0.3338  0.6331
 1150SOL    HW115086   0.237   1.873   9.865  0.9636 -0.1016  0.8951
 1150SOL    HW215087   0.344   1.928   9.948  0.2289  1.0784  0.1828
 1151SOL     OW15088   2.754   0.999   7.468 -0.1922 -0.0820  0.6454
 1151SOL    HW115089   2.739   1.003   7.374  2.1275  0.8325  0.3172
 1151SOL    HW215090   2.822   0.933   7.476  0.3112  0.3808  0.1091
 1152SOL     OW15091   0.330   2.039   8.176  0.0647 -0.2274  0.4639
 1152SOL    HW115092   0.425   2.045   8.185 -0.1926  1.1727  2.2601
 1152SOL    HW215093   0.309   1.999   8.091 -0.2651  0.8108  0.0525
 1153SOL     OW15094   0.759   1.817   4.559 -0.4343  0.5471  0.0833
 1153SOL    HW115095   0.787   1.890   4.615 -0.1252  0.0227  0.6125
 1153SOL    HW215096   0.699   1.772   4.618  0.4396  2.5680  2.5261
 1154SOL     OW15097   4.334   0.133   3.186  0.0224  0.3015  0.0889
 1154SOL    HW115098   4.350   0.227   3.180  2.6198 -0.2443 -1.4813
 1154SOL    HW215099   4.368   0.111   3.273  0.1910 -2.2763 -0.6403
 1155SOL     OW15100   3.757   1.605   6.813  0.2324 -0.4595  0.3922
 1155SOL    HW115101   3.771   1.571   6.724  0.8922  1.6895 -0.3293
 1155SOL    HW215102   3.816   1.680   6.804  0.6994 -0.9455 -0.6548
 1156SOL     OW15103   1.727   1.472  14.367 -0.1074  0.4056 -0.2707
 1156SOL    HW115104   1.659   1.532  14.399 -0.7635 -0.1749 -0.5625
 1156SOL    HW215105   1.682   1.429  14.294 -0.6252  2.4549 -1.1583
 1157SOL     OW15106   0.401   4.735  11.691  0.1354 -0.4551  0.3775
 1157SOL    HW115107   0.316   4.692  11.688 -0.1047 -0.1007  2.3120
 1157SOL    HW215108   0.442   4.671  11.750  0.6662 -0.5954 -0.1389
 1158SOL     OW15109   1.203   4.707   9.174  0.2122 -0.5218 -0.0986
 1158SOL    HW115110   1.256   4.628   9.182  0.9104  0.0118  0.3925
 1158SOL    HW215111   1.150   4.700   9.094  0.3616 -1.3866 -0.1273
 1159SOL     OW15112   3.934   1.906   5.446 -0.2643 -0.5846  0.0739
 1159SOL    HW115113   3.904   1.881   5.534 -0.1916  0.1849  0.3151
 1159SOL    HW215114   3.934   2.002   5.447  4.1959 -0.5999  0.3332
 1160SOL     OW15115   1.296   3.886   4.780 -0.3346  0.3000 -0.0350
 1160SOL    HW115116   1.363   3.880   4.713 -0.5904  0.3511 -0.2964
 1160SOL    HW215117   1.235   3.945   4.735  1.5101  1.0216 -1.5500
 1161SOL     OW15118   0.456   3.842   4.157  0.0917 -0.3349  0.0403
 1161SOL    HW115119   0.435   3.773   4.094 -3.4299  1.0238 -0.2909
 1161SOL    HW215120   0.417   3.811   4.239  2.2312  4.5083  2.8121
 1162SOL     OW15121   0.116   0.848   8.339 -0.1456 -0.7065  0.5128
 1162SOL    HW115122   0.125   0.857   8.245 -1.8888 -2.4428  0.1726
 1162SOL    HW215123   0.025   0.877   8.350  0.7186  2.1671  0.0859
 1163SOL     OW15124   2.986   4.218   8.587  1.1762 -0.2787 -0.2707
 1163SOL    HW115125   2.931   4.296   8.597  1.9375  0.3228 -0.7029
 1163SOL    HW215126   3.036   4.212   8.668 -1.4874 -1.8698  1.2743
 1164SOL     OW15127   3.410   1.270   5.005 -0.2290  1.2070 -0.3518
 1164SOL    HW115128   3.466   1.286   4.929  0.3122 -1.4103 -0.4802
 1164SOL    HW215129   3.327   1.305   4.971 -2.2324 -3.2366  0.0544
 1165SOL     OW15130   3.398   3.740  15.918  0.4810  0.3953 -0.4384
 1165SOL    HW115131   3.477   3.793  15.931 -0.3904  1.1652  1.6243
 1165SOL    HW215132   3.378   3.709  16.006  0.1721  0.0418 -0.6344
 1166SOL     OW15133   2.313   2.455   6.207  0.5640 -0.8670  0.0364
 1166SOL    HW115134   2.315   2.373   6.257  1.4242 -1.2443 -0.6105
 1166SOL    HW215135   2.391   2.443   6.153  0.8307  1.0265  0.0259
 1167SOL     OW15136   0.617   0.022   2.185 -0.0651 -0.5075 -0.0395
 1167SOL    HW115137   0.554   4.691   2.166 -0.7304 -0.8618  3.3726
 1167SOL    HW215138   0.700   4.724   2.154  0.6368 -0.3167  1.5959
 1168SOL     OW15139   2.425   0.737   1.363  0.2180  0.3568 -0.1081
 1168SOL    HW115140   2.355   0.736   1.297  0.0461  2.2521  0.0223
 1168SOL    HW215141   2.435   0.648   1.394  0.4907  0.7862  1.0233
 1169SOL     OW15142   1.726   2.963   0.923 -0.0791  0.0153 -0.1462
 1169SOL    HW115143   1.718   2.889   0.982 -1.2920  0.2132 -0.0553
 1169SOL    HW215144   1.802   2.936   0.871 -1.2240 -1.2448 -1.1561
 1170SOL     OW15145   0.560   0.284   8.640 -0.4704 -0.8675 -0.4381
 1170SOL    HW115146   0.477   0.331   8.627 -0.4874 -0.5194  0.9466
 1170SOL    HW215147   0.628   0.350   8.626  0.9657 -2.4756 -0.9013
 1171SOL     OW15148   3.754   4.733   2.171  0.2330  0.3264  0.7025
 1171SOL    HW115149   3.728   0.031   2.087  0.6069  0.5941  0.7047
 1171SOL    HW215150   3.732   0.067   2.230 -1.2407 -0.4171  1.0842
 1172SOL     OW15151   1.541   3.485   9.504  0.1896 -0.2145  0.0076
 1172SOL    HW115152   1.524   3.435   9.584 -0.4770 -0.0742 -0.0481
 1172SOL    HW215153   1.605   3.422   9.468 -2.7238 -3.1667  0.0070
 1173SOL     OW15154   1.510   1.504   6.839  0.4095  0.2684 -0.2263
 1173SOL    HW115155   1.439   1.543   6.788  0.5953  0.5675 -0.2570
 1173SOL    HW215156   1.501   1.412   6.812  2.8211  0.7579 -2.7378
 1174SOL     OW15157   4.296   2.087   2.257  0.1935 -0.0357  0.6068
 1174SOL    HW115158   4.314   2.179   2.238  0.3232  0.0618  1.1920
 1174SOL    HW215159   4.258   2.094   2.345  0.3329  1.2269  0.5634
 1175SOL     OW15160   4.703   1.146   2.742  0.9521 -0.1305 -0.1361
 1175SOL    HW115161   4.686   1.176   2.832  1.5836 -0.9710  0.2645
 1175SOL    HW215162   4.733   1.227   2.701 -0.9538  0.3556 -0.5516
 1176SOL     OW15163   2.327   2.535   4.368  0.1850  0.9132  0.1757
 1176SOL    HW115164   2.313   2.540   4.273  0.6273  1.9411  0.1658
 1176SOL    HW215165   2.239   2.546   4.404 -0.5704  1.0632 -1.7159
 1177SOL     OW15166   2.370   3.212   4.666 -0.0914 -0.6313  0.3185
 1177SOL    HW115167   2.286   3.224   4.710 -0.1715  0.7748 -0.1959
 1177SOL    HW215168   2.376   3.298   4.625 -0.9646  0.1511  1.8039
 1178SOL     OW15169   2.533   3.878  14.464 -0.1034 -0.0099 -0.4330
 1178SOL    HW115170   2.484   3.909  14.541  1.1855 -2.8994  1.5370
 1178SOL    HW215171   2.622   3.914  14.471 -0.5971  1.2835 -0.8722
 1179SOL     OW15172   3.898   0.473   7.224  0.3919 -0.6067  0.1711
 1179SOL    HW115173   3.982   0.516   7.208  0.0935 -0.9901 -2.3900
 1179SOL    HW215174   3.865   0.517   7.303 -1.7956  0.2715 -1.2218
 1180SOL     OW15175   1.315   2.822  10.651 -0.0289 -0.3384 -0.3489
 1180SOL    HW115176   1.389   2.882  10.656 -0.9579  0.8182 -0.5112
 1180SOL    HW215177   1.320   2.802  10.557 -0.3150 -0.2843 -0.3770
 1181SOL     OW15178   4.047   0.428  16.614 -0.0775  0.5198  0.6339
 1181SOL    HW115179   4.131   0.450  16.653  0.3447 -1.8215  1.0034
 1181SOL    HW215180   3.989   0.472  16.676 -2.7021  0.3968 -1.7135
 1182SOL     OW15181   3.663   2.324  10.715  0.2726  0.1282 -0.1232
 1182SOL    HW115182   3.705   2.274  10.645 -0.7199  0.2827 -0.8421
 1182SOL    HW215183   3.692   2.286  10.798  1.4222  0.6247 -0.2982
 1183SOL     OW15184   3.359   2.681   6.477  0.6274 -0.3614 -0.0497
 1183SOL    HW115185   3.264   2.695   6.473  0.9764  1.6087 -1.2734
 1183SOL    HW215186   3.381   2.700   6.386  0.1465 -0.3724 -0.1681
 1184SOL     OW15187   2.901   4.087   1.960  0.4433  0.1447  0.1668
 1184SOL    HW115188   2.902   4.136   1.877  1.8272  0.0809  0.1443
 1184SOL    HW215189   2.808   4.100   1.982  0.6071  2.0263 -0.2731
 1185SOL     OW15190   4.550   3.629   2.001 -0.9590  0.2454 -0.0152
 1185SOL    HW115191   4.509   3.655   1.918  0.4296  0.5539 -0.6008
 1185SOL    HW215192   4.506   3.677   2.070 -0.8347  0.2318  0.0729
 1186SOL     OW15193   3.852   2.573  15.526  0.5364 -0.0945 -0.0087
 1186SOL    HW115194   3.849   2.667  15.547 -0.5649  0.1485 -1.2186
 1186SOL    HW215195   3.823   2.551  15.614 -1.4658 -0.9950 -0.8774
 1187SOL     OW15196   1.756   3.671   7.651  0.3434 -0.1620 -0.0520
 1187SOL    HW115197   1.678   3.618   7.635  1.4301 -2.1966  1.2981
 1187SOL    HW215198   1.752   3.699   7.742  0.9093  0.1252 -0.1111
 1188SOL     OW15199   2.078   0.154   4.529  0.2559 -0.2072  0.1621
 1188SOL    HW115200   2.064   0.133   4.437 -0.5058  2.4681 -0.3392
 1188SOL    HW215201   2.170   0.128   4.539  1.2052  2.6136 -1.2365
 1189SOL     OW15202   1.610   3.147   2.677 -0.5216 -0.3150  0.3607
 1189SOL    HW115203   1.694   3.139   2.632 -0.9693  1.2124 -0.7496
 1189SOL    HW215204   1.637   3.209   2.744  1.3996 -0.6857 -0.0783
 1190SOL     OW15205   2.027   3.670   9.363  0.4017 -0.2322  0.2062
 1190SOL    HW115206   2.048   3.617   9.440 -1.1722 -1.4940 -0.2300
 1190SOL    HW215207   1.938   3.693   9.389  0.5785 -0.9032  1.4099
 1191SOL     OW15208   2.718   1.271   3.189 -0.3604 -0.2269 -0.0026
 1191SOL    HW115209   2.796   1.253   3.138  0.0316  3.5219 -0.7434
 1191SOL    HW215210   2.657   1.206   3.154 -0.3959 -0.3336  0.2549
 1192SOL     OW15211   1.329   2.689  17.734 -0.1555  0.3841 -0.4657
 1192SOL    HW115212   1.255   2.634  17.706 -0.2655  1.5816 -2.5374
 1192SOL    HW215213   1.400   2.626  17.722  0.7053  1.3682 -0.4261
 1193SOL     OW15214   1.845   0.813   6.263  0.0491 -0.4738  0.0916
 1193SOL    HW115215   1.834   0.741   6.324  3.2713  0.0155  1.2261
 1193SOL    HW215216   1.851   0.887   6.324 -1.1725  0.1280 -0.5154
 1194SOL     OW15217   2.463   2.158  17.517 -0.0112 -0.0402 -0.0470
 1194SOL    HW115218   2.423   2.079  17.480 -0.7480  1.6662 -2.8695
 1194SOL    HW215219   2.535   2.119  17.567 -0.8015  0.3250  1.3747
 1195SOL     OW15220   1.998   3.726   4.370 -0.0733  0.6607  0.8353
 1195SOL    HW115221   1.902   3.731   4.361 -0.0319 -2.1826 -0.9554
 1195SOL    HW215222   1.999   3.644   4.419 -0.3784  0.4083  0.4209
 1196SOL     OW15223   1.217   3.350   3.791 -0.0924 -0.5161 -0.4312
 1196SOL    HW115224   1.280   3.419   3.816  1.5500 -2.5423  1.0216
 1196SOL    HW215225   1.264   3.315   3.715  1.6212  0.3677  0.2175
 1197SOL     OW15226   3.387   3.434   7.203 -0.5714  0.5293  0.6225
 1197SOL    HW115227   3.385   3.521   7.244 -0.5657  1.0194 -0.4003
 1197SOL    HW215228   3.424   3.453   7.117 -0.5984 -0.4213  0.4004
 1198SOL     OW15229   4.570   4.571   2.003  0.5794 -0.3750  0.0946
 1198SOL    HW115230   4.489   4.615   1.977  0.9432  0.8251  0.9992
 1198SOL    HW215231   4.573   4.607   2.092  0.3836  0.4671 -0.2358
 1199SOL     OW15232   2.540   2.139   6.870 -0.5934 -0.6016 -0.2550
 1199SOL    HW115233   2.525   2.054   6.911  0.5833 -1.0846 -0.8100
 1199SOL    HW215234   2.571   2.183   6.949 -2.3312  1.0634 -0.5038
 1200SOL     OW15235   1.668   0.784   3.486  1.0604 -0.0269 -0.3741
 1200SOL    HW115236   1.715   0.854   3.532 -0.6841  0.6305  0.4185
 1200SOL    HW215237   1.690   0.798   3.393  0.5020 -0.0636 -0.5102
 1201SOL     OW15238   0.933   4.614  17.076  0.3963 -0.5829  0.1659
 1201SOL    HW115239   0.874   4.689  17.067  0.6494 -0.5108 -0.9489
 1201SOL    HW215240   0.900   4.580  17.159  0.1910 -1.0128 -0.0878
 1202SOL     OW15241   1.930   2.933  16.412  0.6069 -0.0229 -0.4935
 1202SOL    HW115242   2.001   2.945  16.475  0.5794 -2.0654 -0.0790
 1202SOL    HW215243   1.911   2.842  16.435  0.5971 -0.4000 -1.9712
 1203SOL     OW15244   2.340   2.643   8.920 -0.3000  0.2734  0.4504
 1203SOL    HW115245   2.268   2.586   8.944  0.6387 -0.3700  1.7154
 1203SOL    HW215246   2.299   2.688   8.846 -0.6955  0.4886  0.8009
 1204SOL     OW15247   0.570   1.400   2.564 -0.1701 -0.3638 -0.6429
 1204SOL    HW115248   0.604   1.439   2.645 -0.2301  1.0525 -1.2923
 1204SOL    HW215249   0.512   1.469   2.530  2.2939  1.8084 -0.4523
 1205SOL     OW15250   2.621   4.324   4.515 -0.1331  0.1395 -0.2911
 1205SOL    HW115251   2.606   4.236   4.481  1.3056 -0.0342 -0.4952
 1205SOL    HW215252   2.536   4.349   4.552  0.2832 -0.0949  0.8408
 1206SOL     OW15253   0.036   4.711   7.549 -0.1019  0.2025  0.5696
 1206SOL    HW115254   0.037   4.658   7.630  1.7293 -2.3972 -1.1260
 1206SOL    HW215255   4.696   0.016   7.582 -0.2796  0.4456 -0.1859
 1207SOL     OW15256   1.041   3.241  11.353 -0.8851 -0.0431 -0.8396
 1207SOL    HW115257   1.081   3.248  11.266 -0.9264 -0.4619 -0.8899
 1207SOL    HW215258   1.102   3.298  11.400 -2.3392  0.6892  0.1604
 1208SOL     OW15259   2.558   4.102   4.063 -0.3858  0.1871 -0.0818
 1208SOL    HW115260   2.653   4.091   4.070 -0.2648  2.3480  1.9427
 1208SOL    HW215261   2.538   4.014   4.096  0.2180 -0.8501 -2.5178
 1209SOL     OW15262   2.486   2.304   2.029 -0.7373 -0.4813 -0.1912
 1209SOL    HW115263   2.438   2.243   1.973 -1.2164 -0.3503  0.0773
 1209SOL    HW215264   2.413   2.359   2.060  1.5361  3.8133 -2.5135
 1210SOL     OW15265   3.433   1.580   1.240 -0.4037 -0.6855 -0.2626
 1210SOL    HW115266   3.433   1.636   1.162 -1.4400  2.3155  1.9349
 1210SOL    HW215267   3.400   1.502   1.194  0.9114  0.3181 -2.9085
 1211SOL     OW15268   1.537   3.007   3.598  0.0941  0.2019 -0.0213
 1211SOL    HW115269   1.575   2.948   3.663  1.4136  1.1714  0.0876
 1211SOL    HW215270   1.448   2.982   3.622  0.1919  1.1332  1.3033
 1212SOL     OW15271   2.099   2.954  13.118  0.4049  0.1062  0.4931
 1212SOL    HW115272   2.010   2.919  13.117  0.5547 -0.2976  1.3753
 1212SOL    HW215273   2.120   2.954  13.025 -1.1339  0.0060  0.1590
 1213SOL     OW15274   0.120   3.728  12.166 -0.4722  0.1639 -0.6421
 1213SOL    HW115275   0.065   3.651  12.177 -1.1552  0.6975 -0.3015
 1213SOL    HW215276   0.099   3.770  12.250 -0.6019 -1.2970  0.0575
 1214SOL     OW15277   0.919   3.069   0.053 -0.2065 -0.0181  0.2904
 1214SOL    HW115278   0.989   3.123   0.016  1.0641 -0.9512  1.2870
 1214SOL    HW215279   0.898   3.007  17.734 -2.2648  1.6327 -0.5350
 1215SOL     OW15280   2.776   1.108  16.003  0.1145 -0.0570 -0.1332
 1215SOL    HW115281   2.779   1.147  16.091  1.6588 -2.3843  0.8506
 1215SOL    HW215282   2.826   1.173  15.954 -3.4282  2.4591 -0.4300
 1216SOL     OW15283   2.013   2.083   0.094 -0.7239  0.5741 -0.3600
 1216SOL    HW115284   1.996   2.166   0.137 -1.1072  1.3576 -2.0233
 1216SOL    HW215285   2.032   2.021   0.165 -1.6794  0.5507 -0.1328
 1217SOL     OW15286   0.305   2.659   1.419  0.8156  0.0231  0.6139
 1217SOL    HW115287   0.298   2.563   1.414  0.3802  0.0666  0.2782
 1217SOL    HW215288   0.294   2.680   1.511 -1.0873 -0.0303  0.4080
 1218SOL     OW15289   1.699   3.071   8.857  0.1053  0.4093  0.2194
 1218SOL    HW115290   1.755   3.011   8.807  0.7420  1.4888 -0.3491
 1218SOL    HW215291   1.757   3.139   8.891 -0.2561  0.1244  1.4251
 1219SOL     OW15292   1.162   2.834   6.089  0.4053  0.3900 -0.2194
 1219SOL    HW115293   1.256   2.819   6.096  0.4245 -0.7036 -2.8023
 1219SOL    HW215294   1.123   2.747   6.098  0.2393  0.4695 -0.1681
 1220SOL     OW15295   0.211   0.499   7.473 -0.1173 -0.4832 -0.0620
 1220SOL    HW115296   0.260   0.436   7.420  0.7600  0.5479 -0.4688
 1220SOL    HW215297   0.159   0.442   7.530 -1.1786 -0.9000 -1.4549
 1221SOL     OW15298   3.929   2.010  11.454 -0.3315  0.1133  0.1745
 1221SOL    HW115299   3.991   2.075  11.487  1.0420 -1.5795  0.8867
 1221SOL    HW215300   3.910   2.043  11.366 -0.0807  1.5670  0.6574
 1222SOL     OW15301   1.079   4.677   4.846  0.8588 -0.2763  0.7014
 1222SOL    HW115302   1.155   4.732   4.826 -0.1791  0.3989 -1.3247
 1222SOL    HW215303   1.104   4.641   4.931  1.5080  0.3367  0.7718
 1223SOL     OW15304   1.133   1.227  14.434  0.0965 -0.1087 -0.2671
 1223SOL    HW115305   1.064   1.230  14.367  1.3458  0.5614 -1.5367
 1223SOL    HW215306   1.100   1.187  14.514 -0.1330  1.9713  0.6794
 1224SOL     OW15307   1.531   4.367   4.574  0.5334  0.1278  0.2509
 1224SOL    HW115308   1.535   4.378   4.479  0.8236  0.6903  0.3290
 1224SOL    HW215309   1.507   4.457   4.596 -1.3441 -0.0364 -1.1388
 1225SOL     OW15310   0.118   4.493   6.864  0.2109 -0.2406 -0.1089
 1225SOL    HW115311   0.055   4.565   6.868 -1.0366 -1.4067  1.6018
 1225SOL    HW215312   0.095   4.462   6.777 -0.2325 -0.7984  0.2014
 1226SOL     OW15313   2.111   2.480   8.944 -0.0577 -0.2441 -0.4983
 1226SOL    HW115314   2.020   2.464   8.970  1.0559  1.2562  4.2891
 1226SOL    HW215315   2.144   2.394   8.918  0.1881  0.0821 -1.2570
 1227SOL     OW15316   1.991   0.725   7.237 -0.2512  0.0720 -0.1158
 1227SOL    HW115317   1.955   0.698   7.321 -0.8790 -0.4770 -0.5666
 1227SOL    HW215318   2.087   0.720   7.238 -0.2147  0.2634 -2.4506
 1228SOL     OW15319   3.420   2.755   1.282 -0.0619  0.4087 -0.0222
 1228SOL    HW115320   3.423   2.663   1.309  0.5550  0.1864 -0.8335
 1228SOL    HW215321   3.382   2.797   1.359  1.1679 -0.4085  1.0396
 1229SOL     OW15322   1.413   2.823   2.485  0.0151 -0.0266 -0.2729
 1229SOL    HW115323   1.465   2.863   2.416  0.0446 -1.5461 -1.1258
 1229SOL    HW215324   1.453   2.736   2.493  0.3610  0.2389  0.8688
 1230SOL     OW15325   0.465   2.397   2.022 -0.1617  0.3930  0.0065
 1230SOL    HW115326   0.440   2.374   2.112  0.3165  0.4441  0.1553
 1230SOL    HW215327   0.532   2.330   2.008 -0.2287  0.8026 -2.1872
 1231SOL     OW15328   3.461   0.064   4.337  0.0329 -0.2089  0.4519
 1231SOL    HW115329   3.505   0.035   4.417  0.2737  1.5796  0.9681
 1231SOL    HW215330   3.430   4.718   4.305 -0.4870  0.1943 -0.1075
 1232SOL     OW15331   3.285   0.041   0.746 -0.7039  0.0231  0.3758
 1232SOL    HW115332   3.219   4.716   0.716  0.6644 -1.9278  1.4709
 1232SOL    HW215333   3.257   0.064   0.835  1.3727  0.8696  0.8140
 1233SOL     OW15334   0.036   4.489  12.005  0.2319 -0.0438  0.3218
 1233SOL    HW115335   4.701   4.445  12.048  0.5805 -0.3334  0.6191
 1233SOL    HW215336   0.069   4.548  12.072 -2.2943  1.1575  0.5207
 1234SOL     OW15337   2.279   2.823   5.673  0.2243  0.1976 -0.0479
 1234SOL    HW115338   2.300   2.910   5.706  0.9036 -0.7737  2.0691
 1234SOL    HW215339   2.342   2.801   5.604 -1.1828  0.3393 -1.3716
 1235SOL     OW15340   1.560   0.225  10.506  0.2087 -0.0947 -0.1618
 1235SOL    HW115341   1.479   0.214  10.555  0.4273 -1.0586 -0.0106
 1235SOL    HW215342   1.559   0.149  10.449 -2.3202  1.5961 -2.3470
 1236SOL     OW15343   1.118   2.454   1.818 -0.6510 -0.4164  0.2468
 1236SOL    HW115344   1.047   2.500   1.773 -0.5186 -0.3339  0.1211
 1236SOL    HW215345   1.128   2.496   1.903  0.8104  1.1422 -0.6844
 1237SOL     OW15346   4.328   0.559  15.302 -0.2667  0.0456  0.5561
 1237SOL    HW115347   4.308   0.486  15.362  0.8567 -0.5843  0.1748
 1237SOL    HW215348   4.415   0.582  15.335 -0.2568  0.6507  0.0996
 1238SOL     OW15349   0.277   4.477   1.680  0.2942 -0.3714  0.4408
 1238SOL    HW115350   0.349   4.484   1.743  2.2283  1.4431 -1.9958
 1238SOL    HW215351   0.317   4.500   1.596  2.2100 -0.1358  1.4253
 1239SOL     OW15352   4.477   0.041   3.905 -0.4948 -0.0623  0.0730
 1239SOL    HW115353   4.510   4.689   3.914  0.1884  0.0632 -1.2627
 1239SOL    HW215354   4.385   0.013   3.902 -0.8940  1.0429  1.8708
 1240SOL     OW15355   4.287   4.541   6.976  0.2936 -0.2458 -0.4504
 1240SOL    HW115356   4.363   4.505   7.022  0.4221 -0.8261 -1.1131
 1240SOL    HW215357   4.311   4.632   6.988  0.4472 -0.3240 -0.1496
 1241SOL     OW15358   4.654   0.983   6.861 -0.1248 -0.3587 -0.2497
 1241SOL    HW115359   4.641   1.073   6.833 -2.4282 -0.0523  1.7903
 1241SOL    HW215360   4.662   0.947   6.772 -2.3919 -0.6980 -0.3206
 1242SOL     OW15361   2.200   4.335   4.236 -0.1044  0.6037 -0.5015
 1242SOL    HW115362   2.285   4.351   4.194  1.3439  0.3261  2.3008
 1242SOL    HW215363   2.216   4.243   4.256 -1.3579  0.5453  0.2322
 1243SOL     OW15364   3.302   4.285  15.136  0.2196  0.9436  0.1859
 1243SOL    HW115365   3.312   4.272  15.041  0.9997 -0.6766  0.5006
 1243SOL    HW215366   3.245   4.362  15.139  1.0305  1.5837 -0.7068
 1244SOL     OW15367   2.784   0.878   4.978 -0.6023  0.3275  0.0461
 1244SOL    HW115368   2.695   0.856   4.953 -0.9508  1.5657  0.1678
 1244SOL    HW215369   2.786   0.957   4.924  1.2708  0.5371  0.4131
 1245SOL     OW15370   1.332   0.081  16.697  0.2582 -0.3513 -0.0645
 1245SOL    HW115371   1.346   0.175  16.707 -0.4201 -0.1586 -0.9038
 1245SOL    HW215372   1.409   0.051  16.648  0.6811 -0.3360  0.5858
 1246SOL     OW15373   1.361   1.484   1.401  0.0202  0.6660  0.5223
 1246SOL    HW115374   1.348   1.435   1.482 -0.7321  3.3070  1.9707
 1246SOL    HW215375   1.407   1.417   1.350  0.8792  0.3130  1.7760
 1247SOL     OW15376   1.685   1.524   4.653 -0.6055 -0.0817 -0.1605
 1247SOL    HW115377   1.746   1.471   4.705  0.4306 -1.0082 -2.3107
 1247SOL    HW215378   1.622   1.537   4.724  0.4534 -0.3309  0.8186
 1248SOL     OW15379   2.360   2.305   5.329 -0.6463  0.6235 -0.7356
 1248SOL    HW115380   2.269   2.335   5.337 -0.8416 -0.6418  1.9433
 1248SOL    HW215381   2.356   2.228   5.271  0.9122  0.4286 -0.5713
 1249SOL     OW15382   2.602   2.387   6.736 -0.0952  0.0855 -0.1782
 1249SOL    HW115383   2.680   2.380   6.681  0.0546 -2.5631  0.3932
 1249SOL    HW215384   2.569   2.299   6.751 -0.0069  0.1938  0.6689
 1250SOL     OW15385   3.736   0.276   2.863 -0.2510 -0.7898 -0.1051
 1250SOL    HW115386   3.658   0.330   2.851  0.2704  0.0523  0.2788
 1250SOL    HW215387   3.796   0.319   2.924 -2.2853  2.5475 -0.4903
 1251SOL     OW15388   0.721   2.794   9.318 -0.7233 -0.2114 -0.4748
 1251SOL    HW115389   0.762   2.874   9.350 -1.1426  0.1343 -0.8005
 1251SOL    HW215390   0.740   2.736   9.392  0.5684 -0.5300 -1.0620
 1252SOL     OW15391   3.027   3.937   8.715 -0.0214  0.6573 -0.1567
 1252SOL    HW115392   3.017   3.843   8.700  0.3761  0.3644  1.3428
 1252SOL    HW215393   3.023   3.972   8.626  0.1401  0.0947 -0.3872
 1253SOL     OW15394   3.401   4.026   3.587  0.0675  0.2872  0.3708
 1253SOL    HW115395   3.435   3.973   3.515 -0.3729  1.2193 -0.5241
 1253SOL    HW215396   3.440   3.980   3.662  0.3665 -1.3315 -0.7929
 1254SOL     OW15397   2.829   2.380   4.573 -0.1018  0.1861  0.6220
 1254SOL    HW115398   2.860   2.299   4.534  2.9132  1.6619 -0.0041
 1254SOL    HW215399   2.785   2.341   4.648 -0.8192 -0.2285 -0.0174
 1255SOL     OW15400   1.776   2.423  15.068 -0.2021 -0.0239  0.3709
 1255SOL    HW115401   1.706   2.359  15.063 -0.2334  0.0577 -0.1804
 1255SOL    HW215402   1.735   2.510  15.067  0.5512  0.3025 -2.4107
 1256SOL     OW15403   0.746   4.551  13.434 -0.1644 -0.7547  0.1623
 1256SOL    HW115404   0.704   4.636  13.440  0.2529 -0.4001 -2.0306
 1256SOL    HW215405   0.684   4.501  13.486 -0.5353 -0.9837 -0.4986
 1257SOL     OW15406   0.201   1.543   6.776 -0.1583  0.1188 -0.2660
 1257SOL    HW115407   0.217   1.511   6.865 -0.5454  0.1349 -0.1906
 1257SOL    HW215408   0.106   1.538   6.768 -0.4181  2.0435  1.3801
 1258SOL     OW15409   3.346   2.600   9.262 -0.5298  0.2924 -0.0133
 1258SOL    HW115410   3.254   2.622   9.245 -1.2426 -2.5463  0.1334
 1258SOL    HW215411   3.350   2.506   9.242 -3.4550  0.3570 -0.8934
 1259SOL     OW15412   1.074   1.699  15.695 -0.8893  0.0242 -0.5028
 1259SOL    HW115413   1.109   1.610  15.701 -1.4864 -0.1359  0.5037
 1259SOL    HW215414   0.991   1.690  15.742 -0.1994  0.0521  0.7065
 1260SOL     OW15415   0.377   3.362   2.029 -0.9309 -0.0569 -0.2392
 1260SOL    HW115416   0.300   3.382   1.975 -0.5354 -1.1557 -1.2072
 1260SOL    HW215417   0.439   3.426   1.994 -0.9885 -0.0457 -0.3222
 1261SOL     OW15418   3.757   0.520   4.287  0.1267 -0.3615 -0.1207
 1261SOL    HW115419   3.770   0.439   4.337  0.3030  0.3779  1.0209
 1261SOL    HW215420   3.764   0.485   4.198  0.2095  1.7254 -0.9188
 1262SOL     OW15421   1.901   1.952  11.384 -0.0503 -0.1408  0.2908
 1262SOL    HW115422   1.923   1.897  11.459  0.1515 -1.7597 -0.9283
 1262SOL    HW215423   1.887   1.891  11.311 -1.5856 -0.2646  0.6878
 1263SOL     OW15424   1.568   2.150   9.861  1.0312  0.7032 -0.7776
 1263SOL    HW115425   1.637   2.190   9.915  0.6302  1.4907 -0.8464
 1263SOL    HW215426   1.543   2.221   9.802  0.0566 -0.0584 -1.2773
 1264SOL     OW15427   1.314   2.065  12.587  0.0310  0.0440 -0.4719
 1264SOL    HW115428   1.398   2.086  12.546  0.6865 -0.0790  0.7879
 1264SOL    HW215429   1.283   2.142  12.636  0.8689 -0.1192  0.3268
 1265SOL     OW15430   1.056   2.268   9.518 -0.7225  0.2321 -0.2409
 1265SOL    HW115431   0.963   2.245   9.517 -0.9476  1.1945 -0.6561
 1265SOL    HW215432   1.068   2.284   9.612  1.7012  1.3976 -0.7572
 1266SOL     OW15433   2.109   1.552  11.452 -0.0113 -0.3311 -0.1863
 1266SOL    HW115434   2.053   1.623  11.482 -0.3542 -0.3260 -0.8257
 1266SOL    HW215435   2.100   1.562  11.357 -0.6823  3.3164  0.2721
 1267SOL     OW15436   1.664   0.418   2.088  0.0359 -0.1156  0.3515
 1267SOL    HW115437   1.622   0.405   2.003  1.9701  1.2272 -0.8176
 1267SOL    HW215438   1.661   0.334   2.135  2.0847 -0.5281 -0.2444
 1268SOL     OW15439   4.486   2.676   3.506  0.4715  0.3021 -0.1461
 1268SOL    HW115440   4.512   2.722   3.426 -1.8142 -0.4463 -1.3381
 1268SOL    HW215441   4.404   2.639   3.471  1.1860  0.9146 -2.4684
 1269SOL     OW15442   3.490   1.920   3.477 -0.1869 -0.3254  0.4120
 1269SOL    HW115443   3.463   2.010   3.459 -0.5165 -0.7231 -1.0385
 1269SOL    HW215444   3.421   1.902   3.540 -0.3554  1.2652  0.6844
 1270SOL     OW15445   3.972   2.370   5.690  0.4113  0.1700  0.2966
 1270SOL    HW115446   3.996   2.294   5.743  0.7577  0.7755  1.0094
 1270SOL    HW215447   4.059   2.407   5.677  0.6026 -0.2240  0.4618
 1271SOL     OW15448   0.657   0.171   5.676  0.9679 -0.5474  0.3154
 1271SOL    HW115449   0.640   0.158   5.769 -1.9739 -3.1262 -0.5842
 1271SOL    HW215450   0.678   0.080   5.654  0.8639 -0.6280  0.5512
 1272SOL     OW15451   1.435   4.321   2.870  0.1997  0.1069 -0.1007
 1272SOL    HW115452   1.442   4.312   2.965 -0.6440  0.6239  0.0118
 1272SOL    HW215453   1.395   4.235   2.854  3.1550 -1.0856 -1.1871
 1273SOL     OW15454   3.205   1.325  11.663 -0.4613  0.2395  0.0411
 1273SOL    HW115455   3.190   1.233  11.685 -0.5947  0.2762  0.1058
 1273SOL    HW215456   3.154   1.340  11.584 -1.8425  0.2456  0.9377
 1274SOL     OW15457   3.647   3.153   2.074  0.5099 -0.0293 -0.5962
 1274SOL    HW115458   3.647   3.247   2.091 -1.2050 -0.1951  0.3163
 1274SOL    HW215459   3.699   3.133   2.152  0.4682  0.5517 -0.4255
 1275SOL     OW15460   1.770   0.310   2.932  0.6070 -0.0815  0.2020
 1275SOL    HW115461   1.796   0.313   3.024 -3.5835  1.5042  1.3276
 1275SOL    HW215462   1.777   0.217   2.909 -1.4375  0.0420 -0.9204
 1276SOL     OW15463   1.939   3.152   6.673 -0.1097 -0.3966 -0.8950
 1276SOL    HW115464   1.981   3.192   6.597  3.2802 -0.8793  0.7484
 1276SOL    HW215465   2.005   3.083   6.678 -0.3798 -0.7842 -2.5916
 1277SOL     OW15466   3.613   4.143  10.757  0.2168 -0.2816  0.8677
 1277SOL    HW115467   3.617   4.235  10.783 -1.7063  0.2392 -0.6458
 1277SOL    HW215468   3.686   4.152  10.696  0.4569 -0.2954  1.1534
 1278SOL     OW15469   4.488   1.623   6.586 -0.5680  0.0080  0.2775
 1278SOL    HW115470   4.547   1.698   6.597 -0.9733  0.3581  0.0469
 1278SOL    HW215471   4.553   1.556   6.608 -1.2061 -0.8042 -0.2853
 1279SOL     OW15472   1.618   1.296   0.333 -0.1944 -0.1574  0.1730
 1279SOL    HW115473   1.687   1.230   0.338  0.6359  0.7887  1.1993
 1279SOL    HW215474   1.542   1.265   0.382 -1.0936 -0.8205 -1.6858
 1280SOL     OW15475   4.338   3.204   4.352 -0.3880 -0.7029 -0.5864
 1280SOL    HW115476   4.250   3.219   4.385  0.3683 -0.7807  1.4688
 1280SOL    HW215477   4.357   3.288   4.310  0.8374  0.9777  3.2798
 1281SOL     OW15478   1.512   3.236   8.973 -0.5283  0.7102 -0.0676
 1281SOL    HW115479   1.570   3.170   8.935 -0.3226  1.1119 -0.4570
 1281SOL    HW215480   1.445   3.231   8.906 -0.7478  1.8634  0.0718
 1282SOL     OW15481   2.932   0.865   2.034  0.2707 -0.2903 -0.6717
 1282SOL    HW115482   2.984   0.877   2.113 -1.2621  0.5357  0.2189
 1282SOL    HW215483   2.846   0.899   2.060  0.4198 -0.9159  0.6061
 1283SOL     OW15484   0.902   4.217   4.322  0.3195  0.1200 -0.0162
 1283SOL    HW115485   0.844   4.221   4.246 -0.0727  0.6773  0.3097
 1283SOL    HW215486   0.933   4.307   4.325 -0.1250  0.2914 -0.4947
 1284SOL     OW15487   0.803   2.924   5.814  0.7155 -0.2148 -0.0611
 1284SOL    HW115488   0.824   2.937   5.906  0.1981  2.1595 -0.2873
 1284SOL    HW215489   0.858   2.849   5.790 -0.5306 -0.9800 -0.5444
 1285SOL     OW15490   1.639   0.361  11.846  0.1545  0.1917  0.5853
 1285SOL    HW115491   1.685   0.279  11.867  0.6275  0.4604  0.6109
 1285SOL    HW215492   1.625   0.341  11.754  3.4563  0.5330  0.0165
 1286SOL     OW15493   4.409   0.509   8.899 -0.0322 -0.1967  0.3123
 1286SOL    HW115494   4.424   0.569   8.971  1.5991  0.0718 -0.2480
 1286SOL    HW215495   4.474   0.535   8.834  0.0698 -1.1203  0.0374
 1287SOL     OW15496   4.455   3.976   0.765 -0.8043  0.1872  0.0174
 1287SOL    HW115497   4.550   3.993   0.767 -0.5934 -1.2627  1.8287
 1287SOL    HW215498   4.437   4.068   0.785  1.6745  0.4853  0.9539
 1288SOL     OW15499   3.033   0.148   6.729 -0.0438  0.3034  0.0121
 1288SOL    HW115500   3.011   0.089   6.801 -1.9095  0.8914 -0.0714
 1288SOL    HW215501   3.040   0.087   6.656  0.6314  1.3131 -0.7679
 1289SOL     OW15502   1.215   0.952   3.832 -0.0241 -0.6697 -0.2970
 1289SOL    HW115503   1.285   0.889   3.850 -0.2648 -0.7134  0.4711
 1289SOL    HW215504   1.245   0.972   3.743 -0.6060  2.6555  0.2253
 1290SOL     OW15505   2.019   0.096   8.239  0.2969  0.3266 -0.2098
 1290SOL    HW115506   1.969   0.072   8.317  1.7697 -1.2329  0.2720
 1290SOL    HW215507   1.970   0.051   8.171  1.5720  0.6843 -1.3631
 1291SOL     OW15508   4.734   4.471  16.241  0.3678 -0.0669 -0.0001
 1291SOL    HW115509   4.727   4.513  16.327 -1.0964  4.7222 -2.4741
 1291SOL    HW215510   0.034   4.536  16.182 -0.3734 -0.6810 -1.1519
 1292SOL     OW15511   2.757   0.746  13.783 -1.3141  0.6147  0.0601
 1292SOL    HW115512   2.771   0.688  13.708  3.1547  2.1306 -0.3174
 1292SOL    HW215513   2.843   0.753  13.824 -1.5326  0.1970  0.5840
 1293SOL     OW15514   1.190   2.814   7.792 -0.8484 -0.3630  0.4557
 1293SOL    HW115515   1.136   2.878   7.746 -0.0516  0.4036  0.5848
 1293SOL    HW215516   1.178   2.736   7.738 -0.8045  0.1284 -0.2721
 1294SOL     OW15517   0.990   4.187   5.958 -0.2713  0.3960 -0.5041
 1294SOL    HW115518   0.994   4.282   5.945  1.1630  0.3795 -0.2782
 1294SOL    HW215519   0.899   4.169   5.980  0.3329 -2.6157 -0.5019
 1295SOL     OW15520   3.394   1.816   2.841  0.1215  0.0474 -0.7869
 1295SOL    HW115521   3.306   1.798   2.875  0.2644 -0.6437 -0.7816
 1295SOL    HW215522   3.414   1.884   2.905  0.8534 -1.7485  0.9319
 1296SOL     OW15523   1.516   4.055   7.172  0.2588  0.2048  0.1072
 1296SOL    HW115524   1.452   4.068   7.241  1.8641  0.5392  1.5338
 1296SOL    HW215525   1.557   3.976   7.206  0.3178  0.5940  0.9238
 1297SOL     OW15526   2.171   2.127   4.528 -0.2314 -0.6218 -0.0642
 1297SOL    HW115527   2.165   2.168   4.442 -0.6414 -1.7949 -0.5834
 1297SOL    HW215528   2.124   2.194   4.579 -1.4778  0.3841 -2.5680
 1298SOL     OW15529   3.875   2.351   7.414 -0.3675 -0.1915 -0.2522
 1298SOL    HW115530   3.839   2.286   7.354  0.1922 -0.7982  0.0693
 1298SOL    HW215531   3.931   2.408   7.360  0.3016 -0.0467  0.5826
 1299SOL     OW15532   0.592   4.330   1.860 -0.0352  0.2843  0.1114
 1299SOL    HW115533   0.659   4.370   1.804  1.7934 -2.6575  0.2389
 1299SOL    HW215534   0.533   4.401   1.886  0.0362  0.9681 -1.5803
 1300SOL     OW15535   0.559   2.385   7.427  0.3439 -0.0493  0.1613
 1300SOL    HW115536   0.467   2.362   7.425  0.9217 -2.6372  2.6929
 1300SOL    HW215537   0.591   2.328   7.497  1.9817 -0.5482 -0.9885
 1301SOL     OW15538   1.128   2.649   4.187 -0.3404  0.2138  0.1663
 1301SOL    HW115539   1.205   2.604   4.220 -0.9648 -1.4331 -0.6489
 1301SOL    HW215540   1.156   2.657   4.096 -2.1608 -0.1384 -0.4229
 1302SOL     OW15541   0.817   2.159  14.419 -1.4316 -0.4814  0.0871
 1302SOL    HW115542   0.906   2.133  14.442 -0.5048  3.7656  1.1930
 1302SOL    HW215543   0.804   2.239  14.470 -0.7826 -0.0592 -0.4198
 1303SOL     OW15544   0.621   3.412   4.838  0.4813  0.0570  0.5103
 1303SOL    HW115545   0.555   3.417   4.906 -0.0544 -2.4767  0.1719
 1303SOL    HW215546   0.629   3.321   4.810 -2.3271 -0.0316 -0.0528
 1304SOL     OW15547   1.172   3.802   2.658  0.0360 -0.1201 -0.0263
 1304SOL    HW115548   1.162   3.877   2.601 -0.3772 -0.5803 -0.5557
 1304SOL    HW215549   1.242   3.753   2.615 -1.6718 -2.2208 -0.3989
 1305SOL     OW15550   3.290   3.747   6.620 -0.2386 -0.0175  0.2287
 1305SOL    HW115551   3.224   3.815   6.606 -2.3509 -1.6591  2.0216
 1305SOL    HW215552   3.308   3.715   6.532 -1.2285 -0.5706  0.2236
 1306SOL     OW15553   2.089   3.630   0.551  0.1376 -0.0531 -0.0135
 1306SOL    HW115554   2.169   3.577   0.551  0.7325  0.8813  1.6638
 1306SOL    HW215555   2.120   3.716   0.579 -0.5793  0.6502 -1.4075
 1307SOL     OW15556   3.811   1.971   4.730  0.6171  0.9274 -0.5145
 1307SOL    HW115557   3.737   1.960   4.790  1.0706  1.2514  0.1079
 1307SOL    HW215558   3.880   1.950   4.793  0.7415  1.0192 -0.6208
 1308SOL     OW15559   3.377   1.484   4.521 -0.7853  0.0768  0.4773
 1308SOL    HW115560   3.396   1.436   4.440 -1.2793 -0.2177  0.5312
 1308SOL    HW215561   3.363   1.571   4.485  1.0356  0.3640  0.4686
 1309SOL     OW15562   4.230   0.166  12.982 -0.1374  0.0946  0.1908
 1309SOL    HW115563   4.280   0.246  12.969  1.5871 -1.1432 -0.8670
 1309SOL    HW215564   4.162   0.172  12.915  1.8506  0.3643 -1.8044
 1310SOL     OW15565   4.058   3.787   8.576 -0.1239 -0.5239  0.2006
 1310SOL    HW115566   4.056   3.872   8.532 -1.6321 -0.8979 -0.4437
 1310SOL    HW215567   3.980   3.794   8.631  1.5584 -0.8183  2.6426
 1311SOL     OW15568   1.537   2.164  12.446 -0.3302 -0.1435  0.2573
 1311SOL    HW115569   1.623   2.163  12.404 -1.2153  0.1275 -1.5720
 1311SOL    HW215570   1.492   2.230  12.392  2.3969  0.6360 -1.0982
 1312SOL     OW15571   3.554   1.359   3.858  0.4689  0.2409  0.4963
 1312SOL    HW115572   3.529   1.422   3.926 -3.0063  0.0369 -0.5584
 1312SOL    HW215573   3.473   1.315   3.831  0.1436  0.6881  0.7395
 1313SOL     OW15574   1.603   0.438   4.798 -0.3031  0.4968 -0.4116
 1313SOL    HW115575   1.589   0.520   4.751  0.1002 -0.9743 -3.0434
 1313SOL    HW215576   1.696   0.444   4.821 -0.4575  0.6899  0.1825
 1314SOL     OW15577   1.292   2.752  13.650 -0.0901  0.3191 -0.5814
 1314SOL    HW115578   1.342   2.680  13.688  1.9596  0.8773 -2.1992
 1314SOL    HW215579   1.311   2.826  13.708  0.5790  0.4817 -0.9976
 1315SOL     OW15580   1.016   1.125  17.253  0.2977  0.1462 -0.2334
 1315SOL    HW115581   0.992   1.035  17.275 -2.8864  1.1785  0.5063
 1315SOL    HW215582   0.952   1.153  17.188 -0.0810  0.3962  0.2468
 1316SOL     OW15583   2.305   3.717   1.869  0.1150 -0.3568 -0.2809
 1316SOL    HW115584   2.268   3.790   1.919 -0.2003  0.3413 -1.5457
 1316SOL    HW215585   2.398   3.739   1.872  0.1746 -0.7142  0.8187
 1317SOL     OW15586   2.592   0.486  13.447  0.1099 -0.5239  0.4054
 1317SOL    HW115587   2.572   0.507  13.538  2.5831 -0.9192  1.0299
 1317SOL    HW215588   2.532   0.413  13.433  2.3603 -2.1296 -0.9572
 1318SOL     OW15589   2.500   0.369   0.959  0.1228 -0.4313  0.0523
 1318SOL    HW115590   2.484   0.403   1.047  0.0045 -0.4714  0.0460
 1318SOL    HW215591   2.584   0.328   0.979 -0.9817 -2.1560  1.1966
 1319SOL     OW15592   3.509   3.354   8.065  0.6900  0.6429  0.1169
 1319SOL    HW115593   3.447   3.416   8.103  0.0523 -0.5529  1.0148
 1319SOL    HW215594   3.567   3.359   8.140  1.7631  2.7250 -0.8608
 1320SOL     OW15595   0.086   2.975   6.453  0.3807 -0.7468  0.1401
 1320SOL    HW115596   4.738   2.934   6.447 -0.3878  0.5199  2.7993
 1320SOL    HW215597   0.143   2.925   6.511 -0.6598 -1.9196  0.1522
 1321SOL     OW15598   0.243   3.869   7.873 -0.1028 -0.0950 -0.0726
 1321SOL    HW115599   0.314   3.932   7.861 -0.9317  0.2421 -3.3088
 1321SOL    HW215600   0.268   3.823   7.952 -0.1077 -1.9198 -1.1336
 1322SOL     OW15601   1.610   1.031  17.725 -0.4121  0.1446  0.2360
 1322SOL    HW115602   1.607   1.127  17.727 -2.5062  0.0804 -0.0623
 1322SOL    HW215603   1.531   0.999  17.682  0.0305  1.3339 -1.4705
 1323SOL     OW15604   1.538   2.284  13.683  0.9361 -0.6903 -0.0955
 1323SOL    HW115605   1.527   2.215  13.618 -0.3595  0.2854 -0.9172
 1323SOL    HW215606   1.615   2.247  13.725  1.1597  2.0620  1.9962
 1324SOL     OW15607   0.035   4.497   8.100  0.1080 -0.5007  0.1306
 1324SOL    HW115608   4.681   4.477   8.084  0.3009 -1.3500  0.0738
 1324SOL    HW215609   0.062   4.424   8.155 -1.9085 -0.2374  1.4614
 1325SOL     OW15610   0.081   4.524   8.971  0.6136 -0.4857  0.2426
 1325SOL    HW115611   0.154   4.465   8.988 -0.4552 -1.2341  2.2466
 1325SOL    HW215612   0.050   4.489   8.887 -2.9847 -0.1859  1.4291
 1326SOL     OW15613   1.866   1.340   4.012  0.0683  0.2680 -0.0762
 1326SOL    HW115614   1.828   1.427   4.014  1.2842  0.7967 -0.1586
 1326SOL    HW215615   1.812   1.297   4.078  1.4735 -2.7778 -0.8920
 1327SOL     OW15616   1.978   0.702   7.752  0.0192 -0.1208  0.7838
 1327SOL    HW115617   1.887   0.708   7.780  0.5388  1.4247  2.1607
 1327SOL    HW215618   2.023   0.696   7.836 -2.6021 -0.4554  2.1630
 1328SOL     OW15619   3.427   1.246   2.293  0.2618 -0.1458  0.9724
 1328SOL    HW115620   3.375   1.167   2.281  0.7276 -0.2649 -0.2878
 1328SOL    HW215621   3.449   1.266   2.202 -1.0243  0.7994  0.8800
 1329SOL     OW15622   4.618   1.417   6.073 -0.9551  0.4189  0.6103
 1329SOL    HW115623   4.542   1.370   6.037  1.0443  0.6416 -3.8309
 1329SOL    HW215624   4.579   1.459   6.149  0.1709  0.5568  1.1092
 1330SOL     OW15625   4.318   2.899  11.233  0.1538  0.1274  0.0673
 1330SOL    HW115626   4.321   2.924  11.141  0.3950 -0.9305 -0.2173
 1330SOL    HW215627   4.312   2.809  11.200 -1.0369  0.3264 -0.2608
 1331SOL     OW15628   2.900   3.480   4.228 -0.2255 -0.0495 -0.1476
 1331SOL    HW115629   2.970   3.444   4.282 -1.5440 -1.0870  0.8947
 1331SOL    HW215630   2.867   3.396   4.196  1.7758 -0.1834 -1.8344
 1332SOL     OW15631   0.281   1.452   0.997  0.7176  0.1382  0.4759
 1332SOL    HW115632   0.189   1.427   1.005  0.5443  0.2354 -1.2753
 1332SOL    HW215633   0.275   1.528   0.941 -1.0444 -1.3137 -1.2738
 1333SOL     OW15634   2.333   2.718   6.201  0.2755  0.2122 -0.0042
 1333SOL    HW115635   2.340   2.624   6.219  0.7954  0.2705  0.1052
 1333SOL    HW215636   2.337   2.718   6.106  2.4191  0.5069  0.0869
 1334SOL     OW15637   3.093   1.647  12.016  0.5954 -0.1090 -0.2071
 1334SOL    HW115638   3.048   1.730  12.004  1.6062  0.6564  1.2980
 1334SOL    HW215639   3.033   1.603  12.076 -1.1819 -0.0401 -1.9439
 1335SOL     OW15640   2.369   1.403   5.059  0.0446  0.0998  0.2217
 1335SOL    HW115641   2.454   1.368   5.032  0.4597  1.2497  0.0555
 1335SOL    HW215642   2.356   1.355   5.141  1.1340 -0.2755  0.1711
 1336SOL     OW15643   0.988   1.799   2.546 -0.6234  0.2031 -0.1120
 1336SOL    HW115644   1.007   1.708   2.567  1.8895  0.6288 -0.5520
 1336SOL    HW215645   1.014   1.840   2.628 -0.0174  1.4120 -0.9013
 1337SOL     OW15646   2.039   0.231   6.631  0.5747 -0.0312  0.2862
 1337SOL    HW115647   2.072   0.320   6.645  0.7608 -0.1406  0.5492
 1337SOL    HW215648   1.989   0.219   6.712 -0.0429  1.4465  0.1087
 1338SOL     OW15649   4.527   1.520   7.465  0.6221 -0.0197  0.3181
 1338SOL    HW115650   4.475   1.588   7.508  1.5339  1.4006 -0.8283
 1338SOL    HW215651   4.461   1.458   7.434  0.9670  1.2088 -2.8916
 1339SOL     OW15652   3.535   0.953   1.780  0.0391 -0.1653 -0.3088
 1339SOL    HW115653   3.624   0.948   1.816 -0.0282 -1.1802 -0.2902
 1339SOL    HW215654   3.537   1.034   1.730 -2.9741  0.4393  0.5585
 1340SOL     OW15655   2.681   4.010   5.071  0.2343  0.2386 -0.3574
 1340SOL    HW115656   2.644   4.077   5.015  1.7191  0.2423 -1.3446
 1340SOL    HW215657   2.716   4.071   5.136 -1.1113 -0.2567  0.8252
 1341SOL     OW15658   1.142   2.481   3.895 -0.5629  0.3273  0.1035
 1341SOL    HW115659   1.106   2.540   3.828  0.9025  1.5162  0.3829
 1341SOL    HW215660   1.235   2.497   3.885 -1.2175  4.0459 -0.1111
 1342SOL     OW15661   2.422   1.166   5.728 -0.5227 -0.4326 -0.3474
 1342SOL    HW115662   2.507   1.158   5.771  0.2638  1.2960 -1.5986
 1342SOL    HW215663   2.428   1.092   5.668  0.9966 -2.9646  2.8549
 1343SOL     OW15664   3.591   2.815  15.067 -0.1974  0.7200 -0.6031
 1343SOL    HW115665   3.634   2.851  14.989  3.5731  0.7161  1.4325
 1343SOL    HW215666   3.663   2.773  15.114 -2.1639 -0.4428  1.3347
 1344SOL     OW15667   0.236   1.613  13.855  0.3287 -0.1054 -0.4364
 1344SOL    HW115668   0.193   1.698  13.852  0.0120 -0.1853  2.2462
 1344SOL    HW215669   0.297   1.625  13.928 -1.6139 -1.3064  1.3693
 1345SOL     OW15670   2.022   3.478  15.492 -0.0332  0.3889  0.4801
 1345SOL    HW115671   1.940   3.447  15.453  0.5124 -1.6486  0.9401
 1345SOL    HW215672   2.024   3.573  15.483  0.4365  0.4100  0.8204
 1346SOL     OW15673   0.383   3.418   8.131 -0.4112  0.1557 -0.0163
 1346SOL    HW115674   0.389   3.425   8.226 -1.6250  0.6623  0.0181
 1346SOL    HW215675   0.382   3.323   8.115  1.8024 -0.1078  1.4601
 1347SOL     OW15676   2.940   0.013  11.526  0.2771  0.3297  0.7618
 1347SOL    HW115677   2.893   0.088  11.490  0.2605  0.4405  1.0146
 1347SOL    HW215678   2.899   0.026  11.611  3.1595  1.2790  2.0095
 1348SOL     OW15679   0.370   4.226   7.159  0.2513 -0.5754  0.0343
 1348SOL    HW115680   0.387   4.273   7.077  0.5518 -2.6046 -1.0642
 1348SOL    HW215681   0.275   4.218   7.147  0.0270  1.2063  0.7210
 1349SOL     OW15682   4.228   3.792  15.336 -0.2010 -0.3359 -0.0936
 1349SOL    HW115683   4.215   3.699  15.356 -1.1161 -0.1529  0.1531
 1349SOL    HW215684   4.150   3.838  15.369 -0.4890  1.2829 -3.1167
 1350SOL     OW15685   1.320   4.071   2.833  0.5014  0.7392  0.1392
 1350SOL    HW115686   1.285   4.064   2.744 -2.1926 -0.2561  1.2642
 1350SOL    HW215687   1.379   3.996   2.828  0.1349  0.4525  0.0453
 1351SOL     OW15688   1.644   1.921   5.952  0.2988  0.8834 -0.0945
 1351SOL    HW115689   1.574   1.856   5.945  0.1124  0.9730  1.0084
 1351SOL    HW215690   1.604   1.998   5.993  0.4633 -0.1952  2.0473
 1352SOL     OW15691   2.770   0.927   2.468  0.1993 -0.5599 -0.3318
 1352SOL    HW115692   2.818   0.855   2.426 -1.3788 -1.8977  0.1583
 1352SOL    HW215693   2.820   0.937   2.549  0.6722  0.6219 -0.7788
 1353SOL     OW15694   2.121   4.031  10.139  0.0315 -0.0153 -0.5952
 1353SOL    HW115695   2.177   4.027  10.061 -1.1402 -0.9178 -1.3721
 1353SOL    HW215696   2.033   4.025  10.104 -0.7968 -2.8681  1.9477
 1354SOL     OW15697   1.724   2.633   5.562  0.2074  0.0393 -0.2978
 1354SOL    HW115698   1.731   2.703   5.497  2.2081 -0.2962 -0.4442
 1354SOL    HW215699   1.771   2.556   5.529 -0.6349 -1.0557  1.0277
 1355SOL     OW15700   1.421   2.484   4.554 -0.0951  0.2725 -0.4479
 1355SOL    HW115701   1.348   2.435   4.517 -0.7129  0.8242  0.0190
 1355SOL    HW215702   1.383   2.572   4.562 -3.0092 -1.1449  1.4856
 1356SOL     OW15703   3.489   3.618   6.759 -0.2261  0.6157  0.0876
 1356SOL    HW115704   3.515   3.697   6.807  0.4612  0.4915 -0.0826
 1356SOL    HW215705   3.418   3.663   6.713 -0.9191 -2.5462 -1.9329
 1357SOL     OW15706   0.423   4.559   1.892  0.5884 -0.1150 -0.1789
 1357SOL    HW115707   0.408   4.653   1.898  0.6933 -0.0698 -0.6067
 1357SOL    HW215708   0.372   4.516   1.961  0.2678  0.7075  0.0906
 1358SOL     OW15709   3.690   2.703   4.775  0.2795 -0.0368 -0.3254
 1358SOL    HW115710   3.603   2.671   4.752 -0.0087 -0.0687  0.7913
 1358SOL    HW215711   3.712   2.643   4.847 -3.2675  2.6118  2.9025
 1359SOL     OW15712   3.874   3.008   7.723 -0.1190  0.2413 -0.2778
 1359SOL    HW115713   3.827   3.061   7.659 -0.8884 -0.2170 -0.1000
 1359SOL    HW215714   3.856   2.923   7.684  0.7276 -0.5058  0.9776
 1360SOL     OW15715   0.448   1.275  16.477  0.4324  0.4789  0.3755
 1360SOL    HW115716   0.543   1.283  16.487  0.5836 -0.9295  0.1421
 1360SOL    HW215717   0.432   1.186  16.509  1.0457  0.2079 -0.0719
 1361SOL     OW15718   3.123   4.684   4.709 -0.2837  0.3933  0.1944
 1361SOL    HW115719   3.129   0.028   4.661 -1.3833  0.3752  0.0144
 1361SOL    HW215720   3.066   4.635   4.650  0.6959 -0.0339 -0.3926
 1362SOL     OW15721   2.483   0.958  13.447  0.1304 -0.3175 -0.1615
 1362SOL    HW115722   2.533   0.927  13.522  0.4595  1.1108  0.1935
 1362SOL    HW215723   2.550   1.009  13.404  2.0557 -0.5205  2.6203
 1363SOL     OW15724   0.166   4.341   3.402  0.2168 -0.0668 -0.2384
 1363SOL    HW115725   0.260   4.340   3.384  0.7301  0.1514  2.4191
 1363SOL    HW215726   0.158   4.249   3.428 -0.5916 -0.0418 -0.4037
 1364SOL     OW15727   4.434   1.817   2.430 -0.1968  1.1602  0.3138
 1364SOL    HW115728   4.476   1.903   2.422  1.6091  0.1226 -1.3716
 1364SOL    HW215729   4.377   1.814   2.354  1.8769 -1.6258 -1.1299
 1365SOL     OW15730   1.692   4.235  16.702  0.0278 -0.5105 -0.2194
 1365SOL    HW115731   1.696   4.303  16.635 -0.3808  0.9867  1.2613
 1365SOL    HW215732   1.786   4.218  16.712  0.1570 -1.0552 -2.3761
 1366SOL     OW15733   1.139   0.564   5.661 -0.6004  0.2969 -0.2123
 1366SOL    HW115734   1.123   0.655   5.635 -1.3085  0.3583  0.4239
 1366SOL    HW215735   1.196   0.527   5.593  0.6373  2.4764 -0.3715
 1367SOL     OW15736   3.093   2.797   5.628 -0.0105 -0.0700 -0.2868
 1367SOL    HW115737   3.114   2.862   5.695 -0.6847 -0.0118 -0.1375
 1367SOL    HW215738   3.139   2.838   5.554  3.3294 -0.9467  1.2853
 1368SOL     OW15739   0.232   0.996  15.740 -0.3357 -0.0319 -0.5624
 1368SOL    HW115740   0.248   0.992  15.645 -0.4022 -1.6654 -0.5069
 1368SOL    HW215741   0.323   0.989  15.770 -0.9303 -0.3341  1.1331
 1369SOL     OW15742   0.768   0.682   2.611  0.0315  0.0811 -0.3513
 1369SOL    HW115743   0.795   0.650   2.697 -0.2150  0.2135 -0.2256
 1369SOL    HW215744   0.834   0.749   2.592  0.0870  0.5155  1.3155
 1370SOL     OW15745   2.709   4.146   8.837 -0.2333  0.1252 -0.1429
 1370SOL    HW115746   2.731   4.091   8.762 -1.0644  0.3004 -0.5158
 1370SOL    HW215747   2.786   4.196   8.863  1.4868 -2.2761 -0.5796
 1371SOL     OW15748   2.476   2.839   6.381 -0.2169 -0.7123  0.3997
 1371SOL    HW115749   2.444   2.778   6.446  0.6092 -0.9178  0.6207
 1371SOL    HW215750   2.446   2.787   6.307 -0.5707 -0.6231  0.4802
 1372SOL     OW15751   1.257   0.512   3.660  0.6275 -0.0309  0.0250
 1372SOL    HW115752   1.324   0.446   3.642  0.5827  0.6105 -2.4812
 1372SOL    HW215753   1.219   0.524   3.573  0.5737  2.3569  0.3702
 1373SOL     OW15754   3.017   0.531  12.212  0.0651  0.4554 -0.7208
 1373SOL    HW115755   3.031   0.617  12.253  2.0037 -0.4687  0.5403
 1373SOL    HW215756   3.085   0.474  12.246 -0.4991 -0.5756 -1.3353
 1374SOL     OW15757   3.552   3.987   9.756  0.4743 -0.8902  0.1699
 1374SOL    HW115758   3.570   3.940   9.675  2.3408 -0.7192  0.4732
 1374SOL    HW215759   3.588   3.920   9.814 -0.7866 -2.3215 -0.7245
 1375SOL     OW15760   2.484   2.323  12.725 -0.3749  0.0756 -0.0153
 1375SOL    HW115761   2.558   2.287  12.676  1.3326  0.2252  2.4304
 1375SOL    HW215762   2.410   2.311  12.666 -1.5542 -0.9244  1.6738
 1376SOL     OW15763   2.341   0.438  10.173  0.6613  0.5370  1.0875
 1376SOL    HW115764   2.356   0.522  10.216  0.5596  0.7241  0.7619
 1376SOL    HW215765   2.273   0.397  10.226  0.9471 -1.8488 -0.4074
 1377SOL     OW15766   0.076   2.153  11.326  0.3913  0.1221 -0.8441
 1377SOL    HW115767   0.064   2.062  11.300  1.6495  0.0713 -1.2106
 1377SOL    HW215768   0.148   2.142  11.387 -0.5680 -1.4913 -0.0080
 1378SOL     OW15769   4.408   2.088  13.226 -0.3657  0.0007  1.1217
 1378SOL    HW115770   4.474   2.039  13.178  1.7473  2.3403  1.6606
 1378SOL    HW215771   4.465   2.151  13.270 -1.8054  1.5944  0.7129
 1379SOL     OW15772   4.367   4.284   6.752  0.7474 -0.5243 -0.2088
 1379SOL    HW115773   4.351   4.191   6.738 -0.7187 -0.2590 -0.3611
 1379SOL    HW215774   4.299   4.325   6.697 -0.3934  0.1532  1.7196
 1380SOL     OW15775   1.734   0.125   9.329  0.3454 -0.1135  0.5152
 1380SOL    HW115776   1.800   0.142   9.262 -0.2607 -0.2175 -0.1062
 1380SOL    HW215777   1.781   0.072   9.392 -0.2594  0.2045  1.2336
 1381SOL     OW15778   2.575   1.844   8.511 -0.9716 -0.7603  0.1586
 1381SOL    HW115779   2.589   1.827   8.604 -1.6978  0.8297  0.5696
 1381SOL    HW215780   2.612   1.769   8.466  0.5659  1.3881 -2.1667
 1382SOL     OW15781   0.335   2.535   2.339  0.1786 -0.0853 -0.1723
 1382SOL    HW115782   0.371   2.611   2.293 -0.8629 -0.2353 -1.2423
 1382SOL    HW215783   0.334   2.585   2.420 -1.0762  1.0841 -0.9148
 1383SOL     OW15784   1.535   2.557  16.858  0.4590 -0.0891 -0.1526
 1383SOL    HW115785   1.484   2.636  16.875  0.6499  0.6527 -2.9612
 1383SOL    HW215786   1.617   2.600  16.833  1.0480 -0.9007  0.3869
 1384SOL     OW15787   1.391   1.355   7.764  0.2210 -0.2307 -0.1321
 1384SOL    HW115788   1.367   1.294   7.834  1.3641 -0.1876  0.2982
 1384SOL    HW215789   1.402   1.439   7.808  0.3849 -0.3806  0.1106
 1385SOL     OW15790   0.732   1.183   9.381 -0.8030  0.0459 -0.1503
 1385SOL    HW115791   0.736   1.197   9.287 -0.4159 -2.0201 -0.4369
 1385SOL    HW215792   0.816   1.154   9.416 -1.0244 -0.7156 -0.2552
 1386SOL     OW15793   3.633   4.510   6.086  0.2236 -0.2302  0.0528
 1386SOL    HW115794   3.705   4.485   6.028  2.6238  0.7142  2.6374
 1386SOL    HW215795   3.676   4.516   6.171  0.4962 -0.9955 -0.0306
 1387SOL     OW15796   1.972   1.062   4.351  0.2069  0.2459 -0.4516
 1387SOL    HW115797   1.907   1.036   4.416  0.7547  2.5541  1.0154
 1387SOL    HW215798   1.966   1.157   4.350 -1.3770  0.1672  1.9856
 1388SOL     OW15799   3.735   0.093  15.495  0.5341  0.0278  0.8103
 1388SOL    HW115800   3.712   0.000  15.499 -1.6122  0.5322  0.1743
 1388SOL    HW215801   3.731   0.110  15.401  1.3219  4.7678  1.6565
 1389SOL     OW15802   2.000   3.235   7.317 -0.5784 -0.2005  0.3971
 1389SOL    HW115803   2.013   3.307   7.254  1.1269 -0.6714  0.1965
 1389SOL    HW215804   1.910   3.257   7.340  0.3840  2.4255  1.7060
 1390SOL     OW15805   1.923   3.759   9.718  0.1404  0.1977 -0.1915
 1390SOL    HW115806   1.952   3.687   9.773  1.1307  0.5119 -0.3068
 1390SOL    HW215807   1.931   3.836   9.774 -1.3303  0.0667  0.2075
 1391SOL     OW15808   4.351   3.514   2.667  0.0085 -0.3944  0.0945
 1391SOL    HW115809   4.341   3.594   2.719  0.1971 -0.7912  0.7353
 1391SOL    HW215810   4.292   3.450   2.707  1.1317 -1.0826  0.6640
 1392SOL     OW15811   0.370   0.359   4.035 -0.5652  0.2961 -0.1283
 1392SOL    HW115812   0.393   0.440   4.082  0.3627  0.6204 -1.1559
 1392SOL    HW215813   0.277   0.371   4.057 -0.6977  2.5060 -1.9226
 1393SOL     OW15814   1.498   1.055  13.841 -0.5403 -0.1220 -0.5296
 1393SOL    HW115815   1.467   1.144  13.825  1.6274  0.4589 -1.5162
 1393SOL    HW215816   1.593   1.068  13.847 -0.5169  0.5228 -2.2376
 1394SOL     OW15817   2.732   4.341   2.662  0.3739 -1.2172  0.2323
 1394SOL    HW115818   2.750   4.420   2.612 -0.7928 -0.4285  1.0497
 1394SOL    HW215819   2.645   4.309   2.637  0.1820  0.9566 -1.8139
 1395SOL     OW15820   0.579   2.707   6.523  0.4603 -0.0126  0.2073
 1395SOL    HW115821   0.576   2.621   6.564 -1.5681 -0.2460 -0.4174
 1395SOL    HW215822   0.498   2.709   6.471  1.1857  0.4222 -0.9012
 1396SOL     OW15823   0.695   1.292   2.957  0.1927  0.5259  0.7146
 1396SOL    HW115824   0.768   1.304   2.896  0.0880 -1.2672  0.2278
 1396SOL    HW215825   0.717   1.355   3.025 -0.9958  0.3109  1.3088
 1397SOL     OW15826   1.771   0.583   6.442 -0.2684  0.5040 -0.2744
 1397SOL    HW115827   1.725   0.606   6.523 -0.0095  0.9370 -0.2518
 1397SOL    HW215828   1.692   0.560   6.393  1.1926 -1.9113 -1.5005
 1398SOL     OW15829   2.519   0.406   4.900  0.1912 -0.7482 -0.0522
 1398SOL    HW115830   2.446   0.346   4.916  0.9322 -0.5379  4.3535
 1398SOL    HW215831   2.512   0.470   4.972  1.4277 -0.5940 -0.0645
 1399SOL     OW15832   3.550   0.451   5.638  0.2973 -0.5603  0.3290
 1399SOL    HW115833   3.604   0.387   5.685 -1.9309 -1.9200  1.0575
 1399SOL    HW215834   3.535   0.511   5.711  1.7540  1.3903 -1.0005
 1400SOL     OW15835   1.127   2.529  13.742 -0.0168 -0.3683  0.0581
 1400SOL    HW115836   1.177   2.563  13.816 -0.1928  0.0310 -0.0087
 1400SOL    HW215837   1.161   2.441  13.724  1.2202  0.1558 -0.1419
 1401SOL     OW15838   0.463   4.434   6.949 -0.0753  0.1816  0.6254
 1401SOL    HW115839   0.551   4.401   6.934  0.8616  1.6433  2.9193
 1401SOL    HW215840   0.422   4.430   6.863  1.4938  1.3540 -0.1605
 1402SOL     OW15841   3.297   1.698  12.180  0.2879 -0.3781  0.2364
 1402SOL    HW115842   3.241   1.682  12.104  0.3213  0.3122  0.0674
 1402SOL    HW215843   3.307   1.793  12.177 -0.9337 -0.2591 -0.1165
 1403SOL     OW15844   1.133   2.257   8.995 -0.6916 -0.0933 -0.0834
 1403SOL    HW115845   1.136   2.275   9.089 -0.0462  0.3617 -0.1941
 1403SOL    HW215846   1.041   2.232   8.998 -0.7179  0.0601  0.3353
 1404SOL     OW15847   3.919   4.695   4.925  0.5490  0.3862 -0.6063
 1404SOL    HW115848   3.852   4.633   4.952 -0.0999  0.8451 -1.1675
 1404SOL    HW215849   3.962   4.730   5.003  0.3681  0.4229 -0.5244
 1405SOL     OW15850   1.323   1.523  14.243 -0.0699 -0.4407  0.3198
 1405SOL    HW115851   1.272   1.493  14.168 -2.2437 -2.3297  2.5075
 1405SOL    HW215852   1.338   1.450  14.303 -1.3335  1.3565  2.8345
 1406SOL     OW15853   3.390   0.007   1.985  0.8174  0.1159 -0.5672
 1406SOL    HW115854   3.382   0.047   2.072  0.6165  1.3345 -1.1561
 1406SOL    HW215855   3.407   0.088   1.938 -0.7340 -1.1064 -3.2613
 1407SOL     OW15856   4.588   1.020   6.181  0.0475  0.1551 -0.8343
 1407SOL    HW115857   4.630   1.078   6.117  1.1353  1.4329  1.0493
 1407SOL    HW215858   4.521   0.973   6.131  0.6358  1.1259 -2.5416
 1408SOL     OW15859   0.904   3.543   6.473  0.6675  0.2991 -0.4765
 1408SOL    HW115860   0.925   3.572   6.562 -2.3146  1.8080 -0.2626
 1408SOL    HW215861   0.936   3.616   6.421  1.1324  1.1692  1.0168
 1409SOL     OW15862   4.733   4.264  10.463 -0.1627  0.3826  0.2033
 1409SOL    HW115863   4.724   4.357  10.441  1.1166  0.2884 -0.7368
 1409SOL    HW215864   4.683   4.268  10.544 -2.6032 -0.0160 -1.2797
 1410SOL     OW15865   3.148   1.246   1.018 -0.1067 -0.4110 -0.2141
 1410SOL    HW115866   3.075   1.236   0.957  0.6630  1.6632 -1.4682
 1410SOL    HW215867   3.114   1.200   1.095  1.7983 -0.9938  0.2846
 1411SOL     OW15868   1.485   1.718   9.290  0.0547 -0.2524 -0.1349
 1411SOL    HW115869   1.401   1.701   9.248  0.5288  0.0550 -1.1952
 1411SOL    HW215870   1.451   1.751   9.373  3.4849  2.4556  0.2022
 1412SOL     OW15871   0.195   1.437   1.276 -0.4633  0.4433 -0.3844
 1412SOL    HW115872   0.104   1.465   1.267 -0.8030 -0.7111 -0.5941
 1412SOL    HW215873   0.222   1.441   1.184  0.1842  0.8875 -0.1688
 1413SOL     OW15874   1.699   0.858   8.416  0.3072 -0.2601  0.4192
 1413SOL    HW115875   1.762   0.926   8.393  0.6706 -0.4261  0.9572
 1413SOL    HW215876   1.682   0.880   8.507  3.6116  2.5908  0.3271
 1414SOL     OW15877   4.290   1.225   0.497 -0.3003 -0.3023 -0.0937
 1414SOL    HW115878   4.206   1.265   0.476 -1.6572 -1.4345  3.3029
 1414SOL    HW215879   4.263   1.137   0.472 -0.5839 -0.0601 -0.6469
 1415SOL     OW15880   0.419   2.824  17.347 -0.2860  0.1719  0.1262
 1415SOL    HW115881   0.447   2.903  17.300  1.5848 -1.1363 -0.9524
 1415SOL    HW215882   0.488   2.759  17.337  0.6035  1.3266 -1.2423
 1416SOL     OW15883   4.161   0.575   4.647  0.0012  0.1338  0.0429
 1416SOL    HW115884   4.172   0.652   4.592 -0.7790  0.8462  0.8948
 1416SOL    HW215885   4.151   0.614   4.734 -0.6342 -3.0374  1.3806
 1417SOL     OW15886   1.194   3.828   5.464  0.4682 -0.2737 -0.2268
 1417SOL    HW115887   1.163   3.799   5.550 -1.3211 -1.7575 -1.3589
 1417SOL    HW215888   1.284   3.795   5.467 -0.0091 -1.7190 -1.5572
 1418SOL     OW15889   2.835   2.633   9.434 -0.4779 -0.0323 -0.4445
 1418SOL    HW115890   2.810   2.559   9.379  1.2577 -2.0235  1.4310
 1418SOL    HW215891   2.923   2.612   9.466 -0.2229  1.0363 -0.4339
 1419SOL     OW15892   0.069   3.317  11.483  0.1490 -0.2308 -0.0951
 1419SOL    HW115893   0.136   3.252  11.501 -1.1839 -1.8454 -0.9458
 1419SOL    HW215894   0.053   3.300  11.390 -0.2428 -0.7541  0.0655
 1420SOL     OW15895   4.698   4.565   7.800  0.1950  0.3565 -0.1277
 1420SOL    HW115896   4.714   4.567   7.894  0.8593 -0.0346 -0.2375
 1420SOL    HW215897   4.616   4.516   7.795  0.5982 -0.4284  1.0265
 1421SOL     OW15898   1.844   3.485   6.961 -0.1406 -0.1323  0.1834
 1421SOL    HW115899   1.772   3.533   7.001  0.3614 -0.6260  1.6874
 1421SOL    HW215900   1.793   3.446   6.890  1.7024 -1.3952 -0.4490
 1422SOL     OW15901   3.597   0.284  17.198 -0.5352  0.1401  0.2789
 1422SOL    HW115902   3.581   0.368  17.242 -0.9357 -0.3727  1.1205
 1422SOL    HW215903   3.517   0.236  17.222 -1.0776  0.4640 -0.8750
 1423SOL     OW15904   4.024   0.448   8.291 -0.1844  0.1747  0.3691
 1423SOL    HW115905   4.002   0.473   8.201  0.2134  1.0720  0.5281
 1423SOL    HW215906   4.017   0.537   8.324 -1.5702  0.1264  0.2149
 1424SOL     OW15907   0.098   3.868   2.842 -0.0200  0.0430  0.2695
 1424SOL    HW115908   0.036   3.831   2.905 -1.5898 -0.5864 -1.6290
 1424SOL    HW215909   0.039   3.888   2.769  0.1109  1.5563  0.5835
 1425SOL     OW15910   2.411   4.484   7.156  0.1673 -0.0018  0.4526
 1425SOL    HW115911   2.329   4.522   7.187  0.1741 -0.1123  0.6046
 1425SOL    HW215912   2.448   4.561   7.114  1.3532  0.1521  1.7877
 1426SOL     OW15913   2.646   1.460  12.373 -0.0550  0.4213 -0.9893
 1426SOL    HW115914   2.597   1.541  12.357 -1.6685 -0.5683 -1.0791
 1426SOL    HW215915   2.686   1.437  12.289  0.9530  0.8821 -0.6327
 1427SOL     OW15916   1.149   2.817   5.342 -0.0660  0.1541  0.2113
 1427SOL    HW115917   1.115   2.881   5.405  1.0760  1.0133 -0.0421
 1427SOL    HW215918   1.089   2.827   5.268  0.0789  0.0541  0.0805
 1428SOL     OW15919   3.826   0.378   0.241  0.4363 -0.0815 -0.6897
 1428SOL    HW115920   3.919   0.370   0.223  0.8047 -0.0545  1.1386
 1428SOL    HW215921   3.799   0.290   0.215  0.1524 -0.9043  2.4188
 1429SOL     OW15922   4.154   3.808   4.183 -0.3561  0.1506  0.2218
 1429SOL    HW115923   4.059   3.802   4.195 -0.4406  0.3475 -0.3469
 1429SOL    HW215924   4.173   3.715   4.170  2.7867  0.3904  3.1581
 1430SOL     OW15925   0.219   0.212   7.135 -0.0757  0.4958 -0.4591
 1430SOL    HW115926   0.262   0.297   7.124  0.1149  0.5486  0.7202
 1430SOL    HW215927   0.293   0.153   7.123 -1.2818 -1.4031  1.4826
 1431SOL     OW15928   0.977   0.859   2.824  0.3782 -0.1033  0.4465
 1431SOL    HW115929   0.893   0.892   2.857 -0.8494 -2.6619 -0.1445
 1431SOL    HW215930   0.985   0.775   2.867  0.2689  0.0753  0.8147
 1432SOL     OW15931   2.917   3.593   2.338  0.2338  0.0197 -0.1498
 1432SOL    HW115932   2.885   3.573   2.426 -1.9750 -1.2899 -1.2506
 1432SOL    HW215933   2.854   3.662   2.322 -2.5470 -2.2863  0.7958
 1433SOL     OW15934   0.894   2.963  17.537  0.6717  0.2384 -0.4141
 1433SOL    HW115935   0.951   2.988  17.465  3.6195  0.8523  2.1401
 1433SOL    HW215936   0.834   2.905  17.490 -0.0816 -0.2558  1.1515
 1434SOL     OW15937   4.452   0.223  16.524 -0.5780  0.0437  0.3555
 1434SOL    HW115938   4.509   0.240  16.600  0.0029 -1.9231  0.3646
 1434SOL    HW215939   4.500   0.276  16.461  1.5942 -2.3919 -0.0298
 1435SOL     OW15940   3.596   2.205   5.892 -0.7169  0.4621  0.2097
 1435SOL    HW115941   3.545   2.191   5.812 -1.1043  0.3531  0.4792
 1435SOL    HW215942   3.645   2.284   5.867  1.2688 -0.2807  1.8689
 1436SOL     OW15943   3.182   2.496   2.177 -0.2333 -0.1898  0.1238
 1436SOL    HW115944   3.151   2.567   2.233 -0.5671 -0.2390  0.0006
 1436SOL    HW215945   3.263   2.532   2.139  0.1423 -1.1447  0.0154
 1437SOL     OW15946   3.852   3.714   1.514  0.1015  0.1484  0.0796
 1437SOL    HW115947   3.879   3.805   1.525  2.2887 -0.2491 -1.9564
 1437SOL    HW215948   3.862   3.688   1.606 -1.1457  0.9655  0.4423
 1438SOL     OW15949   0.852   0.134   4.930  1.1760  0.4323  0.3411
 1438SOL    HW115950   0.900   0.061   4.892 -3.5566 -2.0204 -0.9505
 1438SOL    HW215951   0.804   0.113   5.010  0.2919  2.4177  0.3515
 1439SOL     OW15952   0.676   2.690   8.026  0.3038  0.2212  0.5736
 1439SOL    HW115953   0.728   2.771   8.021  0.0722  0.2103 -1.8771
 1439SOL    HW215954   0.744   2.631   7.994  2.9823  1.9706  2.9579
 1440SOL     OW15955   0.368   4.564   4.958 -0.6586  0.5714  0.1802
 1440SOL    HW115956   0.457   4.532   4.947 -2.1503 -3.5275 -0.0045
 1440SOL    HW215957   0.368   4.647   4.910  0.6330  0.4236 -0.0739
 1441SOL     OW15958   0.450   0.946   5.125 -0.3588 -0.1044 -0.0913
 1441SOL    HW115959   0.450   1.041   5.114 -0.2682 -0.0393  0.4684
 1441SOL    HW215960   0.536   0.916   5.096 -0.7152 -1.0990 -0.1460
 1442SOL     OW15961   0.770   2.499  15.785 -0.1124 -0.2269 -0.4810
 1442SOL    HW115962   0.819   2.453  15.718 -2.3264 -1.2481 -1.4060
 1442SOL    HW215963   0.740   2.572  15.731 -1.1585  0.3086  0.8023
 1443SOL     OW15964   1.936   0.681   9.066  0.0900 -0.0527 -0.7981
 1443SOL    HW115965   1.970   0.642   8.986  0.9088  0.2538 -0.6115
 1443SOL    HW215966   1.893   0.604   9.102  1.5161  0.0992  1.2642
 1444SOL     OW15967   3.591   1.178   1.631  0.2782 -0.0365 -0.4035
 1444SOL    HW115968   3.604   1.272   1.619  1.8568 -0.4235 -1.7501
 1444SOL    HW215969   3.548   1.171   1.545 -0.8875 -2.6989  0.4187
 1445SOL     OW15970   1.084   0.440   3.879 -0.3912 -0.0830  0.1777
 1445SOL    HW115971   1.153   0.465   3.941 -0.0706  0.4588 -0.3979
 1445SOL    HW215972   1.127   0.459   3.796 -1.1426 -1.6573 -0.5644
 1446SOL     OW15973   1.748   3.206   7.879  0.3522 -0.3980 -0.6352
 1446SOL    HW115974   1.748   3.110   7.890  0.8458 -0.2746  0.4591
 1446SOL    HW215975   1.681   3.227   7.815  0.7073 -2.0110 -1.5386
 1447SOL     OW15976   1.837   1.281   8.765  0.1494  0.5465  0.0632
 1447SOL    HW115977   1.758   1.234   8.739 -0.4093 -0.6676  3.8748
 1447SOL    HW215978   1.837   1.255   8.857 -0.0192 -0.8014 -0.3250
 1448SOL     OW15979   2.046   4.557  12.992 -0.2933  0.4558  0.1106
 1448SOL    HW115980   2.067   4.600  12.909 -1.6230  1.7935  0.4602
 1448SOL    HW215981   2.123   4.567  13.048  0.2652  1.0924 -0.7577
 1449SOL     OW15982   0.484   4.162   5.522 -0.2227  0.6068 -0.6484
 1449SOL    HW115983   0.467   4.078   5.479 -0.9666  0.6047 -0.3608
 1449SOL    HW215984   0.537   4.136   5.598 -0.8555 -1.5446 -0.9556
 1450SOL     OW15985   2.951   1.450   2.924 -0.1686 -0.2532  0.8396
 1450SOL    HW115986   2.979   1.503   2.998  0.3143 -0.4988  0.8368
 1450SOL    HW215987   2.974   1.363   2.958  0.7566 -0.5973 -0.6792
 1451SOL     OW15988   0.215   3.414   2.328  0.3314  0.2908  0.2040
 1451SOL    HW115989   0.169   3.493   2.298 -2.7376 -1.1677  1.1476
 1451SOL    HW215990   0.190   3.351   2.261 -4.0913  0.4920  1.6732
 1452SOL     OW15991   2.861   4.337   6.315  0.5834 -0.3049 -0.7628
 1452SOL    HW115992   2.832   4.417   6.358 -0.1307 -1.1363  0.2818
 1452SOL    HW215993   2.798   4.352   6.245 -2.3941  3.2574  2.7806
 1453SOL     OW15994   0.201   1.942   1.424 -0.0206  0.0080  0.6846
 1453SOL    HW115995   0.239   1.863   1.461 -1.7847 -1.0076  0.3288
 1453SOL    HW215996   0.211   1.935   1.329 -0.9420  2.3944  0.4054
 1454SOL     OW15997   4.130   1.608  16.756  0.0492  0.1929  0.9195
 1454SOL    HW115998   4.182   1.528  16.746 -0.9058 -0.3255  0.1344
 1454SOL    HW215999   4.164   1.679  16.701 -2.6339 -0.6518 -1.8104
 1455SOL     OW16000   0.328   0.523   0.342 -0.1009  0.2621 -0.1717
 1455SOL    HW116001   0.289   0.597   0.296  3.7493  2.5931  0.3396
 1455SOL    HW216002   0.378   0.575   0.405 -1.5355 -0.8615  1.9093
 1456SOL     OW16003   3.519   3.156   3.257  0.3016 -0.2250 -0.3666
 1456SOL    HW116004   3.585   3.194   3.316  1.2387  1.3783 -2.4635
 1456SOL    HW216005   3.480   3.096   3.320  2.4539 -1.7028 -0.4308
 1457SOL     OW16006   0.176   1.612   4.166 -0.2000 -0.2692  0.0924
 1457SOL    HW116007   0.159   1.535   4.220 -0.2575 -1.3242 -1.4301
 1457SOL    HW216008   0.100   1.609   4.107 -0.8441 -0.7893  0.9413
 1458SOL     OW16009   1.709   2.071   6.417 -0.4006 -0.1554 -0.2933
 1458SOL    HW116010   1.703   1.995   6.476  2.2485 -2.2432 -2.7125
 1458SOL    HW216011   1.670   2.140   6.470  0.1311  1.2407 -1.7499
 1459SOL     OW16012   4.647   1.261   1.280  0.3718  0.1995 -0.5987
 1459SOL    HW116013   4.693   1.323   1.224  2.4058 -1.3002 -0.5866
 1459SOL    HW216014   4.712   1.198   1.310  0.4370  0.1351 -0.8731
 1460SOL     OW16015   3.379   1.291  15.242  0.4118 -0.0817  0.0964
 1460SOL    HW116016   3.343   1.349  15.175 -1.3399 -2.3981 -0.9724
 1460SOL    HW216017   3.471   1.315  15.232  0.3356  0.9535  1.7688
 1461SOL     OW16018   3.473   0.686   2.744  0.2544  0.0576 -0.8681
 1461SOL    HW116019   3.476   0.593   2.765  1.5210  0.4919  0.8530
 1461SOL    HW216020   3.446   0.717   2.830  4.0994 -0.0936  0.4188
 1462SOL     OW16021   2.182   2.936   6.058 -0.6005  0.4436 -0.2406
 1462SOL    HW116022   2.200   2.881   6.134 -1.4927  0.7069  0.1657
 1462SOL    HW216023   2.264   2.985   6.057 -0.8876  0.9362  0.5461
 1463SOL     OW16024   2.188   0.781   5.729 -0.2509 -0.0944 -0.5980
 1463SOL    HW116025   2.194   0.697   5.773 -0.6212  0.3664  0.3244
 1463SOL    HW216026   2.277   0.816   5.727 -0.5214  0.6988  1.8541
 1464SOL     OW16027   0.735   1.586   4.404  0.4446 -0.4653 -0.2297
 1464SOL    HW116028   0.664   1.609   4.345 -0.6442  2.4015  2.2109
 1464SOL    HW216029   0.756   1.673   4.437 -0.6590  0.0416 -0.8969
 1465SOL     OW16030   1.770   2.849   2.593  0.0435  0.2801 -0.0905
 1465SOL    HW116031   1.806   2.858   2.681 -0.0638 -1.1522  0.0860
 1465SOL    HW216032   1.675   2.848   2.605  0.2368 -2.0015  1.0439
 1466SOL     OW16033   2.241   2.747   8.687  0.0018  0.1630 -0.3270
 1466SOL    HW116034   2.287   2.689   8.626  0.2681 -0.0351  0.0598
 1466SOL    HW216035   2.278   2.826   8.648  0.9809  0.3622  0.9980
 1467SOL     OW16036   2.345   3.412   7.035 -0.2495  0.0598  0.3481
 1467SOL    HW116037   2.407   3.433   6.965  0.3088 -0.1671  0.7750
 1467SOL    HW216038   2.398   3.423   7.113  2.9860 -0.8343 -1.6960
 1468SOL     OW16039   1.226   0.954  15.220 -0.3481 -0.2666 -0.5357
 1468SOL    HW116040   1.132   0.938  15.221 -0.3576 -0.2179 -0.6613
 1468SOL    HW216041   1.237   0.994  15.134  0.4566  0.3044 -0.1794
 1469SOL     OW16042   0.869   2.210   5.243  0.7412  0.1317  0.7146
 1469SOL    HW116043   0.807   2.270   5.285  0.6159 -1.3364  2.6226
 1469SOL    HW216044   0.810   2.135   5.236  0.8898 -0.0792  1.6941
 1470SOL     OW16045   3.739   0.683   7.745 -0.1981 -0.3729  0.5019
 1470SOL    HW116046   3.647   0.670   7.767 -1.2518  0.1246 -3.6752
 1470SOL    HW216047   3.776   0.659   7.830 -2.6505 -2.1743  1.0686
 1471SOL     OW16048   4.022   3.081   9.132 -0.3577 -0.0891  0.0178
 1471SOL    HW116049   4.023   3.130   9.050 -0.4531 -1.1219 -0.6071
 1471SOL    HW216050   4.077   3.008   9.103 -0.2221  0.8667 -2.1564
 1472SOL     OW16051   4.027   3.441  15.861  0.1054 -0.2143 -0.3674
 1472SOL    HW116052   3.939   3.469  15.885 -0.0282 -2.2892  1.6671
 1472SOL    HW216053   4.057   3.401  15.943 -0.3673  1.1265  0.4573
 1473SOL     OW16054   4.670   4.542  10.946 -0.1266 -0.4441  0.0368
 1473SOL    HW116055   4.609   4.607  10.980 -2.0593 -1.8544 -0.6824
 1473SOL    HW216056   0.020   4.567  10.971  1.0253 -2.1998 -2.2371
 1474SOL     OW16057   1.074   0.087   6.861  0.3994 -0.5632  0.9793
 1474SOL    HW116058   1.060   0.064   6.953 -3.5883  0.7957  0.7028
 1474SOL    HW216059   1.150   0.030   6.849  2.0573  2.1309 -1.1919
 1475SOL     OW16060   1.298   0.440   5.451 -0.0537  0.0932 -0.4531
 1475SOL    HW116061   1.261   0.366   5.401 -2.0899  0.9423 -0.2161
 1475SOL    HW216062   1.382   0.406   5.483 -0.6010  0.1939  1.0733
 1476SOL     OW16063   0.002   2.576   2.138  0.3847  0.1675 -0.1852
 1476SOL    HW116064   0.056   2.523   2.079 -0.6149 -0.6308 -0.3942
 1476SOL    HW216065   4.691   2.626   2.073 -3.4341 -0.7954  1.9614
 1477SOL     OW16066   0.005   2.049   8.869  0.3107 -0.2282 -0.5564
 1477SOL    HW116067   0.098   2.031   8.883 -0.3712 -1.7607  1.8158
 1477SOL    HW216068   0.010   2.045   8.773  1.0253  0.5183 -0.5467
 1478SOL     OW16069   3.345   2.360   1.966  0.5197 -0.2202 -0.3046
 1478SOL    HW116070   3.370   2.448   1.995  0.3515  0.4144 -2.1056
 1478SOL    HW216071   3.429   2.316   1.951 -0.0162 -1.6885  1.0115
 1479SOL     OW16072   3.488   3.852   6.905 -0.2671 -0.4287  1.0379
 1479SOL    HW116073   3.518   3.938   6.932  0.7894 -0.9823  1.6397
 1479SOL    HW216074   3.431   3.869   6.830  0.1531 -4.6768 -0.2605
 1480SOL     OW16075   4.660   2.231   6.142 -0.0823 -0.0657  0.7745
 1480SOL    HW116076   4.724   2.199   6.078  0.6227 -0.3506  1.6257
 1480SOL    HW216077   4.658   2.150   6.193  0.2382 -0.6537 -0.1524
 1481SOL     OW16078   3.815   2.022   3.193  0.3348  0.4329  0.5920
 1481SOL    HW116079   3.907   2.043   3.209 -0.3478  2.6666  1.6815
 1481SOL    HW216080   3.819   1.991   3.102 -0.1740  1.5415  0.1855
 1482SOL     OW16081   2.195   3.215  13.147 -0.1168  0.6726 -0.2278
 1482SOL    HW116082   2.284   3.182  13.160 -1.3556 -1.5784  2.5834
 1482SOL    HW216083   2.149   3.132  13.161  0.7204  0.4134  0.9489
 1483SOL     OW16084   1.103   3.737   4.922 -0.3207  0.8579  0.3126
 1483SOL    HW116085   1.185   3.766   4.882  0.2513 -1.5259 -0.1833
 1483SOL    HW216086   1.040   3.785   4.869 -1.8461  0.5467  1.8336
 1484SOL     OW16087   1.884   3.980   4.956 -0.0824  0.8776  0.0348
 1484SOL    HW116088   1.896   3.990   5.051  0.0365 -2.0435  0.3277
 1484SOL    HW216089   1.931   4.060   4.932 -0.6150  1.3620  0.5974
 1485SOL     OW16090   4.085   3.117   5.483 -0.4103 -0.1131 -0.6070
 1485SOL    HW116091   4.153   3.184   5.487  0.7147 -1.3472  0.8196
 1485SOL    HW216092   4.126   3.046   5.533 -0.2450  0.4478  0.0666
 1486SOL     OW16093   1.545   2.632   8.311  0.5152  0.8714  0.0910
 1486SOL    HW116094   1.471   2.655   8.368 -1.2847  1.9143 -2.6094
 1486SOL    HW216095   1.615   2.616   8.373  1.5430  0.9962 -1.0335
 1487SOL     OW16096   2.844   1.986   6.623  0.1399 -0.3635  0.3880
 1487SOL    HW116097   2.893   1.935   6.558 -0.8371  0.3421 -0.8918
 1487SOL    HW216098   2.896   1.966   6.701  1.5961  1.6120 -0.0895
 1488SOL     OW16099   2.457   1.026   6.795 -0.1825 -0.5231  0.2146
 1488SOL    HW116100   2.382   0.976   6.827 -0.1176  0.4202  1.8055
 1488SOL    HW216101   2.512   0.952   6.769  0.0403  0.3600 -1.8731
 1489SOL     OW16102   1.959   0.764   1.806 -0.1011 -0.2564 -0.0483
 1489SOL    HW116103   2.018   0.692   1.830 -1.1959 -1.0875  0.1402
 1489SOL    HW216104   1.956   0.813   1.888  1.1095 -0.8147  0.3368
 1490SOL     OW16105   0.597   1.813  17.705  0.4992 -0.2728  0.0404
 1490SOL    HW116106   0.639   1.828  17.620 -2.4728  1.0546 -1.2206
 1490SOL    HW216107   0.506   1.831  17.682  1.3786  1.1020 -2.4095
 1491SOL     OW16108   4.345   0.159   7.309 -0.2360 -0.1994  0.9569
 1491SOL    HW116109   4.344   0.251   7.282  1.4778 -0.2900  0.5617
 1491SOL    HW216110   4.394   0.125   7.234 -1.5334  0.7146 -0.2903
 1492SOL     OW16111   1.520   1.342   9.965 -0.4178 -0.0221 -0.1066
 1492SOL    HW116112   1.546   1.363   9.875  0.1287 -0.1675  0.0143
 1492SOL    HW216113   1.519   1.246   9.964  2.4346 -0.0719  0.4348
 1493SOL     OW16114   0.229   4.476   2.081 -0.6453 -0.6544  0.2121
 1493SOL    HW116115   0.183   4.551   2.119  0.2409 -0.8991  1.7539
 1493SOL    HW216116   0.156   4.417   2.060 -0.7342 -0.3905 -0.2098
 1494SOL     OW16117   1.921   4.684   5.583 -0.7616 -0.0202 -0.5270
 1494SOL    HW116118   1.835   4.643   5.588  0.3680 -2.1682  1.4987
 1494SOL    HW216119   1.918   0.006   5.657  2.7397 -0.4715 -0.0047
 1495SOL     OW16120   0.491   0.215  11.242 -0.0773 -0.0067  0.0942
 1495SOL    HW116121   0.504   0.159  11.319  1.4294  1.0594  0.6051
 1495SOL    HW216122   0.500   0.306  11.272 -2.6254  0.5638 -0.9194
 1496SOL     OW16123   3.478   3.268   5.918 -0.0075 -0.2920 -0.1894
 1496SOL    HW116124   3.494   3.348   5.967 -2.1537  1.7648 -2.8549
 1496SOL    HW216125   3.552   3.266   5.857 -1.6994  2.3079 -2.2731
 1497SOL     OW16126   2.425   4.385   1.452 -0.7496 -0.2346  0.7964
 1497SOL    HW116127   2.419   4.457   1.389  2.4163 -0.7001 -0.0379
 1497SOL    HW216128   2.513   4.399   1.487 -1.1671  1.2797  1.2668
 1498SOL     OW16129   1.694   4.641   1.567  0.0865 -0.3021 -0.2501
 1498SOL    HW116130   1.677   4.616   1.476  0.8431  0.2979 -0.5538
 1498SOL    HW216131   1.620   4.606   1.616 -0.8091 -0.8013 -1.9795
 1499SOL     OW16132   3.534   4.037   9.158  0.2178  0.1877 -0.2276
 1499SOL    HW116133   3.575   4.124   9.165 -0.1002  0.1135  2.3442
 1499SOL    HW216134   3.456   4.041   9.214 -0.1619  1.1554 -0.8104
 1500SOL     OW16135   1.116   2.015  12.092  0.0880 -0.3022  0.0665
 1500SOL    HW116136   1.196   2.063  12.113  0.1204 -0.5020  0.4080
 1500SOL    HW216137   1.060   2.043  12.165 -0.3758 -2.5746  0.5848
 1501SOL     OW16138   0.376   3.076   1.838 -0.1441  0.3875 -0.5029
 1501SOL    HW116139   0.412   3.131   1.769  0.7831 -1.0920 -1.2050
 1501SOL    HW216140   0.385   3.143   1.905  1.6327  1.5475 -1.9054
 1502SOL     OW16141   0.165   1.272   2.486 -0.3014 -0.4774  0.5772
 1502SOL    HW116142   0.143   1.192   2.438 -0.6968  1.0113 -1.6966
 1502SOL    HW216143   0.213   1.310   2.413 -0.9844 -1.9458 -0.6368
 1503SOL     OW16144   1.197   0.106   4.033  0.0196 -0.1340 -0.2534
 1503SOL    HW116145   1.229   0.045   4.099 -0.4768  0.0883  0.1954
 1503SOL    HW216146   1.102   0.093   4.042 -0.2122  1.2643 -0.6683
 1504SOL     OW16147   3.766   0.024  15.754  0.2062 -0.1566  0.2080
 1504SOL    HW116148   3.740   0.065  15.672  1.9711  0.3672 -0.0859
 1504SOL    HW216149   3.693   0.038  15.815 -0.6378 -0.4817 -0.7398
 1505SOL     OW16150   3.866   2.725   7.365 -0.4788  0.4152  0.1699
 1505SOL    HW116151   3.890   2.725   7.458  1.3679 -1.1740 -0.3082
 1505SOL    HW216152   3.945   2.680   7.336 -1.3296 -0.7350 -0.3393
 1506SOL     OW16153   3.181   3.940   2.508  0.2083  0.1582  0.3056
 1506SOL    HW116154   3.186   3.940   2.413 -0.2765 -0.9046  0.2846
 1506SOL    HW216155   3.271   3.915   2.527  0.3408  2.2830  2.5463
 1507SOL     OW16156   2.605   3.242   1.905  0.6486  0.1455  0.1664
 1507SOL    HW116157   2.666   3.169   1.915  0.4006 -0.1867 -0.7776
 1507SOL    HW216158   2.657   3.305   1.855  2.1041 -1.6840 -0.6175
 1508SOL     OW16159   1.044   2.586   3.648 -0.3771  0.0656  0.0742
 1508SOL    HW116160   0.993   2.635   3.713  2.4328  1.8080  0.9713
 1508SOL    HW216161   0.994   2.622   3.575  1.5903 -1.1372 -1.8662
 1509SOL     OW16162   4.701   0.396   4.823  0.2853 -0.3564 -0.4138
 1509SOL    HW116163   4.664   0.475   4.861  0.1493 -1.3149  1.4241
 1509SOL    HW216164   4.708   0.338   4.899  0.1447 -0.8656 -0.7869
 1510SOL     OW16165   1.570   1.474   5.931 -0.0550  0.2644  0.1393
 1510SOL    HW116166   1.581   1.529   6.009 -0.3236 -0.8847  0.9876
 1510SOL    HW216167   1.658   1.443   5.910  0.3133  0.5588  1.2288
 1511SOL     OW16168   2.847   2.579  12.076  0.1814 -0.0725 -0.0265
 1511SOL    HW116169   2.914   2.562  12.009  0.8125  0.6235  0.4313
 1511SOL    HW216170   2.822   2.665  12.041 -0.4094  1.5319  4.3790
 1512SOL     OW16171   2.605   0.729   5.790 -0.4257 -0.2127 -0.3311
 1512SOL    HW116172   2.643   0.761   5.872  0.0202 -0.2926 -0.5064
 1512SOL    HW216173   2.633   0.637   5.788  0.2944 -0.0101  0.9341
 1513SOL     OW16174   0.592   3.014   2.830 -0.1716 -0.0319 -0.2529
 1513SOL    HW116175   0.602   3.068   2.752  0.7630  1.6634  1.0438
 1513SOL    HW216176   0.597   3.076   2.903  1.7100  0.3431 -0.7208
 1514SOL     OW16177   3.110   3.033  17.115  0.7894  0.1810 -0.3832
 1514SOL    HW116178   3.136   3.019  17.206  0.8251 -0.9147 -0.5607
 1514SOL    HW216179   3.080   3.124  17.125  1.7438  0.6758 -2.0203
 1515SOL     OW16180   4.392   0.014   5.956  0.0373  0.2534 -0.1328
 1515SOL    HW116181   4.457   0.084   5.964  0.7545 -0.3640 -0.6236
 1515SOL    HW216182   4.344   0.050   5.882 -0.6614 -0.8261 -0.2069
 1516SOL     OW16183   1.334   2.770  12.606 -0.3580 -0.8290  0.6641
 1516SOL    HW116184   1.429   2.784  12.601 -0.2828 -1.4942  0.1462
 1516SOL    HW216185   1.332   2.679  12.576 -1.3168 -0.6860  0.2990
 1517SOL     OW16186   3.891   0.454   5.605  0.0034 -0.3865  0.1106
 1517SOL    HW116187   3.837   0.389   5.650 -1.8280  2.2001  1.6095
 1517SOL    HW216188   3.949   0.479   5.676 -0.6661 -1.5494  1.0703
 1518SOL     OW16189   0.072   3.964   8.662 -0.1147 -0.0341  0.2932
 1518SOL    HW116190   0.062   3.891   8.601 -1.6116  0.4043  0.0005
 1518SOL    HW216191   0.112   4.032   8.609 -2.0746  1.1486  0.3331
 1519SOL     OW16192   4.004   2.428   3.132 -0.6658 -0.6409 -0.0472
 1519SOL    HW116193   3.913   2.420   3.161 -0.4518  0.6605  1.0135
 1519SOL    HW216194   4.008   2.374   3.053  0.2162 -0.8614  0.1541
 1520SOL     OW16195   4.575   2.755   4.332 -0.3414  0.2458 -0.5265
 1520SOL    HW116196   4.663   2.787   4.313 -0.8218  1.0738 -1.4079
 1520SOL    HW216197   4.542   2.840   4.362  0.9612  0.2339  0.9223
 1521SOL     OW16198   1.879   3.996   2.437 -0.1743  0.2796 -0.3039
 1521SOL    HW116199   1.843   4.044   2.512  0.2050  1.7066 -1.0351
 1521SOL    HW216200   1.880   4.067   2.373  2.2819  1.0301  0.5588
 1522SOL     OW16201   0.123   1.343  13.847 -0.9222  0.1786 -0.0290
 1522SOL    HW116202   0.196   1.282  13.851 -1.4350 -0.4166  0.2042
 1522SOL    HW216203   0.169   1.426  13.864  0.5871 -0.6333 -0.1810
 1523SOL     OW16204   1.769   3.593  12.176 -0.4410 -0.4923  0.5333
 1523SOL    HW116205   1.792   3.686  12.176  1.4115 -0.9429  0.8320
 1523SOL    HW216206   1.709   3.597  12.250  0.4328 -1.8948  1.3062
 1524SOL     OW16207   2.809   4.362   2.939  0.3724  0.1427  0.0813
 1524SOL    HW116208   2.816   4.362   2.843  0.2408 -0.8699  0.0730
 1524SOL    HW216209   2.801   4.268   2.955 -0.5727  0.1183 -0.5408
 1525SOL     OW16210   1.836   2.605  10.054  0.3078 -0.2959  0.1020
 1525SOL    HW116211   1.852   2.598  10.148  1.3088 -2.3767 -0.2143
 1525SOL    HW216212   1.808   2.696  10.049  0.8503 -0.1615 -0.5585
 1526SOL     OW16213   3.758   2.993  11.445  0.1290  0.4217  0.9877
 1526SOL    HW116214   3.797   2.906  11.452  0.8773  0.6561 -0.2954
 1526SOL    HW216215   3.838   3.044  11.430 -0.0912  0.7838  1.0522
 1527SOL     OW16216   4.170   3.882   7.266  0.0639 -0.4919  0.6625
 1527SOL    HW116217   4.228   3.899   7.339  0.0084  0.7177  0.4372
 1527SOL    HW216218   4.119   3.814   7.310  0.6375 -0.9502  0.6169
 1528SOL     OW16219   1.289   4.392   4.090 -0.4256 -0.1926  0.3377
 1528SOL    HW116220   1.344   4.327   4.045 -2.7838 -0.6838 -1.8146
 1528SOL    HW216221   1.212   4.405   4.035  3.1134  0.5414 -4.4177
 1529SOL     OW16222   1.000   2.520  17.211  0.5948  0.5640 -0.0325
 1529SOL    HW116223   1.069   2.468  17.169 -0.3078  0.0543 -0.8818
 1529SOL    HW216224   1.021   2.608  17.179  0.7509 -0.1004 -1.7702
 1530SOL     OW16225   2.047   4.287   5.438 -0.4276 -0.7422 -0.1821
 1530SOL    HW116226   2.068   4.236   5.515 -0.1676 -3.9470 -2.3909
 1530SOL    HW216227   2.135   4.313   5.412  0.2506 -2.8394  0.0532
 1531SOL     OW16228   4.666   0.117   6.300  0.0782  0.0801  0.0440
 1531SOL    HW116229   4.680   0.192   6.242 -1.5397  0.6258  0.3624
 1531SOL    HW216230   4.591   0.141   6.354 -1.0593 -0.4861 -1.2933
 1532SOL     OW16231   0.731   4.329  15.886 -0.7601  0.4834  0.1326
 1532SOL    HW116232   0.792   4.261  15.856 -1.4556 -0.0741  0.0035
 1532SOL    HW216233   0.786   4.370  15.953 -3.5110  0.3834  2.4638
 1533SOL     OW16234   1.720   0.613   5.398  0.3946  0.0938  0.4992
 1533SOL    HW116235   1.677   0.641   5.479  1.2157  2.2581  0.1941
 1533SOL    HW216236   1.801   0.664   5.408 -0.2043  0.9248  1.0796
 1534SOL     OW16237   0.931   1.711   2.979 -0.2403 -0.0819  0.5240
 1534SOL    HW116238   1.005   1.734   2.923 -1.2216  2.5732  0.2919
 1534SOL    HW216239   0.884   1.795   2.982 -0.0466  0.0206  0.7214
 1535SOL     OW16240   0.486   0.787   2.235 -0.1855  0.5332  0.0997
 1535SOL    HW116241   0.536   0.713   2.271  1.1669  1.1127 -0.5730
 1535SOL    HW216242   0.433   0.737   2.172  1.5003  0.1411 -1.0106
 1536SOL     OW16243   2.354   3.630   5.895 -0.4885  0.2716 -0.2645
 1536SOL    HW116244   2.409   3.686   5.840  0.5922  0.1228  0.6458
 1536SOL    HW216245   2.296   3.690   5.941  0.7870  1.9177 -0.7738
 1537SOL     OW16246   3.811   4.525  10.072  0.3447 -0.5665 -0.3460
 1537SOL    HW116247   3.765   4.526  10.156  1.0728 -0.1138  0.0475
 1537SOL    HW216248   3.740   4.559  10.018 -1.1422 -0.2480  1.8190
 1538SOL     OW16249   3.326   1.099   1.982 -0.3974  0.2449  0.3350
 1538SOL    HW116250   3.306   1.106   1.888 -0.9825  1.6720  0.5561
 1538SOL    HW216251   3.407   1.047   1.987  1.5309  3.3884  1.8116
 1539SOL     OW16252   3.276   3.312   6.403 -0.1672  0.0417 -0.0714
 1539SOL    HW116253   3.257   3.367   6.479  0.2063  0.4050 -0.2404
 1539SOL    HW216254   3.243   3.226   6.429 -0.1640  0.3203  0.8662
 1540SOL     OW16255   2.578   1.331  11.847  0.1669  0.0307  0.5771
 1540SOL    HW116256   2.552   1.393  11.779 -0.4670  1.4414  2.1182
 1540SOL    HW216257   2.492   1.294  11.870 -0.1763  0.1984 -0.4182
 1541SOL     OW16258   2.271   4.309   2.556 -0.1968 -0.3631 -0.0886
 1541SOL    HW116259   2.219   4.389   2.543 -0.0726 -0.2721 -0.0277
 1541SOL    HW216260   2.209   4.249   2.598  0.6663 -0.1274  1.5345
 1542SOL     OW16261   2.694   1.733  12.094 -0.5495 -0.4175  0.3849
 1542SOL    HW116262   2.610   1.706  12.131 -1.2142 -0.2301 -0.9989
 1542SOL    HW216263   2.720   1.797  12.160  0.4453 -2.4754  1.9788
 1543SOL     OW16264   1.799   1.131   5.683  0.8374 -0.3280  0.2113
 1543SOL    HW116265   1.768   1.050   5.644 -0.6681  0.6230 -0.5349
 1543SOL    HW216266   1.888   1.096   5.681  0.0271 -2.2063 -2.3443
 1544SOL     OW16267   0.062   1.209   8.084 -0.6663 -0.5476  0.0643
 1544SOL    HW116268   0.076   1.302   8.103 -1.9894 -0.1554 -0.9103
 1544SOL    HW216269   0.022   1.173   8.164 -1.9582 -0.8664 -0.7331
 1545SOL     OW16270   3.488   1.166   7.929  0.0423 -0.3800  0.1194
 1545SOL    HW116271   3.397   1.144   7.908  0.1307 -1.1599  0.5560
 1545SOL    HW216272   3.512   1.219   7.853 -2.9072 -0.8208 -1.1307
 1546SOL     OW16273   4.520   4.388   1.567  0.6767 -0.0915  0.1620
 1546SOL    HW116274   4.474   4.472   1.567  2.4434  0.8765 -0.9909
 1546SOL    HW216275   4.473   4.358   1.489 -0.9595  1.2884  0.6047
 1547SOL     OW16276   1.283   3.140   5.185  0.8940 -0.3264  0.1260
 1547SOL    HW116277   1.197   3.120   5.222  1.1727 -1.4423  0.1781
 1547SOL    HW216278   1.353   3.100   5.237 -1.7699  0.0333  3.9449
 1548SOL     OW16279   1.365   1.966   7.328 -0.6693 -0.1891 -0.1757
 1548SOL    HW116280   1.330   1.878   7.320  2.7060 -1.7123  1.4315
 1548SOL    HW216281   1.354   1.981   7.422 -1.0830 -0.5471 -0.1701
 1549SOL     OW16282   4.680   3.810   8.367  0.2306  0.1824  0.0248
 1549SOL    HW116283   4.612   3.851   8.419 -0.8428 -0.4612 -0.8637
 1549SOL    HW216284   4.625   3.773   8.298  0.9346  1.0512 -1.0082
 1550SOL     OW16285   2.460   1.786   6.096 -0.5212  0.2215  0.0796
 1550SOL    HW116286   2.395   1.721   6.068 -1.5793  1.2140  0.2488
 1550SOL    HW216287   2.433   1.810   6.185  3.1542  1.0277  0.9650
 1551SOL     OW16288   1.329   4.512   7.484 -0.5413  0.3610  0.1047
 1551SOL    HW116289   1.307   4.537   7.574  2.2361 -1.2115  1.2421
 1551SOL    HW216290   1.251   4.474   7.444 -0.3912 -0.5105  0.6429
 1552SOL     OW16291   0.071   1.119   6.554 -0.6565 -0.1211 -0.1215
 1552SOL    HW116292   0.152   1.073   6.578 -1.4435 -1.3434  0.1918
 1552SOL    HW216293   0.008   1.062   6.598 -0.5221 -0.4737 -0.3901
 1553SOL     OW16294   1.778   1.485  16.809 -0.3387 -0.0168  0.1987
 1553SOL    HW116295   1.785   1.565  16.860  0.7109  0.7838 -1.1723
 1553SOL    HW216296   1.833   1.427  16.861 -0.7064 -1.3220 -0.8436
 1554SOL     OW16297   1.632   2.602  13.980 -0.4153 -0.1371  0.0189
 1554SOL    HW116298   1.607   2.668  14.044  0.3229  0.4976 -0.3491
 1554SOL    HW216299   1.701   2.560  14.032  0.9017  1.4161 -0.4737
 1555SOL     OW16300   0.894   0.324   4.064  0.7741 -0.0659 -0.2594
 1555SOL    HW116301   0.973   0.363   4.024 -0.6107  2.0248 -0.9712
 1555SOL    HW216302   0.928   0.327   4.153  0.8816  0.9380 -0.3313
 1556SOL     OW16303   1.830   2.943  17.103  0.3123 -0.0521  0.3125
 1556SOL    HW116304   1.815   3.035  17.078 -0.8514 -0.6735 -1.2620
 1556SOL    HW216305   1.808   2.949  17.196 -0.3713  2.0201  0.0221
 1557SOL     OW16306   0.944   1.468  17.738 -0.6334 -0.0620  0.7615
 1557SOL    HW116307   0.921   1.553   0.026  1.9663  0.9261  0.1316
 1557SOL    HW216308   0.989   1.485  17.655  1.2069  1.0347  1.9578
 1558SOL     OW16309   1.095   2.840   6.802  0.1005 -0.2293 -0.2279
 1558SOL    HW116310   1.186   2.812   6.811  0.9774  2.4825 -0.4791
 1558SOL    HW216311   1.098   2.936   6.797 -1.6328 -0.2210 -0.9866
 1559SOL     OW16312   1.736   2.242   6.668  0.0360 -0.5143 -0.3365
 1559SOL    HW116313   1.716   2.335   6.666 -0.6240 -0.6473 -0.1401
 1559SOL    HW216314   1.691   2.215   6.748  0.3089  0.7681  0.2493
 1560SOL     OW16315   1.115   3.790   1.303 -0.5168  0.7788  0.1090
 1560SOL    HW116316   1.065   3.779   1.221  2.2638  0.9497 -1.6040
 1560SOL    HW216317   1.185   3.846   1.268 -0.7708 -0.0633 -1.7585
 1561SOL     OW16318   1.834   1.605   4.151 -0.4120  0.7588 -0.0921
 1561SOL    HW116319   1.745   1.571   4.139 -0.7836  1.0064  1.9884
 1561SOL    HW216320   1.838   1.620   4.245  0.0177  1.1858 -0.1777
 1562SOL     OW16321   1.680   1.730   1.661 -0.2668 -0.2734 -0.2123
 1562SOL    HW116322   1.632   1.812   1.664 -0.6180 -0.4757 -0.2403
 1562SOL    HW216323   1.627   1.675   1.720  1.4375 -1.5186  0.1468
 1563SOL     OW16324   0.049   1.093  11.013 -0.3464 -0.1167 -0.0639
 1563SOL    HW116325   4.726   1.127  11.077 -1.4602 -0.4338 -0.9709
 1563SOL    HW216326   0.131   1.098  11.063 -2.4851  2.3034  3.1287
 1564SOL     OW16327   3.794   1.829   1.467 -0.5487 -0.3136  0.0194
 1564SOL    HW116328   3.870   1.799   1.418  0.1852 -1.0607  1.6510
 1564SOL    HW216329   3.810   1.781   1.548  0.1058  0.1115  0.1445
 1565SOL     OW16330   2.157   4.415  10.393 -0.0461 -0.5043  0.7197
 1565SOL    HW116331   2.226   4.362  10.352 -0.4217  1.7105 -2.8146
 1565SOL    HW216332   2.169   4.502  10.354 -0.5202  0.4846  2.7974
 1566SOL     OW16333   0.029   3.507   5.938 -0.7410  0.1547  0.0427
 1566SOL    HW116334   0.042   3.460   5.855  0.7484 -2.1635  1.5758
 1566SOL    HW216335   0.092   3.465   5.997 -0.2653 -0.6415 -1.0053
 1567SOL     OW16336   1.420   2.328   5.164 -0.2978 -0.2510 -0.2000
 1567SOL    HW116337   1.382   2.240   5.173 -1.2287  0.2158  0.4614
 1567SOL    HW216338   1.387   2.366   5.245  2.8360  0.2737  0.8287
 1568SOL     OW16339   3.869   2.420   9.789 -0.8502 -0.5055  0.4824
 1568SOL    HW116340   3.931   2.440   9.859 -2.3977 -2.0571  2.2885
 1568SOL    HW216341   3.814   2.498   9.797  0.0018  0.3583 -2.1812
 1569SOL     OW16342   4.656   0.839   1.951 -0.1791  0.5284  0.6338
 1569SOL    HW116343   4.622   0.759   1.990  0.6504  0.1090  0.5112
 1569SOL    HW216344   4.637   0.901   2.022  0.1474  1.7980 -0.3906
 1570SOL     OW16345   0.691   1.947   6.647  0.3335  0.4323 -0.1960
 1570SOL    HW116346   0.720   2.036   6.667 -0.6533  0.6846  0.1178
 1570SOL    HW216347   0.683   1.916   6.738 -0.1863 -1.3689 -0.8637
 1571SOL     OW16348   4.330   4.321  10.930 -0.5144 -0.3852 -0.1097
 1571SOL    HW116349   4.364   4.403  10.966  0.0120 -1.4400  1.8143
 1571SOL    HW216350   4.270   4.292  10.998  1.0919  1.8485  2.2680
 1572SOL     OW16351   1.666   2.083   0.336 -0.2577  0.2201 -0.3110
 1572SOL    HW116352   1.722   2.114   0.264  0.8029 -0.3846  0.2456
 1572SOL    HW216353   1.596   2.045   0.283  1.3370 -0.7059 -1.7591
 1573SOL     OW16354   4.559   2.482   1.722 -0.3295  0.2620 -0.4803
 1573SOL    HW116355   4.601   2.540   1.659 -4.2736  3.9593  0.2934
 1573SOL    HW216356   4.506   2.436   1.657 -0.8115 -3.0079  2.2103
 1574SOL     OW16357   4.345   4.252   0.643 -0.1484  0.2373 -0.7278
 1574SOL    HW116358   4.275   4.317   0.642 -0.5539 -0.2070 -1.5321
 1574SOL    HW216359   4.402   4.299   0.582 -0.0958  2.7329  1.2409
 1575SOL     OW16360   1.384   2.001  13.765  0.1325 -0.5461  0.4008
 1575SOL    HW116361   1.428   2.031  13.686  2.4267  2.2746  2.7389
 1575SOL    HW216362   1.319   1.936  13.739 -0.9018  1.0321 -1.0143
 1576SOL     OW16363   2.622   4.478   6.454 -0.4278 -0.0532 -1.0573
 1576SOL    HW116364   2.543   4.496   6.403  0.6595  1.1896 -2.2989
 1576SOL    HW216365   2.680   4.551   6.432  1.2719 -1.3945 -1.0451
 1577SOL     OW16366   2.345   4.614   8.998 -0.1362  0.2522  0.0761
 1577SOL    HW116367   2.322   4.524   8.977  0.2599 -0.3270  2.1292
 1577SOL    HW216368   2.346   4.607   9.094 -4.2970  0.0901  0.1350
 1578SOL     OW16369   3.615   3.579   1.443 -0.5079 -0.2667  0.1023
 1578SOL    HW116370   3.674   3.653   1.458  0.1944 -0.6017 -0.9512
 1578SOL    HW216371   3.538   3.594   1.497 -1.6574 -0.0865 -1.5799
 1579SOL     OW16372   3.142   2.645   1.475 -0.6859  0.5621  0.0324
 1579SOL    HW116373   3.091   2.625   1.396 -3.1749  1.9697  1.3233
 1579SOL    HW216374   3.123   2.564   1.522  0.0063  1.1153  1.2798
 1580SOL     OW16375   3.253   0.918   4.113  0.2655 -0.5351  0.4236
 1580SOL    HW116376   3.262   0.823   4.117  0.9801 -0.4525  0.7153
 1580SOL    HW216377   3.192   0.922   4.039 -0.3674 -0.9715  0.9303
 1581SOL     OW16378   3.324   0.661   4.360  0.1098 -0.2880  0.0996
 1581SOL    HW116379   3.385   0.636   4.429 -0.6349 -2.3358 -0.0024
 1581SOL    HW216380   3.382   0.692   4.290  1.3491 -0.5363  1.0225
 1582SOL     OW16381   0.591   2.493   5.632 -0.7211 -0.0442  0.1428
 1582SOL    HW116382   0.664   2.498   5.693  0.6869 -1.4770 -1.4377
 1582SOL    HW216383   0.526   2.501   5.702  0.3523  1.6995  0.9586
 1583SOL     OW16384   2.909   0.553   5.331  0.3916 -0.2029  0.4249
 1583SOL    HW116385   2.975   0.540   5.399 -1.7573 -0.0430  2.5595
 1583SOL    HW216386   2.947   0.629   5.288  2.5689 -1.5312  0.0019
 1584SOL     OW16387   1.783   0.390   5.725 -0.1844 -0.1442  0.0392
 1584SOL    HW116388   1.742   0.380   5.811 -1.5783  1.2044 -0.4636
 1584SOL    HW216389   1.801   0.483   5.736  1.8240 -0.4426 -0.7175
 1585SOL     OW16390   1.648   3.347   2.873 -0.2025  0.5515 -0.0851
 1585SOL    HW116391   1.589   3.421   2.881  0.4603  1.2821 -1.8924
 1585SOL    HW216392   1.623   3.290   2.946 -0.9489  0.9850  0.0003
 1586SOL     OW16393   1.206   3.494   8.400 -0.3675  0.1787 -0.3146
 1586SOL    HW116394   1.121   3.528   8.372 -1.5857 -0.4496  2.5544
 1586SOL    HW216395   1.214   3.430   8.329  0.5745 -0.2664  0.1971
 1587SOL     OW16396   0.596   0.045   6.788 -0.0796 -0.6150 -0.0591
 1587SOL    HW116397   0.636   4.706   6.748 -1.2437 -0.4002 -1.6737
 1587SOL    HW216398   0.672   0.102   6.803 -1.1163  0.3425  1.5016
 1588SOL     OW16399   0.232   4.316  16.995  0.5512  0.1704 -0.7182
 1588SOL    HW116400   0.283   4.259  17.053 -0.5012  0.3960  0.4379
 1588SOL    HW216401   0.293   4.387  16.975 -0.9977  1.7661  0.2059
 1589SOL     OW16402   3.019   0.009  13.252 -0.1467  0.0873 -0.5614
 1589SOL    HW116403   2.978   0.046  13.330 -0.1415  1.1234 -1.0500
 1589SOL    HW216404   3.053   0.087  13.207 -3.7524  0.7770 -2.0469
 1590SOL     OW16405   3.991   3.103  13.399 -1.2133 -0.1680 -0.4378
 1590SOL    HW116406   4.015   3.105  13.492  0.4855  2.4008 -0.9393
 1590SOL    HW216407   3.915   3.162  13.403  0.3860  1.6888  2.4942
 1591SOL     OW16408   0.497   3.753   2.521 -0.0821 -0.0329 -0.1225
 1591SOL    HW116409   0.510   3.658   2.516 -1.8516 -0.2905  0.2042
 1591SOL    HW216410   0.450   3.762   2.438 -0.1217 -2.0037 -0.3174
 1592SOL     OW16411   2.061   3.786   0.258  0.2588  0.8282  0.0666
 1592SOL    HW116412   1.985   3.737   0.291 -0.1192  0.8797 -0.7253
 1592SOL    HW216413   2.041   3.877   0.279  0.1703  0.6001  1.0125
 1593SOL     OW16414   1.567   4.335   9.125  0.1662 -0.0361 -0.1021
 1593SOL    HW116415   1.580   4.325   9.031 -3.8902 -0.3746 -0.6414
 1593SOL    HW216416   1.501   4.272   9.154  0.7456 -0.4524  0.3209
 1594SOL     OW16417   4.046   1.081   9.948  0.4083 -0.3234  0.3096
 1594SOL    HW116418   4.098   1.005   9.974 -0.4544 -0.1822  2.4495
 1594SOL    HW216419   4.095   1.154   9.985 -0.3846  0.2850  0.1551
 1595SOL     OW16420   3.620   3.925   3.093 -0.4214 -0.2742 -0.1991
 1595SOL    HW116421   3.653   4.011   3.118  1.2916 -1.3437  1.1700
 1595SOL    HW216422   3.558   3.940   3.022 -0.1152 -4.8209 -1.4607
 1596SOL     OW16423   3.674   0.813   1.378 -0.1700 -0.0187  0.0152
 1596SOL    HW116424   3.723   0.731   1.370  0.5429  0.0814  3.3696
 1596SOL    HW216425   3.748   0.862   1.414 -0.8748  0.1104  1.2719
 1597SOL     OW16426   0.642   1.783   1.230  0.0393 -0.1940 -0.0148
 1597SOL    HW116427   0.632   1.871   1.267  0.7651  0.6174 -1.7756
 1597SOL    HW216428   0.611   1.788   1.140 -1.5605 -1.8274  0.4449
 1598SOL     OW16429   2.451   3.912  14.083  0.0137  0.2226  0.0381
 1598SOL    HW116430   2.426   3.993  14.037 -3.5174 -2.8368 -3.4487
 1598SOL    HW216431   2.427   3.849  14.015  1.7048 -1.3978  0.9246
 1599SOL     OW16432   1.302   1.275  17.614  0.5677 -0.5945 -0.2481
 1599SOL    HW116433   1.271   1.184  17.615 -1.0077 -0.0571  0.6232
 1599SOL    HW216434   1.325   1.280  17.707  0.4449  1.0848 -0.3159
 1600SOL     OW16435   0.754   3.724   4.957  0.5764 -0.2466  0.0335
 1600SOL    HW116436   0.661   3.706   4.972 -0.0476  2.6146 -0.3626
 1600SOL    HW216437   0.738   3.794   4.893 -1.1996 -0.7510 -0.0920
 1601SOL     OW16438   0.299   1.529   3.148  0.6078  0.1620  0.2314
 1601SOL    HW116439   0.220   1.515   3.096  0.8788  0.8803 -0.3778
 1601SOL    HW216440   0.348   1.458   3.108 -1.4456 -1.4323  0.5455
 1602SOL     OW16441   1.334   2.968  12.375  0.0663  0.6342  0.2850
 1602SOL    HW116442   1.371   3.031  12.436 -0.0343  0.6947  0.2824
 1602SOL    HW216443   1.307   2.900  12.437 -1.0181 -0.7751 -1.7363
 1603SOL     OW16444   3.819   4.303   6.296 -0.1415 -0.1269  0.1884
 1603SOL    HW116445   3.895   4.295   6.238 -0.9642  0.6915 -1.0143
 1603SOL    HW216446   3.806   4.398   6.297 -2.0600 -0.4111  1.5263
 1604SOL     OW16447   4.388   3.867   9.117  0.7054 -0.1378  0.9805
 1604SOL    HW116448   4.353   3.940   9.168  0.6854  0.0534  0.6893
 1604SOL    HW216449   4.450   3.834   9.183  1.2833  1.3178  1.1626
 1605SOL     OW16450   3.184   0.397   5.342 -0.5091  0.1682 -0.3333
 1605SOL    HW116451   3.258   0.357   5.388  1.8676  3.7904 -1.0150
 1605SOL    HW216452   3.126   0.321   5.345  0.3656 -0.5758 -2.4134
 1606SOL     OW16453   3.673   0.186   4.594 -0.1800 -0.0380 -0.1383
 1606SOL    HW116454   3.713   0.171   4.680 -1.7703 -2.3624  0.2119
 1606SOL    HW216455   3.681   0.100   4.554  0.3269 -1.9362  3.9854
 1607SOL     OW16456   1.558   0.250  13.239 -0.0323  0.3882 -0.2552
 1607SOL    HW116457   1.642   0.265  13.282  0.4528 -3.7601  0.2196
 1607SOL    HW216458   1.596   0.250  13.152  0.8732  0.2196  0.1403
 1608SOL     OW16459   3.074   4.144   5.533 -1.2166 -0.0072 -0.1345
 1608SOL    HW116460   3.141   4.211   5.520 -2.9076  2.0280  1.4248
 1608SOL    HW216461   3.108   4.086   5.601  1.7706  2.1202  0.1961
 1609SOL     OW16462   2.580   1.095   5.967 -0.3506 -0.3608  0.4032
 1609SOL    HW116463   2.547   1.179   6.000 -3.4356 -0.8497 -1.4161
 1609SOL    HW216464   2.661   1.092   6.018  1.4300  2.0967 -2.2889
 1610SOL     OW16465   0.199   0.901   5.213  0.2860  0.2259  0.4771
 1610SOL    HW116466   0.289   0.882   5.186 -0.6345 -3.9874  0.3031
 1610SOL    HW216467   0.204   0.990   5.248  0.8786  0.8293 -1.1426
 1611SOL     OW16468   2.860   3.934  11.420 -0.0696  0.9776  0.0760
 1611SOL    HW116469   2.837   3.852  11.463 -3.0482  0.9007 -1.6349
 1611SOL    HW216470   2.943   3.909  11.379 -0.7697  1.3540 -1.5673
 1612SOL     OW16471   2.942   3.195   8.840 -0.3882 -0.2735 -0.5106
 1612SOL    HW116472   3.037   3.180   8.845 -0.6796 -1.4640  1.4290
 1612SOL    HW216473   2.929   3.160   8.752  0.9885 -2.3970  0.1334
 1613SOL     OW16474   0.373   4.421   5.899  1.0192  0.4912  0.0389
 1613SOL    HW116475   0.337   4.505   5.871  0.8585  0.2199 -0.5654
 1613SOL    HW216476   0.467   4.432   5.884  1.2045  1.0364  1.5776
 1614SOL     OW16477   0.615   2.237   0.283  0.1600  0.2151  0.0297
 1614SOL    HW116478   0.523   2.262   0.269 -0.2700 -0.0281  2.4477
 1614SOL    HW216479   0.617   2.145   0.256 -1.5650 -0.2209  1.3883
 1615SOL     OW16480   0.501   3.624   3.110 -0.0394  0.2500  0.2675
 1615SOL    HW116481   0.462   3.537   3.119  1.6843 -0.2090  3.3253
 1615SOL    HW216482   0.428   3.672   3.071 -1.3195 -1.9178  0.0357
 1616SOL     OW16483   2.816   0.204  11.389  0.0258  0.3013 -0.4037
 1616SOL    HW116484   2.814   0.293  11.353 -2.2297  1.6275  2.9934
 1616SOL    HW216485   2.793   0.154  11.311 -0.4128  0.9510 -0.6951
 1617SOL     OW16486   0.510   0.034   8.567  0.0588  0.2349  0.0955
 1617SOL    HW116487   0.533   0.125   8.588 -1.1925  1.0437 -1.9796
 1617SOL    HW216488   0.582   0.012   8.508 -1.4427 -2.6087 -0.6438
 1618SOL     OW16489   1.761   4.237  17.056 -0.8487 -0.2918 -0.1816
 1618SOL    HW116490   1.852   4.231  17.087 -0.6500  0.0352 -0.6977
 1618SOL    HW216491   1.744   4.322  17.096  0.2494 -0.8192  1.3993
 1619SOL     OW16492   0.598   0.008   6.204 -0.1267  0.1951  0.2016
 1619SOL    HW116493   0.567   4.676   6.260 -0.3366  2.0760  2.4735
 1619SOL    HW216494   0.520   0.064   6.200 -1.9220 -2.3799 -1.1701
 1620SOL     OW16495   3.489   4.409   8.322 -0.0894 -0.2317 -0.9280
 1620SOL    HW116496   3.553   4.338   8.328  1.2664  1.0748  0.1290
 1620SOL    HW216497   3.540   4.490   8.313  0.0657 -0.1909  0.3789
 1621SOL     OW16498   2.244   2.230  12.050 -0.9423  0.4002 -0.0160
 1621SOL    HW116499   2.290   2.290  12.108 -0.8778  0.9082 -0.5890
 1621SOL    HW216500   2.154   2.233  12.082 -1.0267  1.9281 -0.4200
 1622SOL     OW16501   3.399   1.646   6.391 -0.0909  0.2939 -0.6594
 1622SOL    HW116502   3.419   1.579   6.456 -2.0637  0.1642 -0.1962
 1622SOL    HW216503   3.467   1.709   6.415 -3.9468  3.3335  2.3152
 1623SOL     OW16504   3.698   2.561   3.960  0.2828  0.1093 -0.0703
 1623SOL    HW116505   3.727   2.492   3.900  0.1646 -1.3915  1.5811
 1623SOL    HW216506   3.623   2.521   4.005  2.1617 -1.2662  1.8431
 1624SOL     OW16507   4.043   0.741   7.502  0.1904 -0.0669 -0.1890
 1624SOL    HW116508   4.132   0.761   7.532  1.0605  0.4052 -3.0751
 1624SOL    HW216509   4.004   0.821   7.537  0.9748 -0.0054  0.5736
 1625SOL     OW16510   2.338   4.322   4.777  0.0047 -0.2591  0.1831
 1625SOL    HW116511   2.358   4.376   4.701 -2.4731  0.5649  0.1297
 1625SOL    HW216512   2.305   4.381   4.845  0.6696 -0.4389  0.6596
 1626SOL     OW16513   3.737   0.484   6.495  0.1296 -0.5241 -0.0059
 1626SOL    HW116514   3.677   0.455   6.426  0.2862  0.1574 -0.4200
 1626SOL    HW216515   3.820   0.487   6.448 -1.8202 -1.7210 -3.4738
 1627SOL     OW16516   3.544   1.757   9.841 -0.2405 -0.7061  1.2298
 1627SOL    HW116517   3.574   1.678   9.886  0.3903 -0.2262  1.6439
 1627SOL    HW216518   3.489   1.724   9.769 -0.0698  0.5946  0.5004
 1628SOL     OW16519   2.228   4.157   7.955 -0.3991  0.4396  0.0298
 1628SOL    HW116520   2.207   4.077   8.003 -2.8054  0.4433 -1.0689
 1628SOL    HW216521   2.292   4.192   8.017 -0.3251  0.5012 -0.0815
 1629SOL     OW16522   4.152   4.452   0.663  0.1886  0.2433 -0.5098
 1629SOL    HW116523   4.086   4.513   0.631  0.2926  1.1329  0.9546
 1629SOL    HW216524   4.097   4.422   0.736  0.2987 -2.7661 -1.7018
 1630SOL     OW16525   0.207   4.471   7.754 -0.5258 -0.2355 -0.0303
 1630SOL    HW116526   0.217   4.543   7.816 -1.3263 -1.3355  1.3544
 1630SOL    HW216527   0.113   4.459   7.761 -0.7340  1.5614  0.2136
 1631SOL     OW16528   1.731   1.334   5.345  0.3534  0.3918  0.2274
 1631SOL    HW116529   1.790   1.391   5.394  0.2609 -0.0098  0.8071
 1631SOL    HW216530   1.743   1.366   5.256 -0.3619 -2.7840 -1.0305
 1632SOL     OW16531   1.841   4.611  12.701  0.1231 -0.6143 -0.3274
 1632SOL    HW116532   1.796   4.687  12.662  0.3244 -0.5243 -0.3817
 1632SOL    HW216533   1.933   4.637  12.702 -0.5253  1.8010 -1.1069
 1633SOL     OW16534   4.282   4.102   6.037 -0.0619 -0.1548 -0.7962
 1633SOL    HW116535   4.198   4.061   6.057  1.0439 -1.7237  0.5981
 1633SOL    HW216536   4.340   4.029   6.016 -0.3136 -0.3937 -0.6528
 1634SOL     OW16537   3.848   1.874  12.759  0.2707  0.0045  0.4233
 1634SOL    HW116538   3.914   1.827  12.708 -1.0277 -0.3004 -1.0017
 1634SOL    HW216539   3.842   1.818  12.836 -0.0767  0.9223  1.0718
 1635SOL     OW16540   0.822   2.061   0.599 -0.5676  0.1766  0.1998
 1635SOL    HW116541   0.899   2.023   0.641  0.3789 -0.4002 -2.0745
 1635SOL    HW216542   0.815   2.018   0.513 -1.3325 -0.2574  0.4737
 1636SOL     OW16543   4.572   2.366   9.136  0.1776  0.2092 -0.2286
 1636SOL    HW116544   4.510   2.298   9.162  1.7256  0.0351  2.9852
 1636SOL    HW216545   4.632   2.370   9.211  1.4736 -0.3587 -1.2263
 1637SOL     OW16546   0.871   2.624   5.080 -0.1593 -0.1663 -0.5464
 1637SOL    HW116547   0.945   2.619   5.019 -0.0420  2.7545 -0.6762
 1637SOL    HW216548   0.896   2.703   5.128 -2.2865 -0.1539  0.5457
 1638SOL     OW16549   1.640   2.389   8.592 -0.3501 -0.1501  0.4946
 1638SOL    HW116550   1.587   2.427   8.663 -1.7484 -2.2545  0.5852
 1638SOL    HW216551   1.579   2.393   8.518  0.4424 -2.4642 -0.2741
 1639SOL     OW16552   0.415   1.669   4.304  0.2396  0.0442  0.0617
 1639SOL    HW116553   0.376   1.628   4.381  2.3575 -1.6740  0.2302
 1639SOL    HW216554   0.337   1.664   4.249  0.3730  0.5306 -0.1732
 1640SOL     OW16555   1.680   0.997   3.859 -0.6723  0.2101  0.3072
 1640SOL    HW116556   1.657   0.954   3.776  3.4818 -3.0401  0.8203
 1640SOL    HW216557   1.756   1.050   3.834 -1.6369  1.8466  0.8394
 1641SOL     OW16558   2.880   2.511   7.271 -0.3313  0.1324  0.5290
 1641SOL    HW116559   2.897   2.512   7.177  2.3093 -0.7091  0.9955
 1641SOL    HW216560   2.957   2.542   7.319  0.8060 -0.7842 -0.7203
 1642SOL     OW16561   4.136   3.200   5.773  0.1910 -0.1637 -0.0266
 1642SOL    HW116562   4.066   3.236   5.827 -0.6643  0.2229 -1.3804
 1642SOL    HW216563   4.088   3.169   5.696  0.0092  0.3609 -0.1306
 1643SOL     OW16564   2.066   3.563   7.395 -0.3200  0.1400 -0.1078
 1643SOL    HW116565   2.036   3.527   7.312  0.1289  0.3478 -0.3597
 1643SOL    HW216566   2.143   3.613   7.368 -0.0896  0.8342  1.8406
 1644SOL     OW16567   2.912   1.915   3.701 -0.0600 -0.4742  0.5580
 1644SOL    HW116568   2.977   1.984   3.694  0.9156 -1.4041  0.4041
 1644SOL    HW216569   2.835   1.968   3.681  0.9929  1.7635  2.4068
 1645SOL     OW16570   0.185   0.311  10.090  0.0880 -0.4532  0.2270
 1645SOL    HW116571   0.146   0.306  10.177 -0.8063 -1.8237 -0.2587
 1645SOL    HW216572   0.271   0.272  10.105 -0.7805 -2.1235  0.8486
 1646SOL     OW16573   2.420   1.495   5.820 -0.4520 -0.1713  0.1535
 1646SOL    HW116574   2.371   1.538   5.750  1.7566 -0.3650 -1.4804
 1646SOL    HW216575   2.396   1.402   5.811  0.4180 -0.3857  0.0880
 1647SOL     OW16576   4.198   3.894   8.292 -0.0104 -0.7122 -0.1309
 1647SOL    HW116577   4.158   3.964   8.342 -1.1576 -0.8669 -0.8397
 1647SOL    HW216578   4.204   3.934   8.205  1.6677 -0.2409  0.1931
 1648SOL     OW16579   3.543   4.539   3.716 -0.3247 -0.2501  0.3758
 1648SOL    HW116580   3.513   4.502   3.800 -2.3206 -1.8471 -1.0505
 1648SOL    HW216581   3.468   4.586   3.681  1.6512  1.9577 -0.8220
 1649SOL     OW16582   3.306   2.971   9.245 -0.2238  0.4826 -0.5243
 1649SOL    HW116583   3.295   3.053   9.196  0.0760  0.9813  0.2461
 1649SOL    HW216584   3.338   3.006   9.327  0.9091 -2.3633  0.2505
 1650SOL     OW16585   4.329   0.212   8.654 -0.1937  0.3135 -0.3392
 1650SOL    HW116586   4.259   0.253   8.602 -1.9102 -0.0894  1.6801
 1650SOL    HW216587   4.266   0.144   8.676 -0.9949  0.9854 -0.5451
 1651SOL     OW16588   4.344   2.709  10.663  0.2281  0.0962  0.5101
 1651SOL    HW116589   4.347   2.787  10.608 -1.2990 -0.0347  0.2279
 1651SOL    HW216590   4.373   2.645  10.598 -1.0301  1.2260 -1.1674
 1652SOL     OW16591   0.954   4.601  17.575  0.0102 -0.5870 -0.7020
 1652SOL    HW116592   0.883   4.616  17.638  1.0442  0.3640  0.2531
 1652SOL    HW216593   0.916   4.561  17.497 -0.4882 -0.9424 -0.2724
 1653SOL     OW16594   4.533   4.339  13.205 -0.1062  1.1321 -0.3389
 1653SOL    HW116595   4.580   4.260  13.232 -0.2946  1.8190  1.9822
 1653SOL    HW216596   4.450   4.327  13.250  0.8000  2.3152  1.6469
 1654SOL     OW16597   2.156   1.299   3.814 -0.0165 -0.2964  0.2215
 1654SOL    HW116598   2.120   1.280   3.900  2.1795  0.9486  1.4162
 1654SOL    HW216599   2.207   1.379   3.815 -0.6276  0.0728  1.4185
 1655SOL     OW16600   3.929   2.384  10.866 -0.4443 -0.3180  0.1032
 1655SOL    HW116601   3.884   2.454  10.914  0.7643 -0.6593  1.7130
 1655SOL    HW216602   3.859   2.363  10.804  0.6350  0.2494 -1.3135
 1656SOL     OW16603   4.250   1.567   3.383 -0.1748  0.2503  1.1966
 1656SOL    HW116604   4.214   1.505   3.446  1.6895 -1.2338  0.7984
 1656SOL    HW216605   4.188   1.640   3.382  0.1903  0.5607  1.0623
 1657SOL     OW16606   3.451   2.910  17.118 -0.7114 -0.0602 -0.5417
 1657SOL    HW116607   3.530   2.942  17.073 -1.5426  6.6891  2.7540
 1657SOL    HW216608   3.492   2.854  17.184 -0.8738 -0.1194 -0.4928
 1658SOL     OW16609   2.225   0.950   8.288  0.3381 -0.6040  0.2689
 1658SOL    HW116610   2.218   0.923   8.196  2.0185  0.9517 -0.3205
 1658SOL    HW216611   2.263   1.036   8.269  1.5676 -1.2107 -0.0205
 1659SOL     OW16612   2.539   4.679   5.330 -0.1352 -0.2149  0.3796
 1659SOL    HW116613   2.621   4.634   5.309  0.1670  0.6545 -0.2782
 1659SOL    HW216614   2.488   4.665   5.250  2.3928 -2.3728 -0.8565
 1660SOL     OW16615   0.070   2.689  12.511 -0.4592  0.0921  0.1309
 1660SOL    HW116616   0.101   2.779  12.524 -0.7799  0.4616 -1.5634
 1660SOL    HW216617   0.096   2.653  12.595  0.1434 -0.7595 -0.4198
 1661SOL     OW16618   2.343   0.308  10.632 -0.0402  0.6417 -0.3893
 1661SOL    HW116619   2.376   0.319  10.721  1.3414  0.0750 -0.8278
 1661SOL    HW216620   2.292   0.227  10.643  1.2499 -0.0082  0.7188
 1662SOL     OW16621   0.868   2.632   8.402 -0.1709 -0.4885 -0.4374
 1662SOL    HW116622   0.810   2.692   8.449 -0.6735 -2.3019  1.2432
 1662SOL    HW216623   0.946   2.687   8.395 -0.5538  0.2769  1.3218
 1663SOL     OW16624   4.047   2.884  13.247  0.2792 -0.1084  0.3028
 1663SOL    HW116625   4.021   2.969  13.283  0.0643  0.0961 -0.3360
 1663SOL    HW216626   3.991   2.878  13.170  2.2664 -0.0841 -1.1190
 1664SOL     OW16627   2.289   3.442   1.854  0.0085  0.1989  0.3603
 1664SOL    HW116628   2.311   3.535   1.845  0.4068  0.2627  2.0897
 1664SOL    HW216629   2.248   3.448   1.940  3.5556 -1.5347  2.1761
 1665SOL     OW16630   3.675   3.561   4.733  0.3103 -0.2273 -0.1152
 1665SOL    HW116631   3.608   3.534   4.796  0.6429  0.6719  0.6204
 1665SOL    HW216632   3.715   3.619   4.798 -0.7357 -0.8452  1.0864
 1666SOL     OW16633   0.962   3.767   7.535 -0.7720  0.4744  0.5444
 1666SOL    HW116634   1.052   3.765   7.567 -0.7172 -0.6147  0.3280
 1666SOL    HW216635   0.928   3.680   7.553 -1.1236  0.8504  1.6965
 1667SOL     OW16636   3.266   3.966   8.300  0.1705 -0.0149  0.2643
 1667SOL    HW116637   3.190   3.941   8.352 -0.2885  0.5718 -0.1312
 1667SOL    HW216638   3.227   3.955   8.213  1.1777 -0.1111 -0.1857
 1668SOL     OW16639   1.702   0.058   2.874  0.4571  0.4355 -0.3201
 1668SOL    HW116640   1.755   4.716   2.878  2.5312  1.7880 -0.5748
 1668SOL    HW216641   1.611   0.030   2.879  0.2107  1.3564  0.2547
 1669SOL     OW16642   2.662   3.079   6.682 -0.3429 -0.3824  0.5080
 1669SOL    HW116643   2.722   3.082   6.757 -1.7745  0.4630  1.6148
 1669SOL    HW216644   2.630   2.989   6.685  1.7941 -1.1555  0.7470
 1670SOL     OW16645   1.682   1.845   6.598 -1.0341 -0.2126 -0.3055
 1670SOL    HW116646   1.735   1.767   6.613 -1.1168 -0.2251 -0.0736
 1670SOL    HW216647   1.645   1.857   6.686 -0.6095  1.8777 -0.4077
 1671SOL     OW16648   1.711   1.390  14.841 -0.2735  0.0271 -0.4778
 1671SOL    HW116649   1.796   1.405  14.799 -1.5264  2.2908 -2.2156
 1671SOL    HW216650   1.677   1.480  14.836 -0.5843 -0.1527 -1.4263
 1672SOL     OW16651   1.423   3.545   9.268 -0.0753 -0.2140  0.0331
 1672SOL    HW116652   1.490   3.524   9.334 -0.2704  2.1753  0.9982
 1672SOL    HW216653   1.384   3.458   9.264  1.3498 -0.8235 -0.6492
 1673SOL     OW16654   1.027   0.193   4.495  0.0155 -0.3461  0.7432
 1673SOL    HW116655   1.040   0.118   4.437  2.5334 -0.1620  1.0852
 1673SOL    HW216656   1.025   0.260   4.427 -0.2819  0.7660  1.8427
 1674SOL     OW16657   3.066   4.122   7.477  0.7977  0.6316 -0.5323
 1674SOL    HW116658   3.123   4.119   7.400  0.0096 -0.0935 -1.0976
 1674SOL    HW216659   3.066   4.218   7.480  2.9827  0.6373 -0.6246
 1675SOL     OW16660   0.534   0.295   4.403  0.8177  0.3931 -0.1324
 1675SOL    HW116661   0.576   0.309   4.488 -0.1001 -0.0813  0.3978
 1675SOL    HW216662   0.600   0.242   4.358  0.3516  0.9535 -1.4707
 1676SOL     OW16663   1.914   1.694   9.650 -0.0625 -0.3751 -0.1368
 1676SOL    HW116664   1.863   1.686   9.570  0.9559 -2.7883 -0.5378
 1676SOL    HW216665   1.875   1.774   9.684 -0.4051 -0.3319 -0.6333
 1677SOL     OW16666   1.646   3.569   7.382  0.6628 -0.3193  0.2228
 1677SOL    HW116667   1.649   3.552   7.287  0.4394  1.3833 -0.0769
 1677SOL    HW216668   1.664   3.481   7.416 -1.0009 -1.0521 -0.7706
 1678SOL     OW16669   1.857   2.414   4.741  0.0611  0.2909  0.1826
 1678SOL    HW116670   1.786   2.363   4.780 -0.2867 -2.0336 -3.4709
 1678SOL    HW216671   1.804   2.476   4.690  1.9719  0.9762 -0.9543
 1679SOL     OW16672   0.305   1.316   7.719 -0.0438  0.4975 -0.2792
 1679SOL    HW116673   0.295   1.411   7.724 -0.7381  0.4313 -0.4401
 1679SOL    HW216674   0.228   1.282   7.764 -0.3766  0.1019 -1.1431
 1680SOL     OW16675   4.719   3.580   7.565 -0.1381 -0.7116  0.1219
 1680SOL    HW116676   4.672   3.515   7.618  0.4569  0.8764  2.5800
 1680SOL    HW216677   4.715   3.658   7.620  0.7116 -0.9458  0.5180
 1681SOL     OW16678   2.197   4.491   6.165  0.0801 -0.0997  0.0070
 1681SOL    HW116679   2.265   4.476   6.099  0.3009 -0.5421  0.3360
 1681SOL    HW216680   2.145   4.410   6.161 -1.2111  0.7482 -0.5676
 1682SOL     OW16681   3.397   3.542   0.860  0.5102 -0.3107 -0.2161
 1682SOL    HW116682   3.436   3.502   0.782 -1.0431 -2.1066 -0.0692
 1682SOL    HW216683   3.367   3.456   0.889 -2.1034  0.7587  0.2243
 1683SOL     OW16684   2.918   2.510   0.100 -0.4383  0.2756 -0.2341
 1683SOL    HW116685   2.963   2.427   0.080 -0.1922  1.1540 -3.3448
 1683SOL    HW216686   2.902   2.507   0.194  0.0324 -3.1153 -0.2476
 1684SOL     OW16687   1.813   1.193   0.132  0.1440  0.1671  0.1596
 1684SOL    HW116688   1.869   1.264   0.163  0.6751 -1.0651  2.0551
 1684SOL    HW216689   1.753   1.232   0.069  0.0740 -0.4837 -0.1845
 1685SOL     OW16690   0.234   4.017   4.077  0.0012  0.3055 -0.1028
 1685SOL    HW116691   0.208   3.974   4.158 -0.3900 -0.2541 -0.5278
 1685SOL    HW216692   0.279   3.946   4.032  0.8564  1.2938 -0.8246
 1686SOL     OW16693   0.173   1.759   8.825  0.1561  0.3609 -0.2482
 1686SOL    HW116694   0.261   1.739   8.792  0.0768  2.9268 -2.0513
 1686SOL    HW216695   0.185   1.721   8.912 -1.3198  0.9123  0.1905
 1687SOL     OW16696   2.817   2.726   1.589  0.1396  0.4641 -0.1654
 1687SOL    HW116697   2.732   2.690   1.614  0.5248  0.1237  0.6568
 1687SOL    HW216698   2.866   2.646   1.608 -0.7731 -0.0546  0.0269
 1688SOL     OW16699   1.652   1.715   0.743 -0.3443  0.5856 -0.0569
 1688SOL    HW116700   1.701   1.642   0.707 -2.1194 -1.0422  0.7807
 1688SOL    HW216701   1.650   1.779   0.673 -0.8226 -0.2053 -0.7653
 1689SOL     OW16702   1.623   2.750   5.774  0.4445 -0.3734 -0.1719
 1689SOL    HW116703   1.703   2.790   5.808  0.1134 -0.0296  0.2079
 1689SOL    HW216704   1.661   2.695   5.706 -0.3076  0.3822 -1.2050
 1690SOL     OW16705   1.769   0.107   6.331 -0.3008 -0.2997 -0.3073
 1690SOL    HW116706   1.853   0.138   6.366 -1.3424  0.2407  1.7196
 1690SOL    HW216707   1.769   0.014   6.355  0.0364  0.1396  1.4172
 1691SOL     OW16708   1.624   0.866   9.460  0.1392  0.9550  0.2734
 1691SOL    HW116709   1.706   0.824   9.436 -0.8115  0.0914 -1.4816
 1691SOL    HW216710   1.578   0.866   9.376 -0.3357  0.9878  0.5340
 1692SOL     OW16711   3.423   1.961  15.936 -0.2687  0.4899  0.1995
 1692SOL    HW116712   3.443   2.053  15.916  2.0413 -0.9385 -3.9736
 1692SOL    HW216713   3.428   1.940  15.843 -3.2416 -2.4795  0.7241
 1693SOL     OW16714   1.477   1.345  13.833 -0.4007 -0.2212  0.4095
 1693SOL    HW116715   1.401   1.402  13.844 -0.4684  0.1352 -1.8412
 1693SOL    HW216716   1.506   1.342  13.924 -1.9428 -1.1090  0.8614
 1694SOL     OW16717   3.407   3.586  17.518 -0.4617 -0.1769  0.3564
 1694SOL    HW116718   3.387   3.651  17.451 -0.0058 -0.3170  0.0801
 1694SOL    HW216719   3.495   3.613  17.546  0.4715 -0.0894 -2.6440
 1695SOL     OW16720   0.748   3.765   6.275  0.0491 -0.0726 -0.1744
 1695SOL    HW116721   0.773   3.710   6.200 -1.0921 -0.1128 -0.5321
 1695SOL    HW216722   0.829   3.785   6.322  0.3303 -0.2621 -0.5746
 1696SOL     OW16723   0.311   0.036   7.493 -0.0535 -0.1304  0.1548
 1696SOL    HW116724   0.281   4.708   7.431 -1.5299  1.5032 -0.8619
 1696SOL    HW216725   0.226   0.054   7.532  0.1941  3.4273 -1.0272
 1697SOL     OW16726   2.062   0.890   3.566 -0.3854 -0.0943  0.1893
 1697SOL    HW116727   2.046   0.807   3.521 -2.3706  0.3965 -0.0480
 1697SOL    HW216728   2.155   0.898   3.547 -0.6301  0.0129 -0.9817
 1698SOL     OW16729   0.119   3.423   4.069  0.4042  0.2346 -0.5592
 1698SOL    HW116730   0.084   3.395   3.985 -0.1444  0.0665 -0.2752
 1698SOL    HW216731   0.202   3.378   4.080  0.1349 -0.1307 -0.0608
 1699SOL     OW16732   0.315   1.118   9.176 -0.3538 -0.2036  0.3885
 1699SOL    HW116733   0.364   1.096   9.255 -1.6206  0.8816  1.4588
 1699SOL    HW216734   0.377   1.098   9.105  0.2427  0.5762  0.6890
 1700SOL     OW16735   4.454   2.936   5.738  0.0976 -0.1011  0.4738
 1700SOL    HW116736   4.439   2.992   5.814  0.8642  1.1674 -0.2989
 1700SOL    HW216737   4.367   2.937   5.698  0.0614 -0.4339  0.5472
 1701SOL     OW16738   0.115   0.059  11.629  0.2070  0.0644 -0.7251
 1701SOL    HW116739   0.183   0.126  11.635  0.5893 -0.5353  1.6749
 1701SOL    HW216740   0.111   0.032  11.721 -2.1608  1.4089 -0.4291
 1702SOL     OW16741   3.848   2.661  16.812 -0.0844  0.5966 -0.4637
 1702SOL    HW116742   3.839   2.610  16.893 -1.2770  0.7026 -0.5309
 1702SOL    HW216743   3.790   2.735  16.833  2.0469  2.3242 -0.6630
 1703SOL     OW16744   1.893   3.247  14.509 -0.5915  0.4625 -0.5337
 1703SOL    HW116745   1.876   3.331  14.466  1.0920  1.6277  1.0972
 1703SOL    HW216746   1.949   3.203  14.446  1.6642  1.5989  0.6756
 1704SOL     OW16747   3.992   0.176  15.491 -0.6255  0.0771 -0.0106
 1704SOL    HW116748   3.908   0.146  15.525  0.1588 -0.1543  1.6957
 1704SOL    HW216749   3.975   0.198  15.399 -1.6482  1.3087  0.4856
 1705SOL     OW16750   4.364   4.273   2.545 -0.3382  0.2974  0.4959
 1705SOL    HW116751   4.423   4.347   2.529  1.6494 -1.5376 -0.7341
 1705SOL    HW216752   4.387   4.231   2.627  0.7849 -0.8242 -0.4038
 1706SOL     OW16753   3.569   3.763   6.456  0.0867 -0.1366  0.2069
 1706SOL    HW116754   3.479   3.753   6.426  1.8017  0.0013 -4.9534
 1706SOL    HW216755   3.571   3.678   6.499 -3.0408  0.3561  1.3411
 1707SOL     OW16756   4.619   0.200   8.188  0.4524 -0.1417  0.6643
 1707SOL    HW116757   4.527   0.205   8.212  0.5682  1.4747  0.7228
 1707SOL    HW216758   4.657   0.195   8.276 -2.3126  1.3209  1.9433
 1708SOL     OW16759   1.433   4.732  10.387  0.5486  0.3185  0.7196
 1708SOL    HW116760   1.384   0.015  10.466  1.7814 -0.7757  1.7806
 1708SOL    HW216761   1.458   4.644  10.417  3.0637  0.7976  0.0601
 1709SOL     OW16762   2.217   3.953   5.819 -0.2241 -0.4790 -0.2665
 1709SOL    HW116763   2.180   3.869   5.844 -1.7112 -0.2325 -1.6135
 1709SOL    HW216764   2.263   3.967   5.902 -0.1280  1.2959 -0.6162
 1710SOL     OW16765   0.126   2.691   2.659 -0.3546  0.5752 -0.0610
 1710SOL    HW116766   0.198   2.750   2.637  2.6492 -2.7179  1.0487
 1710SOL    HW216767   0.101   2.666   2.570 -1.7655  0.5194  0.3563
 1711SOL     OW16768   0.278   0.876   3.321 -0.5360  0.2529 -0.5248
 1711SOL    HW116769   0.309   0.918   3.240  0.8157 -2.4282 -1.4292
 1711SOL    HW216770   0.251   0.947   3.378 -0.0653  0.3255 -0.3876
 1712SOL     OW16771   2.836   3.817   6.143 -0.4407  0.0817 -0.3006
 1712SOL    HW116772   2.842   3.910   6.120 -1.7864 -0.0760 -1.3077
 1712SOL    HW216773   2.742   3.802   6.138 -0.4218 -0.2775  0.4038
 1713SOL     OW16774   0.260   4.185   6.709  0.0334 -0.4184  0.4256
 1713SOL    HW116775   0.174   4.228   6.704 -0.2802 -1.0329  0.4764
 1713SOL    HW216776   0.312   4.265   6.705 -0.5755  0.1572  3.5135
 1714SOL     OW16777   1.695   2.685   9.752  0.0260 -0.0364  0.0083
 1714SOL    HW116778   1.786   2.697   9.778 -0.2786 -0.4618  1.2340
 1714SOL    HW216779   1.703   2.693   9.656  0.6560 -1.7685 -0.0788
 1715SOL     OW16780   2.558   2.322   3.997 -0.3380 -0.0923 -0.0348
 1715SOL    HW116781   2.579   2.318   3.904 -1.7503 -0.1069 -0.3591
 1715SOL    HW216782   2.552   2.228   4.017 -1.5651  0.4440  2.1684
 1716SOL     OW16783   3.491   3.208   6.701  0.2318 -0.1577  0.0819
 1716SOL    HW116784   3.471   3.150   6.775  0.5385 -0.4383 -0.0566
 1716SOL    HW216785   3.415   3.266   6.692 -0.3920 -1.1595 -1.0617
 1717SOL     OW16786   3.428   0.692  10.437 -0.0725 -0.4486  0.2716
 1717SOL    HW116787   3.339   0.658  10.440 -0.8663  1.4894 -1.1966
 1717SOL    HW216788   3.469   0.615  10.476  0.1809 -0.9780 -1.0262
 1718SOL     OW16789   2.629   1.538   2.181  0.4689 -0.2500  0.4367
 1718SOL    HW116790   2.674   1.558   2.099 -2.2482  1.0193 -0.7538
 1718SOL    HW216791   2.708   1.492   2.208  1.2607 -0.6351 -2.4899
 1719SOL     OW16792   1.106   1.987   8.499 -0.2049  0.0719 -0.8032
 1719SOL    HW116793   1.020   1.985   8.455 -0.6091 -1.5397  0.0720
 1719SOL    HW216794   1.077   1.989   8.590 -2.5394 -1.9551 -1.5031
 1720SOL     OW16795   2.869   3.968   4.577  0.2496  0.1278 -0.3384
 1720SOL    HW116796   2.829   4.004   4.657 -1.2711 -2.2063 -0.0283
 1720SOL    HW216797   2.809   3.898   4.550  1.2935 -1.2990  1.0350
 1721SOL     OW16798   1.672   0.974   4.336  0.7192 -0.0953 -0.6092
 1721SOL    HW116799   1.660   0.982   4.431  1.8244  1.0203 -0.5712
 1721SOL    HW216800   1.674   0.878   4.326 -3.2165 -0.3928  1.4646
 1722SOL     OW16801   0.958   1.436   4.422  0.0172  0.1725 -0.5833
 1722SOL    HW116802   0.889   1.502   4.422  0.8618  1.0625 -1.1207
 1722SOL    HW216803   0.919   1.363   4.469 -0.5519  0.6560 -0.3045
 1723SOL     OW16804   0.839   1.297  14.042 -0.6371 -0.2903 -0.2084
 1723SOL    HW116805   0.833   1.291  13.946 -2.1114 -0.7132 -0.0744
 1723SOL    HW216806   0.754   1.259  14.060 -0.8342 -0.0501 -0.6280
 1724SOL     OW16807   1.978   2.840   5.644 -0.1396 -0.7352  0.3744
 1724SOL    HW116808   2.068   2.835   5.676  0.1690 -0.3925 -0.4570
 1724SOL    HW216809   1.960   2.748   5.663  0.8224 -0.9673  0.1469
 1725SOL     OW16810   4.402   3.487   7.399 -0.7398 -0.1137 -0.0819
 1725SOL    HW116811   4.414   3.445   7.314  0.7303 -1.4096  0.7552
 1725SOL    HW216812   4.488   3.528   7.408  0.4691 -2.5821 -0.1784
 1726SOL     OW16813   3.327   3.353   1.632  0.8170  0.0330  0.4803
 1726SOL    HW116814   3.348   3.353   1.726  2.0850 -2.0552  0.1980
 1726SOL    HW216815   3.379   3.276   1.609 -0.2413 -0.3023 -0.7873
 1727SOL     OW16816   0.821   0.929   8.208 -0.3594 -0.4958  0.7057
 1727SOL    HW116817   0.800   0.853   8.153 -1.4134  0.0416  0.3613
 1727SOL    HW216818   0.800   0.900   8.296  1.8768  2.6859  2.2861
 1728SOL     OW16819   1.341   1.746  11.893  0.1496  0.0272  0.4003
 1728SOL    HW116820   1.414   1.807  11.890 -0.7783  1.2124  1.6926
 1728SOL    HW216821   1.374   1.677  11.836  0.5364 -0.7690  1.6038
 1729SOL     OW16822   0.087   3.649   5.097 -0.0339  0.4004  0.2383
 1729SOL    HW116823   0.069   3.589   5.169  1.9798 -1.0104 -0.4368
 1729SOL    HW216824   0.030   3.716   5.134 -0.1002 -1.2108  3.0187
 1730SOL     OW16825   3.881   2.710   7.658 -0.0240 -0.2688  0.5933
 1730SOL    HW116826   3.904   2.713   7.750  3.0894  0.7794 -0.2076
 1730SOL    HW216827   3.813   2.642   7.658  2.1665 -2.4560 -0.5721
 1731SOL     OW16828   1.067   0.718   9.333 -0.4519  0.0833  0.1960
 1731SOL    HW116829   1.131   0.648   9.339 -0.9537 -0.1728  2.4889
 1731SOL    HW216830   1.019   0.714   9.416 -0.1373 -2.1276  0.2770
 1732SOL     OW16831   0.499   2.420   3.921  0.1191 -0.6801  0.2976
 1732SOL    HW116832   0.408   2.391   3.912 -0.3835  0.7587  0.7370
 1732SOL    HW216833   0.495   2.470   4.003  1.7619 -0.0380 -0.0233
 1733SOL     OW16834   1.023   4.696  13.491 -0.2957 -0.8009  0.2334
 1733SOL    HW116835   0.970   4.723  13.417 -0.4871 -2.1751 -0.1354
 1733SOL    HW216836   1.094   0.022  13.499 -2.6811  1.9359 -0.5178
 1734SOL     OW16837   2.538   2.336   3.716 -0.3746 -0.5476 -0.4665
 1734SOL    HW116838   2.524   2.317   3.623 -0.5794 -1.0014 -0.3463
 1734SOL    HW216839   2.487   2.416   3.726 -0.7227 -0.9854  1.2934
 1735SOL     OW16840   0.887   4.167   3.285 -0.5714  0.1904 -0.4477
 1735SOL    HW116841   0.855   4.124   3.205 -1.3422  1.2218 -0.6841
 1735SOL    HW216842   0.852   4.253   3.262 -0.9564 -0.1581 -1.1672
 1736SOL     OW16843   1.097   0.583  10.309 -0.0034 -0.5496 -0.0046
 1736SOL    HW116844   1.083   0.529  10.231 -3.7823  1.5380 -0.7901
 1736SOL    HW216845   1.016   0.633  10.321 -1.1620 -1.9118 -2.0560
 1737SOL     OW16846   4.564   3.174   2.608 -0.2818 -0.3003 -0.8622
 1737SOL    HW116847   4.574   3.269   2.602 -0.5743 -0.1049  1.5818
 1737SOL    HW216848   4.651   3.147   2.580 -0.6268 -2.8574  0.5028
 1738SOL     OW16849   3.594   0.675   6.662  0.2827  0.0308  0.2973
 1738SOL    HW116850   3.665   0.738   6.651 -0.3449  0.5500 -0.8148
 1738SOL    HW216851   3.629   0.603   6.610 -2.5009 -0.4300 -0.9713
 1739SOL     OW16852   1.981   0.539   8.230  0.1334  0.6531  0.1141
 1739SOL    HW116853   1.964   0.621   8.276 -2.8326 -1.0715  2.1426
 1739SOL    HW216854   2.068   0.517   8.262 -0.5229 -1.8586  0.2254
 1740SOL     OW16855   0.628   4.647   8.811 -0.1807  0.4828  0.4480
 1740SOL    HW116856   0.581   4.590   8.873  0.0477 -0.1531  0.0329
 1740SOL    HW216857   0.573   4.640   8.733  0.8868 -2.1015 -0.0778
 1741SOL     OW16858   3.654   1.274   7.727 -0.1190  0.3504  0.0217
 1741SOL    HW116859   3.641   1.253   7.635  1.5971  1.3358 -0.4287
 1741SOL    HW216860   3.716   1.207   7.758 -2.6633 -1.2807  1.6263
 1742SOL     OW16861   2.923   1.289   4.413  0.2856 -0.1340  0.1239
 1742SOL    HW116862   2.931   1.194   4.407 -2.7625 -0.3965  0.4260
 1742SOL    HW216863   2.850   1.305   4.354 -0.1259  1.2865  1.0325
 1743SOL     OW16864   2.940   2.980   0.698 -0.1152 -0.0417 -0.1517
 1743SOL    HW116865   2.890   3.026   0.765  0.1370 -3.4190  2.3829
 1743SOL    HW216866   2.966   2.903   0.750  2.4587  0.6862 -0.3795
 1744SOL     OW16867   2.829   0.562  16.645 -0.3928  0.5602  0.7394
 1744SOL    HW116868   2.793   0.485  16.602  1.0842  0.1878  0.1779
 1744SOL    HW216869   2.771   0.565  16.721  0.0060 -0.8188  1.0935
 1745SOL     OW16870   0.766   4.379  12.180  0.5965 -0.1860 -0.2788
 1745SOL    HW116871   0.727   4.422  12.256  0.3697 -0.9299  0.0245
 1745SOL    HW216872   0.858   4.368  12.207  0.2105  1.4542  1.6950
 1746SOL     OW16873   3.507   1.636   6.968 -0.2748 -0.2253 -0.1784
 1746SOL    HW116874   3.564   1.597   7.034 -1.4865  0.2512  1.1455
 1746SOL    HW216875   3.567   1.649   6.895 -0.8648 -3.0828 -1.1766
 1747SOL     OW16876   1.568   3.843   6.719 -0.2656 -0.1016 -0.0842
 1747SOL    HW116877   1.564   3.933   6.689 -0.9465 -0.6995 -1.7993
 1747SOL    HW216878   1.661   3.822   6.709 -0.3893 -0.7415  0.0954
 1748SOL     OW16879   3.189   4.504   4.411  0.2703 -0.4856 -0.6123
 1748SOL    HW116880   3.232   4.527   4.329 -0.6003  1.8421 -0.3968
 1748SOL    HW216881   3.263   4.507   4.472 -0.5026  1.2056  0.2342
 1749SOL     OW16882   1.696   3.299   7.369  0.2299 -0.4590 -0.6059
 1749SOL    HW116883   1.698   3.299   7.273 -0.8512 -1.0707 -0.6321
 1749SOL    HW216884   1.628   3.234   7.389 -0.7025  0.6938 -0.0524
 1750SOL     OW16885   3.853   2.394   8.939 -0.3265  0.2586 -0.2340
 1750SOL    HW116886   3.874   2.351   8.856 -0.9854 -2.0012  0.7625
 1750SOL    HW216887   3.939   2.406   8.979  0.1296 -1.0447 -0.8061
 1751SOL     OW16888   3.755   4.357   4.808 -0.4601 -0.4608 -0.0171
 1751SOL    HW116889   3.849   4.353   4.790  0.0309 -0.3782  2.4080
 1751SOL    HW216890   3.714   4.365   4.722 -1.0540  0.0690  0.3068
 1752SOL     OW16891   1.159   0.419   8.776 -0.4969  0.3335  0.6738
 1752SOL    HW116892   1.140   0.509   8.749  0.3369  0.0018 -1.0168
 1752SOL    HW216893   1.219   0.398   8.705  0.9095  0.1848  1.9018
 1753SOL     OW16894   4.196   4.041   8.056  0.0083 -0.5569 -0.2559
 1753SOL    HW116895   4.107   4.026   8.025 -0.4462  0.2002  0.6857
 1753SOL    HW216896   4.174   4.110   8.118 -0.0793  0.2338 -1.1536
 1754SOL     OW16897   2.592   0.448   5.794  0.5958 -0.5401  0.0987
 1754SOL    HW116898   2.498   0.436   5.778  0.4664 -2.6300  2.2876
 1754SOL    HW216899   2.629   0.445   5.706  0.5791 -0.8283  0.1017
 1755SOL     OW16900   1.023   1.503   2.621 -0.3171 -0.5632 -0.0665
 1755SOL    HW116901   0.999   1.439   2.688 -0.3151  0.6779  1.1069
 1755SOL    HW216902   1.097   1.456   2.583  0.6943  1.6071 -0.7268
 1756SOL     OW16903   1.791   4.302   5.991  0.2150  0.4117 -1.0238
 1756SOL    HW116904   1.813   4.361   5.919  1.1702  1.0868 -0.1843
 1756SOL    HW216905   1.715   4.346   6.028  2.1179  1.3086  1.7606
 1757SOL     OW16906   1.956   0.759   5.526  0.3723  0.2885  0.3481
 1757SOL    HW116907   1.916   0.833   5.480  1.7438 -1.0763 -3.0028
 1757SOL    HW216908   2.039   0.790   5.563 -0.0448  0.1379  1.4380
 1758SOL     OW16909   2.476   0.936   7.605  0.2242 -0.4814  0.3245
 1758SOL    HW116910   2.470   1.031   7.616  1.8956 -0.6760  2.9745
 1758SOL    HW216911   2.498   0.919   7.513 -0.9560 -1.1202  0.1588
 1759SOL     OW16912   3.467   2.512   2.932  0.1448  0.5173 -0.2213
 1759SOL    HW116913   3.479   2.605   2.951  0.0442  0.3455  0.6589
 1759SOL    HW216914   3.380   2.502   2.893 -0.0804  1.6149 -0.0097
 1760SOL     OW16915   4.667   4.621   8.478 -0.0265 -0.5930 -0.1510
 1760SOL    HW116916   4.618   4.668   8.545  0.6937  0.3720 -0.3086
 1760SOL    HW216917   4.595   4.617   8.415  0.5441  1.8191 -0.9765
 1761SOL     OW16918   3.976   1.645   6.336  0.5999  0.5883  0.1567
 1761SOL    HW116919   4.026   1.723   6.313 -1.0563  1.3404 -0.9143
 1761SOL    HW216920   4.039   1.584   6.374  0.6038  0.3351 -0.2508
 1762SOL     OW16921   0.320   0.414   8.542 -0.0185 -0.0109  0.1904
 1762SOL    HW116922   0.316   0.506   8.516  0.0343  0.4176  1.7347
 1762SOL    HW216923   0.227   0.394   8.536  0.0599 -0.5774  0.9846
 1763SOL     OW16924   0.283   2.020   8.933  0.3356  0.0225  0.0812
 1763SOL    HW116925   0.349   1.951   8.926  2.0408  1.5028  1.8789
 1763SOL    HW216926   0.340   2.089   8.900 -0.2541  0.8778  0.8660
 1764SOL     OW16927   4.205   0.859   9.033  0.4390 -1.1354 -0.5423
 1764SOL    HW116928   4.154   0.897   8.962  1.0230  0.8067  0.0819
 1764SOL    HW216929   4.159   0.893   9.110 -0.1133 -1.4629 -0.7279
 1765SOL     OW16930   0.834   1.155   0.513  0.5307 -0.2197  0.0099
 1765SOL    HW116931   0.860   1.072   0.473 -0.8847 -0.6935  0.0553
 1765SOL    HW216932   0.888   1.222   0.471  0.9774 -0.4349  0.2513
 1766SOL     OW16933   1.901   1.815   9.401 -0.5783  0.0221 -0.0053
 1766SOL    HW116934   1.890   1.788   9.310 -2.0167 -1.3595  0.5892
 1766SOL    HW216935   1.978   1.771   9.438 -1.5517  0.7088  2.8060
 1767SOL     OW16936   0.022   0.185  14.457  0.1044  0.4942 -0.0510
 1767SOL    HW116937   0.023   0.211  14.365  1.2548  1.9351  0.3577
 1767SOL    HW216938   4.666   0.190  14.473 -0.2213  1.0560 -2.0635
 1768SOL     OW16939   1.526   1.517   8.260 -0.2716  0.3762 -0.2284
 1768SOL    HW116940   1.511   1.441   8.316  0.1773 -0.6869 -1.5738
 1768SOL    HW216941   1.433   1.536   8.243 -0.7609 -0.9020  0.9585
 1769SOL     OW16942   1.503   2.242  14.192  0.0638 -0.1440  0.5274
 1769SOL    HW116943   1.514   2.199  14.107  1.7350  0.2939  0.5157
 1769SOL    HW216944   1.434   2.303  14.166  1.2332  0.7387 -0.5575
 1770SOL     OW16945   4.581   0.708   6.305 -0.4172 -0.0870 -0.4132
 1770SOL    HW116946   4.502   0.708   6.359  0.0354 -1.7006  0.2619
 1770SOL    HW216947   4.544   0.725   6.219 -1.8564 -0.1813  0.1966
 1771SOL     OW16948   2.442   1.263   2.288  0.0079  0.2618  0.0053
 1771SOL    HW116949   2.428   1.357   2.275 -0.6698  0.2090  0.3833
 1771SOL    HW216950   2.533   1.250   2.261 -0.0031 -1.5828  0.8628
 1772SOL     OW16951   4.154   3.007   0.923 -0.0818  0.3406  0.4558
 1772SOL    HW116952   4.090   3.064   0.965  0.2593  1.2033 -0.2037
 1772SOL    HW216953   4.118   2.922   0.947 -0.0220  0.6645  1.7434
 1773SOL     OW16954   1.958   3.343   3.449 -0.1604 -0.5074 -0.5853
 1773SOL    HW116955   1.893   3.338   3.518  0.4556  1.9393  0.2018
 1773SOL    HW216956   1.917   3.292   3.379 -0.0352  1.2426 -1.9402
 1774SOL     OW16957   1.594   3.897  15.945 -0.3804 -0.1710  0.2096
 1774SOL    HW116958   1.534   3.914  15.872 -2.1760 -3.0857  1.0176
 1774SOL    HW216959   1.655   3.970  15.947 -0.2129 -0.2687 -2.0198
 1775SOL     OW16960   4.036   0.947   3.508 -0.7957 -0.1065  0.0004
 1775SOL    HW116961   4.012   0.889   3.436 -1.1684 -1.9266  1.5839
 1775SOL    HW216962   4.075   0.890   3.574 -1.0051  0.1144  0.3173
 1776SOL     OW16963   1.879   4.676   8.643  0.2497 -0.4440  0.9096
 1776SOL    HW116964   1.851   4.612   8.578  0.1068  0.7659 -0.2185
 1776SOL    HW216965   1.850   0.019   8.600  1.6640 -1.3762 -1.8479
 1777SOL     OW16966   0.917   2.297   1.132  0.2524  0.0471  0.3693
 1777SOL    HW116967   0.999   2.257   1.102 -1.0136 -2.9176  0.8905
 1777SOL    HW216968   0.914   2.358   1.058 -0.6175  0.7288  0.9669
 1778SOL     OW16969   0.098   0.101   4.087 -0.2874 -0.5096 -0.0305
 1778SOL    HW116970   0.097   0.126   4.179 -0.0464  2.4346 -0.8466
 1778SOL    HW216971   0.012   0.061   4.080  0.1200 -1.4132  0.0553
 1779SOL     OW16972   2.789   4.495   7.071 -0.1869  0.0045  0.0123
 1779SOL    HW116973   2.770   4.548   6.994  1.8726  0.2185 -0.3709
 1779SOL    HW216974   2.738   4.416   7.052 -1.3448  1.0216 -1.1370
 1780SOL     OW16975   3.004   2.078  14.018 -0.5307  0.4518 -1.0664
 1780SOL    HW116976   2.919   2.038  14.000 -0.0158 -1.4558  0.7713
 1780SOL    HW216977   2.983   2.138  14.090  0.8360 -1.2556  0.7323
 1781SOL     OW16978   0.111   0.749   7.530 -0.3940 -0.4110 -0.2103
 1781SOL    HW116979   0.027   0.738   7.484 -0.8624 -1.0476  0.7724
 1781SOL    HW216980   0.160   0.674   7.496  0.2423 -0.2906  0.4417
 1782SOL     OW16981   2.045   2.965   0.526  0.7479 -0.2799  0.8061
 1782SOL    HW116982   2.082   2.924   0.604  1.2719 -1.3626 -0.0183
 1782SOL    HW216983   1.984   3.027   0.567 -0.6124  0.5169 -2.4085
 1783SOL     OW16984   2.023   2.394   8.662  0.5445 -0.8027 -0.3379
 1783SOL    HW116985   1.948   2.344   8.693  1.3531 -1.7478  0.0924
 1783SOL    HW216986   2.087   2.355   8.722  0.5953  1.2681  0.9277
 1784SOL     OW16987   3.546   3.583  12.139 -0.9769 -0.4226  0.1364
 1784SOL    HW116988   3.466   3.611  12.095 -0.6980 -1.1382 -0.8097
 1784SOL    HW216989   3.568   3.654  12.200 -2.1577  0.3062 -0.2842
 1785SOL     OW16990   2.044   1.821  16.655  0.4526 -0.1621 -0.0220
 1785SOL    HW116991   1.952   1.847  16.657  0.6447  0.4505  0.7873
 1785SOL    HW216992   2.086   1.851  16.574 -0.9257  1.7719 -0.0097
 1786SOL     OW16993   4.690   4.509   3.417 -0.7407 -0.5583  0.3979
 1786SOL    HW116994   4.690   4.552   3.503 -1.0439  1.1664 -0.4616
 1786SOL    HW216995   0.017   4.440   3.415  0.7961  0.9699 -1.9981
 1787SOL     OW16996   1.750   1.595   3.853 -0.2584 -0.6776  0.4333
 1787SOL    HW116997   1.783   1.599   3.763 -3.6141 -2.6765 -0.8808
 1787SOL    HW216998   1.655   1.599   3.851 -0.1891  0.7883  0.4207
 1788SOL     OW16999   1.235   3.074  12.153 -0.3983 -1.0656  0.4213
 1788SOL    HW117000   1.167   3.010  12.174 -0.3866 -0.7763  1.3328
 1788SOL    HW217001   1.305   3.044  12.212 -0.0111  0.1131  0.5706
 1789SOL     OW17002   3.003   3.448   7.444 -0.6165 -0.0401 -0.1544
 1789SOL    HW117003   3.078   3.399   7.476  0.3169  1.7278  0.3359
 1789SOL    HW217004   2.938   3.380   7.425 -0.6976 -0.0963  0.3386
 1790SOL     OW17005   3.933   0.447   4.825 -0.6520  0.2716  0.0825
 1790SOL    HW117006   4.005   0.439   4.887 -2.1634 -0.7506  1.7069
 1790SOL    HW217007   3.975   0.431   4.740  0.1874 -1.7074  0.8917
 1791SOL     OW17008   3.773   2.420   2.707 -0.0206 -0.0784  0.1113
 1791SOL    HW117009   3.712   2.434   2.635 -0.8554 -1.4215  0.5776
 1791SOL    HW217010   3.728   2.355   2.760 -0.5232  1.5553  1.6834
 1792SOL     OW17011   3.584   1.844  11.320 -0.2993  0.2958 -0.2323
 1792SOL    HW117012   3.609   1.903  11.391 -2.7186  1.4391 -0.3491
 1792SOL    HW217013   3.557   1.765  11.366 -0.5122  1.0878  0.9865
 1793SOL     OW17014   3.793   2.817   8.351 -0.4300  0.2338 -0.2296
 1793SOL    HW117015   3.854   2.891   8.361 -1.1067  0.7935 -0.2527
 1793SOL    HW217016   3.848   2.766   8.292  0.6161 -0.1081  1.0464
 1794SOL     OW17017   0.374   2.570   5.817  0.3259 -0.2276  0.4036
 1794SOL    HW117018   0.296   2.530   5.855 -0.3368  0.7177  0.0451
 1794SOL    HW217019   0.333   2.652   5.788  1.5905  0.5500  0.8160
 1795SOL     OW17020   4.055   4.348   6.091  0.1577 -0.4481  0.1040
 1795SOL    HW117021   4.094   4.382   6.011  0.0365 -0.7839 -0.0978
 1795SOL    HW217022   4.102   4.266   6.104  0.5713 -0.2969 -0.4292
 1796SOL     OW17023   3.246   2.208   2.925 -0.2064  0.9558 -0.1661
 1796SOL    HW117024   3.262   2.128   2.975 -0.6304  1.3558  0.6083
 1796SOL    HW217025   3.231   2.166   2.840  0.8620  0.2269 -0.0002
 1797SOL     OW17026   2.117   3.086   2.405 -0.1053  0.1256 -0.5395
 1797SOL    HW117027   2.118   2.992   2.421 -0.0257 -0.0189 -1.3976
 1797SOL    HW217028   2.149   3.090   2.315  1.0169  0.6620 -0.1181
 1798SOL     OW17029   2.696   2.953   8.811 -0.1187 -0.1699 -0.3441
 1798SOL    HW117030   2.625   2.911   8.861  0.4377 -2.1814 -1.2627
 1798SOL    HW217031   2.723   3.003   8.888  0.2402 -1.1260  0.1488
 1799SOL     OW17032   1.163   2.548  14.427 -0.4518 -0.6862  0.2767
 1799SOL    HW117033   1.161   2.637  14.460  1.1336 -1.2720  1.9645
 1799SOL    HW217034   1.164   2.497  14.508 -1.9435  0.6174  1.1138
 1800SOL     OW17035   1.775   4.182   0.148 -0.2019 -0.2521  0.1542
 1800SOL    HW117036   1.749   4.099   0.108 -1.1239  0.2148 -0.2279
 1800SOL    HW217037   1.798   4.163   0.239 -1.6025 -0.9116  0.3696
 1801SOL     OW17038   0.330   1.793  17.465 -0.7448  0.1668 -0.1846
 1801SOL    HW117039   0.266   1.737  17.508  0.2443 -0.6328  0.2490
 1801SOL    HW217040   0.275   1.870  17.447 -0.4082  0.0725 -1.5866
 1802SOL     OW17041   1.115   1.185   6.914  0.2997  0.2299 -0.4225
 1802SOL    HW117042   1.126   1.142   6.999 -0.4131  1.9111  0.5329
 1802SOL    HW217043   1.043   1.130   6.885 -0.0846 -0.7439  2.4206
 1803SOL     OW17044   1.893   0.699  15.772  0.0155 -0.0451  0.0053
 1803SOL    HW117045   1.834   0.631  15.803  1.5259 -1.1970  0.3025
 1803SOL    HW217046   1.863   0.776  15.821 -3.8900  1.3343 -4.5440
 1804SOL     OW17047   0.849   3.427   1.915  0.1496  0.6543  0.3197
 1804SOL    HW117048   0.928   3.476   1.935 -1.1883  2.9273  0.0473
 1804SOL    HW217049   0.880   3.338   1.932  0.5671  0.8666  0.6515
 1805SOL     OW17050   0.690   3.817  17.028  0.5313  0.0303  0.0248
 1805SOL    HW117051   0.666   3.736  17.074 -0.5602 -0.1829 -0.8965
 1805SOL    HW217052   0.660   3.805  16.938  2.3441  0.5192 -0.6436
 1806SOL     OW17053   4.355   3.694   7.892 -0.1877 -0.1122 -0.1840
 1806SOL    HW117054   4.387   3.782   7.870 -0.0750 -0.3786 -1.0745
 1806SOL    HW217055   4.291   3.707   7.962 -2.3805 -1.6841 -1.9188
 1807SOL     OW17056   0.296   3.491  10.600  0.1292 -0.3901  0.2105
 1807SOL    HW117057   0.348   3.450  10.669  0.6297 -0.0014  0.0614
 1807SOL    HW217058   0.364   3.524  10.541  0.1917  0.4797  0.7662
 1808SOL     OW17059   4.396   2.605   7.419 -0.6090  0.0535 -0.5762
 1808SOL    HW117060   4.463   2.554   7.375  0.5185  1.8478 -0.9339
 1808SOL    HW217061   4.357   2.534   7.469  3.1282 -3.3271 -2.4889
 1809SOL     OW17062   3.294   2.919   8.981 -0.0862 -0.3845 -0.1140
 1809SOL    HW117063   3.313   2.904   9.074  0.5744  2.1523  0.1588
 1809SOL    HW217064   3.317   2.830   8.954 -0.1218 -0.5822  0.4955
 1810SOL     OW17065   1.264   2.717   2.826 -0.5395 -0.2410 -0.2187
 1810SOL    HW117066   1.258   2.632   2.781  0.8527 -0.4494 -0.0161
 1810SOL    HW217067   1.194   2.773   2.794 -0.9415 -0.7560 -0.2536
 1811SOL     OW17068   2.492   2.808   9.059  0.0208 -0.4857 -0.2709
 1811SOL    HW117069   2.440   2.739   9.019 -0.1846 -1.0003  0.8923
 1811SOL    HW217070   2.459   2.878   9.003 -1.7471 -1.1502 -0.0686
 1812SOL     OW17071   2.955   1.526   5.069  0.5146  0.7749 -0.0325
 1812SOL    HW117072   3.007   1.597   5.105  2.0290 -0.7640  0.7920
 1812SOL    HW217073   3.005   1.450   5.097  1.7015  2.0094  1.1627
 1813SOL     OW17074   4.311   3.043   5.940 -0.7406  0.2329  0.1154
 1813SOL    HW117075   4.325   3.093   6.020 -2.7822 -1.3794  1.4895
 1813SOL    HW217076   4.271   3.102   5.876  0.0083 -0.0690 -0.6377
 1814SOL     OW17077   3.527   3.311   6.290 -0.8815  0.8729  0.5102
 1814SOL    HW117078   3.507   3.336   6.200  1.3919 -0.9588 -0.4928
 1814SOL    HW217079   3.444   3.303   6.337 -0.6661  0.8615  0.8898
 1815SOL     OW17080   2.954   3.307   5.954  0.5346 -0.1160  0.9112
 1815SOL    HW117081   2.967   3.365   6.028  4.4988  0.3864 -0.1536
 1815SOL    HW217082   2.899   3.243   5.999 -1.0279  0.1921 -0.5486
 1816SOL     OW17083   3.462   0.157  10.575  0.0998 -0.2465  0.1331
 1816SOL    HW117084   3.428   0.075  10.611 -1.6492  1.6800  2.9949
 1816SOL    HW217085   3.540   0.177  10.627 -0.8865  0.9397  1.1526
 1817SOL     OW17086   4.478   1.669   3.867  0.3636  0.2278  0.2748
 1817SOL    HW117087   4.461   1.692   3.775  3.8533 -1.0575 -0.6911
 1817SOL    HW217088   4.392   1.655   3.907  0.8110  2.1817  1.8909
 1818SOL     OW17089   1.636   3.762  14.626 -0.1870  0.0144 -0.2668
 1818SOL    HW117090   1.675   3.677  14.645  0.5343  0.3285 -0.3293
 1818SOL    HW217091   1.711   3.817  14.601  0.4578 -0.3044  0.9898
 1819SOL     OW17092   0.540   1.153   8.607  0.5349  0.2720  0.0328
 1819SOL    HW117093   0.549   1.245   8.631 -0.2502  0.2019  0.5655
 1819SOL    HW217094   0.450   1.154   8.576  0.9873  2.2013 -1.2584
 1820SOL     OW17095   0.232   1.109   8.746 -0.2567 -0.2865 -0.1789
 1820SOL    HW117096   0.300   1.100   8.814  1.8148  1.9507 -1.9387
 1820SOL    HW217097   0.249   1.199   8.716  1.1862 -0.8657 -1.0860
 1821SOL     OW17098   1.153   2.518  13.442 -0.6189  0.3433  0.2490
 1821SOL    HW117099   1.094   2.521  13.367  1.2453 -0.2071 -1.2476
 1821SOL    HW217100   1.198   2.435  13.426 -0.1946  1.0344 -2.2442
 1822SOL     OW17101   2.961   3.231   9.157  0.7523 -0.2718 -0.4546
 1822SOL    HW117102   3.056   3.241   9.161  0.8926 -1.0864 -1.5768
 1822SOL    HW217103   2.934   3.307   9.106  2.4126  1.9854  2.0670
 1823SOL     OW17104   3.930   0.746   6.919  0.4243  0.4869 -0.2102
 1823SOL    HW117105   4.017   0.764   6.884 -0.5195  1.3866 -2.0698
 1823SOL    HW217106   3.942   0.672   6.979  0.3481 -0.1496 -0.9778
 1824SOL     OW17107   2.362   1.886   8.821 -0.0666  0.1538 -0.0044
 1824SOL    HW117108   2.272   1.916   8.805  0.4563 -0.0137 -3.4434
 1824SOL    HW217109   2.380   1.837   8.740  0.1523  0.0013  0.1373
 1825SOL     OW17110   3.011   2.321   3.354 -0.2413 -0.2472  0.1449
 1825SOL    HW117111   3.071   2.347   3.284 -0.9402  0.5931 -0.1422
 1825SOL    HW217112   3.058   2.274   3.422 -0.0224 -0.6314 -0.2749
 1826SOL     OW17113   2.938   4.559  15.359  0.7017  0.6210 -0.8908
 1826SOL    HW117114   2.904   4.643  15.390  1.6032  1.6906 -2.7759
 1826SOL    HW217115   2.854   4.517  15.338 -0.6939  2.6037  0.7367
 1827SOL     OW17116   3.073   3.155   0.998 -0.0280 -0.0297 -0.0608
 1827SOL    HW117117   3.064   3.106   1.080  2.2203  2.4620  1.6726
 1827SOL    HW217118   2.996   3.138   0.944 -0.6994  0.9427  0.5986
 1828SOL     OW17119   1.352   3.831   3.697  0.3641 -0.2874 -0.4228
 1828SOL    HW117120   1.405   3.909   3.682  0.3231 -0.1020  0.3882
 1828SOL    HW217121   1.266   3.861   3.667  0.3077 -0.1600 -0.1342
 1829SOL     OW17122   0.044   3.550  14.428 -0.0335 -0.2281 -0.0473
 1829SOL    HW117123   0.019   3.552  14.336  1.5393  0.0032 -0.4786
 1829SOL    HW217124   4.696   3.557  14.467 -0.3885  0.9977 -1.0596
 1830SOL     OW17125   2.252   0.773  10.665  0.4662  0.0888  0.0822
 1830SOL    HW117126   2.221   0.689  10.633 -3.7720  1.6042  0.0813
 1830SOL    HW217127   2.344   0.747  10.668  0.6629  0.6262 -1.5744
 1831SOL     OW17128   2.272   3.673   6.765 -0.2238 -0.0477  0.3524
 1831SOL    HW117129   2.352   3.691   6.815 -0.6899 -3.2357  2.2358
 1831SOL    HW217130   2.323   3.652   6.687 -3.0951  0.8895 -1.7698
 1832SOL     OW17131   3.799   4.087   9.380 -0.0222  0.9301  0.2330
 1832SOL    HW117132   3.760   4.152   9.321 -0.0664  0.0204 -0.7285
 1832SOL    HW217133   3.887   4.125   9.370  0.8802 -1.2216  0.1187
 1833SOL     OW17134   1.202   2.054   9.180  0.6577  0.0523 -0.0236
 1833SOL    HW117135   1.271   2.118   9.197  0.8792 -0.5556  1.3480
 1833SOL    HW217136   1.251   2.008   9.111 -1.6558 -2.1157 -0.2192
 1834SOL     OW17137   1.401   0.724   3.772  0.4383  0.2981 -0.6945
 1834SOL    HW117138   1.349   0.647   3.749  2.6289 -1.8470  1.6469
 1834SOL    HW217139   1.491   0.697   3.788  0.1962 -0.9783 -1.4724
 1835SOL     OW17140   0.969   0.683   3.936 -0.0186 -0.3774 -0.0594
 1835SOL    HW117141   1.008   0.597   3.922  0.0180 -0.3228 -0.2883
 1835SOL    HW217142   0.889   0.667   3.886 -0.2285  0.7082 -0.0805
 1836SOL     OW17143   1.669   2.818   7.080  0.3442 -0.0902  0.3797
 1836SOL    HW117144   1.760   2.842   7.063  0.9145 -2.7615 -0.2999
 1836SOL    HW217145   1.640   2.806   6.990  1.7342 -1.6603  0.1507
 1837SOL     OW17146   0.735   4.258   5.730 -0.1427  0.1352 -0.2667
 1837SOL    HW117147   0.678   4.183   5.712 -0.9413  1.0142 -1.3553
 1837SOL    HW217148   0.756   4.238   5.821  0.2752 -2.2257 -0.8791
 1838SOL     OW17149   1.509   1.806   7.132 -0.3737  0.1511  0.1283
 1838SOL    HW117150   1.496   1.885   7.184  1.6161 -0.1958  1.1516
 1838SOL    HW217151   1.538   1.746   7.201  1.0145 -1.0892 -1.5309
 1839SOL     OW17152   3.433   0.737   1.138  0.2954  0.0888 -0.0014
 1839SOL    HW117153   3.515   0.760   1.181  0.0530  2.8719 -1.0349
 1839SOL    HW217154   3.449   0.655   1.091  2.1878  1.2601 -1.3968
 1840SOL     OW17155   0.506   0.187   6.577  0.5156  0.4942  0.4257
 1840SOL    HW117156   0.509   0.127   6.652 -1.6133 -1.4617 -1.0444
 1840SOL    HW217157   0.596   0.219   6.574  0.9553 -0.5479  2.6244
 1841SOL     OW17158   2.603   1.749   5.193 -0.1020  0.4948  0.2687
 1841SOL    HW117159   2.635   1.833   5.226 -0.5578  1.4425 -1.6794
 1841SOL    HW217160   2.570   1.765   5.105  0.8164  2.2058  0.2295
 1842SOL     OW17161   0.014   1.503   7.072  0.3611 -0.4212 -0.6224
 1842SOL    HW117162   0.047   1.453   7.146  0.7273  0.0174 -0.4947
 1842SOL    HW217163   0.083   1.569   7.063  2.2493 -1.9879  2.3561
 1843SOL     OW17164   1.142   0.698   3.417 -0.3279 -0.7928 -0.3735
 1843SOL    HW117165   1.220   0.753   3.416 -0.5956 -0.3921  0.6770
 1843SOL    HW217166   1.129   0.676   3.325 -0.3775 -2.6700  0.0869
 1844SOL     OW17167   1.281   0.790   2.851  0.0726  0.0100 -0.1958
 1844SOL    HW117168   1.280   0.737   2.771 -2.5568  0.6740 -0.6074
 1844SOL    HW217169   1.188   0.813   2.847  0.7225  2.2569 -1.9997
 1845SOL     OW17170   1.858   1.334   2.287 -0.6251  0.2736  0.5540
 1845SOL    HW117171   1.858   1.421   2.247 -2.2258 -0.2732 -0.6590
 1845SOL    HW217172   1.776   1.296   2.254 -0.3058  0.3540 -0.3172
 1846SOL     OW17173   2.004   4.553   6.998  0.2315  0.7740 -0.1133
 1846SOL    HW117174   2.039   4.638   7.025 -0.4201  1.5222 -1.6227
 1846SOL    HW217175   2.042   4.510   7.075 -1.4959  0.5334  0.5892
 1847SOL     OW17176   2.599   2.944   2.877 -0.5399  0.3761 -0.0278
 1847SOL    HW117177   2.544   2.942   2.799 -0.9217 -1.2270  0.2811
 1847SOL    HW217178   2.563   3.020   2.922  1.5234  1.2960  0.0642
 1848SOL     OW17179   1.011   0.390  15.670 -0.1739 -0.1953  0.2032
 1848SOL    HW117180   0.955   0.421  15.599 -0.3757  1.9597  1.3106
 1848SOL    HW217181   0.963   0.435  15.739  0.9517  1.2608  0.0284
 1849SOL     OW17182   3.993   0.903   7.131  0.2546 -0.1208  0.0918
 1849SOL    HW117183   4.051   0.949   7.070 -0.8846  1.0530 -0.0934
 1849SOL    HW217184   3.920   0.869   7.079 -1.4456  4.9916 -0.8937
 1850SOL     OW17185   4.458   0.992   7.395 -0.5680 -0.0463 -0.0515
 1850SOL    HW117186   4.409   0.942   7.460  0.2043  1.2937  1.5589
 1850SOL    HW217187   4.392   0.997   7.325 -0.3023 -0.4965 -0.3352
 1851SOL     OW17188   1.348   1.837   3.943  0.3378  1.0626  0.4007
 1851SOL    HW117189   1.367   1.772   4.011 -0.0684 -1.6128 -2.0391
 1851SOL    HW217190   1.436   1.862   3.913  0.0876  0.3790 -0.9214
 1852SOL     OW17191   4.099   0.349   7.505 -0.2670 -0.0604  0.2290
 1852SOL    HW117192   4.176   0.361   7.449 -1.4814  1.4649 -1.1323
 1852SOL    HW217193   4.132   0.288   7.571  1.6573 -1.6959 -2.2366
 1853SOL     OW17194   3.601   4.508  11.458 -0.4769  0.4909 -0.5678
 1853SOL    HW117195   3.614   4.601  11.476 -0.7238  0.6214 -1.0757
 1853SOL    HW217196   3.523   4.522  11.404 -1.1954 -4.0154 -0.7137
 1854SOL     OW17197   1.735   0.897   2.116 -0.2426 -0.1746  0.1120
 1854SOL    HW117198   1.677   0.863   2.184 -0.1826 -0.0843  0.2074
 1854SOL    HW217199   1.796   0.823   2.114  0.1267  0.1737 -2.4300
 1855SOL     OW17200   1.065   4.414   7.484  0.3608 -0.3195  0.0516
 1855SOL    HW117201   1.047   4.326   7.517 -0.3402  0.6752  2.3842
 1855SOL    HW217202   0.982   4.463   7.479 -0.2608 -1.2651  0.9377
 1856SOL     OW17203   4.654   1.730   7.303  0.1344 -0.5710 -0.0603
 1856SOL    HW117204   4.642   1.650   7.355  0.3947 -1.1893 -0.9578
 1856SOL    HW217205   4.711   1.686   7.240 -1.1181  0.4670 -1.9170
 1857SOL     OW17206   3.783   1.716  14.138 -0.9016  0.7733 -0.1171
 1857SOL    HW117207   3.737   1.642  14.099 -1.3284  1.1499 -0.3346
 1857SOL    HW217208   3.746   1.773  14.071  0.0941 -0.5658 -1.8227
 1858SOL     OW17209   1.478   2.778  14.186  0.3655 -0.8192 -0.3274
 1858SOL    HW117210   1.459   2.705  14.245 -2.1011  2.5505  3.0749
 1858SOL    HW217211   1.480   2.843  14.257  2.3209  0.5826 -1.6554
 1859SOL     OW17212   0.022   2.843  16.933 -0.1620  0.4262  0.2609
 1859SOL    HW117213   0.070   2.856  17.015  0.4348 -4.4295  0.6364
 1859SOL    HW217214   0.052   2.762  16.892 -2.0308  0.5088 -1.2658
 1860SOL     OW17215   1.869   1.601   4.431  0.1791  0.5950 -0.5952
 1860SOL    HW117216   1.943   1.656   4.455  1.9723 -1.7306 -0.8627
 1860SOL    HW217217   1.830   1.568   4.512 -0.4979  0.0100 -1.1541
 1861SOL     OW17218   3.185   1.920   8.583  0.1471  0.1193  0.3598
 1861SOL    HW117219   3.263   1.887   8.539 -0.0096 -2.5336  2.0850
 1861SOL    HW217220   3.225   1.988   8.637 -1.5203 -0.7979  2.7253
 1862SOL     OW17221   1.767   0.525   9.417  0.0750 -0.2818 -0.3714
 1862SOL    HW117222   1.677   0.498   9.400  0.3525 -3.2933  2.8675
 1862SOL    HW217223   1.787   0.471   9.494 -2.7775  0.1050  0.6383
 1863SOL     OW17224   3.640   2.048  16.690 -0.1353  0.2001  0.1231
 1863SOL    HW117225   3.555   2.011  16.717 -0.8709  0.6056 -1.6621
 1863SOL    HW217226   3.688   1.966  16.698 -2.1723 -0.9908  0.0848
 1864SOL     OW17227   1.647   4.217   7.748 -0.1183  0.0393  0.0374
 1864SOL    HW117228   1.569   4.248   7.794  0.0261 -1.0853  1.0491
 1864SOL    HW217229   1.639   4.123   7.765  0.1460 -0.2422 -1.3685
 1865SOL     OW17230   4.196   1.639   8.638 -0.2451 -0.9144 -0.3571
 1865SOL    HW117231   4.164   1.549   8.640  0.5569 -1.1928 -0.1498
 1865SOL    HW217232   4.190   1.674   8.727 -0.2101 -2.0521  0.0912
 1866SOL     OW17233   3.291   3.147   5.747  0.5791  0.1020 -0.1433
 1866SOL    HW117234   3.224   3.090   5.784 -0.3413  0.6848 -0.9087
 1866SOL    HW217235   3.343   3.180   5.820 -0.4462  0.2031  0.5355
 1867SOL     OW17236   0.872   3.948   1.044  0.5553  0.1109 -0.5294
 1867SOL    HW117237   0.839   3.868   1.002 -2.1624  1.0696 -0.2648
 1867SOL    HW217238   0.809   4.020   1.037  0.5713  0.1023 -0.7536
 1868SOL     OW17239   1.936   0.959   0.212 -0.2232 -0.2507 -0.7092
 1868SOL    HW117240   1.984   0.902   0.153 -0.4457 -0.4451 -0.7000
 1868SOL    HW217241   1.882   0.995   0.143  0.8430 -0.5361 -1.6909
 1869SOL     OW17242   4.100   0.224   3.447  0.1775  0.1795  0.1807
 1869SOL    HW117243   4.064   0.142   3.414 -1.9174  0.7398  1.0825
 1869SOL    HW217244   4.174   0.194   3.500 -0.7961  0.5932  1.7824
 1870SOL     OW17245   4.482   2.165   3.711 -0.4609 -0.2632 -0.3533
 1870SOL    HW117246   4.413   2.104   3.738  1.6847 -1.6697  1.9548
 1870SOL    HW217247   4.454   2.228   3.645  2.7493  2.2232  0.6542
 1871SOL     OW17248   2.054   1.490  16.644 -0.4754 -0.0856 -0.4786
 1871SOL    HW117249   2.068   1.468  16.552  1.8328 -0.3839 -0.0544
 1871SOL    HW217250   2.077   1.583  16.651 -0.0428 -0.0696 -2.0231
 1872SOL     OW17251   0.590   1.011   4.260  0.2910 -0.0947 -0.1656
 1872SOL    HW117252   0.668   1.053   4.296 -1.2324  0.5940  2.2775
 1872SOL    HW217253   0.622   0.959   4.186  0.5957  0.5907 -0.5153
 1873SOL     OW17254   4.035   3.297   3.991 -0.1751 -0.2824  0.3868
 1873SOL    HW117255   4.113   3.306   4.047  0.0989  2.1282 -0.3793
 1873SOL    HW217256   4.036   3.209   3.954  1.4414  0.0882 -0.4831
 1874SOL     OW17257   2.824   2.806   6.429  0.0089  0.3079  0.4212
 1874SOL    HW117258   2.789   2.734   6.376 -1.5996  1.9547 -0.7722
 1874SOL    HW217259   2.813   2.777   6.519  1.1134 -1.0550  0.1211
 1875SOL     OW17260   3.782   1.622   2.487  0.1625  0.2517 -0.0771
 1875SOL    HW117261   3.834   1.612   2.408 -0.5188  1.2809 -0.6463
 1875SOL    HW217262   3.696   1.629   2.447  1.6218  2.1374 -2.8965
 1876SOL     OW17263   0.955   1.720   0.450 -0.1473  0.1551  0.4111
 1876SOL    HW117264   0.973   1.796   0.396 -0.1689  2.1118  3.1719
 1876SOL    HW217265   0.861   1.716   0.433  0.1981  0.4473 -1.6050
 1877SOL     OW17266   3.340   3.323   2.535  0.2761  0.0221 -0.1950
 1877SOL    HW117267   3.246   3.338   2.543  0.0699 -0.9359 -0.7334
 1877SOL    HW217268   3.356   3.295   2.625 -2.6252  1.5925  0.8330
 1878SOL     OW17269   1.692   3.469   9.058 -0.3719  0.1019  0.3369
 1878SOL    HW117270   1.614   3.416   9.071 -1.6784  2.0158  0.2392
 1878SOL    HW217271   1.718   3.464   9.150 -0.0662  1.6049  0.3206
 1879SOL     OW17272   3.165   3.485   1.881 -0.4276 -0.1001  0.0551
 1879SOL    HW117273   3.100   3.443   1.826 -0.1555  0.5206 -0.7372
 1879SOL    HW217274   3.201   3.414   1.935 -1.9198 -1.9301 -1.3496
 1880SOL     OW17275   3.467   1.997  10.022  0.2750 -0.0834 -0.3022
 1880SOL    HW117276   3.552   1.952  10.020  0.9678  1.2642 -0.6959
 1880SOL    HW217277   3.398   1.934  10.045  1.8238 -0.9196  2.0508
 1881SOL     OW17278   0.754   2.100   1.610 -0.9290  0.5085  0.4429
 1881SOL    HW117279   0.766   2.166   1.678 -0.0019  0.0687  0.7022
 1881SOL    HW217280   0.823   2.128   1.550  0.8352 -0.8029  1.8337
 1882SOL     OW17281   1.991   3.526   1.585 -0.2676 -0.5047 -0.1447
 1882SOL    HW117282   2.068   3.469   1.589 -0.2982 -0.5710 -0.5261
 1882SOL    HW217283   1.987   3.514   1.490 -1.1411 -0.4083 -0.1198
 1883SOL     OW17284   1.593   4.159   2.101 -0.1341 -0.1151 -0.0004
 1883SOL    HW117285   1.676   4.156   2.054 -0.2333  1.6735 -0.2762
 1883SOL    HW217286   1.610   4.093   2.169 -0.0954 -0.3451 -0.2336
 1884SOL     OW17287   0.927   0.740   7.283  0.0364  0.8936  0.3877
 1884SOL    HW117288   0.854   0.779   7.234 -0.4515  1.1372  1.2982
 1884SOL    HW217289   1.001   0.783   7.241  1.4070 -2.5389 -0.6720
 1885SOL     OW17290   3.188   4.184   7.761 -0.0362 -0.2270  0.1705
 1885SOL    HW117291   3.181   4.258   7.822  3.9551 -1.3365  1.9327
 1885SOL    HW217292   3.160   4.227   7.680  0.6890  0.8081  0.4770
 1886SOL     OW17293   2.025   0.712   9.958  0.0617  0.1978  0.6515
 1886SOL    HW117294   2.030   0.623   9.924  0.6193  1.4397 -2.5140
 1886SOL    HW217295   2.076   0.708  10.039 -1.5362 -1.9633  1.5366
 1887SOL     OW17296   0.792   3.063   4.489  0.1069  0.0106 -0.4043
 1887SOL    HW117297   0.700   3.087   4.477  0.2159  0.8908  0.5681
 1887SOL    HW217298   0.782   2.969   4.506  1.0465 -0.7039 -3.6464
 1888SOL     OW17299   3.769   0.360  10.120  0.2959 -0.0802 -0.6685
 1888SOL    HW117300   3.781   0.450  10.090 -2.9524 -0.1890 -2.2950
 1888SOL    HW217301   3.684   0.366  10.164  1.1158  0.8024  0.8093
 1889SOL     OW17302   4.136   0.849   1.454  0.2170 -0.4393  0.4852
 1889SOL    HW117303   4.048   0.827   1.423 -0.3852  1.1459  1.0674
 1889SOL    HW217304   4.157   0.936   1.422 -0.1227 -0.2312  0.8296
 1890SOL     OW17305   1.221   2.011  11.405  0.3564  0.0032  0.1187
 1890SOL    HW117306   1.194   1.931  11.451 -1.2884 -0.0680 -0.9943
 1890SOL    HW217307   1.150   2.072  11.424  0.3270  0.6186 -2.1049
 1891SOL     OW17308   2.558   1.084   4.961  0.5852 -0.2369  0.0241
 1891SOL    HW117309   2.606   1.099   5.043  1.0936  0.9851 -0.4857
 1891SOL    HW217310   2.561   1.174   4.929  0.0665 -0.2562 -0.0735
 1892SOL     OW17311   0.855   4.294   9.827  0.1707  0.1678 -0.7567
 1892SOL    HW117312   0.801   4.373   9.814  0.2719  0.1923 -1.0343
 1892SOL    HW217313   0.869   4.277   9.734  0.4899 -1.0013 -0.4866
 1893SOL     OW17314   1.949   0.711   8.021  0.1972  0.2238  0.3369
 1893SOL    HW117315   1.856   0.713   8.044  0.7253 -0.4838  2.5249
 1893SOL    HW217316   1.980   0.642   8.079 -0.8318 -1.1553 -0.7765
 1894SOL     OW17317   1.166   4.408   3.838  0.6806  0.8037 -0.5074
 1894SOL    HW117318   1.148   4.343   3.770  1.3806 -0.8454  0.8961
 1894SOL    HW217319   1.075   4.423   3.865  0.0939  0.0671 -2.0888
 1895SOL     OW17320   3.617   2.419   9.950 -0.1981 -0.6782  0.1699
 1895SOL    HW117321   3.620   2.442   9.857 -1.3775  2.1809  0.8350
 1895SOL    HW217322   3.668   2.493   9.984  0.9390 -0.8135 -1.2028
 1896SOL     OW17323   0.713   1.059   4.913  0.0615 -0.5634 -0.4275
 1896SOL    HW117324   0.635   1.110   4.889 -0.0631 -1.1346 -1.2433
 1896SOL    HW217325   0.779   1.121   4.881  0.8360 -1.4220 -0.4832
 1897SOL     OW17326   2.692   2.480   1.965 -0.2619 -0.4111 -0.6212
 1897SOL    HW117327   2.653   2.560   1.929  1.0540  1.3241  1.8441
 1897SOL    HW217328   2.629   2.453   2.031 -0.9890  1.9921 -0.3069
 1898SOL     OW17329   0.914   3.924   5.464 -0.3510 -0.1067  0.5067
 1898SOL    HW117330   0.946   4.011   5.486  0.6086 -0.4138  0.2942
 1898SOL    HW217331   0.988   3.883   5.420 -1.6057 -2.8814  0.9415
 1899SOL     OW17332   1.031   3.030   8.828 -0.8934  0.5309 -0.6501
 1899SOL    HW117333   1.048   3.109   8.879  0.7286  0.2406 -0.7238
 1899SOL    HW217334   1.042   3.066   8.741  0.2844  1.4587 -0.1208
 1900SOL     OW17335   3.169   0.849   7.704 -0.3332  0.0765  0.3362
 1900SOL    HW117336   3.084   0.868   7.744  0.3165 -1.0948  2.3062
 1900SOL    HW217337   3.159   0.895   7.621 -1.2373 -1.1823 -0.2495
 1901SOL     OW17338   2.952   1.817  14.937  0.2882 -0.1669  0.3084
 1901SOL    HW117339   2.863   1.794  14.908 -0.5091  1.5859  1.4037
 1901SOL    HW217340   2.998   1.834  14.855 -2.5435  2.4643 -0.7461
 1902SOL     OW17341   4.216   2.128   9.322  0.2652  0.9916  0.5850
 1902SOL    HW117342   4.139   2.105   9.268  0.1414 -0.0060  1.1958
 1902SOL    HW217343   4.172   2.123   9.407 -0.0445  0.9988  0.4267
 1903SOL     OW17344   3.426   2.727   2.555 -0.1284  0.6642  0.7240
 1903SOL    HW117345   3.416   2.650   2.499  1.1157  0.7123  0.4456
 1903SOL    HW217346   3.407   2.785   2.482  0.1591 -0.7101 -0.4395
 1904SOL     OW17347   0.160   4.055   5.055 -0.3387  0.0145 -0.4950
 1904SOL    HW117348   0.250   4.033   5.033 -0.7113 -1.1388 -0.8644
 1904SOL    HW217349   0.158   3.997   5.131 -0.6827  1.1160  0.3433
 1905SOL     OW17350   3.127   3.809   1.626 -0.3990  0.6397 -0.4430
 1905SOL    HW117351   3.187   3.884   1.619 -1.0644  1.5072  3.5385
 1905SOL    HW217352   3.186   3.745   1.586  0.4644  0.6098  0.8972
 1906SOL     OW17353   2.944   3.196   0.116  0.0790  0.0494  0.2845
 1906SOL    HW117354   2.967   3.257   0.187  0.3937 -0.3743  0.5499
 1906SOL    HW217355   2.985   3.115   0.145  2.2960  1.0057 -0.1597
 1907SOL     OW17356   1.844   3.463   4.781  0.4434  0.0364  0.4650
 1907SOL    HW117357   1.764   3.514   4.797 -0.7350 -0.9881 -2.0190
 1907SOL    HW217358   1.897   3.541   4.766  0.5778 -0.4365 -1.6188
 1908SOL     OW17359   2.488   0.121   4.243  0.7146  0.3467 -0.0175
 1908SOL    HW117360   2.464   0.168   4.323 -1.3774  1.5110 -1.3290
 1908SOL    HW217361   2.460   0.036   4.278  0.6083  0.7369  0.8493
 1909SOL     OW17362   3.829   2.127  16.902  0.0905  0.1883  0.1479
 1909SOL    HW117363   3.761   2.106  16.966 -1.4293 -1.4093 -2.0049
 1909SOL    HW217364   3.821   2.057  16.838 -0.0117 -0.7237  1.1561
 1910SOL     OW17365   2.325   1.119   3.151  0.1323  0.0852 -0.4471
 1910SOL    HW117366   2.319   1.208   3.187  0.3143 -0.5816  1.2150
 1910SOL    HW217367   2.287   1.059   3.216 -1.2297  1.1534 -0.2623
 1911SOL     OW17368   0.531   0.401   7.850 -0.0885 -0.0389 -0.6339
 1911SOL    HW117369   0.478   0.345   7.908 -0.0357  1.2210  0.6434
 1911SOL    HW217370   0.605   0.428   7.904 -0.6409 -1.2348  0.7397
 1912SOL     OW17371   3.350   1.202   2.609 -0.0079  0.6583  0.6821
 1912SOL    HW117372   3.273   1.147   2.597  0.8104 -0.5817  1.1554
 1912SOL    HW217373   3.405   1.146   2.664 -0.1611  0.4722  0.6479
 1913SOL     OW17374   2.720   0.499   6.558 -0.2572 -0.0850 -0.5819
 1913SOL    HW117375   2.628   0.526   6.557  0.2653  1.6687 -1.8066
 1913SOL    HW217376   2.730   0.510   6.653  2.5399  0.6811 -0.9661
 1914SOL     OW17377   4.226   0.449  13.722 -0.4146  0.6584 -0.3912
 1914SOL    HW117378   4.285   0.485  13.655 -0.5279 -0.1367 -0.9269
 1914SOL    HW217379   4.161   0.519  13.725 -0.7957  0.3255 -0.7540
 1915SOL     OW17380   2.587   3.216   8.673 -0.3182  0.0462 -0.6909
 1915SOL    HW117381   2.517   3.243   8.733  0.6228 -0.9428  0.8134
 1915SOL    HW217382   2.611   3.131   8.709 -0.0059  1.1538  1.6931
 1916SOL     OW17383   0.992   2.432   8.555  0.2843 -0.0577 -0.1733
 1916SOL    HW117384   0.947   2.451   8.637  1.2244 -0.8595  0.5263
 1916SOL    HW217385   0.950   2.498   8.500 -0.0681 -0.6581 -0.6301
 1917SOL     OW17386   0.473   3.447   5.697 -0.0882 -0.3260 -0.8660
 1917SOL    HW117387   0.502   3.482   5.781 -2.2357 -1.0579  0.1583
 1917SOL    HW217388   0.539   3.378   5.695 -0.1365 -0.3898 -0.1290
 1918SOL     OW17389   3.859   2.909   4.419 -0.5673 -0.5122 -0.3062
 1918SOL    HW117390   3.872   2.849   4.346 -3.0262 -0.8664 -0.4829
 1918SOL    HW217391   3.881   2.987   4.367  0.1841  0.1210  0.9587
 1919SOL     OW17392   4.235   4.359   2.038 -0.7231 -0.5516  0.3773
 1919SOL    HW117393   4.281   4.361   1.954 -0.9774  1.5774  0.3050
 1919SOL    HW217394   4.147   4.374   2.005 -0.2737 -0.4245 -0.7392
 1920SOL     OW17395   2.945   1.152   9.909  0.2092 -0.3078  0.0727
 1920SOL    HW117396   2.881   1.223   9.899  1.3181  0.7797  0.7353
 1920SOL    HW217397   2.949   1.149  10.004  2.0532 -0.7666 -0.0349
 1921SOL     OW17398   3.699   0.368   6.027 -0.1292  0.2178  0.1868
 1921SOL    HW117399   3.635   0.309   5.989  0.8214 -1.6124  1.4186
 1921SOL    HW217400   3.783   0.321   6.022 -0.0815  0.3393 -0.1561
 1922SOL     OW17401   3.259   4.469   9.859  0.3490  0.7819  0.1675
 1922SOL    HW117402   3.214   4.386   9.876 -0.7998  0.7650 -2.8853
 1922SOL    HW217403   3.177   4.514   9.836  1.0236  2.4790  1.0933
 1923SOL     OW17404   3.889   4.347   5.193  0.4438 -0.0161  0.6098
 1923SOL    HW117405   3.952   4.404   5.149  0.8205  0.4222  1.7110
 1923SOL    HW217406   3.935   4.263   5.198  0.4499 -0.0130  0.6052
 1924SOL     OW17407   1.822   1.238   6.772 -0.4419 -0.2018 -0.0492
 1924SOL    HW117408   1.874   1.171   6.816  1.1214  2.3828  2.0695
 1924SOL    HW217409   1.835   1.310   6.834  0.3653 -0.2037 -0.2133
 1925SOL     OW17410   1.939   1.457  11.031  0.5974  0.3201 -0.0064
 1925SOL    HW117411   1.960   1.455  10.938  0.7530  1.1959  0.0090
 1925SOL    HW217412   1.870   1.524  11.027 -0.4077 -0.6144  1.5676
 1926SOL     OW17413   1.048   4.661   5.325 -0.5329 -0.2373 -0.6665
 1926SOL    HW117414   1.036   4.705   5.409 -0.3908 -2.1187  0.3553
 1926SOL    HW217415   1.085   4.580   5.361 -0.3358  0.5393  0.8637
 1927SOL     OW17416   1.105   1.493   3.861 -0.3258 -0.0630  0.1360
 1927SOL    HW117417   1.126   1.449   3.943 -1.0702 -2.1000 -0.7811
 1927SOL    HW217418   1.149   1.436   3.798  1.1542 -0.8292  1.8688
 1928SOL     OW17419   1.179   4.354  12.782 -0.5100 -0.4297  0.0254
 1928SOL    HW117420   1.235   4.420  12.823 -0.9739  0.1280 -0.2450
 1928SOL    HW217421   1.244   4.311  12.726 -0.7414  0.3769 -0.8577
 1929SOL     OW17422   4.635   2.890   6.843 -0.4263 -0.2343 -0.0664
 1929SOL    HW117423   4.725   2.921   6.836  0.4751 -2.3327  2.3212
 1929SOL    HW217424   4.601   2.951   6.909 -0.0664  0.0428 -0.1409
 1930SOL     OW17425   4.493   3.818  10.780  0.1648  0.1798  0.0482
 1930SOL    HW117426   4.550   3.874  10.832  1.4650 -1.0053 -0.0991
 1930SOL    HW217427   4.437   3.782  10.849  0.3657  0.8311  0.5521
 1931SOL     OW17428   0.747   2.352   9.345  0.1843  0.8523  0.4926
 1931SOL    HW117429   0.656   2.356   9.316  0.1323  0.3910  0.5941
 1931SOL    HW217430   0.752   2.262   9.375  0.0005 -0.6858 -4.0508
 1932SOL     OW17431   0.323   0.280  14.574  0.7698  0.4308 -0.0577
 1932SOL    HW117432   0.239   0.236  14.561 -0.3986  2.2578  1.2852
 1932SOL    HW217433   0.319   0.336  14.652  0.8620  0.0266  0.2390
 1933SOL     OW17434   4.587   3.456   8.376  0.2235 -0.6254 -0.1021
 1933SOL    HW117435   4.504   3.465   8.329  1.1381  2.3131 -1.1534
 1933SOL    HW217436   4.563   3.512   8.450 -0.1839 -0.1898 -0.5614
 1934SOL     OW17437   1.156   0.462  11.957  0.2954 -0.1935 -0.3137
 1934SOL    HW117438   1.174   0.555  11.965 -0.4420 -0.1335  0.5956
 1934SOL    HW217439   1.246   0.428  11.965  0.2069  0.0871  1.7678
 1935SOL     OW17440   1.681   3.095  12.471 -0.5100 -0.4113 -0.0421
 1935SOL    HW117441   1.724   3.012  12.493  1.0917 -0.4461 -3.4263
 1935SOL    HW217442   1.754   3.132  12.423 -0.0932  0.9686  1.6577
 1936SOL     OW17443   1.139   1.567   6.974  0.0009 -0.1848  0.6627
 1936SOL    HW117444   1.083   1.628   6.926  0.2018 -0.5539 -0.0365
 1936SOL    HW217445   1.214   1.563   6.914 -1.2599 -0.9799 -0.8707
 1937SOL     OW17446   1.893   0.398  12.964  0.1673  0.6153 -0.0343
 1937SOL    HW117447   1.953   0.470  12.949 -0.4547  1.1392  0.0063
 1937SOL    HW217448   1.837   0.393  12.887 -1.8552  0.3962  1.4222
 1938SOL     OW17449   3.269   2.571  16.262  0.0359  0.2761 -0.5982
 1938SOL    HW117450   3.304   2.563  16.174  0.4938  0.7006 -0.4570
 1938SOL    HW217451   3.332   2.516  16.309  0.7947  0.1116 -1.8254
 1939SOL     OW17452   0.579   0.768  11.342 -0.0862  0.5356  0.2716
 1939SOL    HW117453   0.487   0.774  11.369 -0.4765  1.2558 -1.1900
 1939SOL    HW217454   0.611   0.694  11.393 -2.5064  0.9429  2.3676
 1940SOL     OW17455   0.352   0.738   1.997 -0.0756 -0.2563 -0.3454
 1940SOL    HW117456   0.414   0.720   1.926  0.0391 -0.1657 -0.2666
 1940SOL    HW217457   0.319   0.650   2.014  1.1066 -0.7171 -0.4164
 1941SOL     OW17458   0.594   2.666   5.962  0.6465 -0.3115  0.6089
 1941SOL    HW117459   0.653   2.696   5.893 -1.4464  0.6346 -0.7628
 1941SOL    HW217460   0.526   2.632   5.904 -2.5106  1.0028  3.4891
 1942SOL     OW17461   4.593   0.875   8.679 -0.6769 -0.1950 -0.0480
 1942SOL    HW117462   4.582   0.931   8.755  0.8091 -1.5431  1.1676
 1942SOL    HW217463   4.652   0.930   8.628  2.5647 -0.8873  2.9675
 1943SOL     OW17464   1.937   2.677   2.093 -0.3098  0.3074  0.5951
 1943SOL    HW117465   1.959   2.591   2.128 -0.5163  0.7053  1.6910
 1943SOL    HW217466   2.015   2.696   2.042 -1.5689 -0.7428 -1.7290
 1944SOL     OW17467   3.405   3.611  16.185 -0.4501  0.1893  0.2292
 1944SOL    HW117468   3.469   3.540  16.191 -0.0465  0.6603  1.6552
 1944SOL    HW217469   3.321   3.573  16.160 -1.3596  1.7823  0.8568
 1945SOL     OW17470   1.524   2.515   3.685  0.3568 -0.1001 -0.8574
 1945SOL    HW117471   1.510   2.555   3.770 -0.6807 -0.7530 -0.7231
 1945SOL    HW217472   1.439   2.536   3.646  0.4261 -0.7000 -1.3376
 1946SOL     OW17473   1.565   2.885   5.062  0.1366 -0.0960 -0.1945
 1946SOL    HW117474   1.515   2.819   5.110  0.8471  0.3788  1.1650
 1946SOL    HW217475   1.657   2.864   5.076 -0.3166 -0.4200  2.2000
 1947SOL     OW17476   0.238   3.420   6.454  0.2485  0.0407  0.4896
 1947SOL    HW117477   0.264   3.468   6.533  2.1729 -1.2125  0.6131
 1947SOL    HW217478   0.293   3.342   6.447 -0.8273 -0.6463 -0.4790
 1948SOL     OW17479   2.180   2.313  10.929  0.1867 -0.2443 -0.7200
 1948SOL    HW117480   2.234   2.336  11.005 -1.5462 -2.1759  1.1222
 1948SOL    HW217481   2.245   2.312  10.858  0.0715  0.4344 -0.8300
 1949SOL     OW17482   1.996   1.614   2.395  0.4145 -0.2707  0.3379
 1949SOL    HW117483   2.009   1.707   2.380 -1.5214  0.1984  1.6984
 1949SOL    HW217484   1.938   1.604   2.320  1.1344  0.8698 -0.3785
 1950SOL     OW17485   3.110   2.734   7.132 -0.0880  0.3578 -0.0475
 1950SOL    HW117486   3.177   2.791   7.094  0.3932  0.1059  0.4157
 1950SOL    HW217487   3.160   2.653   7.143  0.7537  1.0746  1.2591
 1951SOL     OW17488   1.922   1.027   7.458  0.2495  0.3076 -1.2366
 1951SOL    HW117489   1.870   0.946   7.463 -0.9330  1.2308  1.5808
 1951SOL    HW217490   1.875   1.079   7.393 -0.5076  2.6794  1.2207
 1952SOL     OW17491   2.934   4.190  11.429 -0.2469 -0.7795  0.0680
 1952SOL    HW117492   2.846   4.226  11.417 -0.2313 -0.7859 -0.0628
 1952SOL    HW217493   2.902   4.101  11.447  0.1369 -0.7824  0.7440
 1953SOL     OW17494   0.719   2.902   6.984 -0.4955 -0.3203 -0.0544
 1953SOL    HW117495   0.735   2.990   6.950 -0.3038 -0.2555  0.2005
 1953SOL    HW217496   0.808   2.881   7.013 -0.6123 -0.9396 -0.1399
 1954SOL     OW17497   2.888   2.452   5.287 -0.2164  0.1068  0.0261
 1954SOL    HW117498   2.854   2.403   5.361  1.7107 -0.9590  0.2244
 1954SOL    HW217499   2.859   2.389   5.221 -1.8317 -1.0105  1.7953
 1955SOL     OW17500   1.692   1.139  14.687 -0.4517 -0.2271 -0.7151
 1955SOL    HW117501   1.625   1.080  14.721 -0.8955 -0.3320 -1.7684
 1955SOL    HW217502   1.701   1.206  14.755 -1.0745  0.0117 -0.8654
 1956SOL     OW17503   2.214   3.680   9.162 -0.3154  0.1438 -0.2264
 1956SOL    HW117504   2.137   3.701   9.215 -0.1076 -3.6722  1.6183
 1956SOL    HW217505   2.222   3.746   9.094  0.8959  0.0786 -0.1381
 1957SOL     OW17506   0.470   0.259   8.349  0.1843  0.0037 -0.1907
 1957SOL    HW117507   0.458   0.171   8.385 -1.7464  0.7192  0.9150
 1957SOL    HW217508   0.458   0.313   8.427  1.0062 -0.4484  0.2599
 1958SOL     OW17509   0.201   1.098   3.503  0.4271  0.5508 -0.3725
 1958SOL    HW117510   0.295   1.098   3.521  0.6943  2.1571 -1.7414
 1958SOL    HW217511   0.181   1.192   3.502 -2.2120 -0.0000 -1.7574
 1959SOL     OW17512   0.897   0.029   0.144  0.3818 -0.2531 -0.0451
 1959SOL    HW117513   0.963   0.070   0.088 -0.8735 -0.4543 -1.6955
 1959SOL    HW217514   0.840   4.737   0.073 -0.8526  0.3065  0.7039
 1960SOL     OW17515   1.202   0.504  17.688  0.1250  0.2492  0.4703
 1960SOL    HW117516   1.254   0.567  17.738  0.1608  1.1799 -0.7262
 1960SOL    HW217517   1.132   0.479  17.747  0.0789 -0.8151 -0.0417
 1961SOL     OW17518   4.729   2.773  14.270  0.2453  0.0148  0.2634
 1961SOL    HW117519   0.040   2.702  14.311  1.9549  0.7505 -0.4749
 1961SOL    HW217520   0.023   2.847  14.321 -0.6300  0.0807  0.7154
 1962SOL     OW17521   2.984   1.285  15.943  0.2425  0.0569 -0.1605
 1962SOL    HW117522   3.066   1.318  15.906  0.0553 -0.0755 -0.6812
 1962SOL    HW217523   2.966   1.366  15.991 -1.0091  0.2118 -0.9099
 1963SOL     OW17524   1.837   4.082  13.588  0.6452 -0.4789  0.1368
 1963SOL    HW117525   1.751   4.102  13.624  1.2276  0.8652  0.8100
 1963SOL    HW217526   1.851   4.154  13.525  0.1959 -1.2834 -0.8795
 1964SOL     OW17527   1.735   0.157   4.088 -0.2323 -0.0036  0.0364
 1964SOL    HW117528   1.715   0.069   4.121  0.7966  0.8540  2.9492
 1964SOL    HW217529   1.712   0.194   4.174 -0.3665 -1.1103  0.4824
 1965SOL     OW17530   2.627   0.558   4.424 -0.2951  0.2368 -0.8181
 1965SOL    HW117531   2.711   0.578   4.464 -0.2871 -0.0747 -0.6796
 1965SOL    HW217532   2.568   0.582   4.496  1.2089  0.9819  0.1586
 1966SOL     OW17533   2.960   3.205   6.259  0.2998 -0.2642 -0.0184
 1966SOL    HW117534   2.896   3.197   6.187 -1.1316 -0.5910  1.2852
 1966SOL    HW217535   2.909   3.224   6.337 -0.1205 -1.2683 -0.0515
 1967SOL     OW17536   0.341   4.450   7.532 -0.0658 -0.1207 -0.4388
 1967SOL    HW117537   0.294   4.451   7.616  1.8912 -0.9686  0.6560
 1967SOL    HW217538   0.268   4.448   7.470 -0.1849  1.5457 -0.3560
 1968SOL     OW17539   0.755   4.377   6.063  0.3256 -0.1512 -0.5298
 1968SOL    HW117540   0.798   4.409   6.142 -0.9274  0.4518 -0.0880
 1968SOL    HW217541   0.713   4.299   6.099 -0.4889  0.0584 -1.0203
 1969SOL     OW17542   2.003   3.369  14.172 -0.7941  0.5437 -0.0469
 1969SOL    HW117543   2.070   3.391  14.107  2.7034 -0.0519  3.3506
 1969SOL    HW217544   2.001   3.274  14.164  0.4730  0.5126  0.0656
 1970SOL     OW17545   3.541   4.188  14.841  0.2623  0.0137 -0.7584
 1970SOL    HW117546   3.571   4.103  14.810  0.8443 -0.3264  0.7501
 1970SOL    HW217547   3.447   4.178  14.856  0.1435 -1.3300 -2.4628
 1971SOL     OW17548   3.962   3.604   2.499 -0.3804 -0.2686  0.3722
 1971SOL    HW117549   3.930   3.531   2.552  0.4364 -0.6751  0.2961
 1971SOL    HW217550   3.917   3.680   2.536 -1.1326 -0.4548 -0.1582
 1972SOL     OW17551   1.043   1.680  17.169 -0.0225 -0.5317  0.1127
 1972SOL    HW117552   1.087   1.730  17.237 -0.5307 -1.7682  1.3557
 1972SOL    HW217553   1.036   1.594  17.211  0.7191  1.2440  3.8946
 1973SOL     OW17554   2.553   1.449   8.167 -0.1065 -0.3174 -0.3518
 1973SOL    HW117555   2.646   1.428   8.161  0.0779  1.0055 -1.9498
 1973SOL    HW217556   2.530   1.465   8.076 -0.8726  0.5113 -0.0179
 1974SOL     OW17557   2.900   0.488   2.052 -0.0553  0.6973  0.2843
 1974SOL    HW117558   2.911   0.565   1.995 -0.1435 -1.0418 -2.1168
 1974SOL    HW217559   2.863   0.424   1.990  0.7568 -1.1237  1.6869
 1975SOL     OW17560   3.462   0.857   8.049 -0.3030 -0.1706 -0.2014
 1975SOL    HW117561   3.536   0.916   8.060 -0.0511 -0.2060 -1.7305
 1975SOL    HW217562   3.404   0.891   8.118  0.4762  0.5368  0.1043
 1976SOL     OW17563   3.891   1.574   7.074  0.3858 -0.3094  0.0678
 1976SOL    HW117564   3.823   1.558   7.008  0.0254  3.0770 -0.3780
 1976SOL    HW217565   3.884   1.669   7.070 -2.1813 -0.5076 -0.2817
 1977SOL     OW17566   0.812   1.186   1.126 -0.7288  0.4580 -0.4662
 1977SOL    HW117567   0.836   1.093   1.129  0.0803  0.7280  1.6103
 1977SOL    HW217568   0.718   1.189   1.138 -0.6637  2.3874 -0.4628
 1978SOL     OW17569   0.543   2.686   6.924  0.0389  0.0167 -0.4547
 1978SOL    HW117570   0.562   2.711   6.834 -2.1762 -1.2817 -1.2917
 1978SOL    HW217571   0.595   2.754   6.966  0.3789  0.2941 -1.3337
 1979SOL     OW17572   0.282   3.401   6.746  0.2653 -0.0548 -0.2424
 1979SOL    HW117573   0.348   3.337   6.771 -0.1191 -0.9467 -1.4427
 1979SOL    HW217574   0.225   3.402   6.822 -0.0707  0.3517 -0.5015
 1980SOL     OW17575   3.963   2.548  16.075  0.1533  0.2187  0.4714
 1980SOL    HW117576   3.956   2.461  16.115 -0.0844 -0.3255 -0.7629
 1980SOL    HW217577   3.914   2.598  16.140  0.6139  3.4165 -1.6666
 1981SOL     OW17578   1.959   4.005   5.236  0.3872 -0.6641 -0.5219
 1981SOL    HW117579   1.991   3.956   5.312 -0.3619 -0.3749 -0.0121
 1981SOL    HW217580   2.040   4.053   5.225  0.4526 -0.0850  2.4773
 1982SOL     OW17581   1.315   3.080   8.062 -0.5052 -0.3436  0.3596
 1982SOL    HW117582   1.333   2.987   8.066  2.7328  0.2796  0.0810
 1982SOL    HW217583   1.324   3.096   7.968 -1.3042 -1.3825  0.0989
 1983SOL     OW17584   3.340   2.422  10.490 -0.1138  0.1178 -0.0206
 1983SOL    HW117585   3.303   2.433  10.402 -1.3170 -1.5892  0.2717
 1983SOL    HW217586   3.273   2.362  10.521 -0.4644  0.5655  0.0984
 1984SOL     OW17587   0.816   3.870   2.802  0.4715  0.8013  0.3475
 1984SOL    HW117588   0.832   3.787   2.847 -0.4189  1.0399  1.1010
 1984SOL    HW217589   0.829   3.840   2.712 -1.7748  2.2836 -0.4794
 1985SOL     OW17590   4.334   3.248   5.498  0.2714  0.3761 -0.4901
 1985SOL    HW117591   4.390   3.230   5.574  1.4554 -0.8142 -1.6373
 1985SOL    HW217592   4.398   3.227   5.430  2.0435  0.2031  1.2001
 1986SOL     OW17593   1.063   2.916   3.935 -0.1046  0.0075  1.1156
 1986SOL    HW117594   1.053   2.912   3.840  1.3830  1.8358  0.9006
 1986SOL    HW217595   1.056   3.009   3.957 -0.3368 -0.7756  4.3803
 1987SOL     OW17596   0.146   1.914   2.252 -0.0818 -0.0582  0.1880
 1987SOL    HW117597   0.236   1.944   2.265 -0.6316  1.0712  1.3788
 1987SOL    HW217598   0.117   1.994   2.208  0.2813  0.3345  0.6576
 1988SOL     OW17599   4.279   1.856  14.657  0.1166  0.3429  0.3603
 1988SOL    HW117600   4.245   1.882  14.571 -2.1303 -1.0597  0.8157
 1988SOL    HW217601   4.210   1.801  14.694 -0.8846  1.1740 -0.2467
 1989SOL     OW17602   1.877   1.827   6.073  0.0151 -0.1248 -0.3324
 1989SOL    HW117603   1.791   1.847   6.037  0.8984 -0.3794 -2.6240
 1989SOL    HW217604   1.871   1.738   6.107 -0.5173  0.3653  0.8488
 1990SOL     OW17605   3.794   4.478   3.383 -0.4234  0.0278 -0.0570
 1990SOL    HW117606   3.782   4.573   3.377 -1.1028 -0.0371  0.3303
 1990SOL    HW217607   3.889   4.477   3.393 -0.6032  1.3552  1.7271
 1991SOL     OW17608   3.812   2.776   5.332  0.0544  0.4001  0.0654
 1991SOL    HW117609   3.880   2.743   5.390  0.3521 -0.9564 -1.0529
 1991SOL    HW217610   3.869   2.795   5.257 -0.7646 -1.4316 -1.0284
 1992SOL     OW17611   2.053   1.648   3.556  0.1980 -0.0388  0.0273
 1992SOL    HW117612   2.108   1.679   3.628 -0.6739 -0.5632  0.9222
 1992SOL    HW217613   1.972   1.694   3.580 -0.5192 -1.5474  0.5467
 1993SOL     OW17614   1.167   3.239  11.622  0.1154  0.1193  0.6208
 1993SOL    HW117615   1.076   3.209  11.621 -1.1199  3.7843 -0.6357
 1993SOL    HW217616   1.188   3.195  11.704  1.4099  2.3449  1.4786
 1994SOL     OW17617   0.570   0.188   0.049  0.1180 -0.3345  0.4473
 1994SOL    HW117618   0.632   0.261   0.045  1.3988 -1.4439  0.0077
 1994SOL    HW217619   0.522   0.199   0.131 -0.6823  0.6853 -0.1617
 1995SOL     OW17620   2.922   1.769   7.720  0.0565  0.3134 -0.0442
 1995SOL    HW117621   2.865   1.695   7.701  0.1675  0.6524 -1.7298
 1995SOL    HW217622   2.860   1.838   7.699 -2.0574 -1.8133 -0.7584
 1996SOL     OW17623   0.326   2.730  14.217 -0.0495 -0.3707  0.4264
 1996SOL    HW117624   0.241   2.701  14.184 -0.5691 -1.0062  2.3197
 1996SOL    HW217625   0.297   2.760  14.303 -0.1644 -1.0761  0.6386
 1997SOL     OW17626   3.339   1.845   2.262 -0.0409  0.9273  0.4856
 1997SOL    HW117627   3.262   1.881   2.305  0.4461  0.6124  1.6298
 1997SOL    HW217628   3.386   1.928   2.265 -0.8495  1.4921 -2.0500
 1998SOL     OW17629   4.168   1.638   2.092  0.2703  0.0632 -0.4593
 1998SOL    HW117630   4.147   1.669   2.180  0.3499 -0.9557 -0.0724
 1998SOL    HW217631   4.177   1.717   2.040 -2.6644  0.6323 -0.0792
 1999SOL     OW17632   4.639   0.727   7.318  0.2553  0.3551 -0.0464
 1999SOL    HW117633   4.657   0.723   7.224 -1.3179 -0.6912 -0.3047
 1999SOL    HW217634   4.560   0.781   7.313 -0.3542 -0.3260  2.3130
 2000SOL     OW17635   4.512   4.601   4.861 -0.5390 -0.5669  0.2585
 2000SOL    HW117636   4.600   4.568   4.882 -1.4789 -2.3905  1.3363
 2000SOL    HW217637   4.506   4.590   4.766 -0.7627 -2.2215  0.4582
 2001SOL     OW17638   0.947   1.315   3.155 -0.4555  0.0708 -0.4748
 2001SOL    HW117639   0.974   1.252   3.088  1.3345  1.7303 -1.3016
 2001SOL    HW217640   0.999   1.298   3.234 -1.5305 -0.8583  0.0278
 2002SOL     OW17641   2.782   1.372   9.863 -0.3507 -0.7226 -0.1633
 2002SOL    HW117642   2.692   1.374   9.830 -1.4096  0.8831  2.9334
 2002SOL    HW217643   2.809   1.463   9.851  2.0077 -1.0984  2.2882
 2003SOL     OW17644   1.071   1.593   4.945 -0.5074 -0.3007 -0.0088
 2003SOL    HW117645   1.044   1.574   5.035 -1.0558  2.9710  0.4986
 2003SOL    HW217646   1.087   1.687   4.954  0.3758 -0.6670  2.0047
 2004SOL     OW17647   4.476   3.677  12.111 -0.0429 -0.3757 -0.0411
 2004SOL    HW117648   4.383   3.698  12.105 -0.0674 -0.5098 -0.1144
 2004SOL    HW217649   4.491   3.647  12.022  0.9260  2.5547 -0.8747
 2005SOL     OW17650   2.924   4.438   7.758  0.1813  0.1197 -0.6205
 2005SOL    HW117651   2.994   4.392   7.712 -0.2458 -1.7761  0.6296
 2005SOL    HW217652   2.952   4.529   7.770 -1.6388  0.5272  0.6025
 2006SOL     OW17653   4.376   3.724  14.032  0.4207 -0.0013 -0.5125
 2006SOL    HW117654   4.419   3.642  14.007  1.3281  0.3056  0.0343
 2006SOL    HW217655   4.359   3.705  14.125  1.4775  1.6447  0.0252
 2007SOL     OW17656   0.242   0.145   3.413 -0.4949 -0.4741 -0.1049
 2007SOL    HW117657   0.148   0.162   3.424 -0.9749 -1.7054 -2.2195
 2007SOL    HW217658   0.251   0.171   3.321  0.5646  2.6390  0.9058
 2008SOL     OW17659   2.040   1.038  16.159 -0.2232 -0.2536  0.1628
 2008SOL    HW117660   1.983   0.965  16.134 -0.3124  0.3180 -1.3110
 2008SOL    HW217661   2.087   0.992  16.228 -1.4458 -0.6991  0.6839
 2009SOL     OW17662   3.200   0.656   8.250 -0.1367 -0.3555  0.1253
 2009SOL    HW117663   3.174   0.719   8.184  2.0933  0.5468  0.0878
 2009SOL    HW217664   3.130   0.590   8.251 -0.9942  0.5728  2.6138
 2010SOL     OW17665   0.836   2.603   0.490  0.0287 -0.6277  0.1195
 2010SOL    HW117666   0.800   2.580   0.404 -0.2564  1.1187 -0.2179
 2010SOL    HW217667   0.761   2.589   0.547 -0.2151 -0.9753 -0.2804
 2011SOL     OW17668   3.028   1.749   7.285  0.1061 -0.6121 -0.1456
 2011SOL    HW117669   3.069   1.721   7.367  2.3746 -0.6329 -1.2748
 2011SOL    HW217670   2.980   1.669   7.266 -1.5159 -0.1440  1.9658
 2012SOL     OW17671   4.242   1.382  12.305  0.5314 -0.4418  0.2795
 2012SOL    HW117672   4.231   1.477  12.311  0.7154 -0.2567 -2.5609
 2012SOL    HW217673   4.336   1.388  12.287  0.5899 -0.1334  0.6746
 2013SOL     OW17674   1.721   2.396   9.261  0.1291 -0.1721  0.6388
 2013SOL    HW117675   1.676   2.378   9.179  0.2414  0.7475  0.3804
 2013SOL    HW217676   1.787   2.463   9.242  0.0115  1.0929  4.6182
 2014SOL     OW17677   0.716   2.429  17.080 -0.7049  0.0560  0.4684
 2014SOL    HW117678   0.702   2.338  17.106 -0.9558  0.5922  2.1514
 2014SOL    HW217679   0.805   2.430  17.113 -0.9376 -0.3812  1.1026
 2015SOL     OW17680   4.621   0.966   3.916 -0.4489  0.3978 -0.1533
 2015SOL    HW117681   4.546   0.955   3.857 -2.2474 -0.4166  2.3125
 2015SOL    HW217682   4.584   0.929   3.996  0.7729 -0.2107  0.1309
 2016SOL     OW17683   0.540   4.464   1.132  0.4373  0.2378  0.1336
 2016SOL    HW117684   0.516   4.556   1.129 -0.0814  0.1021  0.0096
 2016SOL    HW217685   0.455   4.427   1.158  0.7118 -1.1792 -0.9582
 2017SOL     OW17686   4.340   3.581   8.182 -0.8293  0.2834 -0.5759
 2017SOL    HW117687   4.286   3.540   8.250  0.3397 -0.1270  0.0910
 2017SOL    HW217688   4.267   3.633   8.146 -1.0819 -1.7031 -2.9269
 2018SOL     OW17689   1.305   2.001   2.457  0.5670  0.4133  0.2299
 2018SOL    HW117690   1.293   2.034   2.367 -2.2712 -0.7272  0.1724
 2018SOL    HW217691   1.260   1.917   2.464 -0.1337  0.7897  0.2901
 2019SOL     OW17692   3.968   1.122   2.789 -0.1398  0.2257  0.1258
 2019SOL    HW117693   3.987   1.193   2.850  1.5790 -0.6959  0.6507
 2019SOL    HW217694   3.957   1.166   2.705 -0.4693  0.9764  0.5672
 2020SOL     OW17695   2.222   4.253  13.776  0.2105  0.0679 -0.4484
 2020SOL    HW117696   2.135   4.291  13.775  0.4498  0.6126 -0.5822
 2020SOL    HW217697   2.280   4.326  13.798 -0.6721  0.8226 -0.6303
 2021SOL     OW17698   0.132   2.959   1.790  0.0843 -0.2683 -0.0918
 2021SOL    HW117699   0.182   2.882   1.764  1.0033 -0.2342  1.6066
 2021SOL    HW217700   0.203   3.022   1.806 -0.7423  1.7129 -4.1222
 2022SOL     OW17701   2.215   3.392   1.568 -0.5201  0.3353 -0.1527
 2022SOL    HW117702   2.285   3.433   1.517  1.7403  0.3930  2.9704
 2022SOL    HW217703   2.261   3.384   1.652  1.8660  0.8591 -1.4005
 2023SOL     OW17704   1.065   0.061  12.969  0.1512 -0.1903  0.3863
 2023SOL    HW117705   1.142   0.045  12.914 -0.1041  0.1159 -0.0592
 2023SOL    HW217706   1.051   4.711  13.005  0.0228 -0.2516  0.1815
 2024SOL     OW17707   1.158   1.937   6.204  0.0432 -0.2267  0.0517
 2024SOL    HW117708   1.186   1.860   6.254  1.1810  0.0597 -0.1292
 2024SOL    HW217709   1.208   1.937   6.122 -0.2737  1.7647 -0.1384
 2025SOL     OW17710   1.261   3.475   6.408  0.2169 -0.0139  0.6155
 2025SOL    HW117711   1.251   3.470   6.313  0.3271  2.4623  0.4729
 2025SOL    HW217712   1.332   3.537   6.417  1.4131 -1.3697  0.5232
 2026SOL     OW17713   2.075   4.088   1.670  0.3551 -0.0894  0.4445
 2026SOL    HW117714   2.089   3.994   1.655 -2.2730 -0.0010 -2.6414
 2026SOL    HW217715   2.152   4.123   1.624  0.6616 -0.9154  0.3322
 2027SOL     OW17716   2.941   2.673   2.118  0.1588  0.3884  0.2497
 2027SOL    HW117717   2.895   2.595   2.087  0.6027  0.7856 -1.4455
 2027SOL    HW217718   2.986   2.703   2.039  2.1437  1.7504  1.9050
 2028SOL     OW17719   1.959   0.266   5.960  0.1449  0.2881 -0.2604
 2028SOL    HW117720   1.893   0.322   6.003  2.8178  2.2836  1.2585
 2028SOL    HW217721   2.035   0.322   5.946  1.2083 -0.5957  1.9485
 2029SOL     OW17722   2.402   4.496   2.745  0.3924  0.4222  0.1881
 2029SOL    HW117723   2.392   4.406   2.717  1.3265  0.5636 -0.5778
 2029SOL    HW217724   2.419   4.499   2.840  1.4814  1.7232 -0.0448
 2030SOL     OW17725   2.834   1.527   5.376  0.4058  0.0759 -0.2725
 2030SOL    HW117726   2.916   1.525   5.326  1.3394  1.0412  1.2239
 2030SOL    HW217727   2.785   1.591   5.325  0.9343  1.1325  0.5591
 2031SOL     OW17728   1.840   3.096   5.634  0.2294 -0.1612 -0.4054
 2031SOL    HW117729   1.918   3.042   5.650 -0.7262 -1.1377  0.9095
 2031SOL    HW217730   1.822   3.132   5.721 -1.4544  0.7330 -1.1297
 2032SOL     OW17731   1.775   2.910  10.285  0.2883 -0.2477  0.6786
 2032SOL    HW117732   1.750   2.821  10.309  2.2220 -0.5595  1.5481
 2032SOL    HW217733   1.750   2.916  10.193 -0.2229 -1.4471  0.7457
 2033SOL     OW17734   0.534   2.766   2.974 -0.2669 -0.0353  0.2455
 2033SOL    HW117735   0.504   2.848   2.935  1.9121  1.5525  1.9296
 2033SOL    HW217736   0.469   2.744   3.042 -0.1293  0.1634  0.4389
 2034SOL     OW17737   1.879   1.506   7.632  0.0741  0.0534  0.4472
 2034SOL    HW117738   1.920   1.421   7.614 -2.4995 -0.8602 -1.0656
 2034SOL    HW217739   1.939   1.552   7.691 -1.8551  0.6103  1.9575
 2035SOL     OW17740   1.941   1.680  14.200  0.2968  0.7317  0.6353
 2035SOL    HW117741   1.882   1.638  14.138  1.1475 -0.6125  0.7151
 2035SOL    HW217742   2.014   1.618  14.195  0.4666  1.0884 -1.3490
 2036SOL     OW17743   2.997   3.809   8.159  0.3749 -0.1473  0.3746
 2036SOL    HW117744   2.960   3.742   8.101 -0.1768  0.7093 -0.2590
 2036SOL    HW217745   3.033   3.875   8.100  0.5333 -0.7448 -0.2013
 2037SOL     OW17746   4.027   3.498   1.467 -0.3974 -0.2702 -0.4200
 2037SOL    HW117747   4.076   3.577   1.443 -0.2117 -0.7641 -1.7007
 2037SOL    HW217748   3.941   3.536   1.485 -0.0309  0.9761 -1.2568
 2038SOL     OW17749   1.696   1.240   2.726  0.0320 -0.0684  0.7109
 2038SOL    HW117750   1.742   1.266   2.806 -0.3695  2.4795  0.1175
 2038SOL    HW217751   1.762   1.233   2.658 -0.4022  2.2776  0.0426
 2039SOL     OW17752   4.408   4.177  11.609  0.2406 -0.2029 -0.2672
 2039SOL    HW117753   4.361   4.162  11.527  1.3687 -1.7007 -0.6328
 2039SOL    HW217754   4.345   4.153  11.676  1.4200 -0.3339  0.7790
 2040SOL     OW17755   3.305   3.328   0.984 -0.5747  0.0142  0.4967
 2040SOL    HW117756   3.310   3.360   1.074 -0.2578  4.5052 -1.1099
 2040SOL    HW217757   3.235   3.262   0.990 -2.0426  1.4306 -0.9421
 2041SOL     OW17758   3.441   3.671  10.796 -0.3262  0.2774 -0.0301
 2041SOL    HW117759   3.458   3.640  10.708  2.1459  1.2177  0.1192
 2041SOL    HW217760   3.528   3.699  10.825 -1.0609  3.6936 -1.2323
 2042SOL     OW17761   4.301   0.952   0.115 -0.1691 -0.5488  0.0393
 2042SOL    HW117762   4.359   1.017   0.153  0.2367 -1.4674  0.9733
 2042SOL    HW217763   4.218   0.980   0.153  0.6811  0.1966  1.3177
 2043SOL     OW17764   3.756   3.118   1.651 -0.5636  0.0933  0.0055
 2043SOL    HW117765   3.788   3.173   1.722 -0.6155  2.4449 -1.7821
 2043SOL    HW217766   3.828   3.129   1.589  0.1568  0.0254  0.8442
 2044SOL     OW17767   1.739   2.334   9.988  0.2271 -0.4650  0.1184
 2044SOL    HW117768   1.789   2.283  10.051  0.0181  0.0731  0.7219
 2044SOL    HW217769   1.784   2.417   9.998  0.6999 -0.5148 -1.6417
 2045SOL     OW17770   1.777   2.159   5.033 -0.4576  0.7857 -0.0907
 2045SOL    HW117771   1.762   2.177   5.126  0.6817 -2.0813  0.6416
 2045SOL    HW217772   1.722   2.222   4.986 -0.2840  0.1647 -1.1266
 2046SOL     OW17773   1.109   3.015   3.010  0.7886 -0.2815  0.0660
 2046SOL    HW117774   1.055   3.090   3.033  3.2115  1.3392  0.5172
 2046SOL    HW217775   1.083   3.003   2.919 -0.9241  0.5035  0.4578
 2047SOL     OW17776   1.877   0.130   1.570 -0.3695  0.2553 -0.1340
 2047SOL    HW117777   1.808   0.071   1.601  1.0861 -0.3595  1.9360
 2047SOL    HW217778   1.841   0.212   1.604 -0.7035 -0.0087  0.1489
 2048SOL     OW17779   2.160   1.753   3.786 -0.3022  0.3739 -0.0429
 2048SOL    HW117780   2.193   1.838   3.816  0.0281  0.5152 -0.8266
 2048SOL    HW217781   2.110   1.725   3.863 -0.1103  0.4445  0.1077
 2049SOL     OW17782   2.359   3.111   5.763  0.8246  0.0594  0.6439
 2049SOL    HW117783   2.367   3.206   5.755  0.8736 -0.0583 -0.7803
 2049SOL    HW217784   2.413   3.091   5.839 -0.3276 -2.1096  0.8827
 2050SOL     OW17785   0.771   0.675   0.766  0.3227 -0.6251 -0.0454
 2050SOL    HW117786   0.805   0.586   0.759  1.1309 -0.2302 -1.1356
 2050SOL    HW217787   0.778   0.676   0.862 -1.4346 -2.1101  0.0883
 2051SOL     OW17788   3.936   0.017   7.617  0.1379 -0.4112 -0.7298
 2051SOL    HW117789   3.885   0.079   7.564  0.2860 -0.5688 -1.0563
 2051SOL    HW217790   4.006   0.079   7.637 -0.1284 -0.2223 -0.3862
 2052SOL     OW17791   3.154   2.398   5.479  0.3232 -0.4902 -0.7576
 2052SOL    HW117792   3.084   2.341   5.447 -0.6826  0.8414 -0.9200
 2052SOL    HW217793   3.169   2.461   5.408  1.0493  1.9184  1.5507
 2053SOL     OW17794   2.755   4.505   9.087 -0.4891 -0.9454  0.3875
 2053SOL    HW117795   2.668   4.465   9.087 -1.2274  0.6655 -0.1590
 2053SOL    HW217796   2.751   4.553   9.004 -0.1155  0.3316  1.1207
 2054SOL     OW17797   4.384   4.445  14.143 -0.4875 -0.6124  0.0837
 2054SOL    HW117798   4.406   4.480  14.056 -1.9671 -0.9166 -0.4160
 2054SOL    HW217799   4.302   4.398  14.128 -2.1980  2.2931  0.3344
 2055SOL     OW17800   3.450   1.012   7.570 -0.0241  0.1897  0.0166
 2055SOL    HW117801   3.397   1.072   7.622 -0.8754 -0.9014  0.4070
 2055SOL    HW217802   3.438   0.933   7.623 -0.9278 -1.4720 -2.6446
 2056SOL     OW17803   1.457   4.190  10.654  0.4125  1.1203 -0.2450
 2056SOL    HW117804   1.480   4.097  10.652 -1.9454  0.5895 -1.8750
 2056SOL    HW217805   1.523   4.230  10.711 -0.1774  0.9880  0.5261
 2057SOL     OW17806   3.414   3.813   8.658 -0.1133  0.4965 -0.5832
 2057SOL    HW117807   3.384   3.855   8.739 -0.3897  0.8345 -0.8577
 2057SOL    HW217808   3.358   3.738   8.641  0.1374  0.2799 -0.4429
 2058SOL     OW17809   0.034   3.477  14.861  0.4307 -0.4373  0.1946
 2058SOL    HW117810   0.059   3.563  14.826  2.3695 -0.8200  0.6455
 2058SOL    HW217811   4.680   3.475  14.836  0.4111 -1.3911  0.3430
 2059SOL     OW17812   1.340   1.921   1.509 -0.3128  0.2362 -0.4741
 2059SOL    HW117813   1.350   1.879   1.424  1.0385  0.5560 -0.4767
 2059SOL    HW217814   1.298   2.002   1.480 -0.4840  0.2848 -0.0913
 2060SOL     OW17815   2.353   1.250   2.535  0.0881 -0.3616  0.3196
 2060SOL    HW117816   2.391   1.229   2.449 -0.1907  1.0542 -0.1372
 2060SOL    HW217817   2.281   1.309   2.514  2.3355  2.5001  0.6403
 2061SOL     OW17818   4.334   0.075  14.115  0.5100  0.2883 -0.0002
 2061SOL    HW117819   4.354   0.163  14.083 -0.5425  0.7723  0.6379
 2061SOL    HW217820   4.372   0.004  14.064 -0.8736 -0.1161 -0.4785
 2062SOL     OW17821   3.659   2.244   4.161  0.4724 -0.3337  0.2493
 2062SOL    HW117822   3.684   2.184   4.231  0.2948 -0.3941  0.2591
 2062SOL    HW217823   3.674   2.325   4.211  0.5492 -0.2286  0.0584
 2063SOL     OW17824   3.922   2.798   4.179  0.4608 -0.2819  0.1930
 2063SOL    HW117825   3.997   2.740   4.165 -0.6730 -1.0738 -2.5991
 2063SOL    HW217826   3.863   2.786   4.105  0.4378 -2.3602  0.5367
 2064SOL     OW17827   1.953   2.663   8.681 -0.2264 -0.1811  0.6013
 2064SOL    HW117828   1.994   2.580   8.659  0.9157  0.4757  0.2976
 2064SOL    HW217829   2.008   2.676   8.758  1.6832 -2.2944 -0.4072
 2065SOL     OW17830   3.961   1.158   7.622 -0.2933 -0.1053 -0.1746
 2065SOL    HW117831   3.922   1.083   7.666  0.0742 -0.0346  0.2726
 2065SOL    HW217832   3.977   1.114   7.539  0.6551 -2.9598  1.5274
 2066SOL     OW17833   4.738   3.710   6.781 -0.0907 -0.2249 -0.2112
 2066SOL    HW117834   4.717   3.691   6.690 -2.3574  0.7686  0.1110
 2066SOL    HW217835   0.047   3.630   6.805  1.0566  0.2341 -0.9653
 2067SOL     OW17836   0.041   2.302   8.332  0.2434  0.2708  0.3249
 2067SOL    HW117837   0.025   2.392   8.360  0.8424  0.9050 -1.3335
 2067SOL    HW217838   4.692   2.293   8.293  0.8202  0.5284 -1.0331
 2068SOL     OW17839   2.321   2.392   4.131  0.4972 -0.4200 -0.1886
 2068SOL    HW117840   2.410   2.381   4.098  1.1004 -1.4423  1.7451
 2068SOL    HW217841   2.273   2.432   4.059  0.8360 -0.0016 -0.1817
 2069SOL     OW17842   3.459   3.076   8.652  0.5797  0.1227  0.2140
 2069SOL    HW117843   3.381   3.069   8.708 -0.3101 -3.2344 -1.4896
 2069SOL    HW217844   3.458   2.985   8.624  0.4244  1.2884 -3.4629
 2070SOL     OW17845   1.177   0.711   5.415  0.0374 -0.0315  0.1001
 2070SOL    HW117846   1.223   0.627   5.422 -0.3401 -0.3084 -0.7883
 2070SOL    HW217847   1.107   0.682   5.356  0.9987 -0.2176 -0.9452
 2071SOL     OW17848   0.514   3.255   1.670  0.2559  0.6999  0.0117
 2071SOL    HW117849   0.609   3.267   1.679  0.1652  0.9301  0.6951
 2071SOL    HW217850   0.508   3.186   1.604  0.3628  1.2248 -0.5437
 2072SOL     OW17851   0.749   2.366   4.759 -0.0373 -0.4479  0.2043
 2072SOL    HW117852   0.710   2.403   4.680 -1.4497 -2.2045  0.0910
 2072SOL    HW217853   0.738   2.439   4.821  0.1031  0.3382 -0.6883
 2073SOL     OW17854   2.922   4.469  13.981  0.1974 -0.5238  0.2641
 2073SOL    HW117855   2.935   4.413  13.905  1.4029  2.4672 -1.7145
 2073SOL    HW217856   2.878   4.541  13.936 -0.5606 -1.3445 -0.3141
 2074SOL     OW17857   2.989   0.449   3.426  0.1514  0.1247 -0.1893
 2074SOL    HW117858   3.056   0.444   3.493 -2.0351 -1.0311  1.9066
 2074SOL    HW217859   2.928   0.500   3.479  1.0101  0.0267  0.8800
 2075SOL     OW17860   4.487   0.587  10.797  0.3650  0.1494  0.3298
 2075SOL    HW117861   4.540   0.662  10.826  0.1449 -0.7422  3.0249
 2075SOL    HW217862   4.496   0.591  10.702  1.9802 -1.4228  0.4138
 2076SOL     OW17863   4.495   1.405  16.052 -0.4240  0.1114 -0.0534
 2076SOL    HW117864   4.426   1.376  15.991  0.3861  1.4465 -1.6065
 2076SOL    HW217865   4.574   1.362  16.021  1.1099  0.9186  2.7457
 2077SOL     OW17866   4.087   0.670  14.603  0.6939  0.4691 -0.0439
 2077SOL    HW117867   4.026   0.740  14.628 -0.4019 -0.0867 -1.1444
 2077SOL    HW217868   4.168   0.721  14.597  1.5757 -0.9350 -0.2091
 2078SOL     OW17869   2.520   2.829   4.659  0.5948 -0.4885  0.4183
 2078SOL    HW117870   2.444   2.844   4.715  0.1072 -0.7656 -0.1815
 2078SOL    HW217871   2.565   2.763   4.712 -0.2496  0.0403  1.8157
 2079SOL     OW17872   2.069   2.741   9.150  0.4616 -0.1854  0.6401
 2079SOL    HW117873   2.103   2.745   9.060 -0.7736  0.2014  0.1960
 2079SOL    HW217874   2.125   2.812   9.183  0.1445  1.3620 -2.1694
 2080SOL     OW17875   3.241   3.454   5.807 -0.2151  0.0850 -0.1666
 2080SOL    HW117876   3.243   3.542   5.844  2.2808 -0.0768  0.0660
 2080SOL    HW217877   3.267   3.398   5.880  1.7129  0.8984 -0.2334
 2081SOL     OW17878   1.355   1.845   8.007 -0.4276 -0.3481  0.1282
 2081SOL    HW117879   1.324   1.861   8.096  2.8285  0.1771  1.1639
 2081SOL    HW217880   1.447   1.871   8.014 -0.7386  0.7473  0.1785
 2082SOL     OW17881   4.089   4.370   6.809  0.5334 -0.1406  0.2221
 2082SOL    HW117882   4.064   4.349   6.899  1.2308 -0.4686  0.3364
 2082SOL    HW217883   4.160   4.432   6.823 -0.4618  1.0362  0.0359
 2083SOL     OW17884   0.449   3.897   9.326  0.2581 -0.3082  0.3982
 2083SOL    HW117885   0.534   3.866   9.357  0.6352 -1.5837 -1.8597
 2083SOL    HW217886   0.452   3.869   9.234 -0.2407  3.9795 -0.9593
 2084SOL     OW17887   0.971   1.723   2.238  0.1280  0.0342 -0.2336
 2084SOL    HW117888   0.989   1.794   2.177  1.3083 -2.1217 -2.3958
 2084SOL    HW217889   0.973   1.758   2.327 -0.5421  0.3928 -0.3603
 2085SOL     OW17890   4.009   4.525  17.016  0.5095 -0.5674 -0.5875
 2085SOL    HW117891   4.028   4.617  17.035  0.0054 -0.3358 -1.1900
 2085SOL    HW217892   4.035   4.530  16.924 -0.7702  0.4847 -0.9077
 2086SOL     OW17893   2.401   1.683  10.957 -0.1612 -0.1863  0.3473
 2086SOL    HW117894   2.339   1.718  11.022  0.2859  0.8752  0.1980
 2086SOL    HW217895   2.409   1.588  10.963  0.7061 -0.0451  1.4547
 2087SOL     OW17896   3.506   2.257   6.784 -0.2162 -0.4402  0.0399
 2087SOL    HW117897   3.515   2.352   6.798  1.2172 -0.6954  0.9245
 2087SOL    HW217898   3.514   2.261   6.689 -0.5542 -0.0527  0.0281
 2088SOL     OW17899   3.354   0.177   4.728  0.0021  0.7806  0.2278
 2088SOL    HW117900   3.404   0.247   4.768 -0.6781  1.0565  0.5918
 2088SOL    HW217901   3.410   0.102   4.748 -2.2022 -0.6184  1.1960
 2089SOL     OW17902   4.310   1.124   2.852 -0.0291  0.0486 -0.7250
 2089SOL    HW117903   4.277   1.034   2.852  0.5591 -0.1721 -1.1238
 2089SOL    HW217904   4.378   1.124   2.784  0.9798  2.3815  0.2752
 2090SOL     OW17905   1.034   4.220  14.170 -0.2076  0.5665 -0.6826
 2090SOL    HW117906   1.026   4.131  14.205 -3.9208  2.1413  2.5101
 2090SOL    HW217907   0.964   4.217  14.105 -1.1539  1.9334  0.2862
 2091SOL     OW17908   1.789   3.723   6.170 -0.2568  0.3866  0.2293
 2091SOL    HW117909   1.862   3.693   6.224 -0.5593 -0.2124  0.3168
 2091SOL    HW217910   1.718   3.665   6.199  0.4754 -1.4706 -1.6129
 2092SOL     OW17911   1.995   3.705  15.863 -0.4436  0.3846 -0.4422
 2092SOL    HW117912   1.968   3.617  15.838 -0.6059  0.3656 -0.2036
 2092SOL    HW217913   1.954   3.749  15.788 -0.3770  2.1288  0.5409
 2093SOL     OW17914   0.543   0.084  11.460 -0.4390 -0.1524 -0.0809
 2093SOL    HW117915   0.489   0.062  11.536 -2.4736  0.4440 -1.3444
 2093SOL    HW217916   0.625   0.042  11.484 -0.5550 -0.3519 -0.0305
 2094SOL     OW17917   2.189   3.419   2.820  0.1459 -0.1870 -0.2416
 2094SOL    HW117918   2.222   3.439   2.733 -0.8207 -1.6654 -0.9443
 2094SOL    HW217919   2.107   3.371   2.810 -1.5756  2.3807  1.7376
 2095SOL     OW17920   0.029   3.856  10.379  0.6100  0.2077  0.7586
 2095SOL    HW117921   0.097   3.847  10.445  1.0057 -4.8008 -0.3168
 2095SOL    HW217922   4.709   3.800  10.431 -0.5872  1.0464  0.3373
 2096SOL     OW17923   2.131   1.159  12.267 -0.0811  0.0253 -0.5198
 2096SOL    HW117924   2.205   1.102  12.248 -0.8201 -2.0012  2.6717
 2096SOL    HW217925   2.050   1.114  12.243  0.7638  0.0652 -3.4832
 2097SOL     OW17926   1.644   3.101   1.966  0.2757 -0.2508 -0.0483
 2097SOL    HW117927   1.690   3.021   1.992  1.0832 -0.8099 -3.1746
 2097SOL    HW217928   1.715   3.163   1.952 -0.7703  0.5344 -1.9228
 2098SOL     OW17929   1.958   1.408   4.656  0.7265  0.1877 -0.3860
 2098SOL    HW117930   2.050   1.391   4.678  1.1119  0.5293 -1.6669
 2098SOL    HW217931   1.913   1.347   4.714  1.0961 -1.2749 -1.6272
 2099SOL     OW17932   2.784   3.450   1.932  0.2222 -0.0516  0.6881
 2099SOL    HW117933   2.780   3.409   2.018  0.5493 -0.8963  0.2996
 2099SOL    HW217934   2.841   3.525   1.949 -0.9877  0.8137  0.9661
 2100SOL     OW17935   0.111   2.345   4.471  0.1153  0.7953 -1.0583
 2100SOL    HW117936   0.049   2.413   4.498 -0.3187 -0.8773  2.2050
 2100SOL    HW217937   0.066   2.313   4.393  0.2523 -0.7256 -0.5268
 2101SOL     OW17938   0.495   1.042   9.382  0.1724  0.0376  0.0068
 2101SOL    HW117939   0.519   0.957   9.346  0.0751 -0.9925  2.3890
 2101SOL    HW217940   0.577   1.088   9.395  0.4986 -0.7216  0.6021
 2102SOL     OW17941   1.097   0.804   4.685 -0.0083 -0.1122 -0.1802
 2102SOL    HW117942   1.059   0.731   4.735 -0.7561  2.8159  3.4653
 2102SOL    HW217943   1.033   0.812   4.614  1.0572  2.3337 -0.8649
 2103SOL     OW17944   2.313   2.255  17.743  0.7180 -0.2760 -0.7201
 2103SOL    HW117945   2.247   2.190   0.014  1.6531 -1.5316 -1.6513
 2103SOL    HW217946   2.366   2.221  17.672  0.1658 -2.7910  0.0928
 2104SOL     OW17947   1.202   4.575   0.911  0.1979 -0.2983  0.3161
 2104SOL    HW117948   1.251   4.647   0.873  2.0669  0.0479  3.3810
 2104SOL    HW217949   1.114   4.614   0.916  1.0934  1.8689 -0.8676
 2105SOL     OW17950   1.295   0.016   8.505 -0.0375  0.0425  0.0022
 2105SOL    HW117951   1.256   4.717   8.583 -0.3137 -0.3286 -0.3124
 2105SOL    HW217952   1.249   4.702   8.438  1.6182 -1.5343  0.1167
 2106SOL     OW17953   0.832   1.321   8.835 -0.2623 -0.1440  0.0165
 2106SOL    HW117954   0.906   1.369   8.872 -1.1929  2.0557 -0.9364
 2106SOL    HW217955   0.886   1.246   8.809  2.4409  1.7354  0.1762
 2107SOL     OW17956   4.577   0.481   6.847 -0.1752  0.2013  0.4366
 2107SOL    HW117957   4.545   0.572   6.853  1.8541  0.9786 -0.4994
 2107SOL    HW217958   4.670   0.499   6.857 -0.5552  1.2538  2.1208
 2108SOL     OW17959   0.767   0.451   1.605 -0.4132  0.1729 -0.6986
 2108SOL    HW117960   0.733   0.477   1.690 -1.4943  0.9787 -1.3776
 2108SOL    HW217961   0.859   0.446   1.634 -0.4639  0.1823 -0.5383
 2109SOL     OW17962   3.862   4.061   6.397 -0.3267  0.7963 -0.6223
 2109SOL    HW117963   3.874   4.154   6.380  1.2952  0.9990  1.6958
 2109SOL    HW217964   3.782   4.058   6.450  0.9662  0.1044  1.2988
 2110SOL     OW17965   3.959   4.670   9.262 -0.0359 -0.1284 -0.0197
 2110SOL    HW117966   3.970   4.692   9.354  0.3979 -1.5328  0.2738
 2110SOL    HW217967   3.976   4.576   9.268  1.2553  0.1579  0.6808
 2111SOL     OW17968   3.728   3.542   3.441 -0.1310 -0.2430  0.4501
 2111SOL    HW117969   3.633   3.550   3.453 -0.4111 -1.6531 -0.7382
 2111SOL    HW217970   3.742   3.588   3.358  0.1453  0.8898  1.1315
 2112SOL     OW17971   4.196   1.894   4.655  0.1259 -0.5602  0.4004
 2112SOL    HW117972   4.154   1.812   4.626 -0.4748 -0.1119  0.0015
 2112SOL    HW217973   4.237   1.864   4.736  0.9291 -0.3117  0.0845
 2113SOL     OW17974   0.195   0.629   1.659 -0.3444 -0.0104 -0.3787
 2113SOL    HW117975   0.161   0.576   1.731  1.1088 -1.7040 -0.9535
 2113SOL    HW217976   0.281   0.589   1.652 -0.8857 -1.0946 -0.7713
 2114SOL     OW17977   1.133   4.054  16.544  0.3021  0.0753  0.4020
 2114SOL    HW117978   1.081   4.110  16.602  1.2245  0.7373  0.5795
 2114SOL    HW217979   1.066   4.014  16.488 -0.8241  1.8066  0.5302
 2115SOL     OW17980   0.850   2.401  14.587  0.1406 -0.0971  0.1634
 2115SOL    HW117981   0.891   2.407  14.673  0.9449 -0.1615 -0.2189
 2115SOL    HW217982   0.768   2.449  14.600  1.1001  2.2593 -2.3894
 2116SOL     OW17983   1.255   3.467   2.154 -0.4429 -0.6174 -0.4572
 2116SOL    HW117984   1.191   3.502   2.092  0.2669  1.8000  0.1936
 2116SOL    HW217985   1.276   3.382   2.116 -0.4591 -1.5572  1.6243
 2117SOL     OW17986   1.949   0.658   4.417 -0.0105  0.6057 -0.4305
 2117SOL    HW117987   1.953   0.583   4.477 -2.6241  0.4029 -0.4789
 2117SOL    HW217988   2.013   0.642   4.349  0.4638  1.0577 -0.0907
 2118SOL     OW17989   2.213   3.121   5.418  0.7004 -0.5172 -0.2874
 2118SOL    HW117990   2.304   3.092   5.428  0.1450 -1.4251  2.0512
 2118SOL    HW217991   2.170   3.039   5.393 -2.5551  0.5315  1.9297
 2119SOL     OW17992   0.600   2.359   9.061 -0.2696 -0.0222 -0.0025
 2119SOL    HW117993   0.531   2.412   9.101  1.9931  1.2539  2.2447
 2119SOL    HW217994   0.665   2.429   9.052  0.2588 -0.2997  1.6192
 2120SOL     OW17995   2.328   4.311  11.366  0.8389 -0.2691 -0.1533
 2120SOL    HW117996   2.234   4.291  11.362  1.1247 -2.1485  2.1779
 2120SOL    HW217997   2.346   4.290  11.458  0.1262 -2.7025 -0.5635
 2121SOL     OW17998   1.415   1.197   9.212  0.2165  0.4957  0.1995
 2121SOL    HW117999   1.363   1.187   9.292  0.5353  0.0501  0.3499
 2121SOL    HW218000   1.439   1.288   9.229  1.0908  0.0880  1.1392
 2122SOL     OW18001   2.727   2.278   4.784 -0.2059 -0.1404  0.3391
 2122SOL    HW118002   2.688   2.343   4.843  0.7182  1.7362 -1.1227
 2122SOL    HW218003   2.645   2.242   4.748  0.8793 -0.3511 -1.9196
 2123SOL     OW18004   3.434   0.766   1.945 -0.0229 -0.2528 -0.0079
 2123SOL    HW118005   3.458   0.840   1.890 -1.3584 -0.6655 -1.1368
 2123SOL    HW218006   3.472   0.805   2.024  0.0046 -1.5033  0.6023
 2124SOL     OW18007   0.933   4.580   8.332  0.6562  0.3815 -0.0891
 2124SOL    HW118008   0.928   4.664   8.379  0.0082  0.0833  0.3892
 2124SOL    HW218009   0.944   4.519   8.404 -1.0143 -1.3563 -1.3121
 2125SOL     OW18010   1.352   1.369  12.521  0.2483  0.1287  0.0709
 2125SOL    HW118011   1.379   1.390  12.611  0.1376 -1.0175  0.3721
 2125SOL    HW218012   1.257   1.371  12.534  0.3329  0.9818  0.5781
 2126SOL     OW18013   1.619   3.706  15.599 -0.1524  0.2178 -0.3525
 2126SOL    HW118014   1.541   3.660  15.631 -0.3520  1.8137  1.4988
 2126SOL    HW218015   1.692   3.648  15.620  2.0811  1.9633 -3.3034
 2127SOL     OW18016   3.499   4.709   6.940  0.0960 -0.4371  0.0683
 2127SOL    HW118017   3.409   4.692   6.968  0.7552  0.3148  2.5768
 2127SOL    HW218018   3.530   4.723   7.029  1.0928  0.3023 -0.3952
 2128SOL     OW18019   1.701   0.631  11.878 -0.4550  0.2012  0.4238
 2128SOL    HW118020   1.642   0.656  11.807 -0.6358 -1.3272  0.0377
 2128SOL    HW218021   1.676   0.540  11.890 -0.4236  0.2368  0.7562
 2129SOL     OW18022   2.627   3.850   4.742  0.3487  0.5413  0.1622
 2129SOL    HW118023   2.702   3.822   4.794 -0.2576  0.1822  0.8516
 2129SOL    HW218024   2.637   3.808   4.657  2.5485  2.4589 -0.5109
 2130SOL     OW18025   1.070   1.853   0.044 -0.2457 -0.1623  0.7009
 2130SOL    HW118026   1.120   1.774   0.062  0.5977 -0.0258 -0.9731
 2130SOL    HW218027   1.136   1.892  17.737 -0.9772  2.6220  1.7551
 2131SOL     OW18028   3.748   4.229  13.089 -0.0826  0.6145  0.3946
 2131SOL    HW118029   3.813   4.160  13.102 -0.7591 -0.2142 -0.5834
 2131SOL    HW218030   3.694   4.192  13.019  1.0809 -0.7249  0.2061
 2132SOL     OW18031   3.091   1.868   4.158  0.8245  0.2562  0.0559
 2132SOL    HW118032   3.182   1.841   4.159  0.7746  0.0975  0.4362
 2132SOL    HW218033   3.073   1.865   4.064  0.2778 -1.3175  0.1992
 2133SOL     OW18034   2.293   2.308   5.844 -0.3516  0.7301  0.2045
 2133SOL    HW118035   2.215   2.287   5.793 -0.9847  0.8203  1.1382
 2133SOL    HW218036   2.302   2.230   5.898  0.9351 -0.3287 -1.5421
 2134SOL     OW18037   3.286   3.788   9.194 -0.2278  0.4261 -0.3198
 2134SOL    HW118038   3.191   3.788   9.210 -0.5377  0.5851 -2.0783
 2134SOL    HW218039   3.328   3.792   9.279  0.7668  1.4030 -0.8629
 2135SOL     OW18040   3.069   2.936   9.402  0.1780  0.2502 -0.5655
 2135SOL    HW118041   3.057   2.862   9.461  1.4427  0.4154 -0.1012
 2135SOL    HW218042   3.132   2.896   9.342 -0.8087  0.0870 -1.4855
 2136SOL     OW18043   2.272   2.387  12.565  0.4101 -0.6912  0.0830
 2136SOL    HW118044   2.233   2.336  12.493 -1.9982 -0.0846  0.9499
 2136SOL    HW218045   2.194   2.392  12.621  0.4945 -2.3231  0.3536
 2137SOL     OW18046   0.654   2.023   4.274 -0.0278  0.5516 -0.1889
 2137SOL    HW118047   0.722   1.962   4.243  0.7534  1.7820 -0.9336
 2137SOL    HW218048   0.626   2.075   4.198 -0.4697 -2.6126 -2.2210
 2138SOL     OW18049   1.428   3.541   2.974  0.3102  0.6411 -0.7900
 2138SOL    HW118050   1.355   3.563   2.916  0.0880  0.9968 -0.3769
 2138SOL    HW218051   1.388   3.532   3.060  0.0963 -0.6159 -1.0331
 2139SOL     OW18052   3.685   3.778  11.844 -0.1210 -0.0111 -0.4457
 2139SOL    HW118053   3.592   3.756  11.845  0.1617 -1.2759 -3.1039
 2139SOL    HW218054   3.680   3.827  11.762 -2.0476  1.5121  0.5450
 2140SOL     OW18055   3.963   0.120  17.381  0.5213 -0.1380  0.0927
 2140SOL    HW118056   3.926   0.123  17.470  0.1895 -1.8545  0.0014
 2140SOL    HW218057   3.938   0.207  17.349  0.3357  0.4836  1.8896
 2141SOL     OW18058   2.805   3.117   6.059 -0.0455 -0.7370  0.0464
 2141SOL    HW118059   2.788   3.073   5.975 -0.4436 -0.7510  0.1356
 2141SOL    HW218060   2.746   3.069   6.118  0.3181 -2.4424 -0.9866
 2142SOL     OW18061   4.220   3.229   3.343 -0.5121  0.1431  0.1334
 2142SOL    HW118062   4.204   3.171   3.269 -0.2253  0.5434 -0.2397
 2142SOL    HW218063   4.315   3.241   3.337 -0.4253 -0.5129  0.2704
 2143SOL     OW18064   2.470   0.957   7.305  0.4075  0.3546 -0.7134
 2143SOL    HW118065   2.385   0.926   7.274  0.2623 -0.6149  0.6533
 2143SOL    HW218066   2.468   1.048   7.274  0.4779  0.4466 -0.4464
 2144SOL     OW18067   2.038   0.426   6.166  0.5416  0.2096  0.3198
 2144SOL    HW118068   2.021   0.519   6.157  0.8588  0.2127 -0.2611
 2144SOL    HW218069   1.983   0.391   6.236  1.6715  1.7808  2.0052
 2145SOL     OW18070   3.687   0.623  14.714  0.7030  0.1725 -0.4737
 2145SOL    HW118071   3.606   0.643  14.668 -0.3265  0.3697  1.4352
 2145SOL    HW218072   3.727   0.708  14.696 -2.5394  1.7191 -0.2072
 2146SOL     OW18073   2.442   3.821   4.943  0.4669  0.1210  0.3263
 2146SOL    HW118074   2.495   3.813   4.864  0.8679 -0.6856  0.6775
 2146SOL    HW218075   2.488   3.898   4.975 -0.9907  0.2852  2.0214
 2147SOL     OW18076   2.022   1.464   9.695 -0.2680  0.1881  0.2179
 2147SOL    HW118077   1.978   1.548   9.679 -1.9779 -0.5372  1.1929
 2147SOL    HW218078   1.947   1.408   9.677  1.9894 -3.2039  1.3054
 2148SOL     OW18079   1.716   0.955  15.224  0.1923 -0.0288 -0.1012
 2148SOL    HW118080   1.722   0.926  15.133  2.4511 -0.6642  0.2504
 2148SOL    HW218081   1.675   1.039  15.207 -1.6913 -1.2135 -1.4897
 2149SOL     OW18082   2.267   0.314   2.873  0.0867  0.0480 -0.4307
 2149SOL    HW118083   2.312   0.279   2.950 -1.8345  1.2244  1.2303
 2149SOL    HW218084   2.313   0.272   2.800  0.2295 -1.7127  0.6835
 2150SOL     OW18085   4.083   1.647   3.612 -0.2384 -0.3015  0.0823
 2150SOL    HW118086   4.060   1.562   3.650  0.2515 -1.3112 -1.9074
 2150SOL    HW218087   3.998   1.692   3.605 -0.8004 -1.1772  1.2133
 2151SOL     OW18088   2.644   2.506  12.258 -0.8186 -0.5450 -0.0217
 2151SOL    HW118089   2.696   2.459  12.322  1.4410  3.1431  0.8496
 2151SOL    HW218090   2.703   2.526  12.185 -0.7862 -0.8827 -0.0875
 2152SOL     OW18091   0.465   0.274  11.717 -0.4115  0.1279  0.0793
 2152SOL    HW118092   0.475   0.183  11.744 -1.4655  0.4059  1.3873
 2152SOL    HW218093   0.552   0.278  11.677 -0.7674 -0.1652 -0.7375
 2153SOL     OW18094   3.063   2.956  14.297  0.2186 -0.0379  0.3331
 2153SOL    HW118095   3.129   2.935  14.231  1.5039  3.0780  0.5913
 2153SOL    HW218096   3.098   2.916  14.376  0.8978 -0.6708 -0.2866
 2154SOL     OW18097   0.812   2.280   6.192 -0.2236 -0.5159 -0.3827
 2154SOL    HW118098   0.873   2.294   6.265  0.2701 -0.8186 -0.7326
 2154SOL    HW218099   0.797   2.369   6.161 -1.0028  0.5294  3.0931
 2155SOL     OW18100   4.536   4.672   9.352 -0.6427 -0.2773  0.0153
 2155SOL    HW118101   4.483   4.636   9.281  0.1590 -2.3132  0.4305
 2155SOL    HW218102   4.622   4.641   9.323 -2.4235 -2.7019 -2.6053
 2156SOL     OW18103   1.472   2.128   3.901  0.6162 -0.1115 -0.0408
 2156SOL    HW118104   1.387   2.148   3.938  0.7153 -0.4294  0.3569
 2156SOL    HW218105   1.494   2.046   3.946 -1.8373 -1.3612 -1.0927
 2157SOL     OW18106   0.833   2.942   6.559  0.3284 -0.3123  0.1373
 2157SOL    HW118107   0.912   2.984   6.594 -1.4294  0.3950  3.2382
 2157SOL    HW218108   0.843   2.966   6.467 -0.2889  2.1763  0.7261
 2158SOL     OW18109   2.591   3.141  15.552 -0.8110  0.2423  0.2953
 2158SOL    HW118110   2.624   3.185  15.630 -0.8252  0.8601 -0.0504
 2158SOL    HW218111   2.605   3.199  15.477  0.6483 -0.8428 -0.2839
 2159SOL     OW18112   3.738   3.794   8.255 -0.5449 -0.2201 -0.4958
 2159SOL    HW118113   3.753   3.725   8.320 -3.2344  1.6906  2.1237
 2159SOL    HW218114   3.674   3.851   8.297 -1.1862 -1.7285  0.5808
 2160SOL     OW18115   1.211   2.385  17.090  0.2261 -0.5454  0.0851
 2160SOL    HW118116   1.284   2.346  17.041  0.4793  1.0784 -0.8485
 2160SOL    HW218117   1.258   2.422  17.166  0.0293  0.1375 -0.1235
 2161SOL     OW18118   2.275   2.082   1.230 -0.1048 -0.4742  0.0261
 2161SOL    HW118119   2.205   2.126   1.279  1.4570 -0.1752  2.0287
 2161SOL    HW218120   2.346   2.135   1.266 -1.1902 -0.4974  2.2196
 2162SOL     OW18121   4.265   1.710   7.814 -0.2374 -0.0103 -0.3067
 2162SOL    HW118122   4.255   1.802   7.794 -0.4554 -0.1246 -0.7086
 2162SOL    HW218123   4.354   1.689   7.788 -0.3170 -1.7960  0.8010
 2163SOL     OW18124   4.537   0.773   3.144  0.5386  0.0435  0.1349
 2163SOL    HW118125   4.447   0.765   3.176  0.5901  2.6611  0.9800
 2163SOL    HW218126   4.574   0.850   3.188 -0.3861  0.9347 -0.6327
 2164SOL     OW18127   2.885   3.137   8.565 -0.2315  0.2045  0.6420
 2164SOL    HW118128   2.840   3.055   8.546  0.5082 -0.2858  0.9929
 2164SOL    HW218129   2.972   3.101   8.544  0.0091 -0.1710  2.2564
 2165SOL     OW18130   3.849   2.037   6.383  0.1447 -0.2961 -0.7680
 2165SOL    HW118131   3.835   2.100   6.312 -0.6310  0.9846  0.5132
 2165SOL    HW218132   3.818   1.957   6.340 -1.0834  0.5115 -1.3998
 2166SOL     OW18133   3.965   4.018   2.997 -0.2613  0.2742 -0.1311
 2166SOL    HW118134   3.912   3.942   3.020 -1.2238  1.3232  1.0938
 2166SOL    HW218135   4.025   4.027   3.071 -0.3198  2.0846 -0.2862
 2167SOL     OW18136   2.929   3.927  10.206  0.0941 -0.6856 -0.1517
 2167SOL    HW118137   2.896   3.842  10.178  0.9577 -1.5107  1.3164
 2167SOL    HW218138   2.964   3.900  10.291 -1.5001 -0.3600  0.6218
 2168SOL     OW18139   2.574   4.052   3.788  0.3133 -0.0925 -0.3028
 2168SOL    HW118140   2.612   4.086   3.869 -1.7415 -0.8810  1.0011
 2168SOL    HW218141   2.587   3.958   3.801 -1.4210 -0.1953  0.6103
 2169SOL     OW18142   4.667   4.077   7.732  0.1159  0.3483 -0.5162
 2169SOL    HW118143   0.022   4.077   7.709  0.2658  1.2703  0.1179
 2169SOL    HW218144   4.653   3.982   7.733 -0.2828  0.4048 -0.4752
 2170SOL     OW18145   1.498   1.813  14.729  0.0037 -0.5773 -0.3397
 2170SOL    HW118146   1.580   1.767  14.746  0.7177  1.1462  0.9959
 2170SOL    HW218147   1.448   1.777  14.802 -2.4729  2.4091 -0.5222
 2171SOL     OW18148   0.014   1.066   3.106 -0.0852 -0.0073  0.0557
 2171SOL    HW118149   4.724   1.153   3.077 -2.0484 -2.0661 -4.2043
 2171SOL    HW218150   4.696   1.047   3.181  1.1628 -1.8568  0.5155
 2172SOL     OW18151   1.016   1.031   5.298  0.7480  0.5016  0.3579
 2172SOL    HW118152   1.027   0.988   5.213 -2.6503  0.3136  0.0068
 2172SOL    HW218153   0.960   0.967   5.342  0.3968 -0.3769 -1.3379
 2173SOL     OW18154   2.508   4.526   5.562  0.2014 -0.6694  0.0721
 2173SOL    HW118155   2.458   4.561   5.636  0.5490  1.7360 -0.8273
 2173SOL    HW218156   2.510   4.605   5.509  0.1886 -0.7890 -0.1039
 2174SOL     OW18157   0.665   4.179   6.230 -0.0238 -0.6323 -0.3942
 2174SOL    HW118158   0.734   4.122   6.264 -0.3014 -0.6056  0.2250
 2174SOL    HW218159   0.596   4.113   6.218 -1.5208  0.8537 -0.0816
 2175SOL     OW18160   0.843   4.657  14.709  0.5278 -0.2431 -0.2085
 2175SOL    HW118161   0.824   4.715  14.635  0.2480 -0.8145 -0.5807
 2175SOL    HW218162   0.754   4.625  14.723  0.8741 -1.4031 -0.6568
 2176SOL     OW18163   0.520   1.198  10.596  0.0907  0.4078  0.0036
 2176SOL    HW118164   0.560   1.261  10.537  2.0387  0.2316  1.1219
 2176SOL    HW218165   0.449   1.164  10.543 -0.5834  0.1454  1.0700
 2177SOL     OW18166   1.673   2.161   3.713 -0.0676 -0.3604  0.5844
 2177SOL    HW118167   1.729   2.091   3.746  0.9825 -0.0094 -0.4577
 2177SOL    HW218168   1.592   2.150   3.763 -0.4882 -2.5699 -0.5782
 2178SOL     OW18169   0.979   1.187   7.903 -0.4568  0.1629  0.1684
 2178SOL    HW118170   0.982   1.114   7.964  2.1377  1.0983  1.1412
 2178SOL    HW218171   1.061   1.226   7.932  0.7153 -1.8950 -0.4309
 2179SOL     OW18172   4.602   1.281   1.623  0.3970  0.0831 -0.3361
 2179SOL    HW118173   4.592   1.188   1.639 -1.5349  0.0320 -1.8956
 2179SOL    HW218174   4.548   1.321   1.690 -0.4607 -0.6080 -0.6190
 2180SOL     OW18175   3.359   2.884  16.206  0.0063 -0.3253  0.0677
 2180SOL    HW118176   3.388   2.901  16.296 -1.9327  0.4187  0.5735
 2180SOL    HW218177   3.429   2.822  16.190  0.2557  0.1446 -0.6684
 2181SOL     OW18178   3.821   2.025   6.934  0.1203 -0.0251 -0.0679
 2181SOL    HW118179   3.897   1.968   6.947  1.4345  1.8690  0.4277
 2181SOL    HW218180   3.795   1.987   6.850 -1.6845 -1.7110  1.2431
 2182SOL     OW18181   0.837   0.074   6.362 -0.4196  0.2672 -0.0792
 2182SOL    HW118182   0.759   0.031   6.398 -0.9784  1.1597 -0.1980
 2182SOL    HW218183   0.873   0.122   6.436  0.8501 -0.5340 -0.1761
 2183SOL     OW18184   4.375   0.992   5.277 -0.6622  0.5287 -0.0447
 2183SOL    HW118185   4.325   1.070   5.300 -1.3955 -0.1855  0.7656
 2183SOL    HW218186   4.386   1.025   5.188  0.2145 -0.0501 -0.1518
 2184SOL     OW18187   3.037   3.092   6.564 -0.0568 -0.4135  0.3584
 2184SOL    HW118188   2.967   3.150   6.535  0.7549  0.6192  0.4605
 2184SOL    HW218189   3.047   3.033   6.489 -1.3271  0.4733 -0.5008
 2185SOL     OW18190   0.242   4.451   6.383  0.2792 -0.3094 -0.3208
 2185SOL    HW118191   0.190   4.510   6.329  1.6263  0.8028 -0.4133
 2185SOL    HW218192   0.326   4.448   6.338  0.3290  0.6634 -0.2914
 2186SOL     OW18193   0.766   0.412   8.019 -0.0883  0.4865 -0.4238
 2186SOL    HW118194   0.738   0.391   8.108  1.0330 -2.2442 -0.7026
 2186SOL    HW218195   0.855   0.377   8.014 -0.1391  0.2536  0.3357
 2187SOL     OW18196   1.709   1.898   2.848  0.0395  0.3872  0.1286
 2187SOL    HW118197   1.783   1.951   2.878  0.4718  1.1675 -2.2863
 2187SOL    HW218198   1.743   1.815   2.881  1.5082 -0.2653 -3.0876
 2188SOL     OW18199   3.872   0.922   1.511 -0.1089  0.0597  0.1742
 2188SOL    HW118200   3.832   0.931   1.597 -1.4417 -0.0750 -0.4175
 2188SOL    HW218201   3.897   1.011   1.488 -1.4594  0.6891  1.1503
 2189SOL     OW18202   1.401   0.840  10.084  0.8332 -0.2328 -0.3767
 2189SOL    HW118203   1.448   0.756  10.090  1.4107  0.1512  0.4294
 2189SOL    HW218204   1.312   0.807  10.097  0.2167  1.2427 -0.8863
 2190SOL     OW18205   0.397   2.957  12.813 -0.0912 -0.1514 -0.2027
 2190SOL    HW118206   0.368   2.878  12.768 -0.0047 -0.5059  0.3632
 2190SOL    HW218207   0.425   3.018  12.745 -1.0978  1.7585  1.0878
 2191SOL     OW18208   1.009   3.683  11.697  0.0844 -0.1372 -0.2892
 2191SOL    HW118209   1.033   3.739  11.771 -0.4880 -0.0990 -0.1381
 2191SOL    HW218210   1.097   3.654  11.669 -0.0308  0.5272 -1.3180
 2192SOL     OW18211   3.261   4.182   2.068  0.3622  0.0055  0.0885
 2192SOL    HW118212   3.174   4.221   2.070 -0.1101 -1.0852  1.1576
 2192SOL    HW218213   3.318   4.259   2.065 -2.5720  2.1339 -0.4610
 2193SOL     OW18214   4.590   0.984   3.333  0.1406  0.3408 -0.6537
 2193SOL    HW118215   4.654   0.930   3.381 -2.3292 -0.9186  1.2119
 2193SOL    HW218216   4.507   0.978   3.380  0.2320 -0.1275 -0.5514
 2194SOL     OW18217   0.254   0.216   7.850 -0.2066  0.6262 -0.0372
 2194SOL    HW118218   0.320   0.223   7.920 -0.7757 -2.2808  0.8050
 2194SOL    HW218219   0.183   0.170   7.895 -1.6772  1.6909 -1.3132
 2195SOL     OW18220   1.823   1.833  14.378 -0.0186 -0.4110 -0.1633
 2195SOL    HW118221   1.763   1.880  14.321 -0.5433 -0.6490  0.1923
 2195SOL    HW218222   1.882   1.788  14.318  0.5055 -0.5583  0.4609
 2196SOL     OW18223   4.454   3.221   3.202 -0.1690  0.4850  0.2060
 2196SOL    HW118224   4.490   3.307   3.179 -2.2559  1.6470  1.2763
 2196SOL    HW218225   4.520   3.185   3.261 -1.7487 -0.2518  1.5157
 2197SOL     OW18226   1.480   1.920   9.713  0.3374 -0.2555 -0.0660
 2197SOL    HW118227   1.386   1.914   9.731  0.3556 -1.3341 -0.3332
 2197SOL    HW218228   1.507   2.004   9.750 -2.2471  0.3552  0.4859
 2198SOL     OW18229   2.958   2.022   8.353  0.6579 -0.1155  0.3602
 2198SOL    HW118230   2.998   2.027   8.267 -0.5361  2.4126 -0.0480
 2198SOL    HW218231   3.022   2.073   8.402 -1.4857 -0.5346  3.6571
 2199SOL     OW18232   4.524   1.126   5.080 -0.0759  0.0823 -0.0164
 2199SOL    HW118233   4.483   1.210   5.063 -0.8687 -1.0303 -3.6552
 2199SOL    HW218234   4.589   1.120   5.010 -0.8152 -1.7067 -0.5600
 2200SOL     OW18235   2.167   3.164  16.399 -0.3446 -0.3123  0.2951
 2200SOL    HW118236   2.252   3.131  16.428  0.3852 -0.0213 -1.4683
 2200SOL    HW218237   2.183   3.202  16.312 -1.3116 -0.3307  0.1011
 2201SOL     OW18238   3.317   3.983   4.102  0.1044  0.0128  0.2430
 2201SOL    HW118239   3.337   3.968   4.194 -0.3777 -0.1768  0.3158
 2201SOL    HW218240   3.384   3.931   4.057  0.5498  0.1657  0.7176
 2202SOL     OW18241   1.364   0.811   4.579  0.6335  0.0757 -0.3584
 2202SOL    HW118242   1.372   0.903   4.553  0.5745  0.2915  0.3653
 2202SOL    HW218243   1.300   0.817   4.651  0.4316  2.1602 -0.7172
 2203SOL     OW18244   2.235   1.657   5.419 -0.2891 -0.1827 -0.0358
 2203SOL    HW118245   2.253   1.615   5.503  2.7676 -1.1673 -1.1976
 2203SOL    HW218246   2.235   1.590   5.351 -1.2303 -0.6725  0.4357
 2204SOL     OW18247   3.806   4.142  17.334  0.6074 -0.1420  0.3107
 2204SOL    HW118248   3.790   4.234  17.317  1.4185 -0.1203 -0.3540
 2204SOL    HW218249   3.860   4.122  17.257  0.2781 -1.4758  0.4206
 2205SOL     OW18250   3.994   2.686   3.527 -0.0505  0.0068 -0.3327
 2205SOL    HW118251   4.014   2.722   3.440 -3.4235 -2.3478 -2.0632
 2205SOL    HW218252   4.008   2.770   3.571 -2.1350  0.3842 -0.4317
 2206SOL     OW18253   1.025   0.420   6.481 -0.0863  0.1584  0.2574
 2206SOL    HW118254   1.063   0.357   6.419  0.7156  1.6171 -0.7175
 2206SOL    HW218255   1.100   0.443   6.535  0.1488 -0.4957  0.2095
 2207SOL     OW18256   2.457   1.198   7.920 -0.0628 -0.1991  0.0814
 2207SOL    HW118257   2.471   1.103   7.923  1.4449  0.0180  0.2491
 2207SOL    HW218258   2.473   1.212   8.014 -1.5690 -1.2638  0.4988
 2208SOL     OW18259   0.783   0.159   7.433 -0.2821 -0.0120  0.2590
 2208SOL    HW118260   0.786   0.221   7.361 -0.5289 -0.2141  0.0748
 2208SOL    HW218261   0.724   0.198   7.497 -2.0387 -1.3414 -0.5543
 2209SOL     OW18262   2.105   0.271   4.232 -0.6478  0.4020 -0.1831
 2209SOL    HW118263   2.050   0.344   4.204  0.5300  1.5387  0.4572
 2209SOL    HW218264   2.189   0.315   4.219 -0.1472 -0.1466  1.2104
 2210SOL     OW18265   0.410   1.926   4.401 -0.0876 -0.2662 -0.1165
 2210SOL    HW118266   0.411   1.839   4.361 -0.7195 -0.5918  0.5826
 2210SOL    HW218267   0.489   1.964   4.363  1.1759 -2.0685  0.7027
 2211SOL     OW18268   4.531   4.204   0.875  0.1726 -0.4303  0.1050
 2211SOL    HW118269   4.489   4.266   0.815  2.0989 -1.6655 -2.4987
 2211SOL    HW218270   4.612   4.245   0.905 -0.6952  1.0625  0.4381
 2212SOL     OW18271   4.265   0.094  17.363 -0.1032 -0.1033  0.1731
 2212SOL    HW118272   4.292   0.060  17.277 -1.6595  1.6532 -1.0088
 2212SOL    HW218273   4.171   0.077  17.367 -0.2985  1.3834  2.1051
 2213SOL     OW18274   2.386   3.868   8.986  0.5035  0.0109  0.1030
 2213SOL    HW118275   2.449   3.894   8.919 -2.3448  0.3716 -2.4691
 2213SOL    HW218276   2.422   3.901   9.068  0.7529  0.2982 -0.1220
 2214SOL     OW18277   4.484   2.325   8.656  0.1662  0.0635  0.0697
 2214SOL    HW118278   4.501   2.233   8.637  1.0381 -0.1404  1.8054
 2214SOL    HW218279   4.562   2.358   8.701 -0.5168  1.3235  0.3427
 2215SOL     OW18280   1.656   2.355  14.393  0.0895 -0.0617 -0.2065
 2215SOL    HW118281   1.589   2.422  14.383 -0.3645 -0.6146 -0.9123
 2215SOL    HW218282   1.627   2.300  14.319  2.6411  1.0179 -1.9820
 2216SOL     OW18283   2.676   1.856   3.437 -0.0236  0.0618  0.2161
 2216SOL    HW118284   2.628   1.793   3.490  3.3626 -1.1748  1.8625
 2216SOL    HW218285   2.633   1.860   3.352  0.9667 -0.5988 -0.3197
 2217SOL     OW18286   0.124   3.026   2.710  0.9035  0.1528  0.1727
 2217SOL    HW118287   0.119   2.954   2.773  0.7769 -1.9496 -2.2799
 2217SOL    HW218288   0.095   3.096   2.770 -1.7639  0.6451 -1.6768
 2218SOL     OW18289   3.538   2.822   8.322 -0.5469  0.3512 -0.3121
 2218SOL    HW118290   3.517   2.777   8.404  1.7269  0.8391  0.5496
 2218SOL    HW218291   3.633   2.811   8.312 -0.8849 -1.5286 -1.3836
 2219SOL     OW18292   3.355   1.141   3.809 -0.2904 -0.3837  0.5688
 2219SOL    HW118293   3.413   1.140   3.732 -0.7147  0.3007  0.2412
 2219SOL    HW218294   3.285   1.082   3.781 -1.1631  0.5042  0.8624
 2220SOL     OW18295   0.577   4.138   9.058  0.0888  0.4460 -0.4476
 2220SOL    HW118296   0.508   4.154   9.122  1.2786  1.4787  0.5968
 2220SOL    HW218297   0.618   4.064   9.104 -0.8829  0.7505  0.9198
 2221SOL     OW18298   0.784   1.702   0.096 -0.1148 -0.0512  0.2066
 2221SOL    HW118299   0.853   1.765   0.114  1.1098 -1.4103  0.2441
 2221SOL    HW218300   0.730   1.740   0.026 -1.2352 -0.8655  0.6149
 2222SOL     OW18301   0.521   4.457   6.278  0.2152 -0.2900  0.1246
 2222SOL    HW118302   0.568   4.374   6.271  1.5529  0.4758 -0.1068
 2222SOL    HW218303   0.564   4.496   6.355 -0.9214  0.5573  0.3263
 2223SOL     OW18304   1.592   2.686   1.868  0.0065  0.3342  0.0340
 2223SOL    HW118305   1.565   2.709   1.779 -1.5265  0.7032  0.6002
 2223SOL    HW218306   1.544   2.745   1.926  0.3114 -0.9905  1.6578
 2224SOL     OW18307   2.723   2.555   6.306  0.5078 -0.2622  0.5372
 2224SOL    HW118308   2.712   2.460   6.309 -0.7159 -0.1045  1.0863
 2224SOL    HW218309   2.645   2.569   6.360  0.0636 -1.2721  0.1608
 2225SOL     OW18310   1.224   2.698   0.664  0.2535 -0.0198 -0.7837
 2225SOL    HW118311   1.206   2.633   0.596  0.6808  0.5101 -1.4063
 2225SOL    HW218312   1.232   2.770   0.602  0.7926 -1.0161 -1.8842
 2226SOL     OW18313   1.476   2.991   5.816  0.5003 -0.4676 -0.2142
 2226SOL    HW118314   1.484   2.970   5.909  1.1878 -1.7601 -0.5623
 2226SOL    HW218315   1.550   2.939   5.784  1.2156  0.6540 -0.4107
 2227SOL     OW18316   1.219   2.412   3.329 -0.5571 -0.2581  0.2475
 2227SOL    HW118317   1.225   2.425   3.234 -2.4082 -1.0119  0.0362
 2227SOL    HW218318   1.125   2.409   3.344 -0.2557 -3.6098  1.5135
 2228SOL     OW18319   4.222   3.380   3.627 -0.7561  0.4417 -0.0990
 2228SOL    HW118320   4.189   3.468   3.641 -0.3627  0.4507  0.7902
 2228SOL    HW218321   4.236   3.374   3.533  0.0854 -1.6316  0.1444
 2229SOL     OW18322   0.630   2.588   0.707  0.1227  0.1502  0.2023
 2229SOL    HW118323   0.550   2.628   0.744  0.8752  1.0141  0.8934
 2229SOL    HW218324   0.607   2.496   0.721 -0.9189  0.3054 -0.5004
 2230SOL     OW18325   0.659   3.502   2.918  0.4625  0.1689  0.0833
 2230SOL    HW118326   0.616   3.531   2.998 -1.3174  0.3108 -0.9318
 2230SOL    HW218327   0.590   3.496   2.851 -0.6093  0.2620  1.1742
 2231SOL     OW18328   2.763   2.734  12.738 -0.5551  0.2498 -0.0186
 2231SOL    HW118329   2.668   2.743  12.745 -0.8266 -2.7617 -0.1174
 2231SOL    HW218330   2.774   2.652  12.691 -0.1406 -0.2133  0.8930
 2232SOL     OW18331   0.123   1.130  10.686 -0.2261  0.3637 -0.4085
 2232SOL    HW118332   0.184   1.160  10.754 -0.5449  1.4588 -0.6063
 2232SOL    HW218333   0.191   1.115  10.619  0.5111  0.1765  0.3818
 2233SOL     OW18334   4.216   2.042   7.000 -0.3258 -0.1263  0.0246
 2233SOL    HW118335   4.199   2.136   7.008 -0.8676 -0.0175 -2.1972
 2233SOL    HW218336   4.191   2.011   7.087  0.3503  1.2045  0.6879
 2234SOL     OW18337   0.300   3.944   9.531 -0.3537 -0.5570  0.1905
 2234SOL    HW118338   0.241   3.924   9.459 -0.0384  0.9858 -0.5061
 2234SOL    HW218339   0.388   3.921   9.501  0.1922  0.5366  0.9296
 2235SOL     OW18340   2.856   2.651   8.074 -0.0317 -0.8384  0.1135
 2235SOL    HW118341   2.925   2.716   8.089  0.3274 -1.4174  1.0317
 2235SOL    HW218342   2.843   2.652   7.980 -1.3381  0.4801  0.3241
 2236SOL     OW18343   0.996   1.672   6.007  0.3547  0.1845  0.5329
 2236SOL    HW118344   0.995   1.629   6.093  0.4362 -0.5320  0.1784
 2236SOL    HW218345   1.087   1.658   5.981 -0.2250 -1.5429 -0.6042
 2237SOL     OW18346   1.914   3.671  16.116 -0.3280  0.3758 -0.1811
 2237SOL    HW118347   1.935   3.690  16.024  0.1175 -1.8252 -0.5414
 2237SOL    HW218348   1.937   3.749  16.166 -1.0703  2.0619 -2.4367
 2238SOL     OW18349   1.460   4.652   1.242  0.8269  0.8926 -0.5451
 2238SOL    HW118350   1.509   4.589   1.296  0.0677  0.3534 -0.4823
 2238SOL    HW218351   1.516   4.646   1.165 -0.7466  0.2403 -1.6253
 2239SOL     OW18352   2.978   0.343   4.373 -0.5364 -0.4624  0.8403
 2239SOL    HW118353   2.969   0.436   4.352  1.8124 -0.8439 -1.8300
 2239SOL    HW218354   3.058   0.345   4.426 -0.5055 -0.1606  0.7790
 2240SOL     OW18355   3.505   3.780   4.952  0.2927 -0.4578 -0.0267
 2240SOL    HW118356   3.427   3.797   4.899  0.4898 -1.8974 -0.7872
 2240SOL    HW218357   3.520   3.689   4.926 -0.6291 -0.2601 -1.2464
 2241SOL     OW18358   3.985   1.286  16.534 -0.4732 -0.1598  0.0190
 2241SOL    HW118359   3.937   1.290  16.617  1.9539 -1.6537  1.5059
 2241SOL    HW218360   3.914   1.271  16.472 -0.2858 -1.7234  0.1852
 2242SOL     OW18361   4.255   3.775   5.719  0.1304  0.1460 -0.0839
 2242SOL    HW118362   4.264   3.689   5.759 -0.1789  0.0071 -0.3112
 2242SOL    HW218363   4.340   3.810   5.743  0.3507 -1.3883  1.3097
 2243SOL     OW18364   2.492   1.238   7.205 -0.0965  0.3047  0.0191
 2243SOL    HW118365   2.452   1.324   7.192  0.1775  0.1182 -2.1129
 2243SOL    HW218366   2.542   1.259   7.284  3.3912 -1.6028 -1.6789
 2244SOL     OW18367   0.936   3.230   6.261 -0.1562 -0.3078  0.4252
 2244SOL    HW118368   0.882   3.272   6.329  1.2629 -0.0910  1.4155
 2244SOL    HW218369   0.936   3.145   6.305 -2.6289 -0.1474  0.7294
 2245SOL     OW18370   2.627   3.922  11.248  0.0446 -0.1015 -0.2939
 2245SOL    HW118371   2.683   3.932  11.326 -0.1604  3.1559 -0.5760
 2245SOL    HW218372   2.540   3.948  11.279  0.5570  0.2196  0.8949
 2246SOL     OW18373   2.677   3.897   6.459 -1.0352 -0.0611  0.3778
 2246SOL    HW118374   2.646   3.978   6.498 -0.2849 -0.6729  2.2323
 2246SOL    HW218375   2.607   3.885   6.395 -1.3736 -0.1908  0.7745
 2247SOL     OW18376   1.484   2.651   7.712 -0.3915 -0.2282 -0.3713
 2247SOL    HW118377   1.538   2.657   7.633  0.0336  0.6265 -0.0096
 2247SOL    HW218378   1.538   2.709   7.766  1.5019 -0.8198 -1.6116
 2248SOL     OW18379   4.495   3.705   3.827 -0.1623  0.8103  0.4009
 2248SOL    HW118380   4.412   3.659   3.842  0.6117 -0.2727  1.3359
 2248SOL    HW218381   4.512   3.729   3.918  0.8662  2.8941 -0.3383
 2249SOL     OW18382   1.312   1.729   7.606 -0.5880 -0.5108  0.1088
 2249SOL    HW118383   1.263   1.719   7.525 -2.0844  0.1115  0.9373
 2249SOL    HW218384   1.391   1.678   7.589 -0.7681 -1.3955  1.8799
 2250SOL     OW18385   3.698   2.304  12.299  0.1519  0.2967 -0.5159
 2250SOL    HW118386   3.605   2.326  12.287  0.2442 -0.0844 -2.0383
 2250SOL    HW218387   3.729   2.380  12.348 -1.9433  0.6229  0.3085
 2251SOL     OW18388   2.168   0.618  15.732  0.3695  0.0666 -0.0455
 2251SOL    HW118389   2.202   0.662  15.810  0.9522 -1.5362  0.5991
 2251SOL    HW218390   2.080   0.655  15.725 -0.1329 -1.4118 -1.5988
 2252SOL     OW18391   0.782   3.685  16.303  0.3995  0.1582  0.2143
 2252SOL    HW118392   0.717   3.661  16.237 -0.8877 -0.4220  1.6831
 2252SOL    HW218393   0.828   3.601  16.302 -0.6219 -0.4246  1.3684
 2253SOL     OW18394   1.464   2.209   7.966 -0.2580  0.2476 -0.4390
 2253SOL    HW118395   1.538   2.260   7.999 -0.6690 -0.7179  1.9800
 2253SOL    HW218396   1.508   2.124   7.960  1.0781  0.8292  1.4713
 2254SOL     OW18397   1.370   0.490  14.558 -0.2906  0.1118  0.0599
 2254SOL    HW118398   1.397   0.410  14.604  2.8704  2.2345  1.8673
 2254SOL    HW218399   1.318   0.458  14.484  0.9171  0.9724 -1.1441
 2255SOL     OW18400   3.127   2.542  16.636  0.1460 -0.8059 -0.2261
 2255SOL    HW118401   3.215   2.514  16.609  0.1748 -0.0845 -0.8845
 2255SOL    HW218402   3.109   2.598  16.561 -0.4464  0.1841  0.6640
 2256SOL     OW18403   2.404   3.603   2.248  0.1402  0.2018  0.1143
 2256SOL    HW118404   2.468   3.673   2.234 -0.7313  1.5297  2.6540
 2256SOL    HW218405   2.445   3.559   2.323  0.5433  0.1647 -0.1255
 2257SOL     OW18406   3.054   1.315   7.806  0.5292 -0.6694  0.4321
 2257SOL    HW118407   3.067   1.331   7.712  1.2869 -0.5191  0.5627
 2257SOL    HW218408   2.967   1.346   7.832 -0.7369 -3.0066 -1.0405
 2258SOL     OW18409   0.293   0.805   4.164 -0.3665  0.5690  0.2579
 2258SOL    HW118410   0.254   0.783   4.249  0.6965  2.9038  1.3606
 2258SOL    HW218411   0.365   0.743   4.156 -0.1511  0.7964  0.4225
 2259SOL     OW18412   4.095   2.749  17.666  0.1931 -0.7598  0.1983
 2259SOL    HW118413   4.095   2.830  17.614 -0.8448 -0.5492  0.5314
 2259SOL    HW218414   4.183   2.762  17.703  1.3884 -0.3018 -2.7675
 2260SOL     OW18415   3.719   0.143   4.877  0.1277  0.4663 -1.0348
 2260SOL    HW118416   3.793   0.083   4.882  0.5582  1.1662  1.1124
 2260SOL    HW218417   3.732   0.184   4.963  0.3683 -1.6749 -0.0423
 2261SOL     OW18418   1.736   2.881  14.653 -0.7691  0.0227 -0.0511
 2261SOL    HW118419   1.763   2.843  14.737  0.5447 -1.9818 -1.3826
 2261SOL    HW218420   1.817   2.906  14.610  0.4299 -2.8674  0.5241
 2262SOL     OW18421   1.953   1.868   2.351  0.3708  0.6443  0.5913
 2262SOL    HW118422   1.898   1.913   2.415 -0.2036 -0.8298  1.1262
 2262SOL    HW218423   1.959   1.942   2.291 -1.6813  1.4491  1.3640
 2263SOL     OW18424   1.792   0.659   5.730 -1.1411  0.2693  0.0448
 2263SOL    HW118425   1.867   0.698   5.686  0.5633 -1.7445  1.1122
 2263SOL    HW218426   1.716   0.683   5.678  0.8698  2.2808 -1.9177
 2264SOL     OW18427   2.530   1.338   6.456  1.0210  0.3627 -0.3893
 2264SOL    HW118428   2.571   1.390   6.387  0.0883  0.3856 -0.9326
 2264SOL    HW218429   2.588   1.354   6.531 -0.8483  2.8165  0.5712
 2265SOL     OW18430   2.189   1.632   9.048 -0.9284  0.2302 -0.1714
 2265SOL    HW118431   2.250   1.706   9.048 -0.5761 -0.0639  2.7669
 2265SOL    HW218432   2.199   1.615   9.141 -0.1828  0.6724 -0.1662
 2266SOL     OW18433   2.846   0.903   1.768  0.5396 -0.3388 -0.6406
 2266SOL    HW118434   2.810   0.819   1.741  0.6647  0.3450 -2.9775
 2266SOL    HW218435   2.879   0.880   1.854  1.1472  0.1929 -0.7302
 2267SOL     OW18436   0.664   1.797   0.944 -0.0341  0.3482 -0.5884
 2267SOL    HW118437   0.707   1.880   0.922  2.5068 -0.7424  0.1935
 2267SOL    HW218438   0.717   1.724   0.911 -1.5010 -1.0941  0.2786
 2268SOL     OW18439   1.833   4.299   4.769  0.1373 -0.8840  0.0170
 2268SOL    HW118440   1.825   4.257   4.683 -0.6130  0.6726 -0.6746
 2268SOL    HW218441   1.763   4.363   4.758  0.5698  0.0191  2.5698
 2269SOL     OW18442   1.957   3.569   5.905 -0.0855  0.7351 -0.1632
 2269SOL    HW118443   1.899   3.593   5.833  0.3289 -2.0730 -1.4674
 2269SOL    HW218444   1.995   3.486   5.874 -0.3277  1.0963 -1.4265
 2270SOL     OW18445   2.967   4.479   9.571 -0.6275 -0.0061  0.1870
 2270SOL    HW118446   3.056   4.460   9.540  0.4418 -0.2050  3.4128
 2270SOL    HW218447   2.930   4.532   9.500 -2.2635 -1.4950 -0.0569
 2271SOL     OW18448   1.949   3.448   2.199  0.0583 -0.2250  0.3407
 2271SOL    HW118449   1.952   3.446   2.294  0.6520 -2.2439  0.2781
 2271SOL    HW218450   2.018   3.511   2.180  0.4640 -0.7507  0.0892
 2272SOL     OW18451   3.663   4.127  15.100  0.6599  0.2480 -0.5218
 2272SOL    HW118452   3.594   4.104  15.162 -0.8154  0.9924 -1.8704
 2272SOL    HW218453   3.617   4.133  15.016 -1.3010  0.8860  0.5823
 2273SOL     OW18454   1.246   1.045  14.011 -0.1258 -0.3937  0.6377
 2273SOL    HW118455   1.236   1.137  14.034 -1.7822 -0.1617 -1.0592
 2273SOL    HW218456   1.321   1.049  13.952  0.9214  1.2573  2.0631
 2274SOL     OW18457   2.532   0.982   9.094  0.1614 -0.2479 -0.1005
 2274SOL    HW118458   2.457   0.938   9.135  1.9369 -3.5170 -0.3270
 2274SOL    HW218459   2.520   0.948   9.005 -0.6620  0.4960 -0.2697
 2275SOL     OW18460   0.933   4.016   3.834 -0.6586 -0.5957  0.2438
 2275SOL    HW118461   0.902   4.009   3.743  1.6685  1.3259 -0.7039
 2275SOL    HW218462   0.849   4.019   3.880 -0.6031  0.6209  0.2663
 2276SOL     OW18463   1.367   2.199   9.605 -0.4273  0.1552 -0.4531
 2276SOL    HW118464   1.334   2.259   9.539 -0.5453 -1.5821 -1.9920
 2276SOL    HW218465   1.365   2.248   9.687 -1.0914 -0.3216 -0.1757
 2277SOL     OW18466   3.208   4.135   2.829  0.2141  0.0816 -0.2303
 2277SOL    HW118467   3.176   4.136   2.738  2.8951 -0.2931 -1.1627
 2277SOL    HW218468   3.245   4.222   2.839 -1.0759  0.3854  1.8809
 2278SOL     OW18469   3.839   4.492   5.910 -0.3096  0.0424 -0.0747
 2278SOL    HW118470   3.902   4.433   5.869  2.5400  2.6441  0.5786
 2278SOL    HW218471   3.906   4.555   5.936 -0.4069  0.2417 -0.3199
 2279SOL     OW18472   0.458   0.240   8.060 -0.0117 -0.4054  0.3752
 2279SOL    HW118473   0.439   0.251   8.153 -0.8758  0.1773  0.1239
 2279SOL    HW218474   0.530   0.181   8.082  0.2146 -0.8228 -1.4690
 2280SOL     OW18475   0.533   2.868  11.414  0.1176 -0.5061 -0.0983
 2280SOL    HW118476   0.544   2.792  11.471 -0.2329  0.3608  1.1249
 2280SOL    HW218477   0.438   2.869  11.400 -0.1770  2.2268  2.1424
 2281SOL     OW18478   0.302   2.502   6.444  0.0569 -0.2130 -0.6396
 2281SOL    HW118479   0.340   2.510   6.357  2.5083  0.6280  0.4986
 2281SOL    HW218480   0.209   2.493   6.426 -0.3035 -0.5180  1.4188
 2282SOL     OW18481   1.376   1.216   4.033 -0.1978 -0.1934 -0.2413
 2282SOL    HW118482   1.402   1.126   4.057  2.2056  0.0318 -1.9830
 2282SOL    HW218483   1.443   1.236   3.968 -0.5302 -0.2522 -0.6084
 2283SOL     OW18484   1.025   2.095   1.452  0.3408  0.1038 -0.0209
 2283SOL    HW118485   1.111   2.107   1.410 -0.0691  0.2705 -0.8031
 2283SOL    HW218486   1.052   2.090   1.544 -2.3567 -0.4176  0.7166
 2284SOL     OW18487   1.703   2.806  17.424  0.4948  0.4043 -0.2760
 2284SOL    HW118488   1.711   2.754  17.505 -1.6275  1.8857  0.8900
 2284SOL    HW218489   1.792   2.840  17.421  0.4869  0.2930 -1.6213
 2285SOL     OW18490   4.093   3.477  11.970  0.0630 -0.3631  0.6765
 2285SOL    HW118491   4.096   3.568  11.942  2.6893  0.1895  2.7240
 2285SOL    HW218492   4.013   3.452  11.925 -0.8394 -1.2878  2.7662
 2286SOL     OW18493   2.480   0.946  11.738  0.2219 -0.5949  0.0362
 2286SOL    HW118494   2.450   1.029  11.701  0.6391 -0.9291 -1.0617
 2286SOL    HW218495   2.500   0.909  11.652 -2.6705 -0.7260 -0.6049
 2287SOL     OW18496   1.710   3.427  11.967 -0.5347 -0.1986  0.5207
 2287SOL    HW118497   1.725   3.479  12.046 -0.6926  0.8891 -0.1632
 2287SOL    HW218498   1.787   3.451  11.915 -0.2449 -0.6540  0.7426
 2288SOL     OW18499   1.350   3.584  10.283  0.8288  0.2057  0.5433
 2288SOL    HW118500   1.283   3.560  10.346  0.4156  1.6271  0.6304
 2288SOL    HW218501   1.418   3.621  10.339  2.0452 -0.3038 -0.5594
 2289SOL     OW18502   4.733   1.839   6.908 -0.2726  0.4981  0.4293
 2289SOL    HW118503   0.084   1.846   6.941  0.6154 -0.9453 -1.6474
 2289SOL    HW218504   4.697   1.925   6.929  0.5878  1.1739 -0.8810
 2290SOL     OW18505   4.084   4.624   2.101 -0.7953 -0.2506  0.1583
 2290SOL    HW118506   4.050   4.653   2.185  0.6411 -3.0445  1.6902
 2290SOL    HW218507   4.031   4.545   2.089  0.1980 -0.8107 -0.5420
 2291SOL     OW18508   1.206   4.500   6.362  0.6804  0.6226 -0.5062
 2291SOL    HW118509   1.143   4.548   6.415  2.1848 -0.4135  2.2204
 2291SOL    HW218510   1.199   4.412   6.399 -3.3413  2.1594  2.3482
 2292SOL     OW18511   1.918   2.394   7.019  0.6674  0.2006  0.2069
 2292SOL    HW118512   1.976   2.334   6.972  1.1270  0.4961  0.3986
 2292SOL    HW218513   1.931   2.478   6.976 -0.7784 -0.5709 -1.7235
 2293SOL     OW18514   1.654   3.254   4.098  0.3804  0.4714  0.6486
 2293SOL    HW118515   1.563   3.250   4.127 -0.0031 -0.6259 -0.6970
 2293SOL    HW218516   1.662   3.167   4.058 -0.0562  0.0719  1.4314
 2294SOL     OW18517   3.907   3.253   5.924  0.7501 -0.3401  0.2417
 2294SOL    HW118518   3.848   3.324   5.899 -0.9666 -2.9464 -3.1688
 2294SOL    HW218519   3.856   3.172   5.921 -0.2628  0.3921 -2.2971
 2295SOL     OW18520   0.608   0.940   2.469 -0.9394  0.3600  0.2082
 2295SOL    HW118521   0.553   0.936   2.391  1.2539 -0.6086 -1.2774
 2295SOL    HW218522   0.566   1.012   2.517  2.1293  0.4825  2.6911
 2296SOL     OW18523   1.053   1.444  14.123  0.2301  0.1154 -0.2099
 2296SOL    HW118524   0.974   1.394  14.100 -2.1281  3.3517  0.9204
 2296SOL    HW218525   1.023   1.484  14.205  0.7955  1.4183 -0.6384
 2297SOL     OW18526   2.901   1.313  17.162  0.0248 -0.0045 -0.3916
 2297SOL    HW118527   2.902   1.336  17.255  0.7998 -3.6148  0.4883
 2297SOL    HW218528   2.836   1.242  17.164 -1.4183  1.3459  0.5072
 2298SOL     OW18529   1.836   4.140   6.356 -0.3762  0.2392  0.1737
 2298SOL    HW118530   1.742   4.151   6.348 -0.3868 -0.4906 -0.7396
 2298SOL    HW218531   1.843   4.069   6.420 -1.6522  1.0884  1.2555
 2299SOL     OW18532   4.012   4.101  17.141  0.0470  1.0867 -0.2407
 2299SOL    HW118533   4.030   4.163  17.071 -0.0344  0.5059 -0.7734
 2299SOL    HW218534   4.025   4.014  17.103  1.8708  1.1298  0.3235
 2300SOL     OW18535   3.508   3.532   8.305  0.3870  0.4901 -0.5819
 2300SOL    HW118536   3.457   3.519   8.385  0.0706 -1.1648 -1.0457
 2300SOL    HW218537   3.448   3.587   8.256 -1.3883  0.7411  1.8651
 2301SOL     OW18538   2.316   3.091   2.141 -0.5178 -0.4542 -0.0809
 2301SOL    HW118539   2.236   3.140   2.121 -0.1004 -1.1529 -3.4368
 2301SOL    HW218540   2.383   3.155   2.166 -0.7983 -0.1070 -0.2114
 2302SOL     OW18541   4.673   4.049  17.711  0.2961  0.2859 -0.9298
 2302SOL    HW118542   4.683   4.144  17.713 -0.0456  0.2826  1.3779
 2302SOL    HW218543   4.613   4.039  17.637 -1.1505  2.1328 -0.0050
 2303SOL     OW18544   2.735   0.177   4.119 -0.3233  0.3566 -0.1891
 2303SOL    HW118545   2.762   0.116   4.187 -0.4907 -0.0658 -0.5005
 2303SOL    HW218546   2.646   0.194   4.150 -0.3860 -0.1264 -0.1109
 2304SOL     OW18547   2.264   0.028   7.656 -0.2791  0.0651  0.2893
 2304SOL    HW118548   2.186   0.034   7.712  1.1001 -1.4850  2.3742
 2304SOL    HW218549   2.300   4.681   7.681  0.6079  0.6748  1.0887
 2305SOL     OW18550   1.475   3.330   6.535  0.0868  0.2404 -0.0514
 2305SOL    HW118551   1.407   3.393   6.510 -3.8503 -4.3589 -0.9230
 2305SOL    HW218552   1.508   3.375   6.613  0.8657 -1.4243  0.5817
 2306SOL     OW18553   0.144   3.417   5.705  0.1074  0.0330 -0.3429
 2306SOL    HW118554   0.231   3.383   5.682 -0.2423 -0.2801 -1.2055
 2306SOL    HW218555   0.084   3.345   5.688  0.1646  0.0884 -0.7738
 2307SOL     OW18556   2.706   1.212   7.667  0.0877 -0.6569  0.0630
 2307SOL    HW118557   2.691   1.252   7.582 -1.8304  1.5412  1.4318
 2307SOL    HW218558   2.725   1.121   7.644  0.5091 -0.4737 -0.3186
 2308SOL     OW18559   2.944   1.411   2.563  0.3472 -0.9260 -0.2807
 2308SOL    HW118560   2.941   1.416   2.659  0.9177 -1.1223 -0.2512
 2308SOL    HW218561   2.941   1.495   2.516 -3.8807 -1.4267 -0.8771
 2309SOL     OW18562   3.471   3.837   4.542 -0.4922  0.1030 -0.3156
 2309SOL    HW118563   3.464   3.741   4.540  2.2291 -0.1097  0.5353
 2309SOL    HW218564   3.552   3.856   4.494  0.2992 -0.0641  0.9732
 2310SOL     OW18565   3.121   3.912  16.610  0.2441  0.5294 -0.0912
 2310SOL    HW118566   3.063   3.838  16.594 -1.2160  2.0964 -2.0624
 2310SOL    HW218567   3.166   3.881  16.688 -0.5846  1.9245  0.9402
 2311SOL     OW18568   0.976   3.809   6.406  0.6674  0.1802  0.6228
 2311SOL    HW118569   1.071   3.817   6.413  0.7178 -0.5159  0.7204
 2311SOL    HW218570   0.954   3.902   6.412 -1.0462 -0.2829  1.5320
 2312SOL     OW18571   1.745   3.456   0.943 -0.0921  0.2648  0.8313
 2312SOL    HW118572   1.713   3.546   0.945  2.5769  1.2339  0.6642
 2312SOL    HW218573   1.753   3.449   0.848 -1.5565  0.9271  0.6552
 2313SOL     OW18574   0.486   3.250   2.744 -0.8354  0.8157  0.0537
 2313SOL    HW118575   0.443   3.334   2.759  2.1402  1.9512  2.3136
 2313SOL    HW218576   0.512   3.263   2.653  2.7081  2.2978  1.2805
 2314SOL     OW18577   3.058   0.965   2.276  0.0415 -0.4955  0.8545
 2314SOL    HW118578   3.042   1.038   2.337 -0.6526 -1.7336  2.1629
 2314SOL    HW218579   3.036   0.889   2.330  0.0037 -1.1932 -0.1580
 2315SOL     OW18580   0.174   4.569  12.740  0.4846  0.6751 -0.5735
 2315SOL    HW118581   0.113   4.518  12.793 -0.0918  2.9427  0.9422
 2315SOL    HW218582   0.231   4.583  12.816 -0.3322  1.5732 -0.1244
 2316SOL     OW18583   1.269   4.328   4.454  0.3240 -0.4549 -0.1493
 2316SOL    HW118584   1.324   4.381   4.397  0.0874 -1.7442 -1.5625
 2316SOL    HW218585   1.195   4.388   4.455 -1.8933 -3.1876 -0.2060
 2317SOL     OW18586   4.277   2.357   1.570  0.3544  0.5421 -0.8737
 2317SOL    HW118587   4.205   2.368   1.508 -0.1394  0.6894 -0.2745
 2317SOL    HW218588   4.352   2.384   1.517  0.6024 -0.0164 -0.8105
 2318SOL     OW18589   0.175   3.009   7.446  0.3211 -0.5286 -0.1012
 2318SOL    HW118590   0.266   2.996   7.422  1.2506  1.7375  2.1934
 2318SOL    HW218591   0.164   3.099   7.416 -2.8279 -0.3858  1.4402
 2319SOL     OW18592   0.884   4.691   2.085 -0.0708  0.3801 -0.4096
 2319SOL    HW118593   0.936   4.626   2.038  0.4327  1.8205 -1.8304
 2319SOL    HW218594   0.936   0.022   2.046  0.3405 -0.4825 -1.3971
 2320SOL     OW18595   3.620   3.857   1.193 -0.1748 -0.0980  0.4664
 2320SOL    HW118596   3.622   3.774   1.145 -1.2349 -0.3315  0.8306
 2320SOL    HW218597   3.600   3.924   1.128 -0.7387  1.7028  2.5174
 2321SOL     OW18598   2.179   3.140   3.505  0.2669 -0.6560 -0.2475
 2321SOL    HW118599   2.100   3.188   3.531 -0.6880 -1.3712 -1.8521
 2321SOL    HW218600   2.235   3.182   3.570 -0.5019 -0.3704  0.2376
 2322SOL     OW18601   1.076   3.652   3.760 -0.0043 -0.0345  0.2663
 2322SOL    HW118602   1.080   3.640   3.855 -2.2223  1.4565  0.5511
 2322SOL    HW218603   1.007   3.590   3.738  1.6356 -2.4914  1.9947
 2323SOL     OW18604   2.549   0.902  16.730  0.8088  0.6184 -0.6111
 2323SOL    HW118605   2.538   0.997  16.735 -1.0604  0.4047 -0.8108
 2323SOL    HW218606   2.625   0.892  16.672  1.8684 -2.0332  1.3006
 2324SOL     OW18607   3.647   3.084   5.707 -0.4520 -0.0185  0.5704
 2324SOL    HW118608   3.579   3.022   5.734  0.2028 -0.3751  1.3988
 2324SOL    HW218609   3.710   3.081   5.779 -0.5286  1.0398  0.6837
 2325SOL     OW18610   4.173   0.970   0.776  0.5823  0.0300  0.4290
 2325SOL    HW118611   4.177   1.038   0.843  0.7359 -0.1714  0.6231
 2325SOL    HW218612   4.178   0.894   0.833 -0.2599 -0.4044 -0.0821
 2326SOL     OW18613   4.565   0.190   7.769 -0.4787  0.2581 -0.1465
 2326SOL    HW118614   4.588   0.270   7.722  2.7395 -1.2837 -1.1489
 2326SOL    HW218615   4.509   0.215   7.843  0.9234  4.7563 -0.5988
 2327SOL     OW18616   2.583   2.351   0.524  0.5422 -0.1940 -0.2909
 2327SOL    HW118617   2.621   2.414   0.586  0.5504 -1.5655  1.0882
 2327SOL    HW218618   2.539   2.292   0.585 -0.0434 -0.7636 -1.2652
 2328SOL     OW18619   3.525   0.934  10.458  0.0223  0.3267  0.8652
 2328SOL    HW118620   3.488   0.845  10.456  2.0650 -0.4915 -0.0992
 2328SOL    HW218621   3.618   0.912  10.452 -0.0340 -0.1168  1.4956
 2329SOL     OW18622   3.801   1.545   8.000 -0.0195 -0.0562  0.0254
 2329SOL    HW118623   3.737   1.527   7.930 -0.1636  1.1773 -0.1565
 2329SOL    HW218624   3.794   1.463   8.048 -2.0032 -0.2355 -0.5427
 2330SOL     OW18625   2.101   1.220   4.076 -0.3518 -0.2484  0.1881
 2330SOL    HW118626   2.013   1.248   4.051  0.1539  1.3657  0.1873
 2330SOL    HW218627   2.119   1.283   4.146 -0.0090  1.8067 -1.7383
 2331SOL     OW18628   4.132   4.270   8.255  0.5391 -0.1185 -0.6927
 2331SOL    HW118629   4.134   4.231   8.342 -0.5432  0.1642 -0.5404
 2331SOL    HW218630   4.039   4.280   8.234  1.0743  1.3798 -2.3388
 2332SOL     OW18631   0.839   2.709   0.074  0.8431  0.1075  0.4209
 2332SOL    HW118632   0.783   2.734   0.001 -0.2994  0.2079  1.3191
 2332SOL    HW218633   0.789   2.635   0.109  2.1604 -0.4336  1.1729
 2333SOL     OW18634   0.731   3.187   7.511 -0.5213  0.0287 -0.3465
 2333SOL    HW118635   0.773   3.124   7.453  0.4832 -0.2189  0.6517
 2333SOL    HW218636   0.674   3.238   7.452  1.3430  1.2838 -1.0723
 2334SOL     OW18637   2.372   4.152   0.429  0.2753 -0.7266  0.0079
 2334SOL    HW118638   2.412   4.065   0.430  0.5296 -0.6107  0.0781
 2334SOL    HW218639   2.369   4.163   0.524 -0.2200  1.6775 -0.2815
 2335SOL     OW18640   3.411   0.951  13.004  0.2061  0.2325  0.3740
 2335SOL    HW118641   3.401   0.938  13.098  3.3108 -0.6853  0.5673
 2335SOL    HW218642   3.477   1.021  12.999  0.7983 -0.3631 -0.0941
 2336SOL     OW18643   3.756   4.042   5.323  0.0559 -0.0306  0.7421
 2336SOL    HW118644   3.682   3.982   5.307  0.3741 -0.1798 -0.1954
 2336SOL    HW218645   3.826   3.997   5.277  0.6426  0.0800  1.5309
 2337SOL     OW18646   0.152   1.656   2.161 -0.0567  0.6664  0.1953
 2337SOL    HW118647   0.140   1.738   2.208 -0.2591  0.9118 -0.2887
 2337SOL    HW218648   0.066   1.613   2.166  1.4285 -2.7285 -3.1932
 2338SOL     OW18649   3.106   1.338   3.584 -0.0055 -0.2806 -0.1614
 2338SOL    HW118650   3.101   1.352   3.679  1.6078 -0.0804 -0.0997
 2338SOL    HW218651   3.024   1.377   3.555 -1.8631 -3.2596  1.0210
 2339SOL     OW18652   2.511   2.164  12.940 -0.0340  0.4445  0.0481
 2339SOL    HW118653   2.442   2.105  12.911  0.7710 -0.1039 -0.7470
 2339SOL    HW218654   2.492   2.223  12.867  2.0213  1.2675  0.1659
 2340SOL     OW18655   1.548   0.936   6.557 -0.0810 -0.1663 -0.1730
 2340SOL    HW118656   1.593   0.862   6.598 -2.1430 -0.3376  1.7436
 2340SOL    HW218657   1.477   0.889   6.515  2.4522 -2.9071 -1.3510
 2341SOL     OW18658   2.339   3.965  10.393 -0.0387  0.6611 -0.5327
 2341SOL    HW118659   2.340   4.044  10.339  0.7595 -0.8066 -2.6398
 2341SOL    HW218660   2.419   3.987  10.443 -2.5139  2.2969  2.7069
 2342SOL     OW18661   4.648   2.954  10.938 -0.2101  0.4262  0.1283
 2342SOL    HW118662   4.640   2.892  10.865 -0.1491  0.4883  0.0696
 2342SOL    HW218663   4.556   2.980  10.945 -0.7731 -1.1999 -1.1955
 2343SOL     OW18664   3.119   2.825  11.698  0.1265 -0.5545 -0.2921
 2343SOL    HW118665   3.108   2.832  11.603  1.4844  0.1521 -0.3959
 2343SOL    HW218666   3.176   2.902  11.705 -0.6983 -0.0276  0.6210
 2344SOL     OW18667   1.622   2.920   4.597 -0.6579  0.5719  0.2139
 2344SOL    HW118668   1.589   3.004   4.631  0.3489  2.7322 -4.2304
 2344SOL    HW218669   1.704   2.896   4.640 -0.5622  0.8374  0.1827
 2345SOL     OW18670   2.648   4.735   5.058  0.0372  0.1001 -0.5406
 2345SOL    HW118671   2.617   0.086   5.076  0.2617  0.2719 -1.0050
 2345SOL    HW218672   2.695   0.013   4.976  2.3126  1.9881  1.1494
 2346SOL     OW18673   1.993   1.192   6.549  0.1666  0.2637 -0.4141
 2346SOL    HW118674   1.916   1.155   6.506  1.1570 -5.1375  2.5240
 2346SOL    HW218675   1.954   1.242   6.621  0.0039 -1.5525  0.7353
 2347SOL     OW18676   2.833   0.075   9.196  0.5019  0.1138  0.0491
 2347SOL    HW118677   2.793   0.042   9.115 -0.1720 -0.6177  0.6792
 2347SOL    HW218678   2.872   0.155   9.161 -0.4958  0.4495 -0.2871
 2348SOL     OW18679   3.261   1.120   8.681 -0.4496  0.2287 -0.6893
 2348SOL    HW118680   3.219   1.041   8.648 -1.5388 -0.7860  3.1495
 2348SOL    HW218681   3.258   1.119   8.777  1.2152 -1.4907 -0.6832
 2349SOL     OW18682   2.456   2.951  15.692  0.1601  0.3447  0.1392
 2349SOL    HW118683   2.438   2.990  15.778 -0.8594  2.2540 -0.9375
 2349SOL    HW218684   2.475   3.030  15.641  0.5107 -0.5959 -1.1585
 2350SOL     OW18685   4.312   4.460  11.580 -0.0883 -0.3261 -0.3122
 2350SOL    HW118686   4.227   4.426  11.608 -0.4313  0.4786 -0.3613
 2350SOL    HW218687   4.383   4.409  11.620 -1.2703 -0.1063  2.0610
 2351SOL     OW18688   2.917   4.356  10.000 -0.1805 -0.6937  0.0967
 2351SOL    HW118689   2.950   4.432   9.952 -3.4172  1.2879  0.9223
 2351SOL    HW218690   2.827   4.371   9.969  0.6239  2.3409 -0.8345
 2352SOL     OW18691   3.827   3.386   2.272  0.1973 -0.2521  0.0458
 2352SOL    HW118692   3.780   3.414   2.350  2.1575  0.4355  0.9665
 2352SOL    HW218693   3.776   3.420   2.198 -1.0602 -0.6958  0.7034
 2353SOL     OW18694   1.014   2.941   9.304 -0.0851 -0.4298 -0.0794
 2353SOL    HW118695   0.943   2.993   9.341 -0.3960 -0.7814 -0.1951
 2353SOL    HW218696   1.007   2.864   9.360  1.4792  0.3029  1.1665
 2354SOL     OW18697   3.397   2.361   4.979 -0.5711 -0.7251  0.3836
 2354SOL    HW118698   3.330   2.408   5.028  1.1766  0.7174  1.4179
 2354SOL    HW218699   3.475   2.339   5.031 -0.7030 -0.4530  0.6939
 2355SOL     OW18700   4.277   2.472  15.622  0.6107  0.0320  0.0860
 2355SOL    HW118701   4.242   2.476  15.532  1.7154 -1.8469 -0.4157
 2355SOL    HW218702   4.194   2.485  15.670  1.3267 -0.6876  1.5027
 2356SOL     OW18703   3.160   1.894   5.868 -0.6324 -0.1491 -0.0069
 2356SOL    HW118704   3.246   1.851   5.860 -0.8265 -0.2195 -1.6013
 2356SOL    HW218705   3.131   1.893   5.777 -1.1548 -0.8725  0.1725
 2357SOL     OW18706   0.438   3.762  12.418  0.2060  0.1171 -0.6008
 2357SOL    HW118707   0.421   3.732  12.507  0.2889  0.2366 -0.5450
 2357SOL    HW218708   0.459   3.679  12.375  0.5954 -0.8451  1.4723
 2358SOL     OW18709   0.977   1.566   3.532  0.0356 -0.6459 -0.3204
 2358SOL    HW118710   0.931   1.525   3.605 -0.1780  1.1377  0.5366
 2358SOL    HW218711   0.918   1.640   3.518  0.9470  0.3400  1.0373
 2359SOL     OW18712   0.624   2.550   4.209 -0.0973  0.0092 -0.6045
 2359SOL    HW118713   0.576   2.472   4.181 -2.5395  0.4105  2.5444
 2359SOL    HW218714   0.555   2.617   4.207 -0.1714 -0.0257  0.9390
 2360SOL     OW18715   2.095   3.267   4.742  0.0704 -0.0001 -0.4411
 2360SOL    HW118716   2.098   3.352   4.697 -2.8931  1.1819  1.5219
 2360SOL    HW218717   2.009   3.238   4.712 -0.7536  2.9719 -0.9980
 2361SOL     OW18718   2.556   2.900   8.421  0.2826  0.1945  0.1375
 2361SOL    HW118719   2.593   2.821   8.461 -0.7407  0.0129  0.7250
 2361SOL    HW218720   2.560   2.884   8.327  1.4571 -0.2608  0.2586
 2362SOL     OW18721   1.544   3.844   3.436 -0.2124  0.0334  0.0432
 2362SOL    HW118722   1.552   3.845   3.531 -1.2764  0.0484  0.1339
 2362SOL    HW218723   1.530   3.750   3.428  0.8182 -0.0712 -0.5617
 2363SOL     OW18724   2.343   2.650   7.460  0.0904  0.0530  0.3648
 2363SOL    HW118725   2.399   2.720   7.494  0.1026 -0.4379  1.3394
 2363SOL    HW218726   2.259   2.667   7.502  0.8209  0.6183  1.5734
 2364SOL     OW18727   2.132   0.225   0.977  0.0340 -0.0489  0.6222
 2364SOL    HW118728   2.172   0.262   0.899 -1.3922 -1.4240 -0.7676
 2364SOL    HW218729   2.127   0.303   1.032 -1.2227  1.1110 -1.1156
 2365SOL     OW18730   2.895   4.080   3.857  0.5729 -0.2623  0.5948
 2365SOL    HW118731   2.983   4.041   3.859 -0.6689 -3.1814 -1.4218
 2365SOL    HW218732   2.863   4.069   3.947 -1.0997  0.2618  0.0441
 2366SOL     OW18733   2.809   3.315   8.342  0.0514 -0.2378  0.0726
 2366SOL    HW118734   2.722   3.279   8.355  0.3490 -0.3190  1.9172
 2366SOL    HW218735   2.851   3.318   8.428  1.6509 -0.0357 -0.7157
 2367SOL     OW18736   2.641   0.646   8.911 -0.4292 -0.1124  0.1661
 2367SOL    HW118737   2.640   0.578   8.979 -1.4219 -1.2095 -0.9447
 2367SOL    HW218738   2.630   0.590   8.833 -0.3034 -0.0775  0.1233
 2368SOL     OW18739   2.209   2.210  12.358  0.4163  0.0650 -0.4828
 2368SOL    HW118740   2.128   2.160  12.363  0.3751  0.2486  0.6807
 2368SOL    HW218741   2.265   2.154  12.411  1.7763 -0.1022 -2.0771
 2369SOL     OW18742   1.035   1.246  15.866  0.1333  0.2243 -1.0569
 2369SOL    HW118743   1.128   1.267  15.858 -0.0508  0.9703 -1.2136
 2369SOL    HW218744   1.008   1.234  15.775 -0.2036 -2.1689 -0.6551
 2370SOL     OW18745   3.625   3.585   1.000 -0.2603 -0.6461 -0.1357
 2370SOL    HW118746   3.543   3.587   0.950  0.8554 -0.9536 -1.9918
 2370SOL    HW218747   3.681   3.590   0.922 -1.6197 -1.3280 -1.1558
 2371SOL     OW18748   2.173   2.360   7.660 -0.0574  0.1359  0.2189
 2371SOL    HW118749   2.147   2.445   7.627  1.9925  0.2132 -1.2033
 2371SOL    HW218750   2.113   2.293   7.624  0.1201  0.6981 -1.1145
 2372SOL     OW18751   2.520   4.607   9.832 -0.0310 -0.3912 -0.1413
 2372SOL    HW118752   2.567   4.630   9.751 -1.2052  0.3381 -0.6188
 2372SOL    HW218753   2.577   4.540   9.869 -0.1360 -0.9296 -0.9504
 2373SOL     OW18754   3.302   0.653   4.001 -0.4035  0.3858 -0.4422
 2373SOL    HW118755   3.368   0.608   3.948 -0.3819 -0.4446  0.3030
 2373SOL    HW218756   3.269   0.582   4.055  2.6368 -0.3240  0.4440
 2374SOL     OW18757   3.929   2.463   2.407 -0.2007 -0.1237  0.3699
 2374SOL    HW118758   3.893   2.438   2.492 -0.8525  1.1938  0.4882
 2374SOL    HW218759   3.953   2.556   2.414  0.5053 -0.4308  1.9575
 2375SOL     OW18760   1.836   2.410  13.994  0.5884  0.7626 -0.8098
 2375SOL    HW118761   1.823   2.315  13.986  0.5400  0.6595  0.4701
 2375SOL    HW218762   1.847   2.430  13.901  0.4173  0.2422 -0.9425
 2376SOL     OW18763   2.721   2.074  14.777 -0.4292 -0.8779 -0.7617
 2376SOL    HW118764   2.778   2.071  14.854 -0.3311  0.5761 -0.7730
 2376SOL    HW218765   2.753   2.152  14.731  2.3416 -0.0239  2.6085
 2377SOL     OW18766   2.920   0.136   7.802 -0.1566  0.1952  0.4692
 2377SOL    HW118767   2.866   0.103   7.730 -1.3357 -0.6970  1.7755
 2377SOL    HW218768   2.996   0.079   7.804 -0.7384 -0.5614  1.1395
 2378SOL     OW18769   3.247   4.343  16.297  0.0796 -0.4710  0.6745
 2378SOL    HW118770   3.290   4.271  16.344 -0.2060  0.6918  2.7111
 2378SOL    HW218771   3.265   4.322  16.206 -0.7785  2.1481 -0.1027
 2379SOL     OW18772   4.197   3.192  15.204 -0.2088  0.4467 -0.0370
 2379SOL    HW118773   4.116   3.203  15.152 -1.2334  2.0023  1.8807
 2379SOL    HW218774   4.165   3.179  15.293 -0.4896  0.4447 -0.1361
 2380SOL     OW18775   3.927   1.201   1.776  0.0281  0.7292  0.2064
 2380SOL    HW118776   3.966   1.270   1.829  1.6477  2.2581 -3.0030
 2380SOL    HW218777   3.948   1.243   1.693 -1.3753 -0.0482 -0.5459
 2381SOL     OW18778   1.329   0.029   6.322 -0.2552  0.4509 -0.2388
 2381SOL    HW118779   1.315   4.675   6.300 -0.1370  0.2430  0.5631
 2381SOL    HW218780   1.403   0.044   6.264 -0.1031  2.1129  0.3563
 2382SOL     OW18781   1.834   1.615   2.599  0.1474 -0.2714 -0.1653
 2382SOL    HW118782   1.749   1.634   2.560  1.1029 -0.9144 -2.5677
 2382SOL    HW218783   1.876   1.576   2.522 -1.3373 -1.4215 -0.3842
 2383SOL     OW18784   0.338   3.536  14.737 -0.2192  0.1337 -0.1606
 2383SOL    HW118785   0.415   3.590  14.758 -0.7139  1.2200 -1.1781
 2383SOL    HW218786   0.271   3.597  14.707  1.9863  2.1944 -0.8981
 2384SOL     OW18787   0.009   1.794  15.613  0.1247 -0.2102  0.4437
 2384SOL    HW118788   0.036   1.810  15.703  2.7032  0.1749 -0.4112
 2384SOL    HW218789   0.051   1.866  15.566  0.8874 -1.4124 -0.7356
 2385SOL     OW18790   3.178   3.042  17.381  0.0773 -0.7175  0.7063
 2385SOL    HW118791   3.203   3.134  17.370 -0.6851 -0.8039 -1.7215
 2385SOL    HW218792   3.140   3.048  17.468 -0.4081 -1.0105  0.5136
 2386SOL     OW18793   2.112   3.542   9.583 -0.5030  0.5703  0.1342
 2386SOL    HW118794   2.083   3.485   9.654 -0.5763  2.2996  1.4796
 2386SOL    HW218795   2.195   3.574   9.617  1.0798 -2.4308 -0.8813
 2387SOL     OW18796   0.238   0.387   0.932 -0.2400  0.0178 -0.0344
 2387SOL    HW118797   0.275   0.409   1.018  1.9752 -0.7650 -0.8084
 2387SOL    HW218798   0.217   0.295   0.946  0.6625 -0.0582  0.7837
 2388SOL     OW18799   1.490   0.961   9.693 -0.0406 -0.0232  0.1662
 2388SOL    HW118800   1.427   1.032   9.680 -0.8613 -1.0464 -1.5185
 2388SOL    HW218801   1.522   0.946   9.604  1.2085 -0.4774  0.6861
 2389SOL     OW18802   4.321   4.705   6.708  0.0788  0.4967 -0.4662
 2389SOL    HW118803   4.357   0.050   6.677  0.1034  0.1201 -1.4592
 2389SOL    HW218804   4.364   4.693   6.792 -0.6975 -0.7002 -0.2427
 2390SOL     OW18805   0.910   2.416  11.138  0.2484 -0.1745 -0.6066
 2390SOL    HW118806   0.859   2.485  11.181  1.3052 -0.3082  0.8455
 2390SOL    HW218807   0.921   2.349  11.205 -1.1906 -0.2345 -0.4226
 2391SOL     OW18808   2.275   3.778  13.557  0.1923 -0.2418  0.3741
 2391SOL    HW118809   2.359   3.818  13.533 -0.0673  0.5500  0.7895
 2391SOL    HW218810   2.236   3.859  13.592  1.3984 -0.8399  3.0993
 2392SOL     OW18811   0.087   3.198   6.609 -0.3062  0.3416 -0.3549
 2392SOL    HW118812   0.171   3.244   6.604 -0.3333  0.5937  1.7893
 2392SOL    HW218813   0.099   3.126   6.546  1.8628  2.0641 -1.9015
 2393SOL     OW18814   0.928   4.046   4.899  0.0258 -0.3367  0.1279
 2393SOL    HW118815   0.855   3.996   4.864 -0.1056 -0.8505  1.1259
 2393SOL    HW218816   0.897   4.067   4.987  0.8318  3.2894 -0.4693
 2394SOL     OW18817   4.694   3.579  14.188  0.2836  0.5671  0.5374
 2394SOL    HW118818   4.618   3.632  14.212  0.1016 -0.0203  1.2368
 2394SOL    HW218819   4.647   3.497  14.170  1.4026  0.2611 -1.0689
 2395SOL     OW18820   0.151   3.604   3.019  0.2316  0.0925 -0.1228
 2395SOL    HW118821   0.090   3.595   2.946 -0.8348  0.6502  0.6909
 2395SOL    HW218822   0.212   3.672   2.991  2.1051 -2.3636 -1.9187
 2396SOL     OW18823   3.210   2.866  12.779  0.2759  0.8300  0.1999
 2396SOL    HW118824   3.178   2.783  12.744 -0.2193  0.0753  2.4398
 2396SOL    HW218825   3.243   2.908  12.699  0.4728  0.0851 -0.1042
 2397SOL     OW18826   3.126   3.223   5.029 -0.5200  0.3525  0.1808
 2397SOL    HW118827   3.172   3.290   4.978 -0.6132  1.6419  1.7987
 2397SOL    HW218828   3.193   3.156   5.023 -0.0686  0.9018 -0.9666
 2398SOL     OW18829   2.759   4.581   1.022 -0.3421 -0.3720  0.1401
 2398SOL    HW118830   2.703   4.516   1.065  2.3105 -2.3898  0.4691
 2398SOL    HW218831   2.695   4.620   0.962  2.4358  2.4915 -0.9698
 2399SOL     OW18832   3.857   0.254   7.489 -0.1949 -0.4538  0.1403
 2399SOL    HW118833   3.944   0.294   7.493  0.2780 -1.6717  1.9880
 2399SOL    HW218834   3.806   0.306   7.551 -1.7027 -3.5114  1.4976
 2400SOL     OW18835   2.883   3.003  10.070  0.0180 -0.2725  0.4527
 2400SOL    HW118836   2.801   2.961  10.095  0.8283 -2.9935 -1.4868
 2400SOL    HW218837   2.894   2.963   9.984  0.5854  1.4250 -0.2555
 2401SOL     OW18838   4.145   2.300   6.989  0.1046 -0.0370  0.5329
 2401SOL    HW118839   4.120   2.321   6.899  0.9159 -0.1008  0.2892
 2401SOL    HW218840   4.154   2.388   7.026 -2.2099 -1.7241  5.0532
 2402SOL     OW18841   2.109   1.125  17.652 -0.1165  0.7199  0.4473
 2402SOL    HW118842   2.041   1.057  17.650  2.1012 -1.4614 -0.3961
 2402SOL    HW218843   2.158   1.110  17.571  0.4848 -0.6578  1.0629
 2403SOL     OW18844   3.047   0.664   3.879  0.4993  0.0553  0.3094
 2403SOL    HW118845   3.056   0.638   3.787 -1.8480 -0.6446  0.2729
 2403SOL    HW218846   3.132   0.651   3.920  1.4698  1.2596 -1.2988
 2404SOL     OW18847   2.725   1.992   8.060  0.1288  0.6796  0.1368
 2404SOL    HW118848   2.658   1.978   8.128  0.3931  1.0327  0.4689
 2404SOL    HW218849   2.698   1.929   7.993 -0.7057  1.0760  0.0917
 2405SOL     OW18850   3.887   4.501  15.898 -0.4372 -0.1141  0.3689
 2405SOL    HW118851   3.826   4.526  15.830  0.0854 -3.2231 -1.2569
 2405SOL    HW218852   3.883   4.565  15.969  0.5080  0.6843 -0.2980
 2406SOL     OW18853   2.157   4.129   2.233  0.5582  0.2334 -0.2663
 2406SOL    HW118854   2.204   4.212   2.229  0.4322  0.2236 -1.7216
 2406SOL    HW218855   2.065   4.157   2.227 -0.1282 -2.0210 -0.3024
 2407SOL     OW18856   2.946   2.847   6.063 -0.5499 -0.2042 -1.0590
 2407SOL    HW118857   2.861   2.861   6.104  0.2849  1.1657  0.1596
 2407SOL    HW218858   2.927   2.757   6.034 -0.5362 -1.1875  2.0472
 2408SOL     OW18859   1.604   1.178   3.335 -0.2097  0.1638  0.1420
 2408SOL    HW118860   1.553   1.240   3.284  0.0399  1.0025  0.9183
 2408SOL    HW218861   1.693   1.208   3.318  0.4970 -1.7071  0.4822
 2409SOL     OW18862   4.471   3.215   4.648 -0.4346  0.2489  0.1687
 2409SOL    HW118863   4.416   3.185   4.576  0.6394  0.4476 -0.7335
 2409SOL    HW218864   4.407   3.274   4.688 -0.8883 -0.1490  0.0199
 2410SOL     OW18865   2.769   3.900  11.016  0.4321  0.1120  0.4259
 2410SOL    HW118866   2.766   3.806  10.996  2.8583 -0.1702  1.4032
 2410SOL    HW218867   2.719   3.901  11.098 -0.7859 -0.3955 -0.3124
 2411SOL     OW18868   1.219   3.306   8.172  0.3577 -0.2657 -0.6718
 2411SOL    HW118869   1.248   3.219   8.144 -0.2842 -0.3259 -1.1506
 2411SOL    HW218870   1.209   3.349   8.087 -0.0598  2.1517  0.6032
 2412SOL     OW18871   1.803   0.189   2.464  0.1993 -0.7028 -0.1463
 2412SOL    HW118872   1.781   0.178   2.371  0.3189  1.3061 -0.4297
 2412SOL    HW218873   1.754   0.118   2.506 -1.0934 -0.9118 -2.0148
 2413SOL     OW18874   1.696   0.552   7.230 -0.1771 -0.2310 -0.5861
 2413SOL    HW118875   1.625   0.603   7.268  1.0913  0.7506  0.4874
 2413SOL    HW218876   1.742   0.513   7.305 -0.9340  0.0994  0.0553
 2414SOL     OW18877   4.079   3.776   7.039  0.0534 -0.2288 -0.3447
 2414SOL    HW118878   4.098   3.800   7.130  1.2712  2.0539 -1.1964
 2414SOL    HW218879   4.164   3.791   6.997 -0.7533  3.0051 -0.8324
 2415SOL     OW18880   1.760   1.206   4.217  0.1709 -0.1593  1.0138
 2415SOL    HW118881   1.773   1.111   4.212  2.3183  0.1162  1.6091
 2415SOL    HW218882   1.766   1.216   4.312  0.2741 -1.6857  1.1630
 2416SOL     OW18883   4.700   2.569   5.224  0.1383  0.4734 -0.1052
 2416SOL    HW118884   0.054   2.596   5.226  0.1331  0.4070  1.1634
 2416SOL    HW218885   4.686   2.562   5.130 -0.6503 -0.3478  0.0791
 2417SOL     OW18886   1.887   4.279   8.194 -0.2241  0.4550 -0.2723
 2417SOL    HW118887   1.926   4.264   8.280 -2.4602 -1.9029  0.3393
 2417SOL    HW218888   1.795   4.292   8.218  0.0185  1.0174  0.3379
 2418SOL     OW18889   0.183   2.476  12.671 -0.0713  0.3829 -0.0721
 2418SOL    HW118890   0.224   2.429  12.743 -4.2039 -0.2353  1.8515
 2418SOL    HW218891   0.109   2.419  12.653  1.5661 -1.9239  0.5253
 2419SOL     OW18892   4.259   3.565   8.839  0.0603  0.1557  0.1238
 2419SOL    HW118893   4.309   3.521   8.908  2.1088 -0.1658 -1.5334
 2419SOL    HW218894   4.294   3.516   8.764  0.4114  1.0306 -0.2739
 2420SOL     OW18895   2.301   2.016   4.117  0.5700  0.5241  0.0392
 2420SOL    HW118896   2.245   2.077   4.166  0.0361  0.9903 -1.1524
 2420SOL    HW218897   2.329   1.955   4.185  0.8982 -0.0641 -0.6257
 2421SOL     OW18898   0.653   1.381   7.488 -0.5398  0.0028 -0.1873
 2421SOL    HW118899   0.637   1.474   7.503 -0.5853  0.1400 -1.0825
 2421SOL    HW218900   0.724   1.380   7.424 -0.6688  1.0393 -0.3484
 2422SOL     OW18901   0.236   1.629   4.883 -0.3906 -0.5385  0.3826
 2422SOL    HW118902   0.165   1.571   4.909 -1.0542 -1.3278 -3.2308
 2422SOL    HW218903   0.199   1.714   4.906  0.9616  0.2634 -0.3797
 2423SOL     OW18904   2.432   0.082   8.837  0.1933  0.1513  0.5747
 2423SOL    HW118905   2.413   0.139   8.911  0.0688  3.5233 -2.0679
 2423SOL    HW218906   2.383   0.001   8.851  1.4330 -1.1463 -2.5823
 2424SOL     OW18907   3.655   0.957   3.374  0.2356 -0.4950  0.4447
 2424SOL    HW118908   3.622   1.031   3.324 -0.3822 -0.7267  0.5107
 2424SOL    HW218909   3.737   0.944   3.326  0.5371  0.3783  0.7249
 2425SOL     OW18910   0.607   3.104   5.379  0.3291  0.2374 -0.2305
 2425SOL    HW118911   0.533   3.043   5.378  0.8989 -0.4185 -1.5324
 2425SOL    HW218912   0.676   3.061   5.329  0.3212  0.4220 -0.4010
 2426SOL     OW18913   2.678   0.501   5.513 -0.2979  0.4610 -0.0518
 2426SOL    HW118914   2.615   0.551   5.461  0.6586  1.5641 -0.1543
 2426SOL    HW218915   2.760   0.539   5.483 -0.9817  2.0956  0.1679
 2427SOL     OW18916   4.655   3.997  13.710  0.0022 -0.0005 -0.1338
 2427SOL    HW118917   4.718   3.965  13.775  1.4789  4.4071  0.6334
 2427SOL    HW218918   4.610   3.918  13.681  1.6966 -0.7815 -0.6411
 2428SOL     OW18919   0.910   0.893   2.152 -0.5081 -0.7045  0.1235
 2428SOL    HW118920   0.846   0.920   2.087 -1.6579 -1.6277  0.8631
 2428SOL    HW218921   0.881   0.947   2.226  0.8619 -0.7790  0.7250
 2429SOL     OW18922   4.302   2.082   4.453  0.3135 -0.5908  0.0105
 2429SOL    HW118923   4.266   2.153   4.400  2.3462 -0.3314 -1.0118
 2429SOL    HW218924   4.228   2.064   4.511  0.7644 -1.7869  0.2224
 2430SOL     OW18925   3.358   1.789   4.111 -0.1027  0.4045 -0.5093
 2430SOL    HW118926   3.419   1.849   4.068 -0.4361  0.4981 -0.8508
 2430SOL    HW218927   3.381   1.804   4.203 -3.6010 -2.4885  0.8385
 2431SOL     OW18928   0.637   4.073   1.944  0.0420  0.0258 -0.2621
 2431SOL    HW118929   0.698   4.089   2.016 -2.1314 -0.4894  1.7065
 2431SOL    HW218930   0.639   4.161   1.907  0.6663 -1.0425 -2.7396
 2432SOL     OW18931   2.431   4.501   9.545  1.1660 -0.0059 -0.3222
 2432SOL    HW118932   2.486   4.566   9.589  1.4028  0.4239 -1.2648
 2432SOL    HW218933   2.457   4.418   9.586  0.6884  0.2938  0.5918
 2433SOL     OW18934   0.953   1.086  14.688 -0.5232 -0.4317  0.4121
 2433SOL    HW118935   0.909   1.061  14.769 -4.1270  0.6199 -1.2571
 2433SOL    HW218936   0.882   1.066  14.628  0.1573  0.2548 -0.6095
 2434SOL     OW18937   1.709   3.905   8.309  0.2938 -0.3392  0.0816
 2434SOL    HW118938   1.706   3.965   8.384  0.1243  1.2681 -1.2144
 2434SOL    HW218939   1.755   3.830   8.346  1.0825  0.0867 -0.0498
 2435SOL     OW18940   0.255   0.183  11.030 -0.0216  0.8046 -0.2167
 2435SOL    HW118941   0.245   0.226  10.945 -0.3125 -2.1237 -1.6650
 2435SOL    HW218942   0.350   0.177  11.032 -0.1236  0.4043  2.2968
 2436SOL     OW18943   3.407   2.045   6.304  0.0909 -0.2699 -0.1964
 2436SOL    HW118944   3.424   2.133   6.271  2.4595 -0.7241 -0.1395
 2436SOL    HW218945   3.431   1.994   6.227  0.8732 -0.4800  0.1843
 2437SOL     OW18946   2.470   1.057   8.179 -0.2189  0.3354 -0.5058
 2437SOL    HW118947   2.549   1.067   8.232 -0.1747  0.8840 -0.6803
 2437SOL    HW218948   2.497   0.992   8.114 -0.8047  0.9290 -1.3462
 2438SOL     OW18949   3.455   1.466   4.790 -0.2324  0.0555 -0.0797
 2438SOL    HW118950   3.435   1.455   4.697  1.8864 -1.4060 -0.3716
 2438SOL    HW218951   3.367   1.490   4.818 -1.5244 -1.8874 -2.4918
 2439SOL     OW18952   1.101   4.213   2.917 -0.0562 -0.0298 -0.3645
 2439SOL    HW118953   1.148   4.237   2.996 -0.2465  0.1951 -0.3210
 2439SOL    HW218954   1.171   4.169   2.869  0.8655  0.5839  0.4395
 2440SOL     OW18955   4.717   1.097   4.846  0.5450  0.1694  0.6266
 2440SOL    HW118956   0.035   1.160   4.892 -0.6086  1.0986  0.7723
 2440SOL    HW218957   4.731   1.129   4.756 -0.4988  0.0621  0.4302
 2441SOL     OW18958   2.077   2.235   6.118  0.5484 -0.0908  0.3668
 2441SOL    HW118959   2.002   2.190   6.155  0.8160  0.6243  1.7917
 2441SOL    HW218960   2.055   2.252   6.026  1.8613  1.3934  0.3131
 2442SOL     OW18961   2.420   3.882   1.537 -0.2245  0.2620 -0.2841
 2442SOL    HW118962   2.484   3.912   1.601 -0.7518  0.5649  0.0971
 2442SOL    HW218963   2.418   3.958   1.478  1.1974  0.3959 -0.1396
 2443SOL     OW18964   0.410   3.782   2.871  0.1528 -0.5161 -0.6895
 2443SOL    HW118965   0.481   3.846   2.875 -0.6522  0.4994 -2.5714
 2443SOL    HW218966   0.340   3.832   2.829  1.8410  0.8859 -1.8153
 2444SOL     OW18967   4.416   1.867   4.154  0.3396 -0.4439  0.3816
 2444SOL    HW118968   4.347   1.828   4.207 -0.6928  0.4248 -0.3383
 2444SOL    HW218969   4.488   1.809   4.180  1.8603  0.9516 -0.6475
 2445SOL     OW18970   4.329   3.065   2.554 -0.4160  0.0211 -0.0475
 2445SOL    HW118971   4.413   3.106   2.574 -0.3949 -0.0357 -0.0187
 2445SOL    HW218972   4.341   2.986   2.608  0.1134 -1.2343 -1.9873
 2446SOL     OW18973   1.539   3.829   7.370 -0.9324 -0.1945 -0.0573
 2446SOL    HW118974   1.589   3.747   7.366  0.0212  0.3412  0.8806
 2446SOL    HW218975   1.454   3.785   7.367  0.1396 -2.1117 -2.2925
 2447SOL     OW18976   4.405   1.345  15.128 -0.3284  0.1996  1.0338
 2447SOL    HW118977   4.455   1.363  15.049  0.0412 -2.2885  0.6889
 2447SOL    HW218978   4.464   1.386  15.191  1.4965 -0.8471 -0.0097
 2448SOL     OW18979   3.399   4.596   2.951 -0.4313 -0.2173 -0.2341
 2448SOL    HW118980   3.320   4.647   2.968  0.5030  1.5763 -1.2640
 2448SOL    HW218981   3.438   4.616   3.036 -4.8248 -0.5515  1.8397
 2449SOL     OW18982   3.721   3.376   8.258 -0.2276  0.3517 -0.8433
 2449SOL    HW118983   3.660   3.447   8.276 -1.2957 -0.6812 -0.4042
 2449SOL    HW218984   3.701   3.312   8.326  6.0689 -4.2038 -3.2795
 2450SOL     OW18985   4.517   3.541  13.028 -0.3355 -0.8516 -0.0017
 2450SOL    HW118986   4.580   3.577  13.091 -1.1164  1.0847 -0.3276
 2450SOL    HW218987   4.440   3.557  13.083  0.5481  0.5546  0.8157
 2451SOL     OW18988   4.724   1.869   7.804 -0.0136  0.6653  0.3643
 2451SOL    HW118989   4.689   1.958   7.807 -1.9656 -0.0825 -0.1996
 2451SOL    HW218990   0.013   1.852   7.714  1.4078 -1.5463  1.2244
 2452SOL     OW18991   2.749   3.142   9.016  0.0976  0.3237 -0.1886
 2452SOL    HW118992   2.810   3.158   9.089 -0.7366 -0.5495  0.6988
 2452SOL    HW218993   2.806   3.168   8.943  2.2373  0.1485  1.4254
 2453SOL     OW18994   2.442   0.054   7.300  0.2228 -0.4272 -0.3470
 2453SOL    HW118995   2.401   0.135   7.270 -0.9261 -1.2131 -0.9083
 2453SOL    HW218996   2.478   0.022   7.217  1.2041 -0.6495  0.1712
 2454SOL     OW18997   2.221   0.536  15.021  0.7290  0.2530  0.7442
 2454SOL    HW118998   2.286   0.558  15.088  1.4346  1.4758 -0.3628
 2454SOL    HW218999   2.223   0.612  14.964 -0.5078  2.3225  3.4136
 2455SOL     OW19000   1.609   1.598   1.395 -0.0092  0.4414  0.2879
 2455SOL    HW119001   1.654   1.609   1.479  0.0767  1.4318  0.1168
 2455SOL    HW219002   1.519   1.594   1.426 -0.1396 -1.5630 -0.3393
 2456SOL     OW19003   4.673   3.746   5.397 -0.3486 -0.3627 -0.0979
 2456SOL    HW119004   4.638   3.666   5.357  1.3644 -1.1661  0.0011
 2456SOL    HW219005   4.594   3.784   5.435  0.0320 -2.1727  2.5374
 2457SOL     OW19006   1.855   3.232   3.694  0.3613  0.1784  0.5577
 2457SOL    HW119007   1.886   3.147   3.724 -0.4255  0.6221  2.5901
 2457SOL    HW219008   1.785   3.202   3.636 -0.7604  1.4731  1.2353
 2458SOL     OW19009   1.713   2.313   3.248  0.2058  0.3206  0.3795
 2458SOL    HW119010   1.645   2.308   3.315  0.3096 -0.0882  0.4517
 2458SOL    HW219011   1.738   2.221   3.252 -0.2771  0.2222  1.1909
 2459SOL     OW19012   4.189   2.244  10.044  0.0568 -0.5058 -0.0549
 2459SOL    HW119013   4.149   2.317   9.997 -0.0748 -0.0554  0.7548
 2459SOL    HW219014   4.231   2.288  10.117  0.2888  0.2813 -0.6608
 2460SOL     OW19015   4.110   0.592  15.158 -0.2911  0.6160  0.1957
 2460SOL    HW119016   4.185   0.575  15.215  0.2922  0.8729 -0.5022
 2460SOL    HW219017   4.082   0.679  15.187  1.4474  0.4905  2.2585
 2461SOL     OW19018   3.963   3.135   1.130  0.3962  0.0375 -0.1067
 2461SOL    HW119019   3.958   3.177   1.045 -0.3377  1.3805  0.6019
 2461SOL    HW219020   3.872   3.122   1.155 -0.0652  3.2993 -0.1179
 2462SOL     OW19021   4.512   2.870   0.442  0.8005  0.0301 -0.4645
 2462SOL    HW119022   4.489   2.942   0.501 -0.8351 -0.9730  0.1185
 2462SOL    HW219023   4.445   2.806   0.469 -0.3262  0.7146 -1.6357
 2463SOL     OW19024   3.916   4.562   2.643 -1.2264 -0.6365 -0.1578
 2463SOL    HW119025   3.908   4.468   2.625 -0.3426 -0.7420  0.0077
 2463SOL    HW219026   3.926   4.554   2.738  2.0007 -1.5971 -0.5783
 2464SOL     OW19027   0.068   0.264   4.340  0.1901 -0.2315  0.4973
 2464SOL    HW119028   0.145   0.243   4.393 -0.7890  1.5179  2.5978
 2464SOL    HW219029   0.012   0.308   4.404  0.3603  0.7748 -0.0376
 2465SOL     OW19030   0.315   2.777   3.366 -0.2356  0.5618  0.2853
 2465SOL    HW119031   0.303   2.744   3.277  1.2496 -0.4058  0.4562
 2465SOL    HW219032   0.362   2.858   3.343 -1.3510  1.2293  0.3291
 2466SOL     OW19033   3.902   3.905   8.957 -0.1879 -0.3242  0.1817
 2466SOL    HW119034   3.894   4.000   8.958  1.9920 -0.1373 -0.8874
 2466SOL    HW219035   3.991   3.886   8.930 -0.7985 -2.4296 -0.3648
 2467SOL     OW19036   0.038   4.091   8.353  1.2409  0.0003 -0.3581
 2467SOL    HW119037   0.033   3.997   8.335  1.7770 -0.4323  1.7551
 2467SOL    HW219038   4.696   4.122   8.311 -0.0323  0.0908  2.1092
 2468SOL     OW19039   2.897   3.574  11.219 -0.3591 -0.0720 -0.4490
 2468SOL    HW119040   2.852   3.635  11.278 -0.2306  1.1686 -1.6308
 2468SOL    HW219041   2.965   3.548  11.281 -0.2446  1.8916  0.2547
 2469SOL     OW19042   4.342   2.442   8.908  0.0354 -0.3031  0.0860
 2469SOL    HW119043   4.379   2.397   8.832  0.7532  0.2038  0.1319
 2469SOL    HW219044   4.329   2.362   8.960 -3.2029  1.4353  1.9374
 2470SOL     OW19045   1.334   0.672   8.863 -0.5433 -0.2538  0.5372
 2470SOL    HW119046   1.314   0.614   8.936 -0.3213 -0.4294  0.4590
 2470SOL    HW219047   1.247   0.687   8.828 -0.6278 -0.1691  0.7873
 2471SOL     OW19048   3.459   1.747   8.548 -0.1988 -0.1142  0.1258
 2471SOL    HW119049   3.453   1.701   8.632 -3.7855  0.5478  0.2664
 2471SOL    HW219050   3.527   1.704   8.498 -0.3850 -1.8573  1.3903
 2472SOL     OW19051   1.542   4.450   7.302 -0.1159  0.1873  0.4508
 2472SOL    HW119052   1.605   4.395   7.350  0.0055  0.6184  0.7901
 2472SOL    HW219053   1.487   4.477   7.376 -0.1366  3.4246 -0.7341
 2473SOL     OW19054   2.260   2.826   2.972  0.2306  0.4778  0.2552
 2473SOL    HW119055   2.270   2.737   2.936  2.0343  0.8853 -0.2258
 2473SOL    HW219056   2.313   2.873   2.908 -0.5396 -0.8795 -1.3741
 2474SOL     OW19057   4.078   1.340   6.649  0.0417  0.6256  0.5825
 2474SOL    HW119058   4.088   1.377   6.561 -1.0459  0.9336  0.5772
 2474SOL    HW219059   4.137   1.392   6.703 -1.0132 -0.3588  2.6741
 2475SOL     OW19060   2.493   3.869   4.170  0.3080  0.0162  0.3803
 2475SOL    HW119061   2.558   3.819   4.121  0.3090  1.0014 -0.6197
 2475SOL    HW219062   2.415   3.820   4.147  0.6871 -2.1206  3.7093
 2476SOL     OW19063   2.593   2.188   6.069  0.0014 -0.2796  0.0080
 2476SOL    HW119064   2.511   2.140   6.060  0.8967 -1.5724 -1.3075
 2476SOL    HW219065   2.652   2.117   6.045  0.2794  0.1809 -0.6831
 2477SOL     OW19066   2.422   2.254   1.030 -0.0146 -0.3734  0.0334
 2477SOL    HW119067   2.339   2.292   1.003  0.0931 -1.0530 -1.2503
 2477SOL    HW219068   2.410   2.228   1.121 -1.9552 -0.3177 -0.2170
 2478SOL     OW19069   3.827   3.279   3.805 -0.4731  0.2643  0.3337
 2478SOL    HW119070   3.867   3.255   3.888  0.4437  1.4136  0.2200
 2478SOL    HW219071   3.741   3.236   3.805  0.7553 -2.1459  0.4605
 2479SOL     OW19072   0.869   3.636   8.595  0.1241 -0.2497 -0.2991
 2479SOL    HW119073   0.817   3.558   8.615  1.3431 -0.9153  0.3211
 2479SOL    HW219074   0.802   3.685   8.548 -0.3087  1.4010  2.0088
 2480SOL     OW19075   1.880   2.019   5.536  0.6707  0.0145  0.7440
 2480SOL    HW119076   1.897   1.933   5.575  1.4520 -0.0213  0.3227
 2480SOL    HW219077   1.792   2.041   5.566  1.6474  0.6379  3.2330
 2481SOL     OW19078   0.464   1.150   2.557 -0.1244  0.2522  0.0985
 2481SOL    HW119079   0.384   1.141   2.608 -0.1364  1.5338  0.3116
 2481SOL    HW219080   0.490   1.240   2.576  2.0836  0.4181 -3.7170
 2482SOL     OW19081   3.052   0.283  15.002  0.1348 -0.6161  0.3484
 2482SOL    HW119082   3.015   0.255  15.086 -0.1558 -0.3182  0.3167
 2482SOL    HW219083   2.970   0.291  14.954  0.5124  1.6802  0.0751
 2483SOL     OW19084   4.330   1.316  15.829  0.2453  0.1369 -0.1658
 2483SOL    HW119085   4.304   1.241  15.775 -1.2336  0.4114  0.1707
 2483SOL    HW219086   4.392   1.357  15.769  0.9930 -0.1589  0.4088
 2484SOL     OW19087   2.783   1.174   4.178  0.0690  0.5050  0.3936
 2484SOL    HW119088   2.726   1.143   4.248 -0.5333  2.9955  1.0005
 2484SOL    HW219089   2.726   1.249   4.161  0.0686  0.7209  1.3670
 2485SOL     OW19090   2.995   0.127   9.765 -0.4540  0.2598 -0.5021
 2485SOL    HW119091   2.920   0.149   9.710 -1.7414 -1.8529  0.4075
 2485SOL    HW219092   3.063   0.105   9.701 -0.0696 -1.0289  0.3350
 2486SOL     OW19093   1.076   3.296  12.185  0.5703 -0.3929 -0.8488
 2486SOL    HW119094   1.148   3.233  12.181 -0.9997 -2.2190 -0.3861
 2486SOL    HW219095   1.091   3.354  12.111  0.9377  1.0032  0.3155
 2487SOL     OW19096   3.008   0.738  13.859 -0.6743 -0.4643 -0.0263
 2487SOL    HW119097   3.076   0.740  13.926 -1.4198  1.3169  0.6916
 2487SOL    HW219098   3.021   0.828  13.829  0.7241 -1.0568 -1.2079
 2488SOL     OW19099   1.535   2.668   3.233 -0.3264  0.2105 -0.0112
 2488SOL    HW119100   1.608   2.634   3.286 -0.5001  1.0675  0.7978
 2488SOL    HW219101   1.573   2.736   3.177 -0.0248 -1.0426 -1.3052
 2489SOL     OW19102   3.513   1.860   7.453 -0.4813  0.4705 -0.4094
 2489SOL    HW119103   3.524   1.894   7.364  0.3128 -0.4116 -0.6596
 2489SOL    HW219104   3.460   1.928   7.494  0.0183  1.0526 -0.7219
 2490SOL     OW19105   4.528   2.329   4.009  0.2368  0.3072 -0.3982
 2490SOL    HW119106   4.516   2.289   3.923  1.8258 -1.7108  0.3169
 2490SOL    HW219107   4.492   2.260   4.066  0.4793 -0.1477 -0.7921
 2491SOL     OW19108   3.447   0.323   7.650 -0.0288  0.4280  0.0975
 2491SOL    HW119109   3.431   0.406   7.604 -3.7867 -1.1729 -1.4915
 2491SOL    HW219110   3.364   0.315   7.697 -0.7685 -1.1512 -1.4722
 2492SOL     OW19111   1.152   2.471  17.678 -0.3068  0.0728 -0.1674
 2492SOL    HW119112   1.070   2.461  17.727  0.0778  0.7027  0.6024
 2492SOL    HW219113   1.112   2.441  17.595  0.0408 -0.9338  0.0269
 2493SOL     OW19114   2.567   0.191   7.506 -0.4765  0.0984  0.0641
 2493SOL    HW119115   2.536   0.142   7.430 -0.2564 -3.1211  2.0536
 2493SOL    HW219116   2.495   0.198   7.568 -1.3836 -0.3208 -0.9393
 2494SOL     OW19117   4.631   4.299   4.009 -0.3501  0.0445 -0.3020
 2494SOL    HW119118   4.649   4.215   3.966  3.4175 -0.9021  3.0648
 2494SOL    HW219119   4.541   4.301   4.040 -1.2394 -2.1626 -2.7323
 2495SOL     OW19120   0.912   0.207  14.704  0.4154 -0.3852 -0.1333
 2495SOL    HW119121   0.997   0.168  14.681 -0.8890 -1.7899 -2.4819
 2495SOL    HW219122   0.859   0.188  14.627 -0.5265 -1.5770  0.8261
 2496SOL     OW19123   1.778   3.954  17.063 -0.9558 -0.2289  0.2857
 2496SOL    HW119124   1.709   3.956  16.997 -0.9541  2.1388  0.3695
 2496SOL    HW219125   1.807   4.045  17.058 -0.4298 -0.5348 -2.5988
 2497SOL     OW19126   1.389   4.339  12.600  0.1289  0.3202  0.1755
 2497SOL    HW119127   1.418   4.355  12.510  2.8491 -1.4760  0.7128
 2497SOL    HW219128   1.445   4.267  12.630 -0.5665 -0.0961  0.4725
 2498SOL     OW19129   4.388   4.333   5.780  0.0695 -0.4722  0.7526
 2498SOL    HW119130   4.299   4.353   5.752  0.4426 -1.2451 -0.9372
 2498SOL    HW219131   4.416   4.275   5.710  0.5675  2.4695 -1.4575
 2499SOL     OW19132   2.124   0.231   3.653  0.7397 -0.2863 -0.5009
 2499SOL    HW119133   2.162   0.145   3.641  0.3143 -0.5829  0.2646
 2499SOL    HW219134   2.137   0.233   3.748 -0.9114 -2.6949 -0.2298
 2500SOL     OW19135   3.364   3.136  16.689  0.1823  0.2582  0.0314
 2500SOL    HW119136   3.324   3.098  16.768  0.5276 -0.7269 -0.2644
 2500SOL    HW219137   3.437   3.182  16.730  0.1311 -0.2384  0.6828
 2501SOL     OW19138   1.303   3.006  17.682  0.0471  0.0256  0.9064
 2501SOL    HW119139   1.383   3.033  17.638 -0.1724  0.9126  1.0649
 2501SOL    HW219140   1.324   2.919  17.716  0.7853  0.7400  2.2488
 2502SOL     OW19141   0.365   1.568   3.414 -0.1825  0.0917  0.8553
 2502SOL    HW119142   0.393   1.479   3.437  1.1545 -0.2439 -2.1410
 2502SOL    HW219143   0.333   1.546   3.327 -0.9512 -0.4565  1.2732
 2503SOL     OW19144   3.577   4.050  15.718  0.4621 -0.2936  1.0166
 2503SOL    HW119145   3.615   3.990  15.782  0.2738 -1.4445  0.0509
 2503SOL    HW219146   3.515   4.003  15.662  0.2972 -0.5919  1.4521
 2504SOL     OW19147   0.492   1.686   6.390  0.5810  0.3288  0.2559
 2504SOL    HW119148   0.428   1.626   6.429 -0.5133  0.4097 -1.4186
 2504SOL    HW219149   0.440   1.720   6.317 -0.2372 -2.4585 -0.4540
 2505SOL     OW19150   0.786   0.132   0.922 -0.2356 -0.2741  0.5954
 2505SOL    HW119151   0.787   0.227   0.912 -1.1749 -0.5720 -2.4516
 2505SOL    HW219152   0.792   0.116   1.016 -0.6875  1.6097  0.9384
 2506SOL     OW19153   3.015   2.827   4.603  0.1427 -0.1517 -0.3971
 2506SOL    HW119154   3.099   2.857   4.567  0.5535 -0.2455  0.4843
 2506SOL    HW219155   2.978   2.807   4.517 -0.4910 -2.5574  0.4320
 2507SOL     OW19156   2.605   4.644  15.209  0.0050 -0.3222 -0.2071
 2507SOL    HW119157   2.642   4.572  15.260  0.4204  0.7880  1.0516
 2507SOL    HW219158   2.510   4.628  15.211 -0.1933  0.4912 -2.7527
 2508SOL     OW19159   0.416   0.873   0.201  0.1985  0.1865  0.4065
 2508SOL    HW119160   0.404   0.959   0.240 -0.6565 -0.0470  0.6622
 2508SOL    HW219161   0.505   0.845   0.223  0.0318  0.5717  1.5424
 2509SOL     OW19162   3.183   0.585   6.377  0.1319  0.6725 -0.1864
 2509SOL    HW119163   3.108   0.565   6.434  0.6819 -1.8705 -0.3241
 2509SOL    HW219164   3.246   0.599   6.448  0.8584  3.0638 -1.2992
 2510SOL     OW19165   2.725   2.620   4.336 -0.1645 -0.2086  0.2963
 2510SOL    HW119166   2.673   2.606   4.256 -0.0394 -1.0269  0.3546
 2510SOL    HW219167   2.735   2.533   4.375  1.9963  0.8376  2.0332
 2511SOL     OW19168   1.638   2.832   6.228  0.6705 -0.3173  0.2065
 2511SOL    HW119169   1.704   2.764   6.243  1.6952  0.7294  0.4391
 2511SOL    HW219170   1.671   2.894   6.293  1.0586  0.2240 -0.4982
 2512SOL     OW19171   1.815   1.152   7.124  0.2878  0.2735  0.3610
 2512SOL    HW119172   1.800   1.058   7.130  0.8361  0.1595 -0.0186
 2512SOL    HW219173   1.733   1.180   7.083 -0.2180 -0.9242  0.5784
 2513SOL     OW19174   3.562   2.564  10.929 -0.0487 -0.0351 -0.8004
 2513SOL    HW119175   3.582   2.588  10.839  4.0370 -2.8259 -0.6111
 2513SOL    HW219176   3.651   2.560  10.963  0.2042 -0.3870 -1.5129
 2514SOL     OW19177   2.237   3.357   2.536  0.9327  0.5957  0.2648
 2514SOL    HW119178   2.303   3.320   2.594  1.5484 -1.6141 -1.8474
 2514SOL    HW219179   2.210   3.277   2.492  0.4853  1.5498 -1.2112
 2515SOL     OW19180   3.230   1.096   6.635 -0.4270 -0.0464  0.1989
 2515SOL    HW119181   3.265   1.051   6.711 -0.3598 -1.6154 -0.7725
 2515SOL    HW219182   3.184   1.020   6.600 -0.7103 -0.0561  0.5895
 2516SOL     OW19183   4.295   2.005   3.885  0.2659 -0.7246  0.1849
 2516SOL    HW119184   4.338   1.935   3.836 -0.9985 -1.3790  0.0239
 2516SOL    HW219185   4.216   1.972   3.927 -0.8325  1.6052 -0.0507
 2517SOL     OW19186   2.832   4.138   0.095 -0.1200  0.2043  0.4243
 2517SOL    HW119187   2.866   4.204   0.156 -2.7523  1.5582  0.4535
 2517SOL    HW219188   2.744   4.175   0.081  0.1220  0.7410  0.3185
 2518SOL     OW19189   2.730   4.462   4.314 -0.2644  0.4950 -0.0322
 2518SOL    HW119190   2.799   4.396   4.309 -2.0817 -1.3748 -0.3655
 2518SOL    HW219191   2.681   4.434   4.392 -0.3709  0.5904 -0.0648
 2519SOL     OW19192   4.014   2.732  15.784  0.0616 -0.2268  0.0931
 2519SOL    HW119193   4.061   2.653  15.811  0.0883 -0.4954 -0.7194
 2519SOL    HW219194   3.926   2.702  15.809  1.2967 -5.0764 -1.3126
 2520SOL     OW19195   4.644   3.374  12.712  0.0466 -0.5870 -0.7694
 2520SOL    HW119196   4.594   3.321  12.774 -0.8220  0.4626 -0.5763
 2520SOL    HW219197   4.613   3.463  12.728  1.9795 -0.2029  0.8334
 2521SOL     OW19198   2.784   3.454   4.920 -0.5384 -0.1229  0.3166
 2521SOL    HW119199   2.819   3.366   4.904 -0.6755 -0.5068  2.1387
 2521SOL    HW219200   2.781   3.454   5.016  0.7048  0.5302  0.3573
 2522SOL     OW19201   4.360   0.533   5.070 -0.0491  0.7744 -0.1808
 2522SOL    HW119202   4.420   0.566   5.136  0.3260 -0.2312 -0.0132
 2522SOL    HW219203   4.375   0.586   4.992 -2.6871 -0.0853 -1.2746
 2523SOL     OW19204   4.216   2.162   6.667 -0.1245  0.5853  0.1263
 2523SOL    HW119205   4.279   2.192   6.732  0.6637 -0.4073 -0.1711
 2523SOL    HW219206   4.149   2.230   6.674  1.2180  1.6072  2.7724
 2524SOL     OW19207   1.531   3.289   4.980 -0.2401  0.4655  0.2823
 2524SOL    HW119208   1.440   3.261   4.986  0.0344 -0.0616  1.8955
 2524SOL    HW219209   1.527   3.367   5.034  0.7109 -0.7048  2.0436
 2525SOL     OW19210   3.662   2.474  17.301  0.5053  0.0514 -0.7961
 2525SOL    HW119211   3.568   2.468  17.285 -0.3322  0.1262  4.1443
 2525SOL    HW219212   3.647   2.482  17.395 -0.5662 -1.4500 -0.8507
 2526SOL     OW19213   1.059   1.689   5.448  0.1660  0.0723  0.5184
 2526SOL    HW119214   1.104   1.765   5.485 -0.8779  1.3073 -0.7168
 2526SOL    HW219215   1.088   1.615   5.501 -0.3973  0.2059  1.0130
 2527SOL     OW19216   4.186   2.824   3.827  0.2346  0.4702  0.9461
 2527SOL    HW119217   4.118   2.860   3.769  0.6216 -0.3987 -0.0492
 2527SOL    HW219218   4.151   2.738   3.852  0.5540  0.5998  1.8295
 2528SOL     OW19219   2.638   0.770   3.418  0.4243 -0.2595  0.1959
 2528SOL    HW119220   2.602   0.855   3.443 -0.4241 -1.4285  2.9987
 2528SOL    HW219221   2.565   0.712   3.442  0.6972 -0.6600  0.0605
 2529SOL     OW19222   4.069   4.138   9.297 -0.4272  0.0617  0.3427
 2529SOL    HW119223   4.146   4.083   9.310 -0.1331  0.4852  0.3945
 2529SOL    HW219224   4.081   4.169   9.208 -0.5010 -1.5057 -0.2014
 2530SOL     OW19225   1.729   1.059  14.176  0.0309 -0.4553 -0.1896
 2530SOL    HW119226   1.822   1.079  14.177 -0.3976  1.5310 -0.1408
 2530SOL    HW219227   1.723   1.026  14.266 -3.0805  1.5514  0.3637
 2531SOL     OW19228   2.109   4.181  14.050  0.6527  0.0962  0.4112
 2531SOL    HW119229   2.046   4.171  13.978 -0.1105 -0.2460  1.1334
 2531SOL    HW219230   2.054   4.152  14.122  0.8702 -3.0843 -0.6871
 2532SOL     OW19231   1.176   4.033  16.168  0.1175 -0.6987  0.5894
 2532SOL    HW119232   1.180   3.992  16.254  2.8894  1.0833  1.3255
 2532SOL    HW219233   1.127   3.971  16.115  1.0004  0.1930 -1.2614
 2533SOL     OW19234   3.258   0.725   3.437  0.4692 -0.6109 -0.0422
 2533SOL    HW119235   3.228   0.634   3.443 -0.5673 -0.2215  0.6764
 2533SOL    HW219236   3.181   0.776   3.415  0.3276 -0.8863 -0.1842
 2534SOL     OW19237   3.841   3.194  12.998  0.4356  0.3424 -0.5434
 2534SOL    HW119238   3.749   3.202  12.974  0.2448 -0.0434  0.0447
 2534SOL    HW219239   3.857   3.265  13.061  1.6311 -1.1774  0.8776
 2535SOL     OW19240   4.288   3.685  16.644 -0.5892 -0.3170 -0.5222
 2535SOL    HW119241   4.257   3.665  16.555  0.9465 -3.2295 -0.3991
 2535SOL    HW219242   4.380   3.661  16.637 -0.4788  0.2916 -1.1050
 2536SOL     OW19243   4.353   0.761   7.183  0.1975  0.7636  0.0044
 2536SOL    HW119244   4.275   0.708   7.202 -0.9781  2.0740 -1.2248
 2536SOL    HW219245   4.324   0.830   7.124  2.4216 -0.2621 -2.3047
 2537SOL     OW19246   0.876   1.445   1.561 -0.1193  0.3834  0.4656
 2537SOL    HW119247   0.914   1.526   1.528 -0.2206  0.8130  1.3881
 2537SOL    HW219248   0.817   1.429   1.488 -0.6724 -2.0075  1.4359
 2538SOL     OW19249   0.083   1.777   7.557 -0.2842  0.4335 -0.1768
 2538SOL    HW119250   0.020   1.794   7.487 -0.1623  1.6441  0.0043
 2538SOL    HW219251   0.159   1.831   7.535  1.1483 -1.1328  0.9192
 2539SOL     OW19252   3.233   3.635   5.485 -0.6629 -0.6741  0.5239
 2539SOL    HW119253   3.296   3.704   5.501 -1.2938 -0.0317  0.2222
 2539SOL    HW219254   3.295   3.562   5.485  2.1952  1.7889  0.9324
 2540SOL     OW19255   0.729   4.703   4.294  0.1390  0.2984  0.2135
 2540SOL    HW119256   0.704   0.049   4.257 -0.3436  0.0161 -0.1100
 2540SOL    HW219257   0.685   4.641   4.235 -1.0815  1.3050  0.0917
 2541SOL     OW19258   2.690   2.593   4.720  0.4446 -0.2292  0.7437
 2541SOL    HW119259   2.751   2.591   4.646 -1.2552 -2.8796 -0.5783
 2541SOL    HW219260   2.618   2.543   4.683  0.1778  1.2527 -0.7008
 2542SOL     OW19261   0.874   2.017  16.960 -0.1251  0.2167 -0.4087
 2542SOL    HW119262   0.916   1.969  17.032  0.3248 -0.7286 -1.3007
 2542SOL    HW219263   0.910   2.106  16.968  1.5382 -0.7615  3.0603
 2543SOL     OW19264   2.140   1.921   6.072 -0.3371 -0.1996  0.6284
 2543SOL    HW119265   2.046   1.913   6.054  0.2549 -1.3756 -1.9280
 2543SOL    HW219266   2.165   1.828   6.065  0.3001  0.0911 -1.0434
 2544SOL     OW19267   0.840   2.511   5.737 -0.1841 -0.4726 -0.6412
 2544SOL    HW119268   0.917   2.563   5.715 -0.3458  0.2213  0.4347
 2544SOL    HW219269   0.875   2.431   5.776  0.9276  0.5597  0.4775
 2545SOL     OW19270   2.901   1.892   5.184  0.0432  0.4810 -0.0803
 2545SOL    HW119271   2.926   1.947   5.110 -1.4999  2.0392  0.5618
 2545SOL    HW219272   2.966   1.823   5.172  0.2435  0.5217  0.7558
 2546SOL     OW19273   2.192   3.825   9.915 -0.3409 -0.2448 -0.0097
 2546SOL    HW119274   2.226   3.832  10.004 -1.9688  0.2304  0.5742
 2546SOL    HW219275   2.101   3.853   9.926 -0.7074 -0.3399 -2.6516
 2547SOL     OW19276   1.478   0.936   7.072 -0.3600  0.0159  0.0513
 2547SOL    HW119277   1.472   0.943   6.977 -0.6344 -0.6717  0.0132
 2547SOL    HW219278   1.422   0.858   7.073 -1.3976  0.7845  1.2580
 2548SOL     OW19279   4.481   3.285  12.934 -0.0911 -0.6556 -0.2064
 2548SOL    HW119280   4.387   3.271  12.947  0.1058 -2.4760 -0.8408
 2548SOL    HW219281   4.491   3.369  12.980 -0.8460 -1.4910  1.4682
 2549SOL     OW19282   2.792   3.687  11.479 -0.4451 -0.5155  0.0319
 2549SOL    HW119283   2.700   3.679  11.455 -0.2431 -0.0280 -0.8906
 2549SOL    HW219284   2.803   3.603  11.524  0.9462  0.4912  1.5865
 2550SOL     OW19285   2.762   2.814   4.028 -0.2021  0.4596 -0.4570
 2550SOL    HW119286   2.721   2.728   4.017  1.2091 -0.3998  0.9873
 2550SOL    HW219287   2.688   2.869   4.004  1.7570  1.8831 -3.2727
 2551SOL     OW19288   1.451   0.788   4.966 -0.2070 -0.5022 -0.2335
 2551SOL    HW119289   1.525   0.788   4.905  1.1720 -1.3330  1.4055
 2551SOL    HW219290   1.503   0.752   5.038  1.0946  0.2838 -0.7769
 2552SOL     OW19291   2.554   3.942   5.869 -0.1329 -0.5162  0.1900
 2552SOL    HW119292   2.570   4.015   5.929 -0.4476 -1.0005  0.8657
 2552SOL    HW219293   2.586   3.866   5.919 -1.0935 -2.7516 -2.6034
 2553SOL     OW19294   1.154   1.386   7.974  0.0988  0.1500  0.1702
 2553SOL    HW119295   1.171   1.468   7.929  1.2532  0.6885  1.5636
 2553SOL    HW219296   1.241   1.348   7.987 -0.9129 -1.6873  1.6950
 2554SOL     OW19297   2.860   3.705   1.650 -0.3850 -1.0503  0.1167
 2554SOL    HW119298   2.953   3.724   1.635 -1.1649  2.2833 -0.3911
 2554SOL    HW219299   2.851   3.710   1.745 -0.7446 -0.2520  0.0404
 2555SOL     OW19300   3.568   0.824   6.231  0.3508 -0.1773  0.2329
 2555SOL    HW119301   3.597   0.758   6.167 -0.9980 -0.4819 -0.0697
 2555SOL    HW219302   3.645   0.880   6.224  1.2530 -1.3793  0.3502
 2556SOL     OW19303   0.961   2.180  11.440 -1.0833  0.0410 -0.5040
 2556SOL    HW119304   1.007   2.262  11.461 -0.9431 -0.0199 -0.5758
 2556SOL    HW219305   0.901   2.181  11.515 -0.2539  0.5277  0.1487
 2557SOL     OW19306   0.856   3.309   0.752 -0.0893  0.3535  0.3524
 2557SOL    HW119307   0.822   3.302   0.663  0.5686  2.4290 -0.0728
 2557SOL    HW219308   0.871   3.403   0.764  0.6065  0.6869 -3.0331
 2558SOL     OW19309   4.233   4.095   7.674 -0.0809 -0.0819  0.0996
 2558SOL    HW119310   4.153   4.051   7.648 -0.1762  0.1098  0.0697
 2558SOL    HW219311   4.204   4.186   7.674  0.9441  0.2545  1.4893
 2559SOL     OW19312   4.482   0.328  15.164  0.5001  0.1411  0.1925
 2559SOL    HW119313   4.412   0.262  15.163 -0.6001  1.2753  1.5189
 2559SOL    HW219314   4.511   0.319  15.255  1.7393 -0.5211 -0.2736
 2560SOL     OW19315   0.970   3.532  13.571  0.2194 -0.0082  0.3130
 2560SOL    HW119316   0.894   3.574  13.611 -1.4812  0.0872 -3.0195
 2560SOL    HW219317   1.023   3.507  13.647  0.6337 -0.8256 -0.2453
 2561SOL     OW19318   3.153   3.727   2.697 -0.0584  0.5173  0.2839
 2561SOL    HW119319   3.058   3.722   2.712 -0.0399  2.0531  0.9450
 2561SOL    HW219320   3.158   3.821   2.680  1.3985  0.5050  0.6150
 2562SOL     OW19321   3.050   3.421  11.417  0.2001  0.0954  0.0821
 2562SOL    HW119322   3.125   3.416  11.358  1.9245  0.1973  2.2598
 2562SOL    HW219323   3.097   3.383  11.492  0.9830  1.2509  0.1879
 2563SOL     OW19324   4.335   0.965  14.266  0.4422  0.4036  0.1652
 2563SOL    HW119325   4.350   0.952  14.172 -1.9393 -1.2699  0.0025
 2563SOL    HW219326   4.352   0.874  14.290  2.4665  0.1030 -2.3772
 2564SOL     OW19327   1.366   2.136   5.401  0.0475 -0.4915  0.1513
 2564SOL    HW119328   1.336   2.045   5.399  0.3034 -0.5450 -0.9843
 2564SOL    HW219329   1.279   2.176   5.409  0.1426 -0.6594  2.1209
 2565SOL     OW19330   0.642   0.424  13.700  0.0491  0.0113 -0.5120
 2565SOL    HW119331   0.614   0.424  13.791  2.1986  0.8187  0.1372
 2565SOL    HW219332   0.628   0.331  13.684  1.0764 -0.5144  1.7812
 2566SOL     OW19333   0.974   2.150   2.712 -0.1783 -0.1836 -0.4340
 2566SOL    HW119334   0.960   2.099   2.791  0.9302 -0.0728 -0.1705
 2566SOL    HW219335   1.067   2.144   2.693  0.0834 -0.7588  1.0656
 2567SOL     OW19336   0.371   2.462   7.649  0.3696 -0.1833  0.4890
 2567SOL    HW119337   0.304   2.462   7.717  1.0000  0.9065  1.1042
 2567SOL    HW219338   0.328   2.429   7.570 -0.0145  0.5334  0.3992
 2568SOL     OW19339   1.662   4.571  14.849 -0.0896 -0.9269 -0.8737
 2568SOL    HW119340   1.678   4.517  14.927 -0.6344 -0.7176 -0.6203
 2568SOL    HW219341   1.752   4.604  14.839 -0.8112  1.3008  0.0031
 2569SOL     OW19342   3.168   0.272   6.494  0.1471  0.1942 -0.6248
 2569SOL    HW119343   3.086   0.315   6.471 -1.0114 -1.1161  1.0180
 2569SOL    HW219344   3.185   0.306   6.582 -2.4568 -1.1517  0.4225
 2570SOL     OW19345   0.330   1.391   7.445  0.4034 -0.5563  0.1181
 2570SOL    HW119346   0.316   1.359   7.535 -0.0877 -1.6147 -0.3354
 2570SOL    HW219347   0.333   1.485   7.459 -0.4394 -0.8071  1.9610
 2571SOL     OW19348   3.396   3.577  14.570 -0.1140 -0.3516  0.5198
 2571SOL    HW119349   3.339   3.616  14.503 -1.0647 -0.6123  1.1816
 2571SOL    HW219350   3.452   3.524  14.513 -1.2673  0.0679 -1.0097
 2572SOL     OW19351   1.067   4.501   2.049  0.0068  0.3683 -0.5628
 2572SOL    HW119352   1.105   4.482   2.136  0.5333  1.1034 -0.6259
 2572SOL    HW219353   1.122   4.451   1.989  1.2629 -1.2647  1.9266
 2573SOL     OW19354   4.008   0.489   3.506  0.3559  0.6157  0.0420
 2573SOL    HW119355   4.088   0.458   3.549  1.0573  0.8082 -1.1349
 2573SOL    HW219356   3.991   0.402   3.469  1.7676  1.1397 -1.7888
 2574SOL     OW19357   0.163   4.071   3.459 -0.3819 -0.5203 -0.6970
 2574SOL    HW119358   0.155   4.004   3.392  1.2593 -0.4417 -0.9831
 2574SOL    HW219359   0.231   4.041   3.520 -0.3657  1.7843  0.4048
 2575SOL     OW19360   2.208   4.003   7.494 -0.5213  0.0639  0.8131
 2575SOL    HW119361   2.139   4.004   7.427  1.2029  1.2176 -0.9433
 2575SOL    HW219362   2.159   3.978   7.572 -0.6066 -0.6990  0.5121
 2576SOL     OW19363   1.290   0.984  12.880 -0.2847  0.3712  0.1445
 2576SOL    HW119364   1.267   1.076  12.892 -0.1736  0.3780  0.3105
 2576SOL    HW219365   1.211   0.931  12.878  0.9396 -1.4419 -0.3077
 2577SOL     OW19366   0.333   0.599   2.794 -0.1372  0.0117 -0.3710
 2577SOL    HW119367   0.384   0.645   2.727 -4.4003  3.1954 -1.4446
 2577SOL    HW219368   0.370   0.512   2.778 -1.0178 -0.1327 -1.6593
 2578SOL     OW19369   3.192   0.682   4.887 -0.2217 -0.3016 -0.1145
 2578SOL    HW119370   3.204   0.629   4.808  0.5570 -1.1362  0.5633
 2578SOL    HW219371   3.190   0.614   4.955 -0.8964  0.5139  0.6738
 2579SOL     OW19372   3.739   4.178   4.501  0.0367 -0.3218  0.0664
 2579SOL    HW119373   3.748   4.110   4.434  1.3021 -0.4222  0.3380
 2579SOL    HW219374   3.782   4.141   4.577  0.8219 -0.2611 -0.3499
 2580SOL     OW19375   1.822   1.813   3.613  0.5365 -0.4063  0.7325
 2580SOL    HW119376   1.748   1.866   3.582  1.4530  1.4123  1.6653
 2580SOL    HW219377   1.871   1.882   3.658 -0.1072  0.4581  0.1111
 2581SOL     OW19378   3.887   4.249  15.241 -0.4574 -0.2067  0.0795
 2581SOL    HW119379   3.846   4.187  15.181 -0.4279 -0.5857  0.4575
 2581SOL    HW219380   3.920   4.311  15.175 -0.5679 -0.1127  0.1130
 2582SOL     OW19381   4.719   2.106   6.990 -0.6737  0.2505 -0.0417
 2582SOL    HW119382   0.066   2.079   7.025 -1.6599  0.2907  2.4024
 2582SOL    HW219383   4.736   2.181   6.933  0.4848 -1.5471 -2.0601
 2583SOL     OW19384   3.704   1.421  16.430  0.2945  0.3502 -0.0464
 2583SOL    HW119385   3.659   1.339  16.452  3.1535 -1.4095 -0.7997
 2583SOL    HW219386   3.674   1.443  16.341 -1.3028  1.6865  0.8408
 2584SOL     OW19387   3.585   2.005   2.482  0.0172  0.2312 -0.4009
 2584SOL    HW119388   3.584   1.910   2.490 -0.8395  0.3468  0.8165
 2584SOL    HW219389   3.529   2.027   2.557  0.6031 -0.2046  0.1590
 2585SOL     OW19390   1.631   3.733   4.656 -0.0285 -0.6514  0.2603
 2585SOL    HW119391   1.587   3.655   4.688 -2.5447  1.2787  1.4885
 2585SOL    HW219392   1.650   3.771   4.742 -0.9857  0.6627 -0.1107
 2586SOL     OW19393   3.229   4.638   1.717  0.4019 -0.0846  0.1723
 2586SOL    HW119394   3.165   4.645   1.788 -1.0513  2.0864 -1.3464
 2586SOL    HW219395   3.276   4.721   1.712  3.4478 -1.9354 -2.3571
 2587SOL     OW19396   0.805   3.261   1.682 -0.2382 -0.4670 -0.3140
 2587SOL    HW119397   0.824   3.337   1.737 -0.2716 -1.2110  0.7069
 2587SOL    HW219398   0.893   3.225   1.675  1.5242  3.6085  1.0278
 2588SOL     OW19399   2.996   3.712   5.572  0.6068  0.2644 -0.1194
 2588SOL    HW119400   2.955   3.627   5.557 -0.2463  0.4680  1.0734
 2588SOL    HW219401   3.084   3.705   5.534  1.7339  0.8475  2.3541
 2589SOL     OW19402   1.592   1.122   6.207 -0.0055 -0.0031 -1.0483
 2589SOL    HW119403   1.535   1.165   6.270 -0.3735  1.0653 -2.1022
 2589SOL    HW219404   1.521   1.096   6.147 -0.4047  1.0123 -1.0028
 2590SOL     OW19405   1.564   3.657  16.864 -0.5087 -0.1949  0.1096
 2590SOL    HW119406   1.515   3.600  16.924  1.1795 -1.1730  0.5670
 2590SOL    HW219407   1.561   3.591  16.794 -1.9165 -0.6648  0.6160
 2591SOL     OW19408   1.592   2.688   1.043  0.3718  0.0418  0.6054
 2591SOL    HW119409   1.632   2.664   1.127  0.1004  0.6210  0.9036
 2591SOL    HW219410   1.524   2.736   1.090 -0.5376  0.2472 -0.9436
 2592SOL     OW19411   4.523   0.205   4.243 -0.4406  0.2569 -0.1125
 2592SOL    HW119412   4.505   0.162   4.159  2.8524 -0.7682 -0.2971
 2592SOL    HW219413   4.618   0.202   4.251 -0.2628  2.6793 -1.5391
 2593SOL     OW19414   1.584   1.032  15.696  0.2786 -0.8544  0.6068
 2593SOL    HW119415   1.500   1.017  15.652  0.4447 -0.2154  0.0765
 2593SOL    HW219416   1.644   1.020  15.622  1.0752 -0.9116  1.2600
 2594SOL     OW19417   2.957   3.398   6.721  0.2222 -0.4145 -0.1164
 2594SOL    HW119418   2.960   3.428   6.812  0.2449 -0.4122 -0.1180
 2594SOL    HW219419   2.942   3.483   6.681 -0.6254  0.0136  1.1238
 2595SOL     OW19420   1.257   3.653  16.083  0.1459  0.4818  0.2399
 2595SOL    HW119421   1.195   3.715  16.043  1.0962  0.9885 -0.4326
 2595SOL    HW219422   1.198   3.626  16.153  0.0653 -1.9312 -0.7595
 2596SOL     OW19423   2.009   2.552   0.354 -0.0106 -0.1263  0.3595
 2596SOL    HW119424   2.090   2.573   0.400  1.1177 -1.2384 -1.1303
 2596SOL    HW219425   1.948   2.576   0.424 -1.0631 -3.4378  0.5763
 2597SOL     OW19426   4.304   2.373   2.211  0.1043 -0.0094 -0.3710
 2597SOL    HW119427   4.397   2.391   2.227  0.0983 -0.8072  0.5741
 2597SOL    HW219428   4.292   2.434   2.139  2.2570  1.3351  0.4225
 2598SOL     OW19429   2.011   2.948   7.262 -0.1081 -0.0452  0.4852
 2598SOL    HW119430   2.104   2.948   7.240 -0.2745  1.6751 -0.2041
 2598SOL    HW219431   1.995   3.041   7.279  2.4636  0.4488  0.0627
 2599SOL     OW19432   0.077   2.584  15.924  0.3501 -0.2660 -0.1003
 2599SOL    HW119433   4.735   2.579  15.872  0.4992  0.9305 -0.4369
 2599SOL    HW219434   0.124   2.659  15.887  0.0538 -0.5774 -1.1320
 2600SOL     OW19435   3.406   3.362  17.706 -0.2451 -0.5243 -0.2113
 2600SOL    HW119436   3.339   3.373   0.022 -1.2205 -0.7876 -1.1376
 2600SOL    HW219437   3.429   3.453  17.685 -1.5012 -0.4652 -1.4035
 2601SOL     OW19438   2.211   0.471   7.896  0.4061 -0.3979  0.2178
 2601SOL    HW119439   2.181   0.399   7.951  0.6732  0.0186  0.9111
 2601SOL    HW219440   2.293   0.500   7.938  1.0669 -0.9802 -0.6878
 2602SOL     OW19441   0.718   2.812  17.389  0.0017  0.4068  0.1026
 2602SOL    HW119442   0.708   2.718  17.404 -1.1879  0.5570  0.2645
 2602SOL    HW219443   0.743   2.808  17.296  0.2789  1.5526  0.1278
 2603SOL     OW19444   2.877   0.243   6.459 -0.2353 -0.3681  0.2835
 2603SOL    HW119445   2.851   0.220   6.548 -2.4589 -2.4653 -0.9218
 2603SOL    HW219446   2.802   0.294   6.429  2.6853  2.7579 -1.7108
 2604SOL     OW19447   1.726   1.489   0.599  0.2870  0.4696 -0.4641
 2604SOL    HW119448   1.766   1.402   0.602  0.0525  0.3445 -0.9122
 2604SOL    HW219449   1.641   1.462   0.632  0.6406  1.0641  0.9470
 2605SOL     OW19450   3.967   4.231   8.648 -0.0316 -0.1697 -0.0909
 2605SOL    HW119451   3.905   4.216   8.719 -1.8008 -0.7706 -1.7555
 2605SOL    HW219452   4.003   4.319   8.659  0.0824 -0.4076  1.3797
 2606SOL     OW19453   1.793   2.627   6.302  0.1067 -0.4314  0.2465
 2606SOL    HW119454   1.745   2.548   6.278  0.3347 -1.0513  1.8096
 2606SOL    HW219455   1.884   2.599   6.314 -0.2607 -1.0516  1.6215
 2607SOL     OW19456   0.769   1.576   2.678 -0.4851  0.1995 -0.4303
 2607SOL    HW119457   0.845   1.554   2.624 -0.8703 -1.6568 -0.2034
 2607SOL    HW219458   0.798   1.576   2.769  1.2376 -0.9354 -0.9778
 2608SOL     OW19459   0.304   1.262  17.167 -0.0671 -0.3712  0.2329
 2608SOL    HW119460   0.357   1.267  17.247 -0.2201  2.1516  0.1518
 2608SOL    HW219461   0.367   1.253  17.096 -1.1720 -0.7782 -0.6843
 2609SOL     OW19462   1.912   3.524  11.789 -0.0041  0.2819  0.3037
 2609SOL    HW119463   1.903   3.617  11.768  1.2767  0.1323 -0.8463
 2609SOL    HW219464   1.999   3.516  11.828  0.7766  0.2812 -1.4539
 2610SOL     OW19465   1.389   4.662   6.974 -0.0663 -0.6641 -0.6580
 2610SOL    HW119466   1.369   4.582   7.022  0.8769  0.3074  1.3794
 2610SOL    HW219467   1.483   4.678   6.961 -0.0428  0.2954  0.6484
 2611SOL     OW19468   3.537   1.028  10.715  0.2715  0.5618 -0.2394
 2611SOL    HW119469   3.608   1.092  10.718 -0.4905  1.2963  1.8005
 2611SOL    HW219470   3.518   1.010  10.622 -1.3881  0.0401  0.1980
 2612SOL     OW19471   2.610   4.637  14.944 -0.5124  0.2232  0.2125
 2612SOL    HW119472   2.604   4.732  14.932 -0.1261  0.2396  0.1654
 2612SOL    HW219473   2.649   4.627  15.030  0.2299 -0.1812 -0.1680
 2613SOL     OW19474   1.558   1.647   3.071  0.2877 -0.3032 -0.4640
 2613SOL    HW119475   1.634   1.680   3.023  1.5240 -1.5306  0.6636
 2613SOL    HW219476   1.540   1.713   3.138  0.9232 -0.4164 -0.1782
 2614SOL     OW19477   2.665   3.691   7.849  0.1239  0.4275  0.0607
 2614SOL    HW119478   2.700   3.677   7.937 -2.0711  1.0863  1.0303
 2614SOL    HW219479   2.683   3.605   7.810  0.6501 -0.1751  1.6285
 2615SOL     OW19480   0.325   4.678   6.553 -0.3667 -0.4633  0.7420
 2615SOL    HW119481   0.273   0.001   6.502  0.5848 -1.0239 -0.9053
 2615SOL    HW219482   0.301   4.702   6.643  1.3845  3.2053  0.2307
 2616SOL     OW19483   2.057   4.431   7.643  0.0382  0.0939  0.6124
 2616SOL    HW119484   2.054   4.339   7.670 -1.6189 -0.2487 -0.7729
 2616SOL    HW219485   1.965   4.453   7.661 -0.6260 -1.4371 -1.0026
 2617SOL     OW19486   2.417   0.617   3.421  0.0132 -0.4600 -0.0261
 2617SOL    HW119487   2.379   0.531   3.440  0.2524 -0.3030  1.1589
 2617SOL    HW219488   2.381   0.628   3.334 -1.7655 -2.3049  0.4882
 2618SOL     OW19489   1.403   4.084   5.562  0.1042  0.8276 -0.3940
 2618SOL    HW119490   1.372   4.112   5.476 -1.9641 -1.4051 -0.3738
 2618SOL    HW219491   1.494   4.060   5.540  0.3244  1.2779  0.0201
 2619SOL     OW19492   0.368   2.084  15.675  0.6618  0.2552  0.4710
 2619SOL    HW119493   0.376   1.990  15.661  0.7199  0.3084  0.1419
 2619SOL    HW219494   0.277   2.112  15.664  0.4151 -1.5330 -1.9373
 2620SOL     OW19495   0.338   0.783   1.313 -0.5069  0.0764  0.4726
 2620SOL    HW119496   0.269   0.735   1.267 -0.8091 -0.1632  1.1817
 2620SOL    HW219497   0.323   0.877   1.301 -0.7339 -0.0078  0.0890
 2621SOL     OW19498   0.776   1.273   3.601 -0.4633  1.1021  0.1593
 2621SOL    HW119499   0.808   1.324   3.676  1.5414  0.3418 -0.1804
 2621SOL    HW219500   0.721   1.331   3.548 -3.9578  0.6768  3.4047
 2622SOL     OW19501   1.385   3.743   4.283  0.3597 -0.4414  0.6771
 2622SOL    HW119502   1.440   3.670   4.312 -0.9679 -2.2984 -1.4697
 2622SOL    HW219503   1.438   3.759   4.205 -2.6511  0.3510 -1.1947
 2623SOL     OW19504   1.155   4.223   3.368 -0.2304  0.2602 -0.6169
 2623SOL    HW119505   1.071   4.184   3.347 -0.1364 -0.3988  0.2436
 2623SOL    HW219506   1.217   4.151   3.361  0.2628  0.4544  1.8247
 2624SOL     OW19507   2.091   1.801   8.255 -0.2245 -0.4157  0.3309
 2624SOL    HW119508   2.016   1.860   8.254  1.3624  1.5691  0.1270
 2624SOL    HW219509   2.163   1.853   8.290 -0.4455  0.5132 -0.6047
 2625SOL     OW19510   0.277   0.950   4.836  0.6107  0.4301  0.1916
 2625SOL    HW119511   0.222   0.986   4.905 -1.7232 -1.9824 -0.3807
 2625SOL    HW219512   0.356   0.923   4.882 -0.0707  0.3630  1.3317
 2626SOL     OW19513   1.316   0.362   7.271 -0.3468  0.1562 -0.1293
 2626SOL    HW119514   1.309   0.325   7.183 -0.4745 -0.3056  0.0759
 2626SOL    HW219515   1.374   0.293   7.304 -0.7388  0.6768  1.6359
 2627SOL     OW19516   1.751   2.955   6.746  0.2491  0.4942  1.1205
 2627SOL    HW119517   1.804   2.927   6.821 -1.0624 -1.1421  1.4414
 2627SOL    HW219518   1.802   3.031   6.718  0.9481  0.3135  1.8956
 2628SOL     OW19519   3.443   4.338   7.433 -0.3851 -0.1101 -0.1478
 2628SOL    HW119520   3.524   4.292   7.410  0.3940  0.9306  0.5172
 2628SOL    HW219521   3.416   4.368   7.346 -1.8372  0.4932  0.5048
 2629SOL     OW19522   3.230   3.722   5.210  0.4430  0.7196  0.5428
 2629SOL    HW119523   3.226   3.736   5.304 -2.0321 -2.4441  0.9227
 2629SOL    HW219524   3.208   3.629   5.200 -1.2995  1.4299 -2.4252
 2630SOL     OW19525   2.632   3.131   9.344  0.5529 -0.6334  0.0806
 2630SOL    HW119526   2.573   3.106   9.273  0.8192 -0.0328 -0.3511
 2630SOL    HW219527   2.706   3.077   9.318  0.7892 -0.1990 -0.1434
 2631SOL     OW19528   0.573   3.231  12.183 -0.0879 -0.4761  0.1169
 2631SOL    HW119529   0.555   3.148  12.226 -1.7567 -0.2230 -0.0665
 2631SOL    HW219530   0.512   3.223  12.109 -0.1819  1.3170 -0.0031
 2632SOL     OW19531   1.524   3.765  16.164 -0.1294 -0.2467 -0.4548
 2632SOL    HW119532   1.552   3.800  16.080  1.9902  0.4955  0.5719
 2632SOL    HW219533   1.441   3.727  16.135 -0.6075  1.2267 -0.9913
 2633SOL     OW19534   2.955   1.970   1.978  0.0965 -0.9096 -0.0388
 2633SOL    HW119535   3.011   2.008   1.910 -1.3289  0.5997 -0.3846
 2633SOL    HW219536   2.939   2.044   2.036  2.3275  0.2384 -0.8830
 2634SOL     OW19537   2.366   0.349   3.485 -0.0420  0.0352 -0.3736
 2634SOL    HW119538   2.399   0.388   3.566 -2.0266 -0.0479  0.4974
 2634SOL    HW219539   2.316   0.278   3.527  0.6714 -0.5300 -0.4908
 2635SOL     OW19540   0.937   3.085  11.661  0.0280  0.5631 -0.6971
 2635SOL    HW119541   0.852   3.044  11.651 -0.0414 -0.0300  2.3175
 2635SOL    HW219542   0.946   3.071  11.756  0.6376  1.6355 -0.5893
 2636SOL     OW19543   1.322   0.330   4.026  0.2834 -0.1914  0.0874
 2636SOL    HW119544   1.277   0.246   4.037  0.3017 -0.2758 -0.4538
 2636SOL    HW219545   1.393   0.304   3.967  0.2204 -0.5209  0.1561
 2637SOL     OW19546   4.649   1.990   2.428 -0.1740 -0.1110  0.5167
 2637SOL    HW119547   4.706   1.997   2.505  0.3410 -2.3069  0.3138
 2637SOL    HW219548   4.699   1.940   2.364 -0.0344  2.3310 -1.2928
 2638SOL     OW19549   4.310   0.835   8.069 -0.0208 -0.2576 -0.0839
 2638SOL    HW119550   4.327   0.919   8.112 -1.3752  0.5830 -1.1739
 2638SOL    HW219551   4.232   0.866   8.023 -1.1543 -0.6271  1.5942
 2639SOL     OW19552   2.535   2.677   7.946 -0.5959  0.6055  0.1908
 2639SOL    HW119553   2.449   2.677   7.987 -0.8491 -1.0251 -0.3507
 2639SOL    HW219554   2.547   2.589   7.911  1.6003  0.7543  0.5661
 2640SOL     OW19555   1.566   4.698   8.123 -0.1229  0.3426 -0.2957
 2640SOL    HW119556   1.499   0.027   8.114 -0.7847 -0.1739  0.8026
 2640SOL    HW219557   1.513   4.618   8.125 -1.1668  1.0541 -0.0649
 2641SOL     OW19558   4.111   4.041   1.402  0.0483  0.2648 -0.3201
 2641SOL    HW119559   4.186   4.084   1.361  0.5732 -0.0144  0.3564
 2641SOL    HW219560   4.041   4.105   1.390  2.2995  2.5082 -1.7533
 2642SOL     OW19561   3.852   1.657  12.939  0.1535  0.2545 -0.6657
 2642SOL    HW119562   3.804   1.600  12.999  0.5064 -1.5037 -2.0540
 2642SOL    HW219563   3.911   1.698  13.003  0.4510 -0.2564 -0.6163
 2643SOL     OW19564   3.188   0.647   7.162 -0.4131  0.5238  0.2295
 2643SOL    HW119565   3.243   0.570   7.142 -2.0181 -1.2435  2.6425
 2643SOL    HW219566   3.243   0.699   7.104 -0.6239 -0.1168 -0.5509
 2644SOL     OW19567   4.258   2.063   2.726 -0.9065 -0.6736 -0.3935
 2644SOL    HW119568   4.170   2.082   2.692 -0.1398 -0.1648 -2.1009
 2644SOL    HW219569   4.313   2.093   2.653 -1.4444  0.5916 -0.2830
 2645SOL     OW19570   0.524   0.949   9.089  0.3052  0.5144 -0.3948
 2645SOL    HW119571   0.573   0.884   9.039  0.6739  0.0191  0.6087
 2645SOL    HW219572   0.488   0.889   9.155  0.0245  2.1270  0.9394
 2646SOL     OW19573   2.051   2.246   1.714 -0.0573  0.5789 -0.0944
 2646SOL    HW119574   2.104   2.179   1.670 -0.1568  0.2777  0.2456
 2646SOL    HW219575   1.973   2.256   1.660 -0.1667 -3.1980 -0.6523
 2647SOL     OW19576   3.712   4.092   1.810  0.0166 -0.3424  0.1477
 2647SOL    HW119577   3.764   4.043   1.874  1.9195  0.9803 -0.3749
 2647SOL    HW219578   3.624   4.057   1.826  0.6010 -1.4144  1.0059
 2648SOL     OW19579   4.349   1.609  14.488  0.2492 -0.1340  0.1091
 2648SOL    HW119580   4.342   1.648  14.575 -1.9748  1.2837 -0.7152
 2648SOL    HW219581   4.274   1.551  14.490  1.4210 -1.7280 -1.7329
 2649SOL     OW19582   1.400   1.859   5.315  0.1497 -0.2870  0.5022
 2649SOL    HW119583   1.436   1.773   5.292 -0.2303 -0.4564  0.5470
 2649SOL    HW219584   1.408   1.906   5.233  2.7843 -0.2992  0.7507
 2650SOL     OW19585   0.394   0.032   3.028 -0.5430  0.3005  0.4252
 2650SOL    HW119586   0.394   0.049   3.122  0.2412 -1.3148  0.7205
 2650SOL    HW219587   0.338   0.101   2.993  1.4125  2.6383  1.9401
 2651SOL     OW19588   3.305   4.453  17.255 -0.0064  0.1899 -0.2265
 2651SOL    HW119589   3.397   4.479  17.253 -0.4045  1.5993 -0.0005
 2651SOL    HW219590   3.274   4.468  17.345 -0.6651  1.6297 -0.6974
 2652SOL     OW19591   3.106   0.790   1.413 -0.5468  0.1268 -0.2055
 2652SOL    HW119592   3.018   0.752   1.404 -0.8419  0.5809  0.8331
 2652SOL    HW219593   3.114   0.824   1.502 -0.5025 -2.7840  0.8993
 2653SOL     OW19594   0.340   0.792  11.465 -0.0113  0.2765  0.9053
 2653SOL    HW119595   0.286   0.793  11.544 -1.8780  2.0930 -0.3803
 2653SOL    HW219596   0.284   0.729  11.420 -0.3944  0.1240  1.5931
 2654SOL     OW19597   3.353   0.118   1.050 -0.6992  0.0556  0.2098
 2654SOL    HW119598   3.394   0.154   1.129  0.6094 -0.0167 -0.4381
 2654SOL    HW219599   3.429   0.073   1.014  0.5561  2.0112  0.4297
 2655SOL     OW19600   3.907   4.732   3.366  0.3632 -0.3192 -0.3551
 2655SOL    HW119601   3.951   4.717   3.282 -0.4560  0.4723 -0.9286
 2655SOL    HW219602   3.842   0.057   3.336 -2.8258 -3.3779  0.0882
 2656SOL     OW19603   1.708   4.161  16.127 -0.1860 -0.2422  0.2494
 2656SOL    HW119604   1.660   4.188  16.049 -1.6778 -0.7292  0.9731
 2656SOL    HW219605   1.788   4.121  16.094 -0.1733  2.8962 -3.4968
 2657SOL     OW19606   0.425   4.060   7.744  0.6945 -0.6182  0.1071
 2657SOL    HW119607   0.515   4.094   7.744  0.9939 -1.4117  0.1545
 2657SOL    HW219608   0.454   3.985   7.692  0.5643 -0.4910 -0.1482
 2658SOL     OW19609   4.280   3.006   6.332  0.3151  0.3290  0.0640
 2658SOL    HW119610   4.370   2.974   6.321  0.5233  1.1331 -0.6155
 2658SOL    HW219611   4.235   2.939   6.383  0.8258 -1.2718 -1.5754
 2659SOL     OW19612   3.019   1.241   6.756  0.1597  0.2608  0.2360
 2659SOL    HW119613   3.029   1.174   6.823 -2.1766  1.4400  1.7760
 2659SOL    HW219614   3.071   1.206   6.683 -0.3981  0.8311 -0.4358
 2660SOL     OW19615   3.402   1.344   5.609  0.7007 -0.5074  0.1553
 2660SOL    HW119616   3.306   1.338   5.617  0.7913  1.9609  2.9849
 2660SOL    HW219617   3.431   1.253   5.605  0.1643 -0.8084  3.3404
 2661SOL     OW19618   2.828   4.292  10.597 -0.0155 -0.1594 -0.1137
 2661SOL    HW119619   2.774   4.237  10.653  1.5810  1.0218  2.6339
 2661SOL    HW219620   2.909   4.244  10.580 -1.3757 -2.1417 -0.9576
 2662SOL     OW19621   1.547   3.440   5.241 -0.1941  0.4429  0.5920
 2662SOL    HW119622   1.595   3.502   5.296 -0.5577 -0.9914  2.5146
 2662SOL    HW219623   1.494   3.499   5.187 -1.0371  0.2430  1.2010
 2663SOL     OW19624   1.395   4.210   3.912  0.1473  0.3294 -0.4285
 2663SOL    HW119625   1.323   4.153   3.939  1.2674 -1.5540 -1.4355
 2663SOL    HW219626   1.465   4.147   3.892  0.5808  0.5474  0.3874
 2664SOL     OW19627   0.877   3.234   2.733 -0.1091  0.4518 -0.3843
 2664SOL    HW119628   0.942   3.168   2.760 -1.9008 -0.6728  1.2448
 2664SOL    HW219629   0.816   3.181   2.681  0.7772 -0.2752 -0.6954
 2665SOL     OW19630   4.345   0.235   9.130  0.1060  0.7764 -0.0121
 2665SOL    HW119631   4.379   0.317   9.167  0.0899  0.8787 -0.2197
 2665SOL    HW219632   4.289   0.207   9.202  0.9397 -0.7254  0.0550
 2666SOL     OW19633   0.228   3.457  12.312  0.2155  0.3306  0.3364
 2666SOL    HW119634   0.232   3.407  12.231 -1.1411 -0.6852  0.8982
 2666SOL    HW219635   0.133   3.453  12.324  0.0823  0.2804 -0.7638
 2667SOL     OW19636   2.808   4.587   7.368  0.0451 -0.0155  0.4774
 2667SOL    HW119637   2.713   4.581   7.374  0.2247 -2.7077  0.6421
 2667SOL    HW219638   2.814   4.551   7.280  0.5100  1.0597  0.0709
 2668SOL     OW19639   4.284   0.235  16.304  0.1189  0.0410  0.3957
 2668SOL    HW119640   4.192   0.247  16.327 -0.4633  2.2738 -2.9896
 2668SOL    HW219641   4.321   0.187  16.378  1.3591 -2.5462 -1.8847
 2669SOL     OW19642   4.529   3.878   7.260  0.1221 -0.6909  0.2419
 2669SOL    HW119643   4.521   3.959   7.210 -0.1857 -1.3907 -0.8308
 2669SOL    HW219644   4.534   3.908   7.351 -0.4460  0.1746 -0.0130
 2670SOL     OW19645   1.342   0.349  10.917 -0.1140  0.1335 -0.6072
 2670SOL    HW119646   1.420   0.305  10.949  0.3637  0.3282 -1.4823
 2670SOL    HW219647   1.382   0.405  10.850  1.8849  0.7951  1.1608
 2671SOL     OW19648   2.613   4.563   3.759 -0.3293  0.3415  0.1645
 2671SOL    HW119649   2.559   4.545   3.835  0.5242  3.1208  1.4282
 2671SOL    HW219650   2.635   4.656   3.758 -1.4242  0.6001 -0.0765
 2672SOL     OW19651   0.657   1.690   7.747  0.2723 -0.0090  0.0344
 2672SOL    HW119652   0.707   1.738   7.813  0.9973 -1.3695  0.4746
 2672SOL    HW219653   0.725   1.633   7.710 -2.1457 -2.8790  0.0823
 2673SOL     OW19654   3.618   3.927   9.496  0.0306  0.3200 -0.0651
 2673SOL    HW119655   3.694   3.976   9.466  0.9471  0.0245  1.7232
 2673SOL    HW219656   3.652   3.844   9.463 -0.0704  0.1315  0.2939
 2674SOL     OW19657   3.975   2.811   6.013  0.1876  0.2042  0.2324
 2674SOL    HW119658   4.044   2.751   6.039 -0.3650  0.4429  2.2538
 2674SOL    HW219659   3.938   2.847   6.094  2.1836  0.5043  1.0092
 2675SOL     OW19660   2.127   1.647   6.355  0.9388  0.8196  0.0294
 2675SOL    HW119661   2.059   1.710   6.381 -0.3497 -0.9774  1.0224
 2675SOL    HW219662   2.079   1.565   6.342  2.0649 -0.0254  1.2373
 2676SOL     OW19663   2.726   2.191   2.123  0.4330 -0.2596  0.4671
 2676SOL    HW119664   2.777   2.271   2.108  0.8959 -0.6241  0.1240
 2676SOL    HW219665   2.638   2.226   2.110  0.6879 -0.0961 -0.7999
 2677SOL     OW19666   2.463   3.164   6.902  0.6146  0.0801 -0.1699
 2677SOL    HW119667   2.551   3.171   6.865  1.5807 -0.3707  2.0449
 2677SOL    HW219668   2.417   3.122   6.829 -0.1636  1.2026 -0.3340
 2678SOL     OW19669   0.579   0.641   4.498 -0.1263 -0.0337  0.3788
 2678SOL    HW119670   0.520   0.597   4.559  0.6723 -1.3459  0.2117
 2678SOL    HW219671   0.563   0.734   4.513  1.2723 -0.1179  2.3870
 2679SOL     OW19672   0.087   2.286  10.587  0.0761 -0.2543 -0.6817
 2679SOL    HW119673   0.080   2.262  10.679  1.4781 -0.8376 -0.7283
 2679SOL    HW219674   0.093   2.198  10.551  1.2133 -0.3025 -0.3819
 2680SOL     OW19675   4.384   3.720   7.577 -0.2952  0.1407  0.1378
 2680SOL    HW119676   4.337   3.691   7.655 -0.1067  2.8398  1.2555
 2680SOL    HW219677   4.366   3.643   7.523 -0.4456 -0.6648  1.3466
 2681SOL     OW19678   2.615   1.446  12.717  0.2580  0.2724  0.2534
 2681SOL    HW119679   2.638   1.435  12.809 -0.2760 -1.6738  0.1532
 2681SOL    HW219680   2.544   1.385  12.701 -0.0836  1.1010 -1.4352
 2682SOL     OW19681   0.897   3.551  16.569 -0.2199  0.3205  0.3897
 2682SOL    HW119682   0.966   3.589  16.625 -0.6889 -0.9056  1.7877
 2682SOL    HW219683   0.858   3.629  16.529  2.3552  2.2999  1.6379
 2683SOL     OW19684   3.512   1.517   5.399  0.7762 -0.6929 -0.2227
 2683SOL    HW119685   3.476   1.447   5.344 -1.0568  0.5276 -0.5907
 2683SOL    HW219686   3.468   1.509   5.483 -1.4825  0.0140 -1.3458
 2684SOL     OW19687   0.472   1.785   5.645 -0.0952  0.0592 -0.5552
 2684SOL    HW119688   0.442   1.706   5.690 -0.5333  0.9981  0.7990
 2684SOL    HW219689   0.408   1.847   5.679 -1.5014 -2.2665  1.0700
 2685SOL     OW19690   0.525   4.074   8.010 -0.3965  0.7486 -0.2132
 2685SOL    HW119691   0.520   4.042   7.920 -2.9325  1.8078 -0.4581
 2685SOL    HW219692   0.515   4.168   7.994  1.6851  0.6944 -1.8989
 2686SOL     OW19693   0.985   2.166   8.172  0.6046 -0.1626  0.3439
 2686SOL    HW119694   0.973   2.246   8.223  1.0823 -0.7276  1.3370
 2686SOL    HW219695   1.056   2.189   8.112  0.3662 -1.7610 -0.5431
 2687SOL     OW19696   2.695   4.490   4.052  0.5205  0.2512 -0.3545
 2687SOL    HW119697   2.635   4.563   4.035  4.5718  3.7158  0.2304
 2687SOL    HW219698   2.713   4.495   4.146 -2.0632  0.1987  0.1528
 2688SOL     OW19699   1.430   0.766   1.634 -0.4877  0.3447  0.3651
 2688SOL    HW119700   1.443   0.804   1.721 -0.2678 -0.1330  0.5363
 2688SOL    HW219701   1.419   0.851   1.590  0.4363 -0.6098 -1.6807
 2689SOL     OW19702   0.529   0.488   1.156  0.6559 -1.0560 -0.2775
 2689SOL    HW119703   0.500   0.521   1.071  1.4660  2.1397  0.6554
 2689SOL    HW219704   0.448   0.489   1.207  1.0746  1.4824  0.3337
 2690SOL     OW19705   3.540   0.545   3.920 -0.3680  0.2251  0.6211
 2690SOL    HW119706   3.607   0.487   3.956  1.0128 -0.0507 -2.3990
 2690SOL    HW219707   3.590   0.626   3.928 -0.2426  0.0482  1.6803
 2691SOL     OW19708   2.269   3.246   6.262  0.3522 -0.2209  0.0414
 2691SOL    HW119709   2.325   3.320   6.286  1.7053 -1.4583  0.6991
 2691SOL    HW219710   2.233   3.272   6.178 -0.0816 -2.3498 -0.4169
 2692SOL     OW19711   1.130   2.916   9.564 -0.4905 -0.7492 -0.0857
 2692SOL    HW119712   1.147   2.885   9.653 -0.5298 -0.5617 -0.0125
 2692SOL    HW219713   1.049   2.867   9.546 -0.7555  0.0315 -1.0606
 2693SOL     OW19714   2.549   1.635   3.537 -0.2874 -0.0370  0.1378
 2693SOL    HW119715   2.621   1.579   3.509  0.0093  1.2845 -1.7260
 2693SOL    HW219716   2.476   1.598   3.488  0.7008  0.0727 -1.4032
 2694SOL     OW19717   3.181   0.445   5.064 -0.1000  0.2469  0.0186
 2694SOL    HW119718   3.171   0.437   5.159  1.9671  1.0965  0.2974
 2694SOL    HW219719   3.246   0.376   5.056  1.4265  1.5952  0.8602
 2695SOL     OW19720   3.575   4.359   2.041 -1.0947 -0.0988  0.7503
 2695SOL    HW119721   3.633   4.387   2.112 -1.2773  0.7492  0.5612
 2695SOL    HW219722   3.569   4.266   2.060 -1.2559 -0.7473 -2.4362
 2696SOL     OW19723   2.690   3.498   7.488  0.0201  0.0157 -0.2032
 2696SOL    HW119724   2.632   3.574   7.488  0.2430  0.1835  1.1382
 2696SOL    HW219725   2.713   3.485   7.396 -1.5412  1.2281 -0.7523
 2697SOL     OW19726   1.871   2.620   9.273 -0.3870 -0.1978  0.0629
 2697SOL    HW119727   1.911   2.618   9.360 -0.3035  1.1790  0.0554
 2697SOL    HW219728   1.947   2.665   9.237 -0.3788  1.6748  2.4621
 2698SOL     OW19729   1.270   0.482   4.528  0.1282 -0.4522  0.2313
 2698SOL    HW119730   1.300   0.569   4.503 -0.4245 -0.0420  0.9685
 2698SOL    HW219731   1.315   0.431   4.461 -0.3796  0.6539 -0.9503
 2699SOL     OW19732   4.221   3.114   8.748  0.5110 -0.5007 -0.5709
 2699SOL    HW119733   4.300   3.062   8.729 -0.1453 -0.8663 -2.2800
 2699SOL    HW219734   4.154   3.053   8.718  0.3001 -0.4612 -0.1782
 2700SOL     OW19735   2.294   1.779   7.849  0.5486 -0.0119  0.4532
 2700SOL    HW119736   2.344   1.856   7.874 -1.5853  1.8211 -0.9984
 2700SOL    HW219737   2.367   1.723   7.820 -0.1401 -0.5707 -0.2162
 2701SOL     OW19738   1.721   1.630   3.390 -0.5216  0.0399  0.0731
 2701SOL    HW119739   1.626   1.642   3.393 -0.5433 -0.4221  1.2578
 2701SOL    HW219740   1.757   1.713   3.421  1.9738 -1.1897  0.4704
 2702SOL     OW19741   3.796   3.808   8.712  0.1313 -0.3622  0.4017
 2702SOL    HW119742   3.791   3.749   8.787  1.7311 -0.3045  0.5492
 2702SOL    HW219743   3.726   3.873   8.726 -0.8396 -1.3346  0.0524
 2703SOL     OW19744   3.964   1.084   0.610  0.6091 -0.2670 -0.0457
 2703SOL    HW119745   3.993   1.136   0.535 -1.3777 -2.0911 -2.1073
 2703SOL    HW219746   4.043   1.049   0.651  1.6268 -1.2792 -2.8853
 2704SOL     OW19747   0.572   0.417  12.307 -0.5623  0.5641  0.0517
 2704SOL    HW119748   0.611   0.429  12.220  0.3767  0.1423  0.4077
 2704SOL    HW219749   0.491   0.466  12.292  1.3571  3.1803 -1.8961
 2705SOL     OW19750   4.651   0.833   4.951  0.4306 -0.0811 -0.4232
 2705SOL    HW119751   4.701   0.897   4.900 -0.4157  1.2967  0.5083
 2705SOL    HW219752   4.567   0.871   4.975  0.0243 -1.2420 -0.0154
 2706SOL     OW19753   1.903   0.809   2.501  0.7217 -0.0210 -0.1657
 2706SOL    HW119754   1.881   0.856   2.582 -1.5138 -0.3735 -0.5617
 2706SOL    HW219755   1.977   0.860   2.469  0.7204 -0.8556 -1.4678
 2707SOL     OW19756   4.098   1.121   0.228 -0.2599  0.5102 -0.2478
 2707SOL    HW119757   4.082   1.154   0.317 -2.5039  2.1556 -1.2286
 2707SOL    HW219758   4.026   1.058   0.223  0.8238 -0.8296  1.0824
 2708SOL     OW19759   3.850   4.583  12.499 -0.1546  0.7531  0.3682
 2708SOL    HW119760   3.927   4.526  12.486 -2.1007 -1.3635 -1.8492
 2708SOL    HW219761   3.793   4.529  12.553 -0.8336  0.1118 -0.9877
 2709SOL     OW19762   1.802   4.679  13.335  0.6046  0.4179 -0.2021
 2709SOL    HW119763   1.801   0.002  13.261 -3.8383  0.5437 -0.0263
 2709SOL    HW219764   1.743   4.610  13.307  1.8286 -0.2198 -1.2154
 2710SOL     OW19765   2.751   1.509   7.255 -0.6662  0.2323 -0.1640
 2710SOL    HW119766   2.715   1.588   7.216 -1.1671 -0.1337 -0.4386
 2710SOL    HW219767   2.782   1.462   7.177 -1.0595  0.5043 -0.4814
 2711SOL     OW19768   3.655   1.534  13.974  0.0297 -0.2326  0.5882
 2711SOL    HW119769   3.658   1.528  13.879 -2.0119  1.7177  0.3909
 2711SOL    HW219770   3.645   1.442  13.998  1.2500 -0.6733 -0.6159
 2712SOL     OW19771   1.278   1.733   8.528 -0.3220 -0.4696  0.7085
 2712SOL    HW119772   1.213   1.672   8.563  1.4666 -1.5880  2.0545
 2712SOL    HW219773   1.242   1.818   8.556 -0.0944  0.6034 -2.2149
 2713SOL     OW19774   1.275   3.735   9.099 -0.2252 -0.1483  0.0659
 2713SOL    HW119775   1.315   3.734   9.012 -1.1408 -2.3596 -0.3507
 2713SOL    HW219776   1.326   3.667   9.144 -0.5576 -0.6654 -0.3294
 2714SOL     OW19777   3.976   3.465   8.523  0.7507 -0.7109 -0.2823
 2714SOL    HW119778   3.983   3.495   8.613 -0.2355  0.1700 -0.4810
 2714SOL    HW219779   3.896   3.512   8.498  1.0663  0.0003  0.0421
 2715SOL     OW19780   2.151   3.391   5.214  0.0307  0.1836  0.3479
 2715SOL    HW119781   2.056   3.384   5.215  0.1756 -1.4386  1.6435
 2715SOL    HW219782   2.168   3.310   5.166  2.7764  2.4041 -2.4453
 2716SOL     OW19783   2.022   3.398  17.601 -0.3995  0.0258  0.3001
 2716SOL    HW119784   2.099   3.367  17.554 -0.3203  1.4730 -0.5438
 2716SOL    HW219785   2.055   3.391  17.691  1.5440  2.3334 -0.2106
 2717SOL     OW19786   3.680   2.877  15.939 -0.1984 -0.2395 -0.5882
 2717SOL    HW119787   3.759   2.833  15.969 -0.4278 -0.7929 -0.8001
 2717SOL    HW219788   3.711   2.967  15.926  0.5686 -0.2763  0.9387
 2718SOL     OW19789   1.071   1.589  11.813 -0.2900 -0.8217 -0.2276
 2718SOL    HW119790   1.022   1.507  11.804 -0.8298 -0.3489 -1.6236
 2718SOL    HW219791   1.163   1.565  11.802  0.5668  1.8963  1.0652
 2719SOL     OW19792   1.867   1.687  12.961  0.0333 -0.0093  0.0518
 2719SOL    HW119793   1.928   1.643  12.902 -0.6239 -0.7597 -0.0759
 2719SOL    HW219794   1.892   1.661  13.050 -1.0145 -2.1375 -0.2716
 2720SOL     OW19795   3.489   1.380   4.287  0.2218  0.3405  0.8415
 2720SOL    HW119796   3.476   1.304   4.230  1.0830  1.0329 -0.2675
 2720SOL    HW219797   3.578   1.367   4.319  0.4046  1.9376  0.9640
 2721SOL     OW19798   3.574   4.166  12.109 -0.0408 -0.3207 -0.2629
 2721SOL    HW119799   3.573   4.161  12.013  1.5370  0.0686 -0.2910
 2721SOL    HW219800   3.553   4.258  12.119 -0.7882 -0.5812  0.5739
 2722SOL     OW19801   3.312   1.177   7.051 -0.2627  0.3469  0.1762
 2722SOL    HW119802   3.308   1.262   7.007 -1.7549 -0.3217 -0.9859
 2722SOL    HW219803   3.390   1.193   7.104  2.2733 -0.9673 -3.1461
 2723SOL     OW19804   2.364   4.655   5.761 -0.1745  0.5507  0.0743
 2723SOL    HW119805   2.279   4.621   5.732  0.1305 -2.2705  2.4329
 2723SOL    HW219806   2.338   4.736   5.804  0.1081  1.5245 -1.5596
 2724SOL     OW19807   3.211   2.786  13.885  0.5748 -0.4491  0.0243
 2724SOL    HW119808   3.205   2.774  13.980  0.0820 -3.5824 -0.4244
 2724SOL    HW219809   3.300   2.817  13.869  1.1521 -1.6217  0.9607
 2725SOL     OW19810   0.805   3.508  10.362 -0.1472 -0.0889  0.8987
 2725SOL    HW119811   0.740   3.491  10.430 -0.4132 -0.0812  0.6444
 2725SOL    HW219812   0.861   3.431  10.373  0.2379  0.2722  1.4902
 2726SOL     OW19813   0.330   0.435   9.889 -0.5098 -0.6094  0.3535
 2726SOL    HW119814   0.267   0.395   9.948  0.6143 -1.5058  0.9608
 2726SOL    HW219815   0.288   0.433   9.804  0.3145  1.1717 -0.0911
 2727SOL     OW19816   1.597   1.894   2.458 -0.4093  0.2669 -0.0234
 2727SOL    HW119817   1.556   1.837   2.393 -0.6629  1.7702 -1.1694
 2727SOL    HW219818   1.520   1.902   2.515 -0.1222  0.5154  0.3249
 2728SOL     OW19819   1.033   3.800  16.020 -0.0525 -0.7227  0.0152
 2728SOL    HW119820   0.986   3.733  15.971 -0.9405 -1.1697  1.4755
 2728SOL    HW219821   0.959   3.847  16.058 -1.2294 -1.2165 -1.6473
 2729SOL     OW19822   0.490   0.664  11.001  0.2026 -0.2142  0.1290
 2729SOL    HW119823   0.542   0.736  11.037  0.9943 -0.4716 -0.4966
 2729SOL    HW219824   0.505   0.678  10.908 -0.5484  2.1257  0.3658
 2730SOL     OW19825   1.569   0.669   9.039  0.4899  0.6423  0.4158
 2730SOL    HW119826   1.652   0.621   9.042  1.0186  1.4428 -1.2406
 2730SOL    HW219827   1.504   0.610   9.002 -0.2814  1.2837  0.7556
 2731SOL     OW19828   0.466   1.840   5.012  0.8092 -0.1220  0.2832
 2731SOL    HW119829   0.511   1.805   4.935 -0.6897 -1.4899  0.0196
 2731SOL    HW219830   0.516   1.790   5.076  0.5008  1.6860  1.9325
 2732SOL     OW19831   3.084   3.522   3.041  0.0007 -0.0510  0.1722
 2732SOL    HW119832   3.140   3.599   3.052  0.6548 -0.8917  3.0101
 2732SOL    HW219833   3.001   3.567   3.058 -0.6599 -1.1124 -0.2611
 2733SOL     OW19834   3.091   1.361   5.264 -0.3130  0.1369 -0.5896
 2733SOL    HW119835   3.184   1.345   5.282 -0.5715 -0.5062  0.1623
 2733SOL    HW219836   3.046   1.301   5.323 -0.4011  0.5253 -0.2638
 2734SOL     OW19837   4.114   0.972   4.033 -0.5146 -0.4621 -0.2572
 2734SOL    HW119838   4.101   0.877   4.029  1.1987 -0.7835  1.7038
 2734SOL    HW219839   4.047   1.001   3.972  0.5689  0.8032 -0.8555
 2735SOL     OW19840   4.675   3.432   6.425 -0.5021 -0.8649  0.0467
 2735SOL    HW119841   4.732   3.385   6.486 -0.1112 -0.2652  0.1472
 2735SOL    HW219842   4.698   3.400   6.338 -1.4389  0.2422 -0.6258
 2736SOL     OW19843   3.318   4.546  14.154 -0.4987  1.0482  0.1003
 2736SOL    HW119844   3.384   4.486  14.188 -1.8887 -0.2228  0.5946
 2736SOL    HW219845   3.374   4.618  14.127  0.8875  0.0033  0.1888
 2737SOL     OW19846   0.174   0.251  10.345  1.0106  0.5486 -0.6808
 2737SOL    HW119847   0.220   0.178  10.385 -1.5656 -0.2254  0.8868
 2737SOL    HW219848   0.114   0.262  10.419  0.0325 -1.3579 -1.1930
 2738SOL     OW19849   1.031   4.478  13.637 -0.0392  0.5131  0.4076
 2738SOL    HW119850   1.012   4.556  13.585 -2.1462 -1.0271 -1.1695
 2738SOL    HW219851   1.099   4.441  13.580 -1.4264  0.0187 -0.9509
 2739SOL     OW19852   2.565   0.394  15.583 -0.0041  0.2865  0.3303
 2739SOL    HW119853   2.475   0.417  15.558  0.0732  0.2654  0.0350
 2739SOL    HW219854   2.564   0.311  15.537 -0.0188  0.6687 -0.3503
 2740SOL     OW19855   4.487   1.452   0.216 -0.0168 -0.5026 -0.1886
 2740SOL    HW119856   4.542   1.489   0.285 -1.3054 -0.4342  0.7926
 2740SOL    HW219857   4.514   1.496   0.135  1.2169  0.3638  0.6970
 2741SOL     OW19858   4.441   1.368   1.832 -0.1262 -0.0226  0.0363
 2741SOL    HW119859   4.399   1.306   1.892  1.6971 -0.0582  1.2919
 2741SOL    HW219860   4.415   1.450   1.874  1.6951  1.8182 -2.4445
 2742SOL     OW19861   2.200   2.719   1.395 -0.0740  0.6055 -0.3520
 2742SOL    HW119862   2.196   2.815   1.395 -1.9049  0.5274 -1.7040
 2742SOL    HW219863   2.111   2.686   1.403  1.1669 -1.5643  4.2641
 2743SOL     OW19864   1.648   2.417   1.881  0.3547 -0.5118  0.1748
 2743SOL    HW119865   1.559   2.405   1.848  0.3577 -0.1127  0.0221
 2743SOL    HW219866   1.647   2.512   1.888 -0.6333 -0.4426 -0.8475
 2744SOL     OW19867   4.520   0.561  15.015 -0.7095  0.2510 -0.2415
 2744SOL    HW119868   4.486   0.491  15.071  0.3470  2.1828  2.8472
 2744SOL    HW219869   4.554   0.508  14.944 -0.8943  0.5546 -0.5570
 2745SOL     OW19870   3.898   1.432   8.759 -0.5439 -0.3389  0.4775
 2745SOL    HW119871   3.803   1.427   8.768 -0.3707  0.6437  2.7724
 2745SOL    HW219872   3.902   1.472   8.673  0.5793 -1.0625  0.1970
 2746SOL     OW19873   0.193   3.006  13.724  0.0942 -0.1055  0.1380
 2746SOL    HW119874   0.111   3.053  13.740 -1.0276 -0.9308 -3.1217
 2746SOL    HW219875   0.179   2.992  13.630  1.7577  0.7556 -0.2299
 2747SOL     OW19876   1.778   0.345  14.087  0.8437 -0.0363 -0.2030
 2747SOL    HW119877   1.720   0.289  14.138  0.5547 -1.8700 -2.5710
 2747SOL    HW219878   1.794   0.284  14.015  1.2795  0.2264 -0.3325
 2748SOL     OW19879   1.293   2.597   3.549  0.0607 -0.0448 -0.2550
 2748SOL    HW119880   1.283   2.554   3.464  0.0125 -1.2411  0.3495
 2748SOL    HW219881   1.208   2.572   3.586  0.2654  1.6045  1.3155
 2749SOL     OW19882   3.160   4.714  16.241  0.1333  0.3160  0.0366
 2749SOL    HW119883   3.206   0.026  16.174  0.5325  0.5982  0.5198
 2749SOL    HW219884   3.105   4.652  16.192  0.0313  0.3250  0.1410
 2750SOL     OW19885   3.092   2.708   2.344 -0.1307  0.1541  0.3590
 2750SOL    HW119886   3.036   2.702   2.266 -2.3417 -0.0418  1.9645
 2750SOL    HW219887   3.024   2.716   2.411  0.9002  0.6491  1.3536
 2751SOL     OW19888   0.158   2.428   1.985 -0.4011  0.3724 -0.0997
 2751SOL    HW119889   0.145   2.411   1.891  0.2223  2.6310 -0.5817
 2751SOL    HW219890   0.253   2.429   1.996 -0.5321 -1.7644  1.1905
 2752SOL     OW19891   2.987   1.889  12.030 -0.1503 -0.0799 -0.0516
 2752SOL    HW119892   3.070   1.938  12.030 -1.1058  1.5352  0.9467
 2752SOL    HW219893   2.957   1.899  12.120  0.8626  1.1727  0.1562
 2753SOL     OW19894   3.383   4.572   4.616 -0.1912  0.1419  0.1389
 2753SOL    HW119895   3.302   4.601   4.658  1.8003  2.7572  2.1706
 2753SOL    HW219896   3.433   4.578   4.697  0.8272 -1.4628 -0.3847
 2754SOL     OW19897   2.289   1.364  11.950  0.5350  0.5470 -0.1714
 2754SOL    HW119898   2.260   1.392  11.863  1.2485 -0.6736 -0.7931
 2754SOL    HW219899   2.212   1.380  12.005  0.0763  0.9148 -0.9102
 2755SOL     OW19900   0.179   2.027  17.438  0.3381  0.0721 -0.1086
 2755SOL    HW119901   0.148   2.080  17.364 -0.3797 -1.9595 -1.2544
 2755SOL    HW219902   0.120   2.061  17.506 -2.7281 -1.5639 -1.9585
 2756SOL     OW19903   1.418   0.673  16.701 -0.7342  0.1402  0.2623
 2756SOL    HW119904   1.350   0.706  16.642 -1.0325  1.6409  1.4534
 2756SOL    HW219905   1.499   0.676  16.650 -0.1355  0.3031  1.2176
 2757SOL     OW19906   4.197   0.122   2.908 -0.5368 -0.3837 -0.4471
 2757SOL    HW119907   4.141   0.115   2.830  0.7817  1.9747 -1.6199
 2757SOL    HW219908   4.282   0.144   2.869  1.9930 -3.1912  3.5259
 2758SOL     OW19909   3.314   3.617   3.897  0.0485 -0.2744  0.5070
 2758SOL    HW119910   3.222   3.604   3.921  0.8699 -1.6972  2.8672
 2758SOL    HW219911   3.325   3.540   3.842 -1.7595 -0.4926  0.4550
 2759SOL     OW19912   2.523   3.469   6.304 -0.3840 -0.7766 -0.2867
 2759SOL    HW119913   2.617   3.457   6.315 -0.1276 -0.1190 -1.6919
 2759SOL    HW219914   2.513   3.483   6.209  0.0911  1.6702  0.0283
 2760SOL     OW19915   4.105   0.237   6.703 -0.0523  0.3490  0.3407
 2760SOL    HW119916   4.100   0.145   6.677 -0.1947  0.3909  0.2148
 2760SOL    HW219917   4.010   0.250   6.700 -0.7744 -4.4341  2.5067
 2761SOL     OW19918   0.148   2.510   6.000 -0.4692 -0.3901  1.0839
 2761SOL    HW119919   0.140   2.577   6.068  0.8590 -1.6869  2.5147
 2761SOL    HW219920   0.107   2.554   5.925  2.4109  1.3099  0.5307
 2762SOL     OW19921   4.609   0.645  13.150  0.0035  0.0415 -0.9425
 2762SOL    HW119922   4.650   0.725  13.117  0.5038 -0.0303 -0.4896
 2762SOL    HW219923   4.542   0.664  13.216 -2.2959 -3.0780 -2.3638
 2763SOL     OW19924   1.297   1.922   3.618 -0.1709  0.6873  0.1337
 2763SOL    HW119925   1.303   1.827   3.628 -2.7071  0.5087  0.0264
 2763SOL    HW219926   1.343   1.941   3.699 -0.0425 -0.3069  0.2916
 2764SOL     OW19927   1.194   1.327   9.050  0.5055 -0.0375  0.0319
 2764SOL    HW119928   1.143   1.257   9.090  2.8685 -0.6746  1.9786
 2764SOL    HW219929   1.217   1.285   8.967 -0.2937  1.5643 -0.9987
 2765SOL     OW19930   0.737   3.276   5.739  0.7527  0.9607 -0.7316
 2765SOL    HW119931   0.833   3.282   5.742  0.6079  2.6337  0.2185
 2765SOL    HW219932   0.704   3.300   5.826 -0.6279  0.7610 -1.2119
 2766SOL     OW19933   2.982   0.021   3.231 -0.6379 -0.4961 -0.9413
 2766SOL    HW119934   2.911   4.695   3.221 -1.9754  0.6476  1.2058
 2766SOL    HW219935   2.934   0.102   3.248  1.9714  0.8653 -0.1278
 2767SOL     OW19936   2.120   2.948   7.612 -0.2076  0.2492  0.2842
 2767SOL    HW119937   2.170   2.969   7.691 -0.6502 -1.4579  1.0285
 2767SOL    HW219938   2.156   3.020   7.561  1.7755 -1.6699 -1.0130
 2768SOL     OW19939   4.017   2.370  15.082 -0.0148 -0.3725 -0.2423
 2768SOL    HW119940   3.947   2.305  15.081 -1.1724  0.8740  2.1619
 2768SOL    HW219941   3.984   2.447  15.128 -1.1837 -2.2622  2.1044
 2769SOL     OW19942   0.181   3.081  11.837 -0.2735 -0.2394  0.0619
 2769SOL    HW119943   0.150   3.052  11.923 -0.2152  0.1461  0.2154
 2769SOL    HW219944   0.157   3.002  11.791 -1.0809  1.6049 -2.6485
 2770SOL     OW19945   4.258   2.700  11.527  0.9958  0.2773 -0.6528
 2770SOL    HW119946   4.292   2.787  11.546  0.4385  0.1798  0.7377
 2770SOL    HW219947   4.256   2.708  11.431 -1.4064 -0.7699 -0.6781
 2771SOL     OW19948   1.469   3.769   9.552 -0.0595 -0.2377 -0.1116
 2771SOL    HW119949   1.555   3.810   9.543 -1.3285  2.1810 -1.1269
 2771SOL    HW219950   1.490   3.675   9.549  0.1643 -0.1553 -1.0493
 2772SOL     OW19951   1.593   3.893   6.418 -0.3597  0.7610 -0.2938
 2772SOL    HW119952   1.584   3.987   6.432 -0.3838  1.0608 -2.3201
 2772SOL    HW219953   1.683   3.880   6.447 -1.5802 -2.7503  1.9432
 2773SOL     OW19954   2.819   2.906  14.421 -0.1068 -0.6510  0.0000
 2773SOL    HW119955   2.882   2.943  14.359 -2.4744  2.8816 -0.3045
 2773SOL    HW219956   2.856   2.923  14.507 -1.4367 -1.3349  0.7089
 2774SOL     OW19957   0.924   1.014   5.866 -0.4658  0.1564 -1.3199
 2774SOL    HW119958   0.891   1.056   5.946  1.3200  0.4958 -0.7654
 2774SOL    HW219959   0.913   1.082   5.800 -0.2692  1.4222 -0.0484
 2775SOL     OW19960   1.071   4.710   7.100 -0.2728  0.2660  0.1171
 2775SOL    HW119961   0.992   4.699   7.152 -0.2939 -0.1111  0.0035
 2775SOL    HW219962   1.137   4.700   7.168 -1.0404 -0.7755  0.7067
 2776SOL     OW19963   2.755   1.824  13.278  0.7029  0.5084  0.5275
 2776SOL    HW119964   2.723   1.869  13.200  0.9026  0.6409  0.5244
 2776SOL    HW219965   2.718   1.885  13.341 -1.4093 -2.0171  1.7384
 2777SOL     OW19966   4.089   2.302   4.404 -0.2380  0.1429  0.2485
 2777SOL    HW119967   4.061   2.304   4.312 -1.6599 -2.8979  0.6080
 2777SOL    HW219968   4.019   2.347   4.452  0.6400  2.8026 -0.9713
 2778SOL     OW19969   1.834   0.590  13.175 -0.1919  0.0664  0.1937
 2778SOL    HW119970   1.848   0.545  13.091 -1.5233  0.0839 -0.0399
 2778SOL    HW219971   1.775   0.531  13.221 -0.3476 -2.2171 -2.9257
 2779SOL     OW19972   0.490   4.413  15.728  0.3602  0.1577  0.4083
 2779SOL    HW119973   0.533   4.447  15.806  0.6313 -2.2008  1.2712
 2779SOL    HW219974   0.444   4.491  15.697 -0.9883 -0.7090  0.2407
 2780SOL     OW19975   0.260   3.637   7.501  0.2703 -0.1518  0.0705
 2780SOL    HW119976   0.170   3.654   7.470 -0.2216  1.8702  2.5979
 2780SOL    HW219977   0.235   3.648   7.593 -2.1799  0.8243 -0.6941
 2781SOL     OW19978   1.401   2.936   0.731  0.0831 -0.5016  0.2023
 2781SOL    HW119979   1.330   2.902   0.786  0.3470 -0.2971  0.6739
 2781SOL    HW219980   1.441   3.002   0.788  0.8224 -1.7247  1.0850
 2782SOL     OW19981   4.639   4.387  10.726  0.2605 -0.1800  0.1283
 2782SOL    HW119982   4.601   4.314  10.773  0.7280 -0.5572 -0.0777
 2782SOL    HW219983   4.652   4.457  10.790 -2.8889 -0.7444  1.3370
 2783SOL     OW19984   0.057   4.088   7.370 -0.4352 -0.1055 -0.3208
 2783SOL    HW119985   0.125   4.131   7.422  0.5645 -2.6910  0.5104
 2783SOL    HW219986   4.716   4.137   7.392 -0.5789  0.3756 -1.9525
 2784SOL     OW19987   0.982   2.036  13.348  0.1919  0.1880  0.0956
 2784SOL    HW119988   0.888   2.046  13.362  0.1314 -0.8093  0.3739
 2784SOL    HW219989   0.994   2.034  13.253  0.0358  4.3065 -0.0360
 2785SOL     OW19990   0.217   4.233   5.774  0.5415  0.6727 -0.2545
 2785SOL    HW119991   0.235   4.168   5.842  0.8289  1.7748  0.7123
 2785SOL    HW219992   0.249   4.307   5.825 -0.9227  1.3567 -0.3473
 2786SOL     OW19993   1.208   2.270  15.364 -0.0790  0.6047  0.0883
 2786SOL    HW119994   1.138   2.315  15.410 -0.7153 -1.3652  1.0486
 2786SOL    HW219995   1.287   2.310  15.401  0.6148 -0.4416 -0.2403
 2787SOL     OW19996   4.073   0.988   2.543 -0.1006  0.1725  0.3538
 2787SOL    HW119997   4.114   1.063   2.501 -1.6157 -1.0076 -3.1880
 2787SOL    HW219998   4.001   1.040   2.579 -0.1910  1.5571 -1.8667
 2788SOL     OW19999   0.403   2.838   7.288  0.0814 -0.2192 -0.5854
 2788SOL    HW120000   0.447   2.753   7.287  0.6464  0.0496  0.9143
 2788SOL    HW220001   0.454   2.875   7.360  1.3946 -1.3365 -0.9351
 2789SOL     OW20002   4.298   3.707   8.480  0.2106  0.6527 -0.0577
 2789SOL    HW120003   4.224   3.734   8.535  0.8221 -1.0352  1.5691
 2789SOL    HW220004   4.277   3.749   8.396 -0.1857  0.3768 -0.1018
 2790SOL     OW20005   3.552   2.611   7.441 -0.1364  0.2632 -0.2985
 2790SOL    HW120006   3.620   2.557   7.481  0.0832  0.5447 -0.2860
 2790SOL    HW220007   3.554   2.595   7.346 -1.6196 -0.1033 -0.2667
 2791SOL     OW20008   0.552   1.620   2.130 -0.7081  0.0261  0.6175
 2791SOL    HW120009   0.600   1.701   2.110  0.5198 -1.4529 -2.3367
 2791SOL    HW220010   0.601   1.560   2.074 -1.4656  1.9819 -2.1624
 2792SOL     OW20011   2.737   3.404  10.846 -0.6429 -0.0305  0.2623
 2792SOL    HW120012   2.709   3.325  10.891  0.1638 -0.2336  0.3925
 2792SOL    HW220013   2.690   3.404  10.762  0.5404  1.0373 -0.3963
 2793SOL     OW20014   0.563   3.549   7.565  0.3527  0.2076 -0.0533
 2793SOL    HW120015   0.571   3.559   7.471  1.5687 -0.9541 -0.0791
 2793SOL    HW220016   0.498   3.479   7.571 -1.5915  1.8481 -2.2183
 2794SOL     OW20017   4.264   1.646   6.123  0.2563  0.7950 -0.3490
 2794SOL    HW120018   4.221   1.730   6.143 -0.6127  0.8625 -2.5228
 2794SOL    HW220019   4.352   1.666   6.156  0.7006 -1.0306 -0.4310
 2795SOL     OW20020   2.177   2.018   5.672  0.2769  0.1253 -0.0403
 2795SOL    HW120021   2.182   2.110   5.646 -0.5730 -0.1077 -1.0403
 2795SOL    HW220022   2.233   1.990   5.600 -0.8481  1.0947 -1.2960
 2796SOL     OW20023   2.878   2.449   9.076  0.0591 -0.0246 -0.1011
 2796SOL    HW120024   2.813   2.519   9.085 -0.1189 -0.3693  1.2236
 2796SOL    HW220025   2.829   2.366   9.072 -0.3062  0.0617  2.8043
 2797SOL     OW20026   1.875   4.048  15.877 -0.0626 -0.6287 -0.6661
 2797SOL    HW120027   1.909   4.130  15.843  1.4454 -0.9423  0.0950
 2797SOL    HW220028   1.935   4.032  15.950  0.8040 -0.0588 -1.2604
 2798SOL     OW20029   0.677   1.641   4.763 -0.0709  0.1024 -0.2919
 2798SOL    HW120030   0.702   1.599   4.845  0.4966 -0.9189 -0.9830
 2798SOL    HW220031   0.644   1.566   4.714  0.1588  0.0942 -0.4357
 2799SOL     OW20032   1.973   1.194  15.086 -0.3302  0.1378 -0.1527
 2799SOL    HW120033   1.976   1.138  15.009  1.0003 -0.0030 -0.0045
 2799SOL    HW220034   1.938   1.275  15.048  0.1017  0.2354 -0.3428
 2800SOL     OW20035   1.521   3.917  16.878 -0.1294  0.4802 -0.2403
 2800SOL    HW120036   1.541   3.823  16.879  0.3229  0.5707 -0.7326
 2800SOL    HW220037   1.514   3.922  16.783 -0.8968  0.9856 -0.1611
 2801SOL     OW20038   0.447   2.937   5.893 -0.3453 -0.4732 -0.0087
 2801SOL    HW120039   0.481   2.902   5.975  1.6045  1.2823 -0.0550
 2801SOL    HW220040   0.522   2.958   5.838 -1.3309  0.3873 -1.0329
 2802SOL     OW20041   3.156   2.160   2.083 -0.2055 -0.4785 -0.2504
 2802SOL    HW120042   3.225   2.220   2.110  1.0607 -1.9106 -0.3147
 2802SOL    HW220043   3.175   2.149   1.990 -0.9976 -1.7478 -0.2641
 2803SOL     OW20044   1.170   0.440   2.920  0.1273 -0.1873  0.0563
 2803SOL    HW120045   1.212   0.456   3.005  2.0309  0.6948 -1.0531
 2803SOL    HW220046   1.250   0.440   2.867 -0.9832  1.7949 -1.5938
 2804SOL     OW20047   3.843   1.087  16.360  0.0255 -0.1611 -0.3260
 2804SOL    HW120048   3.848   0.992  16.371  2.5327  0.0002 -0.0622
 2804SOL    HW220049   3.928   1.107  16.321  2.3008 -2.4056  3.5414
 2805SOL     OW20050   4.472   3.014   8.691 -0.3581 -0.2082 -0.2748
 2805SOL    HW120051   4.561   3.049   8.687 -1.7529  3.3949 -0.3352
 2805SOL    HW220052   4.469   2.996   8.597  0.4879 -0.2485 -0.2898
 2806SOL     OW20053   4.444   4.198   8.603 -0.4314  0.0980 -0.1999
 2806SOL    HW120054   4.434   4.269   8.666  0.7592  1.8671 -1.9928
 2806SOL    HW220055   4.450   4.243   8.519  0.6740 -1.1069 -0.7740
 2807SOL     OW20056   1.722   3.933   0.060 -0.0327  0.0427 -0.1137
 2807SOL    HW120057   1.799   3.877   0.046 -0.0520 -0.2712  1.0619
 2807SOL    HW220058   1.685   3.944  17.723 -0.2445  0.7952  0.0771
 2808SOL     OW20059   0.704   3.638   1.492  0.7411  0.0108 -0.1176
 2808SOL    HW120060   0.624   3.611   1.538  0.9274  0.1000  0.2584
 2808SOL    HW220061   0.727   3.716   1.542  1.3550  0.2933 -0.8327
 2809SOL     OW20062   2.207   4.297   8.595 -0.6116  0.0999 -0.4810
 2809SOL    HW120063   2.295   4.260   8.592 -0.2996  0.7758  0.3669
 2809SOL    HW220064   2.207   4.354   8.672  0.3464 -0.8017  0.1847
 2810SOL     OW20065   3.616   4.348  17.396 -0.3021 -0.1158 -0.2236
 2810SOL    HW120066   3.625   4.417  17.330 -0.6489  2.2252  2.2009
 2810SOL    HW220067   3.699   4.366  17.440 -0.8349  0.3438  0.5664
 2811SOL     OW20068   1.951   3.750   2.537  0.2015 -0.7773 -0.0447
 2811SOL    HW120069   2.014   3.802   2.585  0.9880 -2.0106  0.2505
 2811SOL    HW220070   1.929   3.815   2.470 -0.4220  0.9276  1.8278
 2812SOL     OW20071   1.459   0.278   8.323  0.2805 -0.1616  0.1538
 2812SOL    HW120072   1.464   0.209   8.389  1.6384  0.5675  0.8266
 2812SOL    HW220073   1.551   0.296   8.301  0.2148 -0.3454 -0.2658
 2813SOL     OW20074   0.570   3.301   3.855  0.3819 -0.1743 -0.0299
 2813SOL    HW120075   0.571   3.246   3.932 -0.2595  0.0718  0.1507
 2813SOL    HW220076   0.476   3.312   3.846  0.6212  0.9398 -1.3608
 2814SOL     OW20077   3.084   0.857   7.000 -0.5638  0.1845 -0.0607
 2814SOL    HW120078   3.078   0.805   7.080 -3.1185  1.1334  0.3719
 2814SOL    HW220079   3.130   0.798   6.940  1.6205  2.2645 -0.4214
 2815SOL     OW20080   2.794   4.250  10.237  0.5526  0.0205  0.7027
 2815SOL    HW120081   2.819   4.278  10.149 -0.9727 -1.3245 -0.1514
 2815SOL    HW220082   2.862   4.187  10.259 -0.0964 -1.8373 -2.5157
 2816SOL     OW20083   1.558   4.036  16.319 -0.2177 -0.6325  0.1078
 2816SOL    HW120084   1.626   4.079  16.267 -0.3605  0.4702  0.8137
 2816SOL    HW220085   1.548   3.948  16.282 -1.9019 -0.8001  0.9316
 2817SOL     OW20086   4.259   1.029  16.141  0.6602 -0.2901  0.0199
 2817SOL    HW120087   4.315   0.990  16.208 -0.2081  0.4163  1.1557
 2817SOL    HW220088   4.331   1.046  16.080  0.0317 -1.2240 -0.9831
 2818SOL     OW20089   2.953   3.739  10.735  0.5270 -0.5881  0.0110
 2818SOL    HW120090   3.017   3.689  10.786  1.8455 -0.3439 -1.4006
 2818SOL    HW220091   2.885   3.735  10.803  0.0741 -3.3860 -0.6149
 2819SOL     OW20092   0.428   3.152  14.122  0.2868  0.3856  0.1627
 2819SOL    HW120093   0.428   3.156  14.026  0.8118  3.8173  0.2843
 2819SOL    HW220094   0.334   3.168  14.133 -0.0808 -0.4824 -1.5653
 2820SOL     OW20095   0.734   2.838   3.165  0.3794 -0.2775 -0.6902
 2820SOL    HW120096   0.696   2.920   3.196 -0.2664 -0.5810 -0.6775
 2820SOL    HW220097   0.657   2.810   3.117 -1.2203  3.2452 -0.2044
 2821SOL     OW20098   0.880   1.815   7.865 -0.4370  0.3667 -0.1384
 2821SOL    HW120099   0.974   1.807   7.851 -0.3687  1.2284 -0.1749
 2821SOL    HW220100   0.883   1.856   7.951 -0.7013 -0.7803  0.4136
 2822SOL     OW20101   1.101   1.623   9.415  0.1079  0.1183  0.1321
 2822SOL    HW120102   1.099   1.717   9.435 -0.5381  0.2160 -0.3830
 2822SOL    HW220103   1.167   1.586   9.473 -0.3744 -0.2876  0.4187
 2823SOL     OW20104   1.324   2.347   7.392  0.0274  0.8627 -0.3065
 2823SOL    HW120105   1.250   2.321   7.447  0.4155  0.1279 -0.1370
 2823SOL    HW220106   1.398   2.341   7.453  0.8149 -0.5872 -1.3959
 2824SOL     OW20107   1.279   3.877  17.543 -0.1868 -0.4752 -0.2535
 2824SOL    HW120108   1.357   3.870  17.598 -0.6614 -1.4784  0.2811
 2824SOL    HW220109   1.259   3.970  17.532  1.3111 -0.2862 -1.4206
 2825SOL     OW20110   0.949   4.422   8.545 -0.3424 -0.1437 -0.0007
 2825SOL    HW120111   1.012   4.360   8.582 -1.2769  0.8373  3.1579
 2825SOL    HW220112   0.880   4.429   8.610  1.3166 -1.0569  1.8840
 2826SOL     OW20113   4.451   2.245   6.766  0.3230  0.1507 -0.6413
 2826SOL    HW120114   4.395   2.319   6.742  1.2581  0.8714 -0.6122
 2826SOL    HW220115   4.468   2.259   6.859 -1.9250 -1.6289  0.0217
 2827SOL     OW20116   2.882   4.181  16.298  0.1860 -0.6760  0.2963
 2827SOL    HW120117   2.884   4.131  16.217  0.4180 -1.0897  0.5546
 2827SOL    HW220118   2.971   4.167  16.333  0.8279  0.3696 -0.9224
 2828SOL     OW20119   4.145   0.440   2.688 -0.4911  0.4056  0.1854
 2828SOL    HW120120   4.134   0.467   2.779 -2.3724  0.2009  0.0303
 2828SOL    HW220121   4.060   0.460   2.648 -1.0230 -1.6053  0.3084
 2829SOL     OW20122   4.096   4.664  10.274 -0.4942 -0.0840 -0.1562
 2829SOL    HW120123   4.119   4.587  10.326  1.5900  0.9244  0.4069
 2829SOL    HW220124   4.168   4.666  10.211 -1.2416  1.6495 -0.9466
 2830SOL     OW20125   3.763   3.093   5.466  0.5354  0.3792 -0.3782
 2830SOL    HW120126   3.718   3.084   5.550  1.6378 -0.4467  0.1293
 2830SOL    HW220127   3.849   3.135   5.477  0.6943 -0.3236  1.0944
 2831SOL     OW20128   4.301   2.280  10.292 -0.3639  0.1969 -0.3754
 2831SOL    HW120129   4.239   2.274  10.365  3.4715 -0.7201  2.8372
 2831SOL    HW220130   4.385   2.312  10.325  0.0020 -3.2622  2.0968
 2832SOL     OW20131   2.287   1.855   2.372 -0.1034  0.1175 -0.1103
 2832SOL    HW120132   2.195   1.869   2.354  0.2542 -0.2645 -2.1887
 2832SOL    HW220133   2.330   1.881   2.291  2.4778  1.0847  1.5555
 2833SOL     OW20134   3.525   0.558   8.118  0.1409  0.4047  0.7787
 2833SOL    HW120135   3.617   0.575   8.098  0.6863 -2.2901  0.9905
 2833SOL    HW220136   3.487   0.636   8.078  1.6350  0.6271 -0.1863
 2834SOL     OW20137   1.700   2.738   9.480 -0.2212  0.2082 -0.1724
 2834SOL    HW120138   1.741   2.694   9.406 -2.6368  0.6189 -1.7528
 2834SOL    HW220139   1.608   2.742   9.456 -0.1470  1.1889 -0.2954
 2835SOL     OW20140   3.102   2.406  17.219  0.3129 -0.3092  0.1549
 2835SOL    HW120141   3.020   2.402  17.170 -1.2052 -0.1173  2.6528
 2835SOL    HW220142   3.077   2.457  17.297  0.1958 -0.8583  0.4767
 2836SOL     OW20143   4.589   4.566  11.247 -0.0923  0.2010 -0.2557
 2836SOL    HW120144   4.646   4.616  11.189  0.9597 -0.4403  0.2154
 2836SOL    HW220145   4.652   4.508  11.291 -0.3284 -0.4843 -0.8191
 2837SOL     OW20146   0.288   3.309  12.096 -0.2897  0.3598 -0.0846
 2837SOL    HW120147   0.356   3.284  12.033 -1.0221 -1.6410 -0.0658
 2837SOL    HW220148   0.270   3.224  12.136 -1.4293 -0.3865 -2.1934
 2838SOL     OW20149   2.679   0.508   8.661 -0.1330 -0.0829  0.0418
 2838SOL    HW120150   2.733   0.574   8.617  0.1817 -0.6799 -0.4663
 2838SOL    HW220151   2.592   0.538   8.636  0.2358  1.2249  0.3402
 2839SOL     OW20152   3.138   0.088   5.415 -0.0837 -0.5698 -0.0371
 2839SOL    HW120153   3.211   0.035   5.445  0.9619  0.6338 -0.4582
 2839SOL    HW220154   3.134   0.080   5.320  0.2984 -2.9979  0.1716
 2840SOL     OW20155   3.771   0.779  11.596 -0.6297 -0.1516  0.7130
 2840SOL    HW120156   3.824   0.722  11.540 -0.1431 -0.6172  1.6633
 2840SOL    HW220157   3.704   0.811  11.535 -0.2549  0.8523  0.8356
 2841SOL     OW20158   2.390   0.640   1.062  0.4458 -0.1576  0.0020
 2841SOL    HW120159   2.404   0.567   1.122  1.4749 -0.7314 -0.9264
 2841SOL    HW220160   2.309   0.677   1.096  2.7944  2.7629  2.4361
 2842SOL     OW20161   4.643   3.297   5.233  0.3323  0.1280  0.0354
 2842SOL    HW120162   4.576   3.233   5.207  2.1669 -0.7173 -2.6026
 2842SOL    HW220163   4.714   3.238   5.256  1.1715  0.1870 -2.4191
 2843SOL     OW20164   4.670   2.126  14.116  0.7546 -0.2780  0.0017
 2843SOL    HW120165   4.611   2.058  14.149  0.6108 -1.1456 -2.0429
 2843SOL    HW220166   4.618   2.201  14.146  1.7532  0.1161  0.7431
 2844SOL     OW20167   1.536   0.994   4.079  0.0431 -0.2011 -0.3925
 2844SOL    HW120168   1.590   1.002   4.158 -0.0958  0.8590 -0.3966
 2844SOL    HW220169   1.586   1.016   4.000 -0.7388  0.3795 -0.7271
 2845SOL     OW20170   2.263   4.099  16.783 -0.3334 -0.3427  0.0068
 2845SOL    HW120171   2.282   4.095  16.877  1.3661  4.2073 -0.1353
 2845SOL    HW220172   2.210   4.019  16.777  0.4273 -0.9014  0.6554
 2846SOL     OW20173   0.427   3.124  11.074  0.5608  0.7205 -0.5624
 2846SOL    HW120174   0.498   3.069  11.106  0.8461  1.8873  0.8159
 2846SOL    HW220175   0.451   3.209  11.110 -2.5257  1.6375 -0.6594
 2847SOL     OW20176   1.716   2.187   4.560  0.4502  0.5507  0.2457
 2847SOL    HW120177   1.661   2.185   4.638 -1.0928 -0.5052 -0.8761
 2847SOL    HW220178   1.766   2.106   4.567  0.0905  0.3281  0.2788
 2848SOL     OW20179   1.311   3.210   8.759 -0.1537 -0.0099 -0.1684
 2848SOL    HW120180   1.242   3.274   8.780  0.0237  0.7546 -1.8703
 2848SOL    HW220181   1.265   3.176   8.683 -0.7656 -0.9859  0.6431
 2849SOL     OW20182   1.784   4.184   3.785 -0.2374 -0.3278 -0.2951
 2849SOL    HW120183   1.720   4.113   3.784 -0.3821 -0.2053  0.3487
 2849SOL    HW220184   1.820   4.183   3.874 -0.9334  0.4057 -0.0052
 2850SOL     OW20185   1.452   1.765   5.701 -0.6038 -0.1130  0.2663
 2850SOL    HW120186   1.474   1.675   5.678  0.6997  0.1897  0.3157
 2850SOL    HW220187   1.438   1.757   5.796 -0.5771 -0.0158  0.2785
 2851SOL     OW20188   4.388   4.695   0.866 -0.0702  0.1336 -0.3250
 2851SOL    HW120189   4.340   4.722   0.788  1.2551  2.1137 -0.4356
 2851SOL    HW220190   4.389   4.601   0.846  1.8087  0.4137 -1.5463
 2852SOL     OW20191   3.228   3.593   7.650  0.1632 -0.2569 -0.3877
 2852SOL    HW120192   3.237   3.539   7.729 -0.9508  2.8247  1.8346
 2852SOL    HW220193   3.296   3.552   7.597 -1.9020 -1.7634 -1.8882
 2853SOL     OW20194   1.615   2.417   6.273  0.3802 -0.3583  0.5688
 2853SOL    HW120195   1.640   2.344   6.216  0.0975 -1.4128  1.7912
 2853SOL    HW220196   1.533   2.381   6.306  0.9294 -3.1173 -1.0340
 2854SOL     OW20197   2.039   4.002   4.375  0.0182  0.3145 -0.6788
 2854SOL    HW120198   2.120   4.022   4.328  1.3339  0.3866  1.6220
 2854SOL    HW220199   2.021   3.914   4.344  0.1717 -0.2477  0.8023
 2855SOL     OW20200   4.498   2.442  14.232 -0.2226 -0.2164  0.0006
 2855SOL    HW120201   4.479   2.456  14.139 -2.1135  1.5990  0.6347
 2855SOL    HW220202   4.424   2.391  14.266  0.0257 -0.4211  0.2276
 2856SOL     OW20203   3.879   2.820   1.163  0.0096  0.0877 -0.4211
 2856SOL    HW120204   3.852   2.897   1.113  0.2832  0.5178  0.0864
 2856SOL    HW220205   3.923   2.864   1.236  0.3960  0.5577 -0.9420
 2857SOL     OW20206   2.988   1.488  16.403 -0.0401  0.4339 -0.9586
 2857SOL    HW120207   2.961   1.468  16.493  2.4951 -0.7337 -0.4465
 2857SOL    HW220208   3.061   1.430  16.380 -1.0930 -1.3182  0.0941
 2858SOL     OW20209   1.622   3.151   5.233 -0.3734  0.7056  0.3393
 2858SOL    HW120210   1.644   3.145   5.140 -0.9517  1.2194  0.1724
 2858SOL    HW220211   1.610   3.246   5.237 -0.0871  0.7311  0.6664
 2859SOL     OW20212   3.622   3.262   6.973 -0.5448 -0.9239  0.3753
 2859SOL    HW120213   3.667   3.236   6.892  2.2885  1.9145  1.0579
 2859SOL    HW220214   3.636   3.357   6.970 -0.6004 -0.9450 -0.7833
 2860SOL     OW20215   4.132   0.770   5.787  0.0138 -0.3634  0.1782
 2860SOL    HW120216   4.181   0.829   5.844 -1.9640  0.3075  1.1865
 2860SOL    HW220217   4.070   0.829   5.744  0.6726 -0.3460 -0.7687
 2861SOL     OW20218   1.702   0.356   5.363  0.0459 -0.1046 -0.6062
 2861SOL    HW120219   1.767   0.335   5.431  0.5291  1.9550 -0.4340
 2861SOL    HW220220   1.698   0.451   5.367 -1.7127 -0.2099  0.2224
 2862SOL     OW20221   1.235   1.520  14.977 -0.0539 -0.3321  0.0578
 2862SOL    HW120222   1.272   1.608  14.985 -2.2318  0.4374  1.7465
 2862SOL    HW220223   1.224   1.498  15.070 -3.1087  1.2176  0.0376
 2863SOL     OW20224   3.495   3.678   4.284 -0.2178 -0.3652  0.0668
 2863SOL    HW120225   3.556   3.704   4.215 -0.1284 -1.6444 -0.3268
 2863SOL    HW220226   3.548   3.641   4.355  1.9468  0.3794 -1.1547
 2864SOL     OW20227   2.065   3.645   5.042 -0.2327  0.7942 -0.0836
 2864SOL    HW120228   2.020   3.660   4.959 -1.2157 -0.6830  0.1727
 2864SOL    HW220229   2.014   3.572   5.078 -0.0919  1.5917  1.6910
 2865SOL     OW20230   2.099   4.676  12.713  0.0253  0.6405  0.0328
 2865SOL    HW120231   2.193   4.686  12.703  0.2323  0.0193  1.3665
 2865SOL    HW220232   2.062   0.003  12.654  1.5670  0.1351 -1.4652
 2866SOL     OW20233   4.149   1.355   2.949 -0.2489 -0.5603  0.6789
 2866SOL    HW120234   4.194   1.273   2.927  0.5943 -0.1086  0.7196
 2866SOL    HW220235   4.195   1.389   3.026  0.5651  3.7298 -1.7260
 2867SOL     OW20236   3.998   2.808   2.437 -0.5019 -0.6065 -0.3829
 2867SOL    HW120237   4.037   2.853   2.511 -0.9476  1.0396 -1.1556
 2867SOL    HW220238   4.035   2.848   2.359 -0.8105 -1.2775 -0.8815
 2868SOL     OW20239   4.636   1.753   4.272 -0.0295  0.1056 -0.5713
 2868SOL    HW120240   4.721   1.785   4.302 -0.4846  1.6288 -0.8903
 2868SOL    HW220241   4.583   1.803   4.334 -0.3527  1.3728 -1.8558
 2869SOL     OW20242   2.338   3.473   7.537  0.0451 -0.0107  0.4542
 2869SOL    HW120243   2.385   3.514   7.609 -0.4508  1.8322 -0.2894
 2869SOL    HW220244   2.292   3.548   7.500 -1.0116  0.3945  2.5956
 2870SOL     OW20245   1.177   2.220   1.055  0.2839  0.5354  0.3985
 2870SOL    HW120246   1.222   2.146   1.015  0.4165  0.1287  1.2862
 2870SOL    HW220247   1.236   2.295   1.050 -1.0133  1.6829  2.0326
 2871SOL     OW20248   2.831   0.259   3.269 -0.1483 -0.4609  0.0355
 2871SOL    HW120249   2.893   0.313   3.318 -0.3979  0.9848 -1.2436
 2871SOL    HW220250   2.768   0.238   3.337 -0.0839 -3.2524 -0.7615
 2872SOL     OW20251   1.494   3.850   2.780 -0.2936  0.0856 -0.0170
 2872SOL    HW120252   1.557   3.898   2.835 -1.7666 -1.9914  3.4948
 2872SOL    HW220253   1.549   3.780   2.744 -3.3217 -1.8618 -0.7721
 2873SOL     OW20254   2.588   2.048   3.732  0.5463 -0.6553 -0.0026
 2873SOL    HW120255   2.609   2.137   3.706 -1.0084 -0.2186  0.2503
 2873SOL    HW220256   2.496   2.049   3.705  0.8925  0.7009 -1.1414
 2874SOL     OW20257   3.779   2.280  16.640 -0.0817  0.4074 -0.6857
 2874SOL    HW120258   3.708   2.223  16.672 -0.7339  0.3461 -2.2572
 2874SOL    HW220259   3.839   2.268  16.714  0.9988  0.0253 -1.6250
 2875SOL     OW20260   3.715   4.129   1.549 -0.2834 -0.2249 -0.0832
 2875SOL    HW120261   3.802   4.133   1.511  0.2373  1.9344  1.3122
 2875SOL    HW220262   3.729   4.110   1.642  0.9720 -0.3233 -0.2992
 2876SOL     OW20263   0.275   1.184  12.773 -0.2813 -1.0683  0.4144
 2876SOL    HW120264   0.210   1.166  12.705  0.1789  0.4347 -0.4128
 2876SOL    HW220265   0.282   1.110  12.834  0.0009 -1.7425 -0.4433
 2877SOL     OW20266   1.333   3.199  14.723 -0.2308  0.6408  0.1111
 2877SOL    HW120267   1.242   3.218  14.700 -0.7528  0.2645  1.8570
 2877SOL    HW220268   1.361   3.174  14.635 -2.6524 -1.4993 -0.0736
 2878SOL     OW20269   0.079   1.976   6.413 -0.2975 -0.0262  0.2537
 2878SOL    HW120270   0.054   1.985   6.505 -0.3802 -0.1030  0.2385
 2878SOL    HW220271   0.151   2.039   6.413  0.8292 -1.3400  0.8743
 2879SOL     OW20272   0.142   1.232   5.065 -0.2915  0.0187 -0.5117
 2879SOL    HW120273   0.153   1.327   5.055  3.1677 -0.3059  0.2651
 2879SOL    HW220274   0.230   1.202   5.083 -1.3342 -1.6244  1.9426
 2880SOL     OW20275   3.102   2.544   5.715 -0.4103  0.2484  0.2993
 2880SOL    HW120276   3.085   2.635   5.691  0.3069  0.3263  0.0893
 2880SOL    HW220277   3.140   2.498   5.640 -0.2584  2.3126 -0.8983
 2881SOL     OW20278   2.765   4.403   5.589 -0.6923  0.4201  0.0931
 2881SOL    HW120279   2.812   4.477   5.551 -1.6206 -0.3124 -2.4895
 2881SOL    HW220280   2.675   4.421   5.561 -0.8079 -1.6915 -0.9225
 2882SOL     OW20281   2.982   3.054  10.331 -0.1333  0.1936 -0.2747
 2882SOL    HW120282   2.947   3.038  10.244 -0.0394 -0.1120 -0.2596
 2882SOL    HW220283   3.073   3.030  10.311  0.8088  0.5661  3.5152
 2883SOL     OW20284   1.252   4.202   7.245  0.6145  0.0847  0.3413
 2883SOL    HW120285   1.209   4.287   7.255 -0.5713 -0.4551 -0.1137
 2883SOL    HW220286   1.266   4.192   7.151 -0.1062 -1.3374  0.3763
 2884SOL     OW20287   3.405   4.308   3.522  0.2342  0.1123  0.4226
 2884SOL    HW120288   3.465   4.341   3.455  0.7027  1.3937  1.4648
 2884SOL    HW220289   3.407   4.215   3.502 -1.1332 -0.1253  1.4179
 2885SOL     OW20290   4.291   4.583   3.470  0.0354  0.3313  0.7559
 2885SOL    HW120291   4.218   4.627   3.515  0.4408  2.0805 -0.3057
 2885SOL    HW220292   4.352   4.593   3.543  2.0562 -0.3381 -0.8427
 2886SOL     OW20293   4.203   4.618   4.782  0.2870  0.2550  0.2937
 2886SOL    HW120294   4.272   4.600   4.718  0.3644 -0.4467  0.5802
 2886SOL    HW220295   4.217   4.713   4.794  2.0584  0.0668 -0.2194
 2887SOL     OW20296   0.334   3.392  13.747 -0.3644 -0.1993  0.4235
 2887SOL    HW120297   0.255   3.435  13.714 -0.1080  0.2898  0.4572
 2887SOL    HW220298   0.351   3.455  13.817 -2.0909  2.4685 -1.5942
 2888SOL     OW20299   1.713   0.168  16.630  0.4830 -0.6982  0.3065
 2888SOL    HW120300   1.650   0.118  16.578 -0.0871 -0.5258  0.8205
 2888SOL    HW220301   1.767   0.102  16.673 -0.4391 -2.2720 -0.9285
 2889SOL     OW20302   1.888   2.191  10.172  0.7783 -0.0142  0.0297
 2889SOL    HW120303   1.971   2.156  10.139  1.4913  0.1349  1.6622
 2889SOL    HW220304   1.923   2.219  10.257 -0.2414  1.9715 -0.2141
 2890SOL     OW20305   4.159   3.068   2.915  0.3257  0.0639  0.2616
 2890SOL    HW120306   4.252   3.078   2.896  0.0625 -0.7927 -1.4124
 2890SOL    HW220307   4.115   3.136   2.864  0.6631  0.9147  1.0897
 2891SOL     OW20308   1.006   2.904   5.128 -0.1202  0.1978  0.2904
 2891SOL    HW120309   0.980   2.917   5.037  1.9267 -0.4269 -0.4053
 2891SOL    HW220310   0.999   2.990   5.170  2.0448  0.9411 -0.8526
 2892SOL     OW20311   1.025   3.207   3.899  0.1106 -0.0796  0.0133
 2892SOL    HW120312   1.095   3.253   3.853  0.7353 -0.4774  0.5533
 2892SOL    HW220313   0.974   3.280   3.934  2.0410  1.0937  0.3862
 2893SOL     OW20314   3.610   2.228  15.641 -0.3790 -0.1679  0.2498
 2893SOL    HW120315   3.585   2.262  15.727 -1.3307  0.3646 -0.2395
 2893SOL    HW220316   3.529   2.179  15.624 -1.3454  1.6903 -0.4898
 2894SOL     OW20317   0.095   0.213   2.623 -0.0980 -0.0986  0.3238
 2894SOL    HW120318   0.117   0.119   2.618 -0.6933 -0.0835 -2.3180
 2894SOL    HW220319   0.009   0.199   2.662  0.3287  0.0405  1.3202
 2895SOL     OW20320   2.345   0.273   7.211 -0.0305 -0.0564  0.6066
 2895SOL    HW120321   2.249   0.281   7.213  0.0499  0.8003  1.2673
 2895SOL    HW220322   2.373   0.365   7.209  0.1201 -0.1270 -0.3477
 2896SOL     OW20323   4.193   2.258  13.162  0.3835  0.0948  0.1557
 2896SOL    HW120324   4.112   2.252  13.212 -0.3727  1.3652 -0.9224
 2896SOL    HW220325   4.249   2.183  13.184 -0.7562 -0.8702 -0.2227
 2897SOL     OW20326   4.244   2.010   7.944 -0.3775 -0.0634 -0.1578
 2897SOL    HW120327   4.288   2.058   8.014  1.0280  0.8442 -1.6623
 2897SOL    HW220328   4.213   1.932   7.990  0.9586 -1.2765 -1.3246
 2898SOL     OW20329   3.325   2.470   3.661  0.0056 -0.3897  0.0449
 2898SOL    HW120330   3.290   2.448   3.747 -0.4746  1.1993  0.2458
 2898SOL    HW220331   3.415   2.440   3.676 -0.5582 -0.9342  2.2983
 2899SOL     OW20332   2.241   0.919   6.911  0.2176 -0.0733 -0.5984
 2899SOL    HW120333   2.167   0.980   6.905 -0.7519 -1.3788 -2.0462
 2899SOL    HW220334   2.198   0.835   6.900 -1.0040  0.4462  0.2313
 2900SOL     OW20335   1.458   4.663   2.941 -0.0523 -0.2251 -0.0049
 2900SOL    HW120336   1.423   4.605   3.008  1.6253 -1.2884 -0.0422
 2900SOL    HW220337   1.411   4.640   2.861  1.4346 -0.5629 -0.7806
 2901SOL     OW20338   3.862   2.441   4.521 -0.3444 -0.2177  0.4988
 2901SOL    HW120339   3.868   2.392   4.603 -1.2677  1.1757  1.3958
 2901SOL    HW220340   3.877   2.532   4.549  2.0901  0.1701 -2.0083
 2902SOL     OW20341   0.815   3.967   9.238 -0.1729  0.3321  0.5607
 2902SOL    HW120342   0.769   3.900   9.288  3.4170 -0.7111  2.4929
 2902SOL    HW220343   0.885   3.910   9.206  0.4283  0.7630  1.1083
 2903SOL     OW20344   1.649   3.996   4.259  0.4184  0.1550  0.0508
 2903SOL    HW120345   1.566   3.998   4.212 -0.7126 -0.2591  1.9886
 2903SOL    HW220346   1.689   4.082   4.246 -2.3554  0.8018 -3.8967
 2904SOL     OW20347   0.986   0.365   1.397  0.3018  0.6237  0.0415
 2904SOL    HW120348   0.896   0.359   1.367 -0.1783  2.5071  1.0918
 2904SOL    HW220349   0.981   0.391   1.489 -1.1497  0.9918 -0.1511
 2905SOL     OW20350   0.324   2.361   6.672 -0.0802  0.0339 -0.5596
 2905SOL    HW120351   0.301   2.405   6.591  2.0071 -0.6597 -1.5548
 2905SOL    HW220352   0.415   2.392   6.676  1.1183 -3.2205 -1.7733
 2906SOL     OW20353   2.110   2.947   6.677  0.1827  0.2953 -0.5129
 2906SOL    HW120354   2.140   2.856   6.672  1.6435  0.7815 -0.5595
 2906SOL    HW220355   2.167   2.984   6.744 -0.7392  0.7977 -0.0068
 2907SOL     OW20356   0.011   1.615   8.103  0.6175 -0.0736  0.6023
 2907SOL    HW120357   4.713   1.678   8.040  2.0177 -0.9999 -1.1129
 2907SOL    HW220358   4.737   1.666   8.183  4.1383  1.0004  0.4687
 2908SOL     OW20359   2.142   4.041   6.697 -0.3841 -0.6690  0.0693
 2908SOL    HW120360   2.121   4.127   6.661 -2.8868 -0.2178  2.5725
 2908SOL    HW220361   2.230   4.067   6.722 -1.4323  0.8127  2.1538
 2909SOL     OW20362   3.613   1.930  11.856 -0.3170 -0.4786 -0.2232
 2909SOL    HW120363   3.608   1.936  11.761 -1.0518  0.2063 -0.1405
 2909SOL    HW220364   3.685   1.868  11.868  1.1751  0.8744 -2.2287
 2910SOL     OW20365   2.822   4.061   4.113 -0.2765 -0.1591 -0.4650
 2910SOL    HW120366   2.850   3.984   4.163  0.4599  1.7884  2.0819
 2910SOL    HW220367   2.828   4.131   4.178 -0.3527  0.1522 -0.7966
 2911SOL     OW20368   3.910   4.006   0.463 -0.0893 -0.0446 -0.0435
 2911SOL    HW120369   4.000   4.005   0.496 -0.5126  0.2821  1.1190
 2911SOL    HW220370   3.876   4.075   0.520 -0.0153  1.2276 -1.5395
 2912SOL     OW20371   3.519   3.211   7.519  0.3755  0.8326 -0.8762
 2912SOL    HW120372   3.562   3.127   7.507 -1.6060 -0.2585 -0.3393
 2912SOL    HW220373   3.588   3.261   7.562  0.0928  1.1874 -0.8272
 2913SOL     OW20374   1.067   3.524   2.607  0.1283  0.4175  0.0965
 2913SOL    HW120375   1.130   3.475   2.659 -1.8934 -0.4569  1.7164
 2913SOL    HW220376   1.128   3.597   2.600 -0.8750  0.9353 -3.0472
 2914SOL     OW20377   3.212   1.052  11.833 -0.0064 -0.4389 -0.0203
 2914SOL    HW120378   3.133   1.011  11.798  1.4613 -2.8237 -0.5830
 2914SOL    HW220379   3.268   1.042  11.756  1.0632 -0.4682  0.7532
 2915SOL     OW20380   2.034   1.331  14.729  1.0105  0.7095 -0.7230
 2915SOL    HW120381   2.016   1.301  14.640 -0.8793  1.4025 -0.5615
 2915SOL    HW220382   2.014   1.424  14.731 -3.3010 -0.2181 -1.6996
 2916SOL     OW20383   1.842   4.593   9.886  0.4271  0.2052 -0.0524
 2916SOL    HW120384   1.932   4.568   9.909  1.4366  2.4881 -1.4919
 2916SOL    HW220385   1.816   4.616   9.975 -0.1980 -0.8331  0.0280
 2917SOL     OW20386   1.754   2.390  12.614 -0.2390 -0.2943 -0.3014
 2917SOL    HW120387   1.659   2.390  12.602  0.0644 -0.9228 -2.8140
 2917SOL    HW220388   1.764   2.444  12.692 -0.0658 -0.0934 -0.4610
 2918SOL     OW20389   1.740   1.728   5.435 -0.8207  0.0774 -0.5537
 2918SOL    HW120390   1.748   1.734   5.340  1.9868  0.8264 -0.2699
 2918SOL    HW220391   1.664   1.783   5.455  0.0569  0.7787  0.8701
 2919SOL     OW20392   3.292   3.703   5.904 -0.3828  0.1997  0.3039
 2919SOL    HW120393   3.248   3.767   5.847  1.2968  1.3844  0.3354
 2919SOL    HW220394   3.277   3.749   5.986  1.2588 -0.5816  1.0282
 2920SOL     OW20395   3.589   2.286  16.131  0.1634 -0.2538  0.1654
 2920SOL    HW120396   3.667   2.316  16.177  0.7013  0.1339 -0.9811
 2920SOL    HW220397   3.527   2.263  16.200  0.7536  2.1156  1.4891
 2921SOL     OW20398   3.168   1.478  15.746 -0.0430  0.1277 -0.1201
 2921SOL    HW120399   3.102   1.450  15.682 -0.3000 -1.1568  0.7017
 2921SOL    HW220400   3.245   1.456  15.694 -0.3624  0.6550 -0.8174
 2922SOL     OW20401   3.042   1.417   3.850  0.9021  0.2290 -0.2289
 2922SOL    HW120402   3.028   1.367   3.931  0.3370 -0.5018 -0.7790
 2922SOL    HW220403   2.957   1.410   3.806  0.5354  1.1199  0.3323
 2923SOL     OW20404   3.915   3.924   5.113 -0.2299  0.0651 -1.0225
 2923SOL    HW120405   3.975   3.999   5.111  0.0127 -0.0046  2.6951
 2923SOL    HW220406   3.964   3.874   5.178 -1.5248  0.0299 -0.0681
 2924SOL     OW20407   3.461   3.210   2.749  0.2905  0.7076  0.0362
 2924SOL    HW120408   3.531   3.145   2.754  2.1752  2.8539  1.9040
 2924SOL    HW220409   3.417   3.175   2.827  2.2908 -1.3466  0.2689
 2925SOL     OW20410   0.813   0.620  13.784 -0.3190  0.0401  0.4636
 2925SOL    HW120411   0.746   0.557  13.756  0.1665 -0.6087  0.7636
 2925SOL    HW220412   0.769   0.643  13.866  0.7811  0.9535  0.7904
 2926SOL     OW20413   0.530   3.384   4.529  0.4365  0.4104 -0.1513
 2926SOL    HW120414   0.537   3.392   4.624 -0.2789 -0.1290 -0.0523
 2926SOL    HW220415   0.598   3.445   4.502  1.1523 -0.1583  0.3784
 2927SOL     OW20416   4.329   1.880   3.384 -0.1915  0.2615  0.2348
 2927SOL    HW120417   4.405   1.836   3.347  0.1241  2.4336 -1.6800
 2927SOL    HW220418   4.256   1.843   3.335  1.1227 -2.3996  0.3027
 2928SOL     OW20419   0.373   1.321  14.756  0.1381  0.2399 -0.0730
 2928SOL    HW120420   0.408   1.356  14.838  0.3294 -0.2667  0.0646
 2928SOL    HW220421   0.365   1.401  14.704 -3.0380  1.0215  1.6799
 2929SOL     OW20422   2.377   0.237   9.059 -0.0634 -0.2862  0.1427
 2929SOL    HW120423   2.344   0.318   9.097 -0.0875  0.5414 -1.6097
 2929SOL    HW220424   2.441   0.217   9.126 -1.7280 -0.4354  1.6689
 2930SOL     OW20425   0.352   0.455   7.100 -0.3319  0.0315  0.0233
 2930SOL    HW120426   0.423   0.464   7.163  0.7321  2.3004 -1.5085
 2930SOL    HW220427   0.378   0.494   7.016  0.7071  0.1175  0.3814
 2931SOL     OW20428   0.789   1.608   0.799  0.7034 -0.6084 -0.6119
 2931SOL    HW120429   0.707   1.584   0.756 -0.2564  1.8145 -0.1436
 2931SOL    HW220430   0.816   1.526   0.841  0.1961 -0.2953  0.3165
 2932SOL     OW20431   2.335   1.020  14.246  0.1774  0.0836 -0.1757
 2932SOL    HW120432   2.326   1.104  14.201 -3.0518 -1.2348 -2.0380
 2932SOL    HW220433   2.246   1.002  14.277  0.3737  0.4687  0.6091
 2933SOL     OW20434   2.329   3.759  13.881  0.1053 -0.0705 -0.5258
 2933SOL    HW120435   2.339   3.666  13.859 -1.1749  0.2007 -2.2211
 2933SOL    HW220436   2.318   3.807  13.799  1.5365  0.7441 -0.2550
 2934SOL     OW20437   3.436   2.180   5.660  0.3785 -0.0137  0.5436
 2934SOL    HW120438   3.351   2.223   5.672  0.5412  0.2531  0.7497
 2934SOL    HW220439   3.461   2.211   5.573 -2.4423 -2.5698 -1.1962
 2935SOL     OW20440   0.466   3.181   6.883  0.5140 -0.1476  0.1628
 2935SOL    HW120441   0.562   3.185   6.877  0.4752  1.4066  0.7669
 2935SOL    HW220442   0.448   3.123   6.957  0.5766  0.6171  0.7752
 2936SOL     OW20443   0.402   0.288   7.457  0.4164 -0.0347  0.2868
 2936SOL    HW120444   0.381   0.203   7.494 -0.3319  0.2109  0.4357
 2936SOL    HW220445   0.432   0.262   7.370 -1.5980  0.8018 -0.6471
 2937SOL     OW20446   2.118   1.300   2.803  0.1360 -0.2399 -0.2010
 2937SOL    HW120447   2.101   1.220   2.853  0.8541 -0.3804 -0.1790
 2937SOL    HW220448   2.211   1.304   2.827  0.3627  1.1352 -1.3200
 2938SOL     OW20449   3.248   2.715   4.096 -0.4717 -0.4213  0.2257
 2938SOL    HW120450   3.249   2.804   4.060  1.6832 -0.6638 -0.2904
 2938SOL    HW220451   3.167   2.686   4.054 -0.3595 -1.4525  0.7293
 2939SOL     OW20452   3.340   4.735  12.401  0.3975  0.5370  0.5575
 2939SOL    HW120453   3.390   0.077  12.418 -1.2408  1.6588  0.0075
 2939SOL    HW220454   3.273   0.019  12.465 -1.0805 -0.9878 -0.4796
 2940SOL     OW20455   1.599   0.663   1.436 -1.1390 -0.0965  0.7286
 2940SOL    HW120456   1.675   0.719   1.451  1.0854 -2.9230 -0.0457
 2940SOL    HW220457   1.537   0.704   1.496 -2.2679  0.3758 -0.7434
 2941SOL     OW20458   2.758   3.180   3.297  0.5573  0.2835  0.1410
 2941SOL    HW120459   2.707   3.174   3.378  1.6615  2.0350  0.9814
 2941SOL    HW220460   2.837   3.224   3.330  2.0865 -0.7544 -2.1240
 2942SOL     OW20461   3.790   3.566   3.858  0.0383 -0.0289  0.1789
 2942SOL    HW120462   3.811   3.483   3.816  0.1220  1.0343 -1.8736
 2942SOL    HW220463   3.785   3.548   3.952  0.9404  2.9954  0.7875
 2943SOL     OW20464   0.009   0.352   5.767  0.0382  0.0923  0.4661
 2943SOL    HW120465   0.060   0.271   5.774  1.9225  1.4038  1.8706
 2943SOL    HW220466   4.703   0.345   5.683  0.0886 -1.6477  0.5744
 2944SOL     OW20467   3.004   0.357   4.041  0.1432 -0.0143  0.6347
 2944SOL    HW120468   2.978   0.339   4.131  0.4951  1.7341  1.0821
 2944SOL    HW220469   3.098   0.376   4.046  0.0406 -0.0635  2.5271
 2945SOL     OW20470   0.276   4.275   4.013  0.4323 -0.3936 -0.4020
 2945SOL    HW120471   0.262   4.184   4.038  0.1389 -0.2653 -0.0957
 2945SOL    HW220472   0.329   4.303   4.087 -0.8274  2.1984 -0.4753
 2946SOL     OW20473   1.264   1.976   4.345  0.4127  0.3080 -0.3983
 2946SOL    HW120474   1.192   2.036   4.326  0.1293  0.0310 -0.1973
 2946SOL    HW220475   1.223   1.907   4.397  1.5862 -0.6843 -0.7985
 2947SOL     OW20476   2.439   0.228   6.574 -0.0311  0.6697  0.1866
 2947SOL    HW120477   2.438   0.308   6.520 -0.6084  0.9536  0.6164
 2947SOL    HW220478   2.394   0.262   6.651  1.3878 -0.6104  1.5594
 2948SOL     OW20479   2.012   3.937   3.220  0.5253  0.0065 -0.2265
 2948SOL    HW120480   2.011   3.848   3.257  1.2907 -0.1259 -0.5228
 2948SOL    HW220481   1.939   3.971   3.271  1.4732  0.3902  0.8695
 2949SOL     OW20482   2.103   1.104   6.135  0.1351  0.0311  0.0677
 2949SOL    HW120483   2.125   1.168   6.067  2.4596 -0.8218  0.0110
 2949SOL    HW220484   2.106   1.160   6.212 -0.0705  2.8935 -2.0048
 2950SOL     OW20485   3.997   0.959  13.568  0.3834 -0.4659  0.2650
 2950SOL    HW120486   3.989   0.942  13.662 -1.4088 -0.4748  0.1155
 2950SOL    HW220487   3.905   0.964  13.539  0.2085  1.2731  1.1712
 2951SOL     OW20488   3.136   4.647   8.942  0.8551 -0.0470 -0.6438
 2951SOL    HW120489   3.187   4.706   8.997  1.0746  0.0673 -0.9657
 2951SOL    HW220490   3.197   4.628   8.871  0.4031 -1.5215 -0.6399
 2952SOL     OW20491   0.998   3.050   8.314 -0.7626 -0.1310  0.4500
 2952SOL    HW120492   1.024   3.099   8.236  1.6800 -3.1585 -0.6428
 2952SOL    HW220493   0.917   3.084   8.350 -1.9200 -2.6327  0.1817
 2953SOL     OW20494   3.078   3.790  10.973 -0.0077 -0.3627 -0.4399
 2953SOL    HW120495   3.120   3.870  11.004 -1.0910  0.7967 -1.9299
 2953SOL    HW220496   2.992   3.819  11.003 -0.0205  0.1872 -1.0056
 2954SOL     OW20497   3.660   3.406   1.216 -0.6391 -0.0523  0.1460
 2954SOL    HW120498   3.643   3.486   1.166  0.7020  0.6218  0.7861
 2954SOL    HW220499   3.662   3.444   1.304  0.8055  0.6870 -0.2078
 2955SOL     OW20500   2.533   2.479   2.420  0.0403 -0.2141 -0.2704
 2955SOL    HW120501   2.528   2.540   2.347 -0.1461  1.2462  0.9573
 2955SOL    HW220502   2.539   2.398   2.370  1.3640 -0.4573  0.2612
 2956SOL     OW20503   3.296   2.191   7.161 -0.0053 -0.0711 -0.0952
 2956SOL    HW120504   3.235   2.138   7.211 -1.6194  1.6297 -0.2666
 2956SOL    HW220505   3.274   2.164   7.072  1.0361  0.2703 -0.4596
 2957SOL     OW20506   3.339   3.972   1.616  0.1090  0.0208  0.2353
 2957SOL    HW120507   3.363   4.008   1.702 -1.0873  1.2605  0.0584
 2957SOL    HW220508   3.420   3.963   1.567  0.0285  1.4225 -0.1724
 2958SOL     OW20509   3.495   2.954   1.997  0.1184  0.1674 -0.5949
 2958SOL    HW120510   3.536   2.901   2.065 -1.1078 -0.9137 -0.6871
 2958SOL    HW220511   3.543   3.033   2.023 -1.0425  0.8432 -0.4538
 2959SOL     OW20512   1.490   2.898   2.854  0.4890  0.4158 -0.1551
 2959SOL    HW120513   1.421   2.833   2.843 -0.5102  1.5239 -0.3537
 2959SOL    HW220514   1.445   2.962   2.908 -1.3192 -0.8233 -0.1981
 2960SOL     OW20515   0.228   3.542   6.190 -0.0991  0.5773 -0.3272
 2960SOL    HW120516   0.275   3.462   6.167  0.3893  0.2477  1.8421
 2960SOL    HW220517   0.215   3.529   6.284 -1.1259 -0.9063 -0.6679
 2961SOL     OW20518   4.197   3.093  10.768  0.2962  0.5437 -0.1165
 2961SOL    HW120519   4.182   3.029  10.698 -2.4006  1.0144 -0.0019
 2961SOL    HW220520   4.111   3.095  10.810  0.6260 -1.4900  0.6552
 2962SOL     OW20521   1.746   0.807  13.476 -0.2200 -0.0868  0.4242
 2962SOL    HW120522   1.731   0.832  13.384  1.1926  0.4547  0.3454
 2962SOL    HW220523   1.780   0.890  13.508 -1.3691 -0.6160  2.9653
 2963SOL     OW20524   2.300   1.508   3.884  0.1113  0.2258 -0.4179
 2963SOL    HW120525   2.248   1.555   3.950  1.0390 -0.7074  0.9913
 2963SOL    HW220526   2.339   1.585   3.841  0.9701 -0.7591 -1.3922
 2964SOL     OW20527   4.192   0.957   0.484  0.1826 -0.2914 -0.0815
 2964SOL    HW120528   4.191   0.909   0.567 -1.2699  0.2949  0.2419
 2964SOL    HW220529   4.159   0.900   0.415 -1.8221 -0.8912  1.3604
 2965SOL     OW20530   0.245   3.042   4.081  0.1878  0.2229  0.1853
 2965SOL    HW120531   0.224   3.136   4.074 -0.8359  0.0864  1.4891
 2965SOL    HW220532   0.226   3.014   4.170 -0.4195 -1.7790 -0.5704
 2966SOL     OW20533   1.210   3.090   6.990  0.4027 -0.0582 -0.0620
 2966SOL    HW120534   1.229   3.162   7.051 -1.1222 -1.1094  1.6458
 2966SOL    HW220535   1.287   3.034   6.997  0.3962 -0.1660 -0.9162
 2967SOL     OW20536   4.638   4.512   1.249  0.5519 -0.2554 -0.6945
 2967SOL    HW120537   4.628   4.418   1.237  1.4211 -0.4593  0.1682
 2967SOL    HW220538   4.684   4.525   1.332  0.9869 -0.1649 -0.9508
 2968SOL     OW20539   2.478   1.918   8.219 -0.5593 -0.0348  0.0688
 2968SOL    HW120540   2.499   1.945   8.308 -0.5993 -1.8567  0.6165
 2968SOL    HW220541   2.419   1.989   8.193  0.9446  1.2937  0.2791
 2969SOL     OW20542   0.186   3.645  12.522  0.8040  0.3042  0.4249
 2969SOL    HW120543   0.216   3.590  12.449 -1.2266 -0.0956 -0.0920
 2969SOL    HW220544   0.149   3.718  12.473  0.4944 -0.1882 -0.0646
 2970SOL     OW20545   3.562   3.756   1.686  0.3539  0.5813 -0.5714
 2970SOL    HW120546   3.646   3.710   1.680  0.2839  0.4494 -0.5304
 2970SOL    HW220547   3.562   3.814   1.610  1.1568  0.9046 -0.3314
 2971SOL     OW20548   4.178   0.008   8.710 -0.5342  0.0441 -0.3963
 2971SOL    HW120549   4.092   0.016   8.671 -0.0576  0.7330 -1.3067
 2971SOL    HW220550   4.187   4.651   8.710  3.0303  0.3603 -0.7843
 2972SOL     OW20551   2.460   3.687   8.058 -0.6027  0.0419 -0.3929
 2972SOL    HW120552   2.382   3.693   8.113 -0.6652 -0.8333 -0.3889
 2972SOL    HW220553   2.496   3.775   8.072  1.2702 -0.8349  0.2514
 2973SOL     OW20554   0.394   3.515   2.772 -0.0266  0.2015 -0.3943
 2973SOL    HW120555   0.312   3.518   2.722 -0.6697  0.6542  0.6871
 2973SOL    HW220556   0.393   3.602   2.811 -0.6588 -0.1298  0.3265
 2974SOL     OW20557   2.444   4.170   5.315 -0.1067  0.0110  0.3419
 2974SOL    HW120558   2.532   4.207   5.314 -0.5325  1.0443  1.0788
 2974SOL    HW220559   2.450   4.109   5.389 -1.9615 -2.2633 -1.4041
 2975SOL     OW20560   1.438   4.068  14.122  0.5585  0.1308 -0.2883
 2975SOL    HW120561   1.531   4.079  14.142  0.0471  0.5748  1.7781
 2975SOL    HW220562   1.456   4.008  14.049  0.1061 -0.1864 -0.1339
 2976SOL     OW20563   0.686   0.857   0.309 -0.1546 -0.1017  0.5392
 2976SOL    HW120564   0.687   0.841   0.403 -2.0114 -0.3046  0.5235
 2976SOL    HW220565   0.760   0.916   0.297  0.7240 -1.4518 -0.7487
 2977SOL     OW20566   1.428   2.141   3.375 -0.2351 -0.3337  0.2960
 2977SOL    HW120567   1.364   2.203   3.340 -0.9625 -2.1898 -1.6443
 2977SOL    HW220568   1.488   2.200   3.422  0.4681 -0.5211 -0.3604
 2978SOL     OW20569   1.957   4.462   4.184 -0.5781 -0.3302  0.9398
 2978SOL    HW120570   2.041   4.421   4.204 -0.2412 -0.8212 -1.5129
 2978SOL    HW220571   1.984   4.519   4.112  0.1042 -2.9149 -0.8586
 2979SOL     OW20572   0.386   4.315  15.486 -0.6479 -0.5436 -0.6731
 2979SOL    HW120573   0.437   4.291  15.564  0.3689  2.1344 -0.5129
 2979SOL    HW220574   0.300   4.302  15.524 -0.1135 -0.8254  0.4495
 2980SOL     OW20575   1.429   2.947   7.596 -0.2265  0.1579 -0.4808
 2980SOL    HW120576   1.517   2.917   7.617  0.3739  1.3620 -1.2796
 2980SOL    HW220577   1.382   2.863   7.591 -0.4777  0.3766 -1.7809
 2981SOL     OW20578   2.367   4.041   9.742 -0.6965 -0.4279  0.3860
 2981SOL    HW120579   2.298   4.043   9.677  0.4755 -1.4553 -0.8951
 2981SOL    HW220580   2.387   3.947   9.748  0.9866 -0.2685 -3.0119
 2982SOL     OW20581   4.222   2.425   7.580 -0.2792 -0.1590 -0.5799
 2982SOL    HW120582   4.135   2.460   7.558 -0.9042 -1.1197  0.3561
 2982SOL    HW220583   4.213   2.331   7.589  1.1112 -0.3382 -1.1905
 2983SOL     OW20584   4.694   0.707   4.549  0.1176 -1.0541  0.1479
 2983SOL    HW120585   4.703   0.800   4.531 -1.7256 -1.0125 -0.5581
 2983SOL    HW220586   0.036   0.676   4.508  0.1208 -0.3885 -0.3421
 2984SOL     OW20587   4.164   0.331   8.903  0.1826  0.1210  0.1220
 2984SOL    HW120588   4.229   0.290   8.960  0.0478 -0.5069 -0.1715
 2984SOL    HW220589   4.222   0.396   8.864  2.6319 -2.3379 -0.2643
 2985SOL     OW20590   1.823   3.243   3.185  0.3847 -0.0871 -0.0056
 2985SOL    HW120591   1.828   3.150   3.208 -1.8444 -0.2790 -0.2873
 2985SOL    HW220592   1.730   3.245   3.164  0.1506  2.4676  1.2903
 2986SOL     OW20593   0.989   0.580  10.038 -0.1938  0.2862 -0.2982
 2986SOL    HW120594   0.994   0.518   9.964  1.0622 -1.8386  1.5497
 2986SOL    HW220595   0.895   0.580  10.053 -0.1377 -0.4404  0.0830
 2987SOL     OW20596   0.524   0.752   7.692  0.1825  0.4056  0.0738
 2987SOL    HW120597   0.605   0.706   7.712  1.4838  2.1122 -1.3121
 2987SOL    HW220598   0.555   0.839   7.666  3.1936 -0.4215  0.9338
 2988SOL     OW20599   1.208   4.265   6.490  0.1849  0.5777  0.6313
 2988SOL    HW120600   1.251   4.179   6.485 -1.2219 -0.0593 -0.7943
 2988SOL    HW220601   1.198   4.270   6.585 -2.0476 -1.8082  0.5423
 2989SOL     OW20602   0.437   2.117  17.537 -0.2518  0.5487  0.4457
 2989SOL    HW120603   0.377   2.073  17.597  0.7621 -2.5623 -0.8022
 2989SOL    HW220604   0.380   2.118  17.460 -0.3233 -2.5568  0.4514
 2990SOL     OW20605   0.612   0.407   4.817  0.2913 -0.6151 -0.4303
 2990SOL    HW120606   0.665   0.359   4.753 -0.0567 -1.1570 -0.3162
 2990SOL    HW220607   0.592   0.487   4.769 -0.8794 -1.1066 -0.7594
 2991SOL     OW20608   1.425   1.526   1.959 -0.4215 -0.2746 -0.6823
 2991SOL    HW120609   1.513   1.487   1.963  0.6750  2.2151 -0.2934
 2991SOL    HW220610   1.371   1.448   1.958 -0.5142 -0.1672 -3.7680
 2992SOL     OW20611   3.058   2.099   7.282 -0.2956  0.3446  0.0721
 2992SOL    HW120612   3.005   2.115   7.360 -0.6154  0.5364 -0.1842
 2992SOL    HW220613   2.984   2.108   7.221 -0.7941 -1.0434  0.4654
 2993SOL     OW20614   2.597   4.006   1.729  0.1558 -0.3736 -0.4959
 2993SOL    HW120615   2.676   4.057   1.712 -0.1617  0.8512  1.5772
 2993SOL    HW220616   2.619   3.932   1.786 -0.0364 -1.1828 -1.4830
 2994SOL     OW20617   1.139   2.797  14.539  0.4108 -0.3994  0.3478
 2994SOL    HW120618   1.085   2.810  14.617  2.0843 -1.3311  1.6537
 2994SOL    HW220619   1.122   2.879  14.492  1.0777 -0.4181  0.0821
 2995SOL     OW20620   1.945   4.632   6.746  0.3623 -0.6174 -0.4191
 2995SOL    HW120621   1.852   4.648   6.764  0.0457 -2.2007 -0.6077
 2995SOL    HW220622   1.972   4.602   6.833  1.0381 -0.8843 -0.7194
 2996SOL     OW20623   1.667   4.453   1.372  0.1156 -0.3463  0.1216
 2996SOL    HW120624   1.658   4.376   1.428  0.4229 -1.2469 -1.0611
 2996SOL    HW220625   1.708   4.415   1.294 -0.5817 -1.8938  0.5133
 2997SOL     OW20626   3.952   3.592  11.703  0.1232  0.8940  0.1280
 2997SOL    HW120627   4.045   3.580  11.686  0.0079  0.6094 -0.3200
 2997SOL    HW220628   3.936   3.513  11.754  1.3244 -0.9082 -2.2908
 2998SOL     OW20629   1.214   4.089   5.335 -0.2696 -0.2298 -0.4591
 2998SOL    HW120630   1.287   4.136   5.295 -0.0043 -0.4853 -0.2719
 2998SOL    HW220631   1.226   3.996   5.313 -1.4174  0.1507 -2.7558
 2999SOL     OW20632   0.791   4.355  11.889  0.6916  0.1773  0.3276
 2999SOL    HW120633   0.762   4.389  11.974  1.0465 -0.3669  0.6674
 2999SOL    HW220634   0.710   4.330  11.846  1.5482 -3.1582  0.7024
 3000SOL     OW20635   1.406   1.420   7.118 -0.1063 -0.1940  0.1204
 3000SOL    HW120636   1.427   1.459   7.033  0.0180 -1.4590 -0.4255
 3000SOL    HW220637   1.472   1.351   7.120  1.0451  0.9593  1.4007
 3001SOL     OW20638   1.380   2.369   8.321  0.0865 -0.0757  0.7228
 3001SOL    HW120639   1.358   2.459   8.347  0.0430 -0.2474  1.2768
 3001SOL    HW220640   1.298   2.322   8.334  0.5533 -0.7187  1.3030
 3002SOL     OW20641   4.038   3.169   0.620  0.4384 -1.1459  0.5700
 3002SOL    HW120642   4.080   3.254   0.608 -1.1610 -0.8848 -3.4066
 3002SOL    HW220643   4.059   3.156   0.712  0.8833 -1.3840  0.4368
 3003SOL     OW20644   3.288   2.902   2.782 -0.3773  0.4793 -0.6194
 3003SOL    HW120645   3.346   2.975   2.804  2.7171 -1.5379 -1.9694
 3003SOL    HW220646   3.342   2.854   2.719 -1.9083 -1.5633 -0.3855
 3004SOL     OW20647   1.082   0.162  12.645 -0.2852  0.6284  0.9595
 3004SOL    HW120648   1.160   0.134  12.693 -0.1169  0.0313  0.3230
 3004SOL    HW220649   1.016   0.183  12.712  1.2470 -1.1171  3.0054
 3005SOL     OW20650   2.476   1.162  10.425  0.0206  0.0512 -0.1886
 3005SOL    HW120651   2.469   1.078  10.379 -2.8098 -1.2046  2.6022
 3005SOL    HW220652   2.486   1.138  10.517  0.2429  1.0060  0.0409
 3006SOL     OW20653   1.168   1.715  14.494  0.0528  0.1054 -0.1334
 3006SOL    HW120654   1.195   1.630  14.530  0.6415 -0.3123 -1.5433
 3006SOL    HW220655   1.247   1.768  14.487  0.8689 -1.0477  0.1948
 3007SOL     OW20656   0.380   2.705  12.677  0.1127  0.0666 -0.7941
 3007SOL    HW120657   0.307   2.644  12.685 -1.2501  1.8622  0.4593
 3007SOL    HW220658   0.394   2.705  12.582 -1.9616 -3.0235 -1.1136
 3008SOL     OW20659   2.727   4.319   6.816  0.0143 -0.1349  0.0055
 3008SOL    HW120660   2.652   4.368   6.780 -1.1478 -0.6288  1.7489
 3008SOL    HW220661   2.687   4.233   6.829  0.8816 -0.2967  1.5638
 3009SOL     OW20662   2.578   3.751   1.911 -0.0075 -0.2679  0.1449
 3009SOL    HW120663   2.648   3.698   1.871 -0.0749  1.4014 -2.2006
 3009SOL    HW220664   2.592   3.739   2.005  1.6925 -1.8215 -0.2894
 3010SOL     OW20665   0.091   3.909   3.215  0.1143  0.0634 -0.4496
 3010SOL    HW120666   0.034   3.983   3.234  0.3283  0.3418 -0.8848
 3010SOL    HW220667   0.151   3.950   3.152  0.2126  0.3605 -0.1604
 3011SOL     OW20668   2.289   2.290   4.966 -0.4919  0.1415  0.1456
 3011SOL    HW120669   2.194   2.288   4.970 -0.5905  1.0063 -2.1989
 3011SOL    HW220670   2.317   2.214   5.017 -2.1518 -0.0960  0.7054
 3012SOL     OW20671   3.796   0.750  12.643 -0.4563  0.2558  0.0625
 3012SOL    HW120672   3.793   0.845  12.649 -1.2984  0.2170  0.3125
 3012SOL    HW220673   3.804   0.742  12.548 -1.4007 -0.5442  0.0454
 3013SOL     OW20674   1.704   0.169   2.208 -0.1689  0.0577 -0.1798
 3013SOL    HW120675   1.619   0.132   2.232  1.2152 -1.5010  2.4353
 3013SOL    HW220676   1.710   0.108   2.134 -0.8940 -2.4470  1.8133
 3014SOL     OW20677   1.226   3.792   6.658  0.2828 -0.4185 -0.5670
 3014SOL    HW120678   1.266   3.814   6.743  0.7459 -0.9260 -0.6495
 3014SOL    HW220679   1.271   3.710   6.637 -0.3550 -1.7824  3.2410
 3015SOL     OW20680   1.311   4.521   4.701 -0.3202 -0.2087  0.4339
 3015SOL    HW120681   1.234   4.469   4.723 -2.0106  1.8533 -0.5901
 3015SOL    HW220682   1.282   4.612   4.714  4.4102  1.2746  0.6233
 3016SOL     OW20683   3.438   0.887  11.976  0.1004  0.2576 -0.8664
 3016SOL    HW120684   3.414   0.963  11.923 -1.7525 -0.0067 -0.4189
 3016SOL    HW220685   3.468   0.826  11.908  1.4858 -1.5607  1.3722
 3017SOL     OW20686   3.831   3.611   7.321 -0.3825 -0.3844 -0.3099
 3017SOL    HW120687   3.791   3.661   7.392 -1.1347  1.9143 -2.3651
 3017SOL    HW220688   3.798   3.522   7.332 -1.5389  0.1037  0.0938
 3018SOL     OW20689   0.970   4.077   8.607  0.2668  0.1686  0.3257
 3018SOL    HW120690   1.045   4.135   8.613  0.1251  0.3971 -0.1206
 3018SOL    HW220691   1.016   4.003   8.568  1.8545  2.2624 -1.8221
 3019SOL     OW20692   1.081   2.652  10.703  0.8331 -0.3117 -0.0618
 3019SOL    HW120693   1.066   2.625  10.793  1.1362  0.1530  0.1295
 3019SOL    HW220694   1.174   2.671  10.714  0.3766  1.2192  1.0717
 3020SOL     OW20695   3.518   1.123   6.824 -0.2387  0.2369 -0.3422
 3020SOL    HW120696   3.581   1.135   6.895 -0.9292 -0.7782  0.4511
 3020SOL    HW220697   3.435   1.118   6.871 -0.1984  0.3276 -0.2628
 3021SOL     OW20698   2.691   4.166   5.667 -0.0242  0.5371 -0.8811
 3021SOL    HW120699   2.716   4.256   5.647  2.2771 -0.6289 -3.2025
 3021SOL    HW220700   2.753   4.111   5.619 -2.2378 -2.6929 -0.0776
 3022SOL     OW20701   2.057   0.757  17.483 -0.3958  0.2677  0.4100
 3022SOL    HW120702   2.042   0.705  17.405 -0.1844  1.8663 -0.7003
 3022SOL    HW220703   1.966   0.769  17.509 -0.1430  0.2705  1.2884
 3023SOL     OW20704   1.053   3.090   6.682 -0.1036  0.4290 -0.1860
 3023SOL    HW120705   1.057   3.174   6.637  1.9265  1.1478  1.3569
 3023SOL    HW220706   1.140   3.054   6.666 -0.5243  0.0746 -1.7366
 3024SOL     OW20707   1.002   2.927   4.851 -0.4609 -0.8502 -0.4799
 3024SOL    HW120708   0.988   3.016   4.818 -0.9699 -1.6663 -2.4555
 3024SOL    HW220709   1.030   2.886   4.769  0.6959  1.0664 -1.0446
 3025SOL     OW20710   1.541   2.206   2.040  0.0920  0.2258  0.0258
 3025SOL    HW120711   1.605   2.235   1.975  1.6495  1.4049  2.0731
 3025SOL    HW220712   1.599   2.183   2.112  1.4086  0.5547 -0.9272
 3026SOL     OW20713   1.776   3.489   9.327 -0.0249  0.1283 -0.1147
 3026SOL    HW120714   1.812   3.410   9.369  0.0586 -0.0965 -0.6074
 3026SOL    HW220715   1.772   3.559   9.393  2.4959  0.3716 -0.2339
 3027SOL     OW20716   3.194   2.412   8.870 -0.1462  0.1489 -0.1788
 3027SOL    HW120717   3.150   2.334   8.902  0.0651  0.4922  0.9546
 3027SOL    HW220718   3.130   2.454   8.813 -0.1322 -0.8399 -0.9196
 3028SOL     OW20719   1.620   3.529   6.267 -0.0536  0.8431  1.0586
 3028SOL    HW120720   1.567   3.479   6.205  0.0253  3.8749 -1.4545
 3028SOL    HW220721   1.548   3.575   6.309 -1.7976 -1.6710  0.8165
 3029SOL     OW20722   4.712   2.287  12.671 -0.4230 -0.2443  0.2162
 3029SOL    HW120723   4.653   2.218  12.642  0.7314 -1.1677  0.0631
 3029SOL    HW220724   0.026   2.232  12.729 -1.8761 -1.2469  0.5525
 3030SOL     OW20725   1.176   0.855  10.460  0.5442 -0.5660  1.0203
 3030SOL    HW120726   1.124   0.775  10.452 -1.1764  0.7501 -0.8433
 3030SOL    HW220727   1.129   0.903  10.392  0.2896  1.8208  2.8943
 3031SOL     OW20728   3.812   3.687   1.804 -0.1608 -0.5334  0.0089
 3031SOL    HW120729   3.832   3.623   1.872  0.3907  1.7921  2.0345
 3031SOL    HW220730   3.850   3.765   1.843 -1.4196 -0.5345  1.2424
 3032SOL     OW20731   2.874   0.866   8.190 -0.7883 -0.1944  0.4623
 3032SOL    HW120732   2.817   0.791   8.208  0.1329 -1.0384 -0.1099
 3032SOL    HW220733   2.913   0.875   8.276 -5.6300  3.3982  2.2518
 3033SOL     OW20734   1.766   4.065  12.877 -0.8362  0.0795 -0.1680
 3033SOL    HW120735   1.829   3.993  12.869  0.5027  0.9148  2.8935
 3033SOL    HW220736   1.762   4.073  12.972  1.4689 -0.9882  0.0110
 3034SOL     OW20737   2.294   2.845   2.256 -0.3886 -0.1931  0.2474
 3034SOL    HW120738   2.301   2.924   2.202  0.0138 -1.5008 -1.6129
 3034SOL    HW220739   2.380   2.845   2.298  0.2934  1.4400 -1.1368
 3035SOL     OW20740   4.074   1.396   2.357  0.3776 -0.3671 -0.0089
 3035SOL    HW120741   4.027   1.337   2.416  3.3564 -0.9070  1.8759
 3035SOL    HW220742   4.132   1.438   2.422 -0.2887 -0.9774  0.9761
 3036SOL     OW20743   2.054   0.488   9.303 -0.0980 -0.1586 -0.3125
 3036SOL    HW120744   2.080   0.523   9.388 -0.2391  0.2749 -0.4481
 3036SOL    HW220745   1.959   0.476   9.308 -0.1897  1.1872  1.2675
 3037SOL     OW20746   0.028   0.074  15.758  0.6222 -0.1284 -0.1550
 3037SOL    HW120747   4.680   0.066  15.800 -0.5781  0.1045 -2.5886
 3037SOL    HW220748   0.051   0.154  15.806 -0.4098 -0.5898  1.1186
 3038SOL     OW20749   4.371   0.827   4.985 -0.1412 -0.4012  0.0603
 3038SOL    HW120750   4.277   0.844   4.996  0.2368  1.5467  0.2381
 3038SOL    HW220751   4.363   0.813   4.891 -0.2778  2.1716 -0.3098
 3039SOL     OW20752   0.431   3.987   2.639 -0.2948 -0.0588 -0.6896
 3039SOL    HW120753   0.500   4.049   2.663 -1.8248  0.7970  1.5031
 3039SOL    HW220754   0.480   3.906   2.625  1.8882  1.0787  0.2297
 3040SOL     OW20755   0.937   4.268   7.813  0.0591 -0.0624 -0.2599
 3040SOL    HW120756   0.867   4.333   7.804  1.1472  1.1647  0.0537
 3040SOL    HW220757   0.948   4.242   7.904 -0.1266 -0.1388 -0.2607
 3041SOL     OW20758   0.881   3.427   4.723  0.0324 -0.0410  0.6229
 3041SOL    HW120759   0.794   3.437   4.761 -0.9781 -0.6122 -1.5787
 3041SOL    HW220760   0.863   3.462   4.636 -0.2412 -0.8770  0.3428
 3042SOL     OW20761   3.942   3.325   7.776  0.2724  0.2576 -0.3588
 3042SOL    HW120762   3.855   3.328   7.817  0.3306 -1.6222 -0.1192
 3042SOL    HW220763   3.906   3.306   7.689  0.4796 -0.3957 -0.2955
 3043SOL     OW20764   0.306   1.296   8.499  0.1197  0.2295  0.4121
 3043SOL    HW120765   0.273   1.384   8.515 -0.4212 -0.5121  3.3482
 3043SOL    HW220766   0.355   1.298   8.416 -0.9857 -1.6028 -0.2700
 3044SOL     OW20767   4.116   0.291   8.526 -0.3436  0.1774  0.1608
 3044SOL    HW120768   4.046   0.330   8.578 -1.1455 -0.5867 -0.3402
 3044SOL    HW220769   4.093   0.337   8.446 -0.5668 -2.4254 -1.2665
 3045SOL     OW20770   4.489   2.424   2.492  0.2847  0.1797 -0.2854
 3045SOL    HW120771   4.541   2.400   2.415 -0.1181 -2.0283  0.1410
 3045SOL    HW220772   4.479   2.517   2.471  0.8689  0.5308  0.9917
 3046SOL     OW20773   0.346   3.001   1.545 -0.4061  0.1034  0.0490
 3046SOL    HW120774   0.424   2.949   1.561 -0.3817 -0.4517 -1.8736
 3046SOL    HW220775   0.326   2.976   1.454  0.6897  0.4692 -0.2937
 3047SOL     OW20776   4.673   2.647   1.531  0.5017 -0.0291 -0.2900
 3047SOL    HW120777   0.028   2.649   1.512  0.4545 -2.6351 -0.7944
 3047SOL    HW220778   4.672   2.739   1.556  2.5470 -0.6511  2.0441
 3048SOL     OW20779   1.098   3.065   2.728  0.1643 -0.3592 -0.4386
 3048SOL    HW120780   1.052   3.019   2.657 -2.0909 -0.4650  1.0721
 3048SOL    HW220781   1.188   3.061   2.695  1.5954 -1.5059  3.6032
 3049SOL     OW20782   2.938   0.686   5.790  0.2500 -0.3065  0.2653
 3049SOL    HW120783   2.967   0.600   5.762  0.7795 -0.7396  2.1373
 3049SOL    HW220784   2.914   0.648   5.875  1.3793 -1.8384 -0.1060
 3050SOL     OW20785   2.150   0.502   6.607 -0.1377 -0.0947  0.2296
 3050SOL    HW120786   2.086   0.544   6.665  1.5041  1.8559  0.5967
 3050SOL    HW220787   2.176   0.571   6.546 -1.1907 -0.7182 -0.9328
 3051SOL     OW20788   2.871   2.352  17.085  0.4023  0.3913  0.4361
 3051SOL    HW120789   2.786   2.387  17.060 -1.0732 -1.5323  2.8417
 3051SOL    HW220790   2.843   2.265  17.113  0.2479  0.1102 -0.6173
 3052SOL     OW20791   1.848   0.232  13.307  0.0008 -0.1091  0.2078
 3052SOL    HW120792   1.932   0.275  13.292  0.1204 -0.5633 -0.4153
 3052SOL    HW220793   1.874   0.199  13.393  0.4031 -3.5364 -1.2398
 3053SOL     OW20794   2.497   2.658   7.056  0.1720  0.4080 -0.3307
 3053SOL    HW120795   2.530   2.747   7.073  0.8469  0.4023 -1.6250
 3053SOL    HW220796   2.443   2.641   7.133 -0.2678 -1.9935 -1.1816
 3054SOL     OW20797   0.171   4.203  11.400  0.3489 -0.4728  0.4743
 3054SOL    HW120798   0.211   4.119  11.379 -0.0050 -0.4659 -0.2124
 3054SOL    HW220799   0.097   4.161  11.444  0.2686  0.9117  1.6716
 3055SOL     OW20800   1.873   1.024   9.495 -0.4940 -0.3760  0.3437
 3055SOL    HW120801   1.953   1.017   9.444  1.2559  0.1647  3.0089
 3055SOL    HW220802   1.851   0.931   9.500 -0.9137 -0.3689 -1.3109
 3056SOL     OW20803   4.223   1.070   3.204 -0.4657  0.0758  0.1041
 3056SOL    HW120804   4.154   1.059   3.139 -0.4628  0.5484  0.0207
 3056SOL    HW220805   4.250   0.982   3.232  1.8899  1.2542  1.5381
 3057SOL     OW20806   0.526   2.058   4.621 -0.4315 -0.0754  0.0415
 3057SOL    HW120807   0.472   1.986   4.588  0.1867 -0.9734  0.9859
 3057SOL    HW220808   0.494   2.135   4.573 -3.0835 -0.3850  1.3272
 3058SOL     OW20809   1.854   2.084   7.028  0.1515  0.5174 -0.3068
 3058SOL    HW120810   1.809   2.162   7.061  1.9219  0.8575  1.3189
 3058SOL    HW220811   1.787   2.059   6.964 -0.6914  0.0606  0.7541
 3059SOL     OW20812   0.667   2.608   4.913  0.4350  0.6239 -0.0270
 3059SOL    HW120813   0.715   2.586   4.993  2.5106 -0.0746 -1.4628
 3059SOL    HW220814   0.675   2.703   4.914 -0.2534  0.6643  1.7835
 3060SOL     OW20815   2.679   0.311  11.845 -0.0356  0.5587  0.2042
 3060SOL    HW120816   2.599   0.339  11.802 -1.1062  0.2405  2.0165
 3060SOL    HW220817   2.701   0.393  11.890 -0.7974  1.0423 -0.3082
 3061SOL     OW20818   0.247   3.042   2.468  0.0256  0.1647 -0.1064
 3061SOL    HW120819   0.181   3.092   2.419  0.2678 -0.5831 -1.2118
 3061SOL    HW220820   0.216   3.050   2.558  0.8392  3.0800 -0.0957
 3062SOL     OW20821   1.353   3.436   4.743  0.5123 -1.0436 -0.1997
 3062SOL    HW120822   1.345   3.357   4.796  1.3470  1.6460  3.9863
 3062SOL    HW220823   1.281   3.484   4.785  1.9471  1.7899 -0.9733
 3063SOL     OW20824   2.335   2.971   7.778 -0.0646 -0.7773 -0.0240
 3063SOL    HW120825   2.417   3.004   7.813 -0.1898  0.6088 -1.0175
 3063SOL    HW220826   2.367   2.913   7.708  1.9119 -0.3915  0.5859
 3064SOL     OW20827   3.940   1.824   7.365 -0.4065  0.4137 -0.6615
 3064SOL    HW120828   3.914   1.739   7.401  0.4305  0.1407 -0.7019
 3064SOL    HW220829   3.882   1.836   7.290 -2.9511 -0.1761  1.1914
 3065SOL     OW20830   4.099   4.491   5.073  0.6604 -0.0148  0.0078
 3065SOL    HW120831   4.147   4.536   5.143 -1.5355 -1.7345  2.6165
 3065SOL    HW220832   4.124   4.536   4.993  2.4761 -2.5405 -0.8633
 3066SOL     OW20833   2.536   2.173  12.354  0.1940  0.6476 -0.4896
 3066SOL    HW120834   2.575   2.183  12.440 -0.5619 -1.6334  0.1159
 3066SOL    HW220835   2.611   2.175  12.294  0.3148  2.0867 -0.2963
 3067SOL     OW20836   1.869   4.057  13.884  0.4633  0.1399  0.1252
 3067SOL    HW120837   1.913   3.975  13.907  2.3917  0.6633 -1.7698
 3067SOL    HW220838   1.868   4.060  13.788 -0.6504 -2.9901  0.0334
 3068SOL     OW20839   3.474   4.335  13.935 -0.1374  0.2541 -0.0116
 3068SOL    HW120840   3.417   4.260  13.915 -0.0672 -0.5219  2.8267
 3068SOL    HW220841   3.469   4.335  14.030 -1.7386  2.5236 -0.1001
 3069SOL     OW20842   2.231   2.749   3.847 -0.0085  0.0659 -0.1009
 3069SOL    HW120843   2.222   2.752   3.752 -3.9693  0.7915  0.3122
 3069SOL    HW220844   2.210   2.839   3.870 -2.6982 -0.2994 -1.1535
 3070SOL     OW20845   1.809   4.447   7.727 -0.0381 -0.0152  0.1965
 3070SOL    HW120846   1.762   4.363   7.720 -0.6691  0.1523  2.4285
 3070SOL    HW220847   1.839   4.441   7.818  1.0080  1.6499 -0.0516
 3071SOL     OW20848   4.391   0.493   4.303 -0.2554 -0.3996  0.4919
 3071SOL    HW120849   4.399   0.406   4.264 -1.0858 -0.0314 -0.4806
 3071SOL    HW220850   4.420   0.484   4.394 -0.8861 -0.9379  0.6451
 3072SOL     OW20851   4.275   0.923  10.931 -0.4813 -0.1187 -0.3093
 3072SOL    HW120852   4.284   1.012  10.895 -1.2715 -0.2375 -0.7886
 3072SOL    HW220853   4.273   0.940  11.025 -0.6728 -1.1601 -0.1265
 3073SOL     OW20854   3.985   3.619   7.814 -0.8856  0.2267  0.0663
 3073SOL    HW120855   4.010   3.530   7.791  1.2251  1.1041 -1.0706
 3073SOL    HW220856   3.890   3.608   7.810 -0.9732  1.4944 -1.8217
 3074SOL     OW20857   1.462   1.949  15.151 -0.2916  0.8019 -0.1450
 3074SOL    HW120858   1.523   1.987  15.215 -0.0701 -0.5302  0.4263
 3074SOL    HW220859   1.380   1.976  15.191 -0.1822  0.1201  0.5362
 3075SOL     OW20860   2.898   1.797  14.469  0.4850  0.6181  0.4595
 3075SOL    HW120861   2.824   1.781  14.528 -0.0412  1.4838  0.0417
 3075SOL    HW220862   2.922   1.883  14.505 -1.1908  1.0660  0.5204
 3076SOL     OW20863   4.363   1.794  12.575 -0.6599  0.0925 -0.2420
 3076SOL    HW120864   4.410   1.865  12.618 -0.6149 -0.2120  0.2091
 3076SOL    HW220865   4.416   1.779  12.496 -1.1966 -0.6201 -0.4650
 3077SOL     OW20866   3.684   1.716  16.268 -0.7821 -0.2451 -0.1982
 3077SOL    HW120867   3.641   1.690  16.350  1.6382 -0.4051  1.0091
 3077SOL    HW220868   3.683   1.633  16.220 -1.0758 -0.4977  0.2444
 3078SOL     OW20869   2.148   1.804  12.687  0.3867  0.3411 -0.3481
 3078SOL    HW120870   2.143   1.720  12.733 -2.4871  0.7767  0.1537
 3078SOL    HW220871   2.096   1.785  12.608 -0.0862 -3.0904  0.7755
 3079SOL     OW20872   4.151   0.685   4.895 -0.0478 -0.7648 -0.2967
 3079SOL    HW120873   4.141   0.629   4.972 -1.1200 -0.8925 -0.5195
 3079SOL    HW220874   4.128   0.762   4.947 -0.2597 -0.8206 -0.3046
 3080SOL     OW20875   2.479   1.876   6.995 -0.0260 -0.0891  0.8082
 3080SOL    HW120876   2.472   1.801   6.936  4.3402 -0.2645  0.4712
 3080SOL    HW220877   2.478   1.834   7.082  0.6349  1.6088  1.6238
 3081SOL     OW20878   2.369   0.797   5.163  0.0394  0.6679 -0.0404
 3081SOL    HW120879   2.392   0.710   5.194 -4.0119 -0.2567  0.3649
 3081SOL    HW220880   2.314   0.825   5.236 -0.9270  0.1228 -0.5595
 3082SOL     OW20881   3.409   3.101  10.968  0.7134  0.1236  0.1761
 3082SOL    HW120882   3.320   3.115  10.998  0.1534 -2.8892 -0.0779
 3082SOL    HW220883   3.409   3.007  10.984 -0.9237  0.1322  0.2231
 3083SOL     OW20884   1.662   3.575   8.161 -0.0563  0.7305 -0.1006
 3083SOL    HW120885   1.720   3.504   8.190  0.2573 -0.3222 -3.2382
 3083SOL    HW220886   1.624   3.601   8.245  0.9320 -0.8577  0.8534
 3084SOL     OW20887   1.415   0.892   5.271  0.7705 -0.2261 -0.4619
 3084SOL    HW120888   1.491   0.939   5.236 -0.4475  0.9185 -1.5843
 3084SOL    HW220889   1.414   0.807   5.228  0.3914 -0.6768  0.4369
 3085SOL     OW20890   1.059   0.803  14.972  0.2112 -0.2608 -0.4559
 3085SOL    HW120891   1.140   0.850  14.992  1.0348 -1.4458 -1.0114
 3085SOL    HW220892   0.998   0.832  15.040  0.0175 -1.0569 -0.2892
 3086SOL     OW20893   0.759   3.544   4.467 -0.1429 -0.0858 -0.1653
 3086SOL    HW120894   0.830   3.545   4.403  2.7540  0.7247  3.0915
 3086SOL    HW220895   0.725   3.633   4.462  0.7850  0.1914 -1.6094
 3087SOL     OW20896   3.259   2.819  14.161 -0.1576 -0.1643  0.6719
 3087SOL    HW120897   3.273   2.735  14.205 -0.8498  0.4088  1.9870
 3087SOL    HW220898   3.351   2.845  14.153 -0.3107  0.3937  0.7194
 3088SOL     OW20899   1.215   3.967  16.930 -0.0549 -0.2309  0.5566
 3088SOL    HW120900   1.309   3.962  16.946  0.6467  1.1001 -3.1720
 3088SOL    HW220901   1.186   3.897  16.988  0.1562 -1.7147 -1.1158
 3089SOL     OW20902   4.486   3.228   6.396 -0.7753 -0.4239 -0.1252
 3089SOL    HW120903   4.497   3.170   6.471 -0.8501  0.3168  0.4602
 3089SOL    HW220904   4.533   3.310   6.412 -1.3392 -0.3607  1.2159
 3090SOL     OW20905   1.339   0.349  13.062 -0.4710 -0.5768 -0.3279
 3090SOL    HW120906   1.416   0.328  13.115 -2.4357  0.6104  2.9814
 3090SOL    HW220907   1.340   0.444  13.051  0.2693 -0.6774 -1.1476
 3091SOL     OW20908   1.332   4.159   8.272 -0.0103  0.3563 -0.3242
 3091SOL    HW120909   1.247   4.116   8.280 -0.4231  1.1843 -0.2496
 3091SOL    HW220910   1.382   4.082   8.246 -1.3453 -0.7789  0.5309
 3092SOL     OW20911   2.349   4.397   5.945  0.0951 -0.5487  0.0304
 3092SOL    HW120912   2.314   4.394   5.856 -2.5138  1.9759  0.9624
 3092SOL    HW220913   2.428   4.451   5.930 -0.1227 -0.5482 -1.1564
 3093SOL     OW20914   1.186   1.283   1.894 -0.1763 -0.8104 -0.8572
 3093SOL    HW120915   1.120   1.333   1.845  1.7308  0.7652 -1.8475
 3093SOL    HW220916   1.137   1.267   1.974  0.1187 -0.3358 -0.5810
 3094SOL     OW20917   1.627   1.417  15.258 -0.2294  0.2106  0.4759
 3094SOL    HW120918   1.593   1.505  15.238 -0.0546 -0.2712 -2.0211
 3094SOL    HW220919   1.690   1.439  15.326 -1.2701 -1.7817  2.0845
 3095SOL     OW20920   2.588   2.295   7.107 -0.5499  0.0112  1.1952
 3095SOL    HW120921   2.533   2.245   7.167  0.4824 -0.9676  1.3308
 3095SOL    HW220922   2.555   2.384   7.121  0.8937  0.8901 -1.0114
 3096SOL     OW20923   4.263   2.188   8.175  0.4201  0.1592  0.2713
 3096SOL    HW120924   4.318   2.151   8.245 -0.7048 -1.5042  0.2693
 3096SOL    HW220925   4.287   2.280   8.166 -0.2033  0.2260 -0.6802
 3097SOL     OW20926   3.198   1.116   3.465  0.1716  0.0058 -0.0664
 3097SOL    HW120927   3.159   1.197   3.497  2.4932  0.5513  1.4057
 3097SOL    HW220928   3.289   1.119   3.496  0.5533  0.4122 -1.2015
 3098SOL     OW20929   3.865   4.304   2.658 -0.2783 -0.4448  0.0210
 3098SOL    HW120930   3.947   4.255   2.659  0.5579  1.0453  3.2835
 3098SOL    HW220931   3.833   4.271   2.574  0.8885  0.9070 -0.9597
 3099SOL     OW20932   4.569   0.211   2.711 -0.8875 -0.0807  0.3342
 3099SOL    HW120933   4.524   0.295   2.704 -0.8880 -0.0556  0.6526
 3099SOL    HW220934   4.535   0.162   2.786  0.7706 -2.7281 -0.6543
 3100SOL     OW20935   2.702   0.482  17.747 -0.1183  0.1910  0.0718
 3100SOL    HW120936   2.741   0.395  17.737  0.5659  0.5653 -0.5133
 3100SOL    HW220937   2.777   0.538  17.728  1.3743 -1.6469  0.4247
 3101SOL     OW20938   3.969   3.697   4.479 -0.6035 -0.0776 -0.0226
 3101SOL    HW120939   4.004   3.661   4.561 -1.1009 -0.7170 -0.0948
 3101SOL    HW220940   4.005   3.653   4.402  0.1932 -1.4131  1.0965
 3102SOL     OW20941   1.003   3.151   5.285  0.1659  0.4119 -0.0541
 3102SOL    HW120942   0.952   3.202   5.349 -0.3698  1.0580 -0.9952
 3102SOL    HW220943   0.999   3.217   5.216 -0.7978 -0.9800 -1.3260
 3103SOL     OW20944   1.513   3.529  10.660  0.6984  0.6141  0.1544
 3103SOL    HW120945   1.510   3.531  10.756 -0.1149  0.6606  0.1290
 3103SOL    HW220946   1.419   3.524  10.642 -0.0421  0.8997  3.9566
 3104SOL     OW20947   3.703   3.253   3.452  0.9041 -0.3732 -0.6861
 3104SOL    HW120948   3.686   3.235   3.544 -1.7245  0.0631 -1.0942
 3104SOL    HW220949   3.726   3.346   3.456 -0.5303 -0.1582  2.2801
 3105SOL     OW20950   3.654   2.671   3.701 -0.0146  0.5221 -0.0428
 3105SOL    HW120951   3.593   2.741   3.722  1.7163  1.8869  0.3962
 3105SOL    HW220952   3.670   2.620   3.781  1.4782 -0.7331 -1.1238
 3106SOL     OW20953   3.635   1.797  10.176  0.1091 -0.4240  0.1275
 3106SOL    HW120954   3.649   1.884  10.213 -1.5657 -0.1957  0.2132
 3106SOL    HW220955   3.714   1.786  10.123 -0.0585 -1.4072  0.0705
 3107SOL     OW20956   1.965   1.870   0.593 -0.7506 -0.2640  0.2725
 3107SOL    HW120957   1.989   1.891   0.683 -1.0046  0.4619  0.1742
 3107SOL    HW220958   2.022   1.797   0.568 -0.4042  0.6520 -1.5641
 3108SOL     OW20959   3.732   1.974   9.010  0.0219  0.3616 -0.1808
 3108SOL    HW120960   3.781   1.986   8.929  0.2108  1.5385  0.1069
 3108SOL    HW220961   3.653   2.023   8.984 -0.8047 -0.6818  0.3696
 3109SOL     OW20962   0.143   0.407  11.475 -0.0382  0.0051  0.2115
 3109SOL    HW120963   0.144   0.396  11.380  1.7326  0.1982  0.2045
 3109SOL    HW220964   0.137   0.502  11.471  1.8937  0.1476  0.5309
 3110SOL     OW20965   2.275   1.017   2.717  0.5950 -0.2580  0.3123
 3110SOL    HW120966   2.363   1.002   2.680  1.0994  3.1116  0.1438
 3110SOL    HW220967   2.269   1.108   2.686 -1.7612 -1.0840 -1.6605
 3111SOL     OW20968   2.314   4.196   3.774  0.2505 -0.0055  0.3989
 3111SOL    HW120969   2.389   4.141   3.749 -0.1650  0.1207 -1.1199
 3111SOL    HW220970   2.266   4.188   3.691 -0.0280  0.3057  0.5324
 3112SOL     OW20971   3.211   1.816  15.957  0.2218  0.2027  0.2935
 3112SOL    HW120972   3.186   1.851  15.871 -0.1578 -0.0968  0.2795
 3112SOL    HW220973   3.288   1.867  15.980  0.3116 -0.0309  0.5072
 3113SOL     OW20974   0.936   2.487  13.934  0.3582 -0.1880 -0.0556
 3113SOL    HW120975   0.970   2.536  14.009 -2.2394  1.5360 -0.0069
 3113SOL    HW220976   0.997   2.507  13.863 -2.5205  0.4261 -2.3371
 3114SOL     OW20977   1.138   3.504  10.448 -0.5730 -0.2266  0.2422
 3114SOL    HW120978   1.088   3.428  10.417 -1.2056 -0.4157  1.7229
 3114SOL    HW220979   1.144   3.500  10.543 -1.3463  1.3202  0.3613
 3115SOL     OW20980   2.037   1.035   5.725 -0.7389 -0.3979  0.4864
 3115SOL    HW120981   2.087   1.058   5.804 -1.2938  1.0987  0.3932
 3115SOL    HW220982   2.080   0.951   5.708 -0.4379 -0.2427  0.4854
 3116SOL     OW20983   0.141   3.709  10.677 -0.0508  0.0557  0.1269
 3116SOL    HW120984   0.190   3.640  10.632 -1.9750 -1.0641 -0.2310
 3116SOL    HW220985   0.214   3.750  10.724 -0.8738  0.1400  1.3236
 3117SOL     OW20986   3.628   4.050  12.928 -0.2556 -0.2913  0.1400
 3117SOL    HW120987   3.675   3.971  12.901  0.8406  0.6844 -0.7707
 3117SOL    HW220988   3.537   4.021  12.923  0.1413 -1.8670  1.8924
 3118SOL     OW20989   0.940   1.444   4.135 -0.1691 -0.4156 -0.0456
 3118SOL    HW120990   0.962   1.465   4.226 -2.5136 -0.2415  0.4949
 3118SOL    HW220991   0.891   1.526   4.124  1.1365  0.4577  0.6877
 3119SOL     OW20992   1.149   1.911   7.809 -0.1433 -0.1064  0.4950
 3119SOL    HW120993   1.217   1.867   7.860 -0.9781 -0.3621  1.3901
 3119SOL    HW220994   1.201   1.930   7.731 -0.1339 -2.0917  0.0167
 3120SOL     OW20995   0.783   2.127   9.494  0.0101 -0.1934 -0.8871
 3120SOL    HW120996   0.695   2.114   9.529 -0.0141 -1.0765 -1.2691
 3120SOL    HW220997   0.813   2.041   9.524 -0.5359  0.4904  1.5487
 3121SOL     OW20998   2.543   0.086  12.943  0.3832 -0.6435  0.4681
 3121SOL    HW120999   2.629   0.051  12.920  1.3921  0.5848  2.4005
 3121SOL    HW221000   2.536   0.165  12.889  2.1949  0.8411  2.4292
 3122SOL     OW21001   3.346   1.960   3.073  0.7469  0.1775  0.9940
 3122SOL    HW121002   3.353   2.032   3.136 -1.3796  0.4254  0.9665
 3122SOL    HW221003   3.283   1.899   3.111  0.9193 -1.2307 -0.9972
 3123SOL     OW21004   0.443   2.284   1.668 -0.2461  0.2257 -0.0604
 3123SOL    HW121005   0.506   2.294   1.739  0.0589  1.0453 -0.4398
 3123SOL    HW221006   0.456   2.192   1.646 -2.6913 -0.3520  0.9339
 3124SOL     OW21007   1.674   4.734   6.699  0.0284  0.4272 -0.3599
 3124SOL    HW121008   1.602   0.011   6.636 -0.7405  0.6474  0.5735
 3124SOL    HW221009   1.680   0.079   6.747  0.8589  1.1313 -1.6737
 3125SOL     OW21010   1.837   0.464  10.683  0.6412  0.3588  0.1381
 3125SOL    HW121011   1.852   0.520  10.759  0.3833  3.0551 -1.7692
 3125SOL    HW221012   1.904   0.493  10.621 -0.5950  0.1557 -1.2993
 3126SOL     OW21013   4.085   0.770   5.275  0.5813  0.3804 -0.5268
 3126SOL    HW121014   4.175   0.778   5.243  1.6208 -2.2071  1.7964
 3126SOL    HW221015   4.076   0.683   5.314 -1.4269  1.4477  1.4057
 3127SOL     OW21016   2.067   2.801   8.884 -0.5614 -0.0755  0.0380
 3127SOL    HW121017   2.124   2.793   8.808  1.4553 -1.4219  1.7031
 3127SOL    HW221018   2.056   2.894   8.902  0.4313 -0.7450  4.0355
 3128SOL     OW21019   3.218   4.566   2.228 -0.4881  0.3658 -0.6191
 3128SOL    HW121020   3.177   4.480   2.236 -1.2934  0.6956 -1.1075
 3128SOL    HW221021   3.308   4.563   2.260 -0.4474  2.1165 -0.5546
 3129SOL     OW21022   1.132   1.224   4.980  0.2576  0.7007 -0.4584
 3129SOL    HW121023   1.196   1.153   4.986 -0.5272 -0.1535 -2.4000
 3129SOL    HW221024   1.190   1.299   4.989  0.2283  0.6749 -0.0371
 3130SOL     OW21025   3.268   0.093   9.082 -0.4486  0.2164 -0.1823
 3130SOL    HW121026   3.260   0.076   9.176 -2.6162  2.4445  0.0528
 3130SOL    HW221027   3.361   0.102   9.062 -0.5435  2.2381  0.2971
 3131SOL     OW21028   1.570   3.005   1.284 -0.1939  0.1061 -0.0534
 3131SOL    HW121029   1.510   2.942   1.244  2.9326 -1.3745 -2.4927
 3131SOL    HW221030   1.540   3.087   1.247 -1.6235  0.1310  1.1675
 3132SOL     OW21031   1.686   1.792   9.124  0.0857 -0.8336 -0.1648
 3132SOL    HW121032   1.646   1.778   9.210  1.3311 -2.4748  0.1419
 3132SOL    HW221033   1.641   1.724   9.073  0.7735 -0.8070 -0.7930
 3133SOL     OW21034   4.489   2.232   6.473  0.5985 -0.3519  0.2073
 3133SOL    HW121035   4.580   2.201   6.473  0.6518 -0.2297 -1.7764
 3133SOL    HW221036   4.455   2.189   6.551 -2.1798 -0.8167 -1.2471
 3134SOL     OW21037   0.338   3.915  12.087 -0.0202  0.2845  0.2076
 3134SOL    HW121038   0.266   3.859  12.115  0.6012  0.3952  2.0026
 3134SOL    HW221039   0.412   3.885  12.139  1.3009  0.7878 -1.3796
 3135SOL     OW21040   0.364   3.135  12.554 -0.0502 -0.3287 -0.4146
 3135SOL    HW121041   0.345   3.227  12.573  0.8612 -0.6282  2.0070
 3135SOL    HW221042   0.334   3.128  12.464  0.2175  2.2840 -0.6938
 3136SOL     OW21043   3.833   1.602   4.906  0.0174 -0.3831  1.0769
 3136SOL    HW121044   3.874   1.688   4.916 -1.6849  0.7812 -1.8045
 3136SOL    HW221045   3.838   1.562   4.992 -0.8987 -1.6948  0.5243
 3137SOL     OW21046   0.950   1.678   1.461 -0.2768 -0.0802 -0.1797
 3137SOL    HW121047   1.026   1.706   1.511 -0.6738 -0.5758  0.7051
 3137SOL    HW221048   0.971   1.681   1.368 -2.0972 -2.2447 -0.6492
 3138SOL     OW21049   1.026   2.313   0.363 -0.2847  0.4894  0.2216
 3138SOL    HW121050   1.109   2.266   0.357  0.0893  0.6091  4.3703
 3138SOL    HW221051   0.982   2.277   0.286 -1.6180 -0.2739  1.3582
 3139SOL     OW21052   1.442   3.688   5.764 -0.3197  0.3638  0.2857
 3139SOL    HW121053   1.501   3.727   5.829  0.4554 -0.1844 -0.0873
 3139SOL    HW221054   1.451   3.740   5.684  0.7429 -0.5112 -0.1605
 3140SOL     OW21055   2.534   2.665   2.221  0.0609 -0.4592 -0.1001
 3140SOL    HW121056   2.466   2.634   2.161 -1.0588 -0.2224  1.0346
 3140SOL    HW221057   2.562   2.745   2.177 -1.6742 -1.0775 -2.3307
 3141SOL     OW21058   2.613   0.613   3.058 -0.7108  0.1474 -0.2473
 3141SOL    HW121059   2.564   0.654   2.987 -2.0245 -3.1800 -1.2562
 3141SOL    HW221060   2.635   0.676   3.127  0.5321 -1.2922  0.6761
 3142SOL     OW21061   2.715   1.369   3.462 -0.3422 -0.4347  0.8064
 3142SOL    HW121062   2.744   1.339   3.376 -0.9403  2.5789 -0.4487
 3142SOL    HW221063   2.623   1.343   3.461  0.0906 -1.9420 -0.1526
 3143SOL     OW21064   0.357   4.316   4.517  0.1468 -0.3858  0.2028
 3143SOL    HW121065   0.375   4.283   4.605  1.4334  1.9562  0.8279
 3143SOL    HW221066   0.308   4.395   4.541  3.6014  0.9426  2.9690
 3144SOL     OW21067   2.965   1.509   6.144  0.4234  0.3025  0.0282
 3144SOL    HW121068   3.043   1.544   6.101 -0.7814  2.8439 -0.0366
 3144SOL    HW221069   2.978   1.547   6.231  2.0765 -1.1541  0.4230
 3145SOL     OW21070   4.502   3.920   2.762 -0.7011 -0.4367 -0.2479
 3145SOL    HW121071   4.424   3.867   2.775 -0.2902 -0.5506  1.7540
 3145SOL    HW221072   4.541   3.919   2.850  0.3742 -1.3910 -0.7468
 3146SOL     OW21073   2.970   2.686   6.884 -0.5376 -0.2610 -0.2870
 3146SOL    HW121074   3.003   2.756   6.828  3.2476  0.0272  2.2476
 3146SOL    HW221075   3.007   2.706   6.971  1.4459 -2.9778 -0.4905
 3147SOL     OW21076   1.041   0.652  13.588 -0.5882  0.0374  0.2686
 3147SOL    HW121077   1.048   0.744  13.613 -0.0030  0.3485 -1.0565
 3147SOL    HW221078   0.947   0.645  13.604 -0.8893  1.2450 -1.0238
 3148SOL     OW21079   4.615   4.065   4.299 -0.0641  0.1029  0.2846
 3148SOL    HW121080   4.662   4.012   4.235  0.2901  0.7760 -0.0136
 3148SOL    HW221081   4.656   4.039   4.382 -1.4968 -0.1467  0.9295
 3149SOL     OW21082   0.317   1.826  12.556  0.4030  0.0518  0.2028
 3149SOL    HW121083   0.250   1.772  12.598  3.0954 -2.6472  1.0357
 3149SOL    HW221084   0.353   1.753  12.505  1.8831  1.5576 -0.9387
 3150SOL     OW21085   1.611   1.117   8.730 -0.6817  0.6968  0.5412
 3150SOL    HW121086   1.546   1.127   8.660  0.4190 -1.0305 -0.7382
 3150SOL    HW221087   1.573   1.039   8.770 -1.7409  2.0485  2.1653
 3151SOL     OW21088   3.539   3.003   4.243  0.0232  0.4328  0.0586
 3151SOL    HW121089   3.617   3.001   4.299  0.1234  0.8991 -0.0624
 3151SOL    HW221090   3.529   2.908   4.235  2.3809  0.3742 -2.4187
 3152SOL     OW21091   2.207   3.386   3.326 -0.1478  0.3253 -0.0637
 3152SOL    HW121092   2.285   3.397   3.381  0.8074  0.4177 -1.4312
 3152SOL    HW221093   2.135   3.363   3.385 -0.2698  2.3088  0.5922
 3153SOL     OW21094   0.137   0.215   1.867  0.0609 -0.7906  0.3205
 3153SOL    HW121095   0.123   0.121   1.874  0.8408 -0.5916  4.3593
 3153SOL    HW221096   0.046   0.239   1.850  0.1446 -2.2614 -2.2824
 3154SOL     OW21097   1.293   4.539   3.115  0.1353  0.0596  0.2434
 3154SOL    HW121098   1.286   4.445   3.100 -0.1084  0.1638 -0.2952
 3154SOL    HW221099   1.249   4.560   3.197 -0.6459 -1.0272  0.1010
 3155SOL     OW21100   0.435   1.334   2.946 -0.3668 -0.3032  0.3558
 3155SOL    HW121101   0.529   1.316   2.941 -0.4859 -0.8921  0.1947
 3155SOL    HW221102   0.407   1.243   2.935 -0.9824 -0.0904  0.1398
 3156SOL     OW21103   1.899   4.244   2.276 -0.0287  0.0972 -0.3619
 3156SOL    HW121104   1.861   4.314   2.223 -1.5482 -0.4294  0.0240
 3156SOL    HW221105   1.925   4.300   2.350  0.0399 -1.1700  0.5752
 3157SOL     OW21106   3.524   2.219   1.807  0.4244 -0.4907  0.2529
 3157SOL    HW121107   3.584   2.191   1.738 -0.1947  2.2020 -1.3622
 3157SOL    HW221108   3.567   2.299   1.837  0.3821 -0.6466  0.7331
 3158SOL     OW21109   4.534   4.180   7.509 -0.4225 -0.0488  0.9369
 3158SOL    HW121110   4.470   4.115   7.478 -0.2308 -1.0471  2.5746
 3158SOL    HW221111   4.569   4.132   7.585  2.7003 -0.9846 -1.1095
 3159SOL     OW21112   4.082   2.907   8.625 -0.2305 -0.1694  0.4924
 3159SOL    HW121113   4.036   2.876   8.704  1.9382  0.5763  2.0470
 3159SOL    HW221114   4.082   2.823   8.579 -0.3487 -0.7756  1.5975
 3160SOL     OW21115   2.795   3.058   1.923  0.0300 -0.0609 -0.5733
 3160SOL    HW121116   2.879   3.092   1.953 -0.9632  1.7125  0.1946
 3160SOL    HW221117   2.777   3.000   1.997 -0.7955  1.7669  0.6497
 3161SOL     OW21118   3.129   4.590  16.480 -0.6287  0.0384 -0.2408
 3161SOL    HW121119   3.169   4.517  16.433 -0.7944  0.8299 -1.6195
 3161SOL    HW221120   3.126   4.649  16.404 -0.2552  1.2070  0.6545
 3162SOL     OW21121   4.330   0.541   8.026 -0.7678 -0.2299  0.0735
 3162SOL    HW121122   4.362   0.612   8.081 -1.6480  1.5362 -1.6895
 3162SOL    HW221123   4.291   0.597   7.959 -0.9954 -0.0519  0.3534
 3163SOL     OW21124   3.412   1.666  14.618  0.1359  0.3580 -0.5863
 3163SOL    HW121125   3.453   1.635  14.699 -0.9820 -0.1995 -0.2341
 3163SOL    HW221126   3.359   1.590  14.592 -1.2455  0.7035  1.1606
 3164SOL     OW21127   3.603   4.658  10.804 -0.7809 -0.4493  0.7343
 3164SOL    HW121128   3.623   0.014  10.805  1.4070 -0.8810 -2.3689
 3164SOL    HW221129   3.540   4.659  10.731 -0.6148 -1.8083  0.5769
 3165SOL     OW21130   3.336   3.869  16.249 -0.1156 -0.3879 -0.4224
 3165SOL    HW121131   3.257   3.866  16.194 -0.6234 -3.4876  0.5048
 3165SOL    HW221132   3.370   3.780  16.252 -1.8163 -1.1514 -3.7173
 3166SOL     OW21133   2.298   0.845   3.922  0.6040 -0.0701  0.1319
 3166SOL    HW121134   2.357   0.779   3.959 -0.0942  0.5706  2.4326
 3166SOL    HW221135   2.221   0.791   3.901 -0.1068  0.5732  1.0744
 3167SOL     OW21136   0.881   0.740  10.312 -0.1485 -0.0253  0.2137
 3167SOL    HW121137   0.862   0.824  10.354 -2.8128  0.4938 -2.0114
 3167SOL    HW221138   0.832   0.743  10.230  0.0789  1.0545  0.1094
 3168SOL     OW21139   1.274   3.851   2.151  0.1169 -0.5416  0.2255
 3168SOL    HW121140   1.324   3.816   2.077  0.9483  1.3456 -0.0974
 3168SOL    HW221141   1.316   3.804   2.223  0.4528  0.7862  0.8863
 3169SOL     OW21142   0.618   2.670   1.674  0.1974 -0.1140  0.4077
 3169SOL    HW121143   0.626   2.578   1.646  1.8392 -0.5557  2.2653
 3169SOL    HW221144   0.562   2.660   1.751  0.7925 -1.6308  0.6504
 3170SOL     OW21145   1.449   4.614   9.863  0.0713 -0.3883 -0.0411
 3170SOL    HW121146   1.417   4.677   9.798 -3.3012 -0.9348  1.1069
 3170SOL    HW221147   1.433   4.656   9.947 -0.5326  0.0051 -0.3548
 3171SOL     OW21148   2.820   3.120   2.821  0.1989 -0.1752  0.3590
 3171SOL    HW121149   2.897   3.086   2.776  0.2035  0.0056  0.2313
 3171SOL    HW221150   2.763   3.044   2.836  1.1292 -0.4782  2.3702
 3172SOL     OW21151   2.285   0.461   3.953  0.1554 -0.6155 -0.5416
 3172SOL    HW121152   2.194   0.489   3.960  0.2668 -0.1569 -0.9344
 3172SOL    HW221153   2.320   0.488   4.038 -1.7761 -0.0534  0.0669
 3173SOL     OW21154   3.460   2.151   3.304 -0.1126 -0.4355  0.0998
 3173SOL    HW121155   3.539   2.174   3.354  0.1827  0.0927 -0.6041
 3173SOL    HW221156   3.462   2.226   3.244  0.7499  0.0757  0.7630
 3174SOL     OW21157   4.516   1.495   4.146  0.0525 -0.5808  0.2766
 3174SOL    HW121158   4.557   1.579   4.166 -0.7010  0.0610 -0.8877
 3174SOL    HW221159   4.481   1.500   4.057  0.2236  0.4354  0.2624
 3175SOL     OW21160   2.573   2.045   4.010 -0.0956 -0.3893 -0.0995
 3175SOL    HW121161   2.486   2.025   4.045 -0.0048 -0.8605 -0.1428
 3175SOL    HW221162   2.564   2.019   3.919 -0.3031 -0.4343 -0.0664
 3176SOL     OW21163   4.322   4.445   6.521 -0.2744  0.7063  0.1117
 3176SOL    HW121164   4.268   4.467   6.446  0.4491 -0.5570 -0.7730
 3176SOL    HW221165   4.327   4.533   6.558 -0.8879  1.0848 -0.7285
 3177SOL     OW21166   3.122   0.634   5.498  0.0763 -0.2888 -0.2360
 3177SOL    HW121167   3.165   0.712   5.462 -0.8422 -1.4537 -3.8821
 3177SOL    HW221168   3.167   0.564   5.450 -0.2789 -0.5122 -0.2383
 3178SOL     OW21169   1.522   1.819  16.488 -0.3961  0.7166  0.3479
 3178SOL    HW121170   1.511   1.884  16.556 -2.4702 -0.9480  1.6108
 3178SOL    HW221171   1.560   1.755  16.548  0.0863 -0.4385 -1.1802
 3179SOL     OW21172   0.791   1.050  12.891 -0.2007 -0.7469 -0.1556
 3179SOL    HW121173   0.871   1.025  12.937  0.3789  1.2919 -0.0467
 3179SOL    HW221174   0.759   1.133  12.924  1.2290 -0.3019  0.1072
 3180SOL     OW21175   4.378   0.679   5.675  0.2910  0.4292  0.1677
 3180SOL    HW121176   4.384   0.585   5.688  0.3425  0.8414  3.0166
 3180SOL    HW221177   4.283   0.686   5.685  0.1287 -1.0208 -0.3729
 3181SOL     OW21178   3.596   4.398   4.549  0.0566 -0.0197  0.1383
 3181SOL    HW121179   3.511   4.356   4.548  0.7752 -1.3236 -4.5844
 3181SOL    HW221180   3.649   4.319   4.537  0.5137 -0.0540  2.1883
 3182SOL     OW21181   0.187   1.882  11.029  0.3646 -0.0343  0.7655
 3182SOL    HW121182   0.141   1.952  10.982 -0.7695 -2.3758 -1.5934
 3182SOL    HW221183   0.196   1.817  10.960 -0.1783  0.4234  0.2585
 3183SOL     OW21184   0.887   3.958   7.310 -0.5173  0.0251 -0.5381
 3183SOL    HW121185   0.971   3.935   7.270 -1.4080 -1.5651 -1.4931
 3183SOL    HW221186   0.897   3.905   7.389  1.4291  4.6569  2.2649
 3184SOL     OW21187   3.014   0.224   2.956 -0.3485  0.3260  0.3129
 3184SOL    HW121188   3.011   0.315   2.987 -1.6956  1.4072 -2.9658
 3184SOL    HW221189   2.924   0.194   2.941 -0.9009  1.4474  1.3630
 3185SOL     OW21190   1.563   4.713   3.783 -0.2543 -0.1781  0.2414
 3185SOL    HW121191   1.562   4.707   3.879 -3.3527 -0.0050  0.2124
 3185SOL    HW221192   1.482   4.667   3.762  0.2996 -0.7930 -0.5571
 3186SOL     OW21193   3.700   4.639   8.882 -0.7210  0.6269  0.1060
 3186SOL    HW121194   3.733   4.693   8.810  1.1749 -1.7111 -0.7644
 3186SOL    HW221195   3.743   4.689   8.952 -1.5274 -0.7350  1.5761
 3187SOL     OW21196   0.672   3.812   1.961  0.6443 -0.3506  0.7799
 3187SOL    HW121197   0.663   3.824   2.055 -1.1818  0.5556  0.4892
 3187SOL    HW221198   0.663   3.905   1.941  1.3009 -0.0284  2.0127
 3188SOL     OW21199   0.437   1.843   2.442 -0.1495 -0.3430  0.0148
 3188SOL    HW121200   0.503   1.876   2.503  0.4892  0.3269 -1.0378
 3188SOL    HW221201   0.425   1.908   2.373  0.4583  1.3497  1.5047
 3189SOL     OW21202   1.258   0.285   2.304  0.2269  0.0280 -0.1805
 3189SOL    HW121203   1.280   0.234   2.225 -2.2130 -0.1493 -0.7308
 3189SOL    HW221204   1.244   0.215   2.367 -1.6821 -0.6575 -1.3671
 3190SOL     OW21205   0.223   4.691   2.585  0.8217  0.0336  0.3140
 3190SOL    HW121206   0.238   4.617   2.526  3.0238 -0.2738  1.2555
 3190SOL    HW221207   0.309   4.726   2.605  1.7909 -1.6718 -0.9119
 3191SOL     OW21208   1.490   1.393  16.482 -0.2427  0.3330 -0.0249
 3191SOL    HW121209   1.410   1.384  16.533 -1.0755 -0.8438 -1.5343
 3191SOL    HW221210   1.448   1.400  16.396  1.9116 -1.9386 -1.2507
 3192SOL     OW21211   4.677   4.072  11.537  0.3528 -0.7093  0.7316
 3192SOL    HW121212   4.649   4.003  11.476 -1.8806 -0.6220  1.6439
 3192SOL    HW221213   4.593   4.114  11.556  1.0891 -0.1822  2.7242
 3193SOL     OW21214   1.267   1.344   9.510  1.1283  0.4228  0.2600
 3193SOL    HW121215   1.355   1.381   9.518  2.6080 -2.5737 -1.7368
 3193SOL    HW221216   1.266   1.298   9.594  0.2454  2.7987  1.5298
 3194SOL     OW21217   1.579   1.837  14.009 -0.1044 -0.0726  0.3042
 3194SOL    HW121218   1.626   1.901  14.062 -1.7074  2.5943 -1.4500
 3194SOL    HW221219   1.530   1.797  14.081 -2.2793  1.5922 -0.2360
 3195SOL     OW21220   3.817   0.342  12.374  0.4791 -0.4715  0.1026
 3195SOL    HW121221   3.847   0.388  12.296 -1.2026  1.5920  0.6778
 3195SOL    HW221222   3.790   0.272  12.315 -0.3981  1.3983 -1.7353
 3196SOL     OW21223   2.351   2.252   6.398  0.5491  0.5873  0.1625
 3196SOL    HW121224   2.393   2.237   6.483  0.3336 -0.4039  0.1019
 3196SOL    HW221225   2.298   2.174   6.380 -1.5324  1.9256  0.4955
 3197SOL     OW21226   4.638   1.305  16.673 -0.7242  0.1868 -0.1743
 3197SOL    HW121227   4.632   1.213  16.701 -0.7086  1.4136  3.8789
 3197SOL    HW221228   4.677   1.339  16.754 -2.6517 -0.4613  1.0195
 3198SOL     OW21229   4.009   1.730  16.369 -0.4880  0.1469  0.5611
 3198SOL    HW121230   4.067   1.691  16.303  0.3579  2.4444 -0.0606
 3198SOL    HW221231   3.929   1.677  16.365 -0.8126  0.5707  1.5693
 3199SOL     OW21232   4.317   4.703   1.998  0.5812 -0.2370 -0.1785
 3199SOL    HW121233   4.303   0.051   2.039 -0.9299  0.0711 -1.3264
 3199SOL    HW221234   4.251   4.651   2.045  0.1283  1.6874  1.3249
 3200SOL     OW21235   3.966   3.219   3.561  0.2000  0.5053 -0.1159
 3200SOL    HW121236   4.060   3.240   3.561  0.2005  0.5063 -1.3161
 3200SOL    HW221237   3.942   3.256   3.646 -1.5320 -0.5353 -0.1480
 3201SOL     OW21238   3.803   1.099   5.042 -0.4512  0.6126 -0.0920
 3201SOL    HW121239   3.815   1.012   5.002 -1.4482  0.3802  0.1299
 3201SOL    HW221240   3.756   1.135   4.968 -2.4632 -0.5434  0.6302
 3202SOL     OW21241   3.900   2.322   0.648 -0.0204  0.0875  0.1986
 3202SOL    HW121242   3.990   2.312   0.618 -0.7948  2.6294 -3.0170
 3202SOL    HW221243   3.875   2.383   0.578 -1.0332 -0.4281  0.1135
 3203SOL     OW21244   1.450   2.555   2.996  0.5282 -0.3202  0.3425
 3203SOL    HW121245   1.368   2.601   2.980  1.7052  1.6062 -0.2417
 3203SOL    HW221246   1.488   2.597   3.074 -0.1190  0.2117  0.3646
 3204SOL     OW21247   2.767   1.250  10.385 -0.1290  0.0130 -0.0033
 3204SOL    HW121248   2.766   1.241  10.481 -0.1697 -2.5587 -0.2600
 3204SOL    HW221249   2.691   1.199  10.358 -0.6186  1.4734 -1.3563
 3205SOL     OW21250   2.426   3.494   1.462 -0.0978  0.1940  0.4423
 3205SOL    HW121251   2.509   3.468   1.502  0.9297 -0.5883 -2.1959
 3205SOL    HW221252   2.447   3.574   1.413 -2.7870 -0.9188 -2.5593
 3206SOL     OW21253   0.184   3.671   3.286 -0.4062 -0.0292 -0.1653
 3206SOL    HW121254   0.173   3.764   3.268 -0.8981 -0.2627 -1.0457
 3206SOL    HW221255   0.177   3.631   3.200 -2.3443 -0.3539  0.1392
 3207SOL     OW21256   1.288   1.442  14.521 -0.0416  0.2893 -0.0377
 3207SOL    HW121257   1.346   1.392  14.579 -0.6903 -0.3348  0.0872
 3207SOL    HW221258   1.213   1.382  14.513 -0.1422  0.0964  2.2572
 3208SOL     OW21259   1.270   2.302   4.884  0.1481 -0.3741 -0.4599
 3208SOL    HW121260   1.215   2.317   4.961 -0.7358 -0.1208 -1.1469
 3208SOL    HW221261   1.223   2.359   4.824  0.3247  0.2687  0.0128
 3209SOL     OW21262   2.018   2.775  12.366  0.1360  0.2726 -0.1552
 3209SOL    HW121263   2.010   2.786  12.271 -1.4894 -1.2601 -0.2050
 3209SOL    HW221264   2.105   2.808  12.387 -0.5836  2.3042 -0.3354
 3210SOL     OW21265   2.363   1.684   8.644  0.3743  0.1454  0.5715
 3210SOL    HW121266   2.281   1.653   8.684  1.2183 -1.9584  0.6534
 3210SOL    HW221267   2.356   1.644   8.557  1.1059 -0.9913  1.0381
 3211SOL     OW21268   3.490   2.875  11.840 -0.2098 -0.1923  0.5065
 3211SOL    HW121269   3.467   2.792  11.799 -2.3659  0.9511 -0.6263
 3211SOL    HW221270   3.582   2.880  11.813 -0.2666 -0.6583  0.2373
 3212SOL     OW21271   3.344   1.203   4.601  0.3573  0.3503 -0.5917
 3212SOL    HW121272   3.302   1.287   4.585 -1.1429 -0.0869  1.0396
 3212SOL    HW221273   3.320   1.160   4.519 -1.5392 -1.8237  1.1108
 3213SOL     OW21274   0.480   1.238   1.885  0.8633  0.1887  0.4011
 3213SOL    HW121275   0.423   1.163   1.901  2.3658 -0.5317  2.4038
 3213SOL    HW221276   0.527   1.255   1.967  1.3200 -2.6894  0.7332
 3214SOL     OW21277   2.392   1.216   7.652  0.0126 -0.4923 -0.3285
 3214SOL    HW121278   2.435   1.244   7.733 -0.5366 -0.3489 -0.0862
 3214SOL    HW221279   2.325   1.160   7.691  3.4857 -3.8394  0.8107
 3215SOL     OW21280   2.921   0.649   0.491  0.1628  0.4452 -0.1893
 3215SOL    HW121281   2.886   0.644   0.580 -0.8012  0.5734 -0.5594
 3215SOL    HW221282   3.005   0.605   0.503 -0.6712 -1.2780 -0.8393
 3216SOL     OW21283   2.073   3.719   7.844 -0.2647 -0.7153 -0.0949
 3216SOL    HW121284   2.063   3.649   7.779 -1.3989  0.9271 -1.6922
 3216SOL    HW221285   2.165   3.745   7.838 -0.8749  1.7923  1.4219
 3217SOL     OW21286   2.653   3.456   3.971 -0.1960 -0.5314  0.1349
 3217SOL    HW121287   2.670   3.549   3.986  0.6900 -0.4654 -1.2452
 3217SOL    HW221288   2.640   3.429   4.062 -1.4273  1.0276  0.4056
 3218SOL     OW21289   1.315   1.585   6.675 -0.0044  0.2794  0.1299
 3218SOL    HW121290   1.309   1.555   6.585 -1.0825  0.9650 -0.0281
 3218SOL    HW221291   1.227   1.567   6.709 -0.3094  0.7831 -0.4096
 3219SOL     OW21292   1.437   0.192   7.824 -0.5290 -0.4174  0.4364
 3219SOL    HW121293   1.515   0.223   7.870  0.0957  1.1609 -1.6996
 3219SOL    HW221294   1.375   0.186   7.898 -0.0415  1.5271  1.0135
 3220SOL     OW21295   2.843   2.753   2.764 -0.3937 -0.1853 -0.1294
 3220SOL    HW121296   2.786   2.755   2.840 -0.9305 -1.7844 -0.4979
 3220SOL    HW221297   2.911   2.694   2.795 -0.5355 -0.1311  0.2838
 3221SOL     OW21298   0.661   3.890   2.235 -0.3906  0.3201  0.3223
 3221SOL    HW121299   0.637   3.972   2.277 -1.7918  0.6477 -1.1262
 3221SOL    HW221300   0.750   3.917   2.211  0.0698 -3.2030 -1.9997
 3222SOL     OW21301   3.907   2.242  11.285 -0.2288  0.1806 -0.0400
 3222SOL    HW121302   3.930   2.299  11.211  0.6503  1.0353  0.8782
 3222SOL    HW221303   3.968   2.277  11.351  2.4425 -0.3360 -2.1983
 3223SOL     OW21304   3.253   3.169   8.403 -0.2340 -0.1869 -0.1057
 3223SOL    HW121305   3.330   3.202   8.450 -0.0142 -1.0223  0.1306
 3223SOL    HW221306   3.194   3.155   8.477 -0.9684 -1.3914 -0.9158
 3224SOL     OW21307   1.220   0.968  14.721  0.0780  0.2684  0.0669
 3224SOL    HW121308   1.138   1.009  14.693  1.3628  1.5235 -1.8114
 3224SOL    HW221309   1.213   0.878  14.689 -0.4309  0.5998 -0.7304
 3225SOL     OW21310   4.201   0.634  17.466 -0.6860 -0.2891  0.1816
 3225SOL    HW121311   4.293   0.614  17.450 -1.3490 -1.5093 -2.0738
 3225SOL    HW221312   4.219   0.706  17.527  1.9160  0.8022 -1.8691
 3226SOL     OW21313   2.438   1.513   0.376  0.0427 -0.2021 -0.5694
 3226SOL    HW121314   2.451   1.601   0.343  1.9183  0.0618  0.8203
 3226SOL    HW221315   2.400   1.524   0.463  0.9206  4.3574 -0.8013
 3227SOL     OW21316   1.904   1.263   3.268 -0.4366  0.3131 -0.3433
 3227SOL    HW121317   1.989   1.304   3.284 -0.4430  0.7913 -1.4863
 3227SOL    HW221318   1.913   1.187   3.325  0.0415 -0.6811 -1.7360
 3228SOL     OW21319   4.187   1.189   5.347 -0.8070  0.1972  0.6082
 3228SOL    HW121320   4.107   1.192   5.295 -0.8935 -0.4301  0.7114
 3228SOL    HW221321   4.201   1.282   5.364 -0.3360  0.3582 -0.6346
 3229SOL     OW21322   4.042   1.193   4.979  0.5263  0.3216 -0.6517
 3229SOL    HW121323   3.951   1.168   4.991  1.1195 -2.0673 -0.9785
 3229SOL    HW221324   4.046   1.239   4.895 -1.3848  0.7492 -0.5040
 3230SOL     OW21325   2.472   1.625   6.832 -0.3193 -0.4993 -1.0625
 3230SOL    HW121326   2.496   1.533   6.825 -2.1070 -1.0215 -0.1410
 3230SOL    HW221327   2.552   1.672   6.808  1.2878 -2.2981  0.7612
 3231SOL     OW21328   4.729   4.357   1.993 -0.0388 -0.3791  0.1484
 3231SOL    HW121329   4.695   4.309   1.918 -1.3951 -1.6646  1.5698
 3231SOL    HW221330   4.670   4.433   1.990 -0.4498 -0.5615  2.9745
 3232SOL     OW21331   0.768   1.128   6.658 -0.2804 -0.1210  0.2279
 3232SOL    HW121332   0.699   1.174   6.610 -1.4078 -2.5016 -0.4220
 3232SOL    HW221333   0.801   1.200   6.712  0.3435  0.2288 -0.6117
 3233SOL     OW21334   1.948   0.221   1.956 -0.2950 -0.2736 -0.1474
 3233SOL    HW121335   1.969   0.289   2.020  0.1067  0.5685 -1.1644
 3233SOL    HW221336   1.852   0.223   1.962 -0.1435 -1.0936  2.3935
 3234SOL     OW21337   2.410   2.067   2.933  0.2074  0.5132  0.4988
 3234SOL    HW121338   2.481   2.051   2.995 -1.4762 -2.1260  1.7572
 3234SOL    HW221339   2.405   1.974   2.910 -0.1992  0.9700 -1.2901
 3235SOL     OW21340   1.444   1.367  14.766  0.6444  0.1340  0.0160
 3235SOL    HW121341   1.522   1.352  14.819  0.8163  1.8266  0.2210
 3235SOL    HW221342   1.394   1.419  14.829 -1.0173 -0.4067 -0.8460
 3236SOL     OW21343   1.272   2.282  13.767  0.8596 -0.2790  0.5115
 3236SOL    HW121344   1.209   2.215  13.741 -1.1887  2.0117 -0.4611
 3236SOL    HW221345   1.355   2.253  13.729  0.1675 -1.5368 -0.0257
 3237SOL     OW21346   2.066   2.518   6.565  0.3142 -0.3375 -0.4306
 3237SOL    HW121347   2.119   2.444   6.596  0.8579  0.1511 -0.1998
 3237SOL    HW221348   2.051   2.486   6.476  1.6518 -0.5768 -0.5757
 3238SOL     OW21349   3.465   2.364  16.386 -0.0200  0.6062  1.0881
 3238SOL    HW121350   3.531   2.323  16.441 -0.2577 -1.8668 -0.4646
 3238SOL    HW221351   3.388   2.309  16.403 -0.7758  2.3021  3.2151
 3239SOL     OW21352   4.589   2.860  16.694  0.5094 -0.2307  0.2797
 3239SOL    HW121353   4.517   2.915  16.725 -0.7074 -1.0720 -1.0384
 3239SOL    HW221354   4.645   2.844  16.769 -0.3744 -0.0675  0.9768
 3240SOL     OW21355   0.505   0.747   4.852 -0.4999  0.0295  0.5542
 3240SOL    HW121356   0.562   0.745   4.929 -0.8108  0.4053  0.7882
 3240SOL    HW221357   0.420   0.724   4.889 -1.7872  2.8063 -0.7006
 3241SOL     OW21358   3.607   3.549   2.890 -0.3549 -0.0471 -0.0782
 3241SOL    HW121359   3.554   3.485   2.938 -0.5918  0.9547  0.9952
 3241SOL    HW221360   3.559   3.627   2.919  1.8441  0.7822  1.3563
 3242SOL     OW21361   1.670   1.221  11.712 -0.1622  0.8026  0.5239
 3242SOL    HW121362   1.739   1.156  11.701 -1.1006 -0.0116 -0.5761
 3242SOL    HW221363   1.707   1.300  11.673  0.7744  0.9963  1.7968
 3243SOL     OW21364   1.003   1.307   5.251  0.0933  0.0010 -0.1725
 3243SOL    HW121365   0.966   1.221   5.268  0.9796 -0.5493 -1.0221
 3243SOL    HW221366   1.051   1.285   5.171  0.2381  1.5141 -0.5077
 3244SOL     OW21367   3.597   1.136  16.255  0.2888  0.8831  0.2126
 3244SOL    HW121368   3.574   1.164  16.343  0.5476 -0.4874  0.7141
 3244SOL    HW221369   3.688   1.109  16.270  0.1143  1.0470  1.5440
 3245SOL     OW21370   1.065   1.131   9.216 -0.2331  0.2884  0.3245
 3245SOL    HW121371   1.046   1.209   9.268 -0.7124  2.0209 -2.4546
 3245SOL    HW221372   1.021   1.060   9.262 -2.4091  3.0530  2.5189
 3246SOL     OW21373   2.467   2.115  15.157 -0.3372  0.0060  0.2027
 3246SOL    HW121374   2.391   2.167  15.130 -0.4221  1.0086  2.4262
 3246SOL    HW221375   2.530   2.186  15.146 -1.0191  0.0597 -3.5053
 3247SOL     OW21376   0.300   1.149  13.703 -0.3020 -0.4715  0.3900
 3247SOL    HW121377   0.363   1.083  13.674  0.1102 -0.0070  0.2331
 3247SOL    HW221378   0.239   1.090  13.748  0.2848 -0.2599  1.4579
 3248SOL     OW21379   1.633   3.592   7.093  0.5355 -0.4155 -0.2304
 3248SOL    HW121380   1.673   3.678   7.078  1.0035 -0.3485  1.3697
 3248SOL    HW221381   1.547   3.612   7.056  0.5914  0.4071  0.0846
 3249SOL     OW21382   1.511   2.171  10.738  0.0552  0.1379 -0.4305
 3249SOL    HW121383   1.527   2.156  10.645 -1.1712 -1.8944 -0.3192
 3249SOL    HW221384   1.420   2.198  10.740 -0.1414 -0.6531  1.0244
 3250SOL     OW21385   4.634   0.780   2.898 -0.2475 -0.6262 -0.0491
 3250SOL    HW121386   4.603   0.781   2.989 -0.9150  2.8775 -0.3369
 3250SOL    HW221387   4.697   0.708   2.908  0.3621 -0.3403 -2.0077
 3251SOL     OW21388   3.284   1.469  11.892  0.3383 -0.2181 -0.1540
 3251SOL    HW121389   3.265   1.442  11.802 -1.7985 -3.6753  1.3305
 3251SOL    HW221390   3.207   1.519  11.921 -0.6820 -1.9334  0.0892
 3252SOL     OW21391   3.291   2.050   6.895 -1.0784 -0.3125 -0.0998
 3252SOL    HW121392   3.338   2.090   6.823 -2.1503  0.6659 -0.2501
 3252SOL    HW221393   3.342   1.970   6.907 -2.5568 -0.9030  2.4456
 3253SOL     OW21394   4.633   0.532   3.331  0.3652  0.6045  0.1438
 3253SOL    HW121395   4.622   0.611   3.277 -2.0119  0.1372 -0.0774
 3253SOL    HW221396   4.673   0.473   3.268 -2.6399 -0.5821 -0.6693
 3254SOL     OW21397   0.995   2.520   7.082  0.2751 -0.3577 -0.0910
 3254SOL    HW121398   1.062   2.549   7.145 -0.2627 -1.7864  1.1333
 3254SOL    HW221399   0.922   2.560   7.129  1.5077 -1.1557  2.5432
 3255SOL     OW21400   3.086   2.877  11.420 -0.4800  0.2100 -0.4810
 3255SOL    HW121401   3.108   2.971  11.423 -1.0804  0.3625 -0.9013
 3255SOL    HW221402   3.128   2.848  11.340  2.5900  0.7503  0.9335
 3256SOL     OW21403   0.746   2.609   7.585 -0.2094 -0.1958  0.3510
 3256SOL    HW121404   0.687   2.620   7.659  0.7882 -2.1508  1.4401
 3256SOL    HW221405   0.791   2.525   7.591 -0.5885 -0.2850  1.7989
 3257SOL     OW21406   2.548   3.117  16.354 -0.4910 -0.1180  0.0453
 3257SOL    HW121407   2.626   3.062  16.356 -0.1934  0.3515  1.4616
 3257SOL    HW221408   2.488   3.069  16.411  0.1961 -0.1424  0.7439
 3258SOL     OW21409   4.171   0.086  11.544  0.4241  0.5227 -0.0504
 3258SOL    HW121410   4.229   0.015  11.515 -0.9991 -1.6974  2.4972
 3258SOL    HW221411   4.227   0.124  11.612 -0.0063 -0.4015  0.8158
 3259SOL     OW21412   1.811   0.281  16.907 -0.4233 -0.4638  0.3107
 3259SOL    HW121413   1.813   0.291  16.812 -0.9341  0.7029  0.4224
 3259SOL    HW221414   1.813   0.185  16.903 -4.8963 -0.5305 -0.4872
 3260SOL     OW21415   0.528   2.177   6.912  0.0394 -0.2989  0.2970
 3260SOL    HW121416   0.455   2.128   6.874 -0.0002 -1.3313  1.7225
 3260SOL    HW221417   0.567   2.115   6.974 -0.7187  0.3957  1.4764
 3261SOL     OW21418   0.956   4.690   7.825 -0.2256  0.2119 -0.5955
 3261SOL    HW121419   0.893   4.618   7.826  0.1655 -0.1475 -1.3020
 3261SOL    HW221420   0.893   0.016   7.794 -2.4936 -2.3317 -1.2493
 3262SOL     OW21421   2.110   0.177   8.660  0.0587  0.2020 -0.0841
 3262SOL    HW121422   2.129   0.085   8.674 -1.3861  0.4276  3.3586
 3262SOL    HW221423   2.049   0.192   8.732 -0.5603  2.9464 -1.1669
 3263SOL     OW21424   1.591   1.033   3.597  0.0368  0.4822  0.3125
 3263SOL    HW121425   1.539   1.080   3.662 -0.9178 -0.3224  0.1482
 3263SOL    HW221426   1.540   1.062   3.521 -1.2232  2.2251  1.8114
 3264SOL     OW21427   4.393   1.765   8.453  0.3476  0.3091  0.2549
 3264SOL    HW121428   4.319   1.741   8.509  0.1729 -1.1652 -0.6209
 3264SOL    HW221429   4.465   1.725   8.501 -1.1132 -3.9585 -1.1685
 3265SOL     OW21430   1.329   0.867   5.622  0.3080  0.1605  0.2780
 3265SOL    HW121431   1.338   0.847   5.529 -0.7315  0.1995  0.1677
 3265SOL    HW221432   1.235   0.863   5.639  0.7322 -0.1811  2.5507
 3266SOL     OW21433   4.092   0.217   7.142  0.6681  0.2406 -0.2973
 3266SOL    HW121434   4.018   0.232   7.083 -1.3303  1.9301  2.5800
 3266SOL    HW221435   4.129   0.303   7.161  2.0014 -0.0560 -1.5694
 3267SOL     OW21436   2.472   4.616  13.702  0.1653  0.9184  0.3674
 3267SOL    HW121437   2.410   4.684  13.675 -1.0245 -0.7877 -1.2373
 3267SOL    HW221438   2.532   4.616  13.627  1.0616 -3.0479  1.0694
 3268SOL     OW21439   4.546   0.208   6.843 -0.1018  0.5053 -0.2680
 3268SOL    HW121440   4.508   0.214   6.755  0.4539  1.0558 -0.4661
 3268SOL    HW221441   4.557   0.300   6.864 -0.9802  0.3218  0.9850
 3269SOL     OW21442   3.048   0.880   6.622 -0.1526 -0.9743 -0.4705
 3269SOL    HW121443   2.964   0.836   6.610 -1.8616  2.3799 -0.8118
 3269SOL    HW221444   3.071   0.827   6.698  1.3305  2.0092  1.1567
 3270SOL     OW21445   2.991   2.958   4.046  0.3841  0.1486  0.3924
 3270SOL    HW121446   2.927   2.898   4.084 -1.3362  1.2781 -0.7274
 3270SOL    HW221447   2.949   2.986   3.965  0.0666 -0.9246  0.1911
 3271SOL     OW21448   3.817   1.164   4.724  0.0193  0.3453  0.5533
 3271SOL    HW121449   3.787   1.255   4.725 -1.8936 -0.2855  0.6751
 3271SOL    HW221450   3.745   1.130   4.671  0.6218 -0.1447  0.0371
 3272SOL     OW21451   3.040   2.915   5.282 -0.9018 -0.9279  0.2833
 3272SOL    HW121452   3.030   2.998   5.236 -0.2676 -1.6007 -1.0888
 3272SOL    HW221453   3.132   2.902   5.303 -0.9211  0.6311  1.3329
 3273SOL     OW21454   0.360   2.787   6.299 -0.4178  0.2102 -0.0771
 3273SOL    HW121455   0.278   2.750   6.331 -0.1467 -0.8401 -0.5664
 3273SOL    HW221456   0.408   2.713   6.261  0.4975  2.3413 -3.0903
 3274SOL     OW21457   3.498   2.883   3.890  0.2562  0.0826 -0.5674
 3274SOL    HW121458   3.434   2.906   3.958  0.6599 -0.1292 -0.1149
 3274SOL    HW221459   3.441   2.855   3.819  1.1105 -2.1503 -0.3546
 3275SOL     OW21460   4.365   4.424   0.915  0.2593 -0.0822 -0.1367
 3275SOL    HW121461   4.292   4.362   0.907 -0.9670  1.4808 -1.2035
 3275SOL    HW221462   4.324   4.484   0.977  0.0723  0.6548 -0.9849
 3276SOL     OW21463   1.144   0.699  10.701 -0.2794  0.0866 -0.3318
 3276SOL    HW121464   1.183   0.756  10.635  0.9459 -0.3752 -0.0062
 3276SOL    HW221465   1.182   0.613  10.685 -0.6363 -0.1188 -0.0880
 3277SOL     OW21466   0.018   4.252   1.218  0.3144 -0.4089 -0.2138
 3277SOL    HW121467   0.013   4.170   1.168 -0.1874 -1.3556  1.3844
 3277SOL    HW221468   0.068   4.226   1.296 -2.3209 -0.4073  1.4706
 3278SOL     OW21469   0.966   2.702   9.480 -0.4246 -0.2061 -0.8332
 3278SOL    HW121470   0.895   2.660   9.530 -1.4175 -0.9687 -2.8813
 3278SOL    HW221471   0.973   2.640   9.407  0.9813  2.3870 -2.9152
 3279SOL     OW21472   2.721   2.687  14.585  0.4109 -0.3987 -0.1462
 3279SOL    HW121473   2.745   2.756  14.523  4.0634 -0.2800  1.4117
 3279SOL    HW221474   2.676   2.620  14.533 -1.5719 -0.2442  1.3547
 3280SOL     OW21475   3.458   0.084   6.678 -0.0886 -0.0413  0.4535
 3280SOL    HW121476   3.483   0.094   6.770  0.3933 -1.0555  0.4353
 3280SOL    HW221477   3.541   0.096   6.631  1.0841 -0.2028  2.4709
 3281SOL     OW21478   4.376   3.929   1.953  0.1966 -0.0092 -0.3039
 3281SOL    HW121479   4.315   3.986   1.999  0.1767  1.6220 -2.3529
 3281SOL    HW221480   4.386   3.993   1.882  1.5562  1.0675  0.8529
 3282SOL     OW21481   2.772   3.886   5.710  0.1558 -0.2640 -0.1977
 3282SOL    HW121482   2.691   3.907   5.755 -0.2225  1.8768 -1.8916
 3282SOL    HW221483   2.782   3.793   5.731  0.5533 -0.5374 -1.6113
 3283SOL     OW21484   3.126   2.925   3.682  0.8243  0.4287 -0.1103
 3283SOL    HW121485   3.102   2.962   3.767  0.5818 -1.0377  0.4659
 3283SOL    HW221486   3.083   2.986   3.623  1.2082 -0.6406 -1.4852
 3284SOL     OW21487   3.641   4.430  12.190  0.1930 -0.3901  0.0270
 3284SOL    HW121488   3.725   4.408  12.231  1.0143 -0.2560 -1.5887
 3284SOL    HW221489   3.668   4.492  12.123  0.9695 -0.0697  0.6276
 3285SOL     OW21490   3.218   1.056  12.822 -0.1683  0.3003  0.2135
 3285SOL    HW121491   3.163   0.978  12.815 -2.0218  1.4916  1.5423
 3285SOL    HW221492   3.270   1.038  12.900 -0.2814  0.0388  0.2274
 3286SOL     OW21493   1.768   2.951   7.921 -0.3902  0.1186  0.6015
 3286SOL    HW121494   1.839   2.893   7.892 -0.5299  0.2005  0.1011
 3286SOL    HW221495   1.761   2.930   8.015  0.3559  0.7576  0.8046
 3287SOL     OW21496   0.330   3.388   8.417  0.1688  0.0902  0.6849
 3287SOL    HW121497   0.242   3.392   8.380 -0.1076  1.9626  1.5250
 3287SOL    HW221498   0.313   3.412   8.509  2.0195 -1.2863  1.3820
 3288SOL     OW21499   0.793   1.585  17.420  0.5447 -0.7524 -0.2426
 3288SOL    HW121500   0.704   1.618  17.436  0.9338  0.3860 -0.4353
 3288SOL    HW221501   0.837   1.669  17.434  0.9090 -0.9184 -0.3959
 3289SOL     OW21502   3.681   3.177   6.506  0.3714 -0.2770 -0.2555
 3289SOL    HW121503   3.600   3.194   6.554  1.6291  1.8678  1.1353
 3289SOL    HW221504   3.662   3.213   6.420  1.1226 -1.5759 -0.9622
 3290SOL     OW21505   1.681   3.400  15.692  0.0950 -0.5603  0.2184
 3290SOL    HW121506   1.659   3.485  15.730  0.9147 -0.0854 -0.3786
 3290SOL    HW221507   1.755   3.380  15.750  1.2866 -1.0833 -1.4926
 3291SOL     OW21508   3.368   2.006   4.727 -0.1289  0.2176 -0.4886
 3291SOL    HW121509   3.448   2.044   4.763  0.9307 -1.9476 -0.5956
 3291SOL    HW221510   3.310   2.062   4.778 -0.9025 -0.8287 -0.2152
 3292SOL     OW21511   0.689   2.174  17.164  0.6085 -0.3185 -0.0111
 3292SOL    HW121512   0.719   2.189  17.254 -0.9334  0.3385  0.3820
 3292SOL    HW221513   0.742   2.095  17.150  1.4238  0.5939 -1.9961
 3293SOL     OW21514   4.429   3.531  15.508 -0.2141  0.4616 -0.1281
 3293SOL    HW121515   4.512   3.510  15.551  0.6785  0.0123 -2.0621
 3293SOL    HW221516   4.373   3.544  15.585 -0.7878  2.6034 -0.9300
 3294SOL     OW21517   4.304   0.356  10.783 -0.7168  0.2043 -0.0435
 3294SOL    HW121518   4.225   0.383  10.737 -0.7283 -1.8905 -1.2389
 3294SOL    HW221519   4.345   0.442  10.795 -0.0913 -0.1937  0.7734
 3295SOL     OW21520   1.645   4.682   7.240  0.2405 -0.2162 -0.2798
 3295SOL    HW121521   1.613   4.596   7.268  0.2139  0.3677  1.4827
 3295SOL    HW221522   1.680   4.660   7.154 -0.1863  1.4492 -0.8854
 3296SOL     OW21523   0.883   2.764   3.456 -0.0993 -0.0369 -0.2650
 3296SOL    HW121524   0.915   2.802   3.374  1.2779 -1.9549 -0.6302
 3296SOL    HW221525   0.821   2.833   3.477 -1.5505 -1.9078  1.6643
 3297SOL     OW21526   0.906   0.345   7.696  0.2734 -0.4204 -0.2183
 3297SOL    HW121527   0.817   0.319   7.671 -0.3648 -0.0857  1.7782
 3297SOL    HW221528   0.940   0.370   7.610  1.1278  2.5731  0.9997
 3298SOL     OW21529   0.881   1.082   6.126 -0.1767  0.0849  0.1856
 3298SOL    HW121530   0.789   1.062   6.141 -0.0932  1.4125  2.4167
 3298SOL    HW221531   0.922   1.035   6.199 -0.3803 -0.9831 -0.3740
 3299SOL     OW21532   1.800   0.579   3.130 -0.2015  0.6878 -0.5904
 3299SOL    HW121533   1.861   0.560   3.059 -1.2499 -0.3051 -1.2192
 3299SOL    HW221534   1.848   0.655   3.165 -0.3777 -0.4217  2.0503
 3300SOL     OW21535   3.917   4.474   8.806 -0.2971  0.4529  0.1759
 3300SOL    HW121536   3.890   4.561   8.777 -1.2011  0.1563  0.1151
 3300SOL    HW221537   4.012   4.482   8.799 -0.2867 -1.0261 -1.3801
 3301SOL     OW21538   0.865   4.162   8.052  0.4500  0.0581 -0.2119
 3301SOL    HW121539   0.791   4.222   8.043  0.7055  0.7661  2.3946
 3301SOL    HW221540   0.862   4.126   8.141 -0.6802 -0.7254 -0.5542
 3302SOL     OW21541   0.581   3.479   8.415  0.0553  0.9691 -0.1383
 3302SOL    HW121542   0.504   3.422   8.409  0.9747 -0.3594  0.7284
 3302SOL    HW221543   0.564   3.545   8.481 -1.1774 -0.5953  1.1239
 3303SOL     OW21544   0.707   4.391   2.348 -0.6389  0.2294  0.4028
 3303SOL    HW121545   0.632   4.444   2.376 -0.0193  1.5213 -0.3989
 3303SOL    HW221546   0.776   4.456   2.339  0.4257 -1.2039 -1.6656
 3304SOL     OW21547   1.693   2.983   9.283 -0.2267 -0.4432 -0.1107
 3304SOL    HW121548   1.785   3.006   9.290 -0.1534 -1.7374  3.5095
 3304SOL    HW221549   1.674   2.965   9.375  1.5204 -0.2947  0.2621
 3305SOL     OW21550   2.858   4.468   8.488  0.3046 -0.3345  0.1947
 3305SOL    HW121551   2.931   4.470   8.426 -0.0504 -0.6074 -0.2367
 3305SOL    HW221552   2.792   4.491   8.422 -1.1359 -0.0973  1.7386
 3306SOL     OW21553   0.073   1.683  11.441  0.1822  1.0265  0.3465
 3306SOL    HW121554   0.127   1.743  11.492  3.1803  0.1634 -1.7767
 3306SOL    HW221555   0.092   1.709  11.351 -1.0758  1.3682  0.1750
 3307SOL     OW21556   4.593   4.230   5.572  0.0970 -0.4356  0.0448
 3307SOL    HW121557   4.649   4.308   5.569 -1.4207  0.6667  0.0098
 3307SOL    HW221558   4.658   4.161   5.587 -0.9466 -1.6390 -0.9295
 3308SOL     OW21559   0.199   2.061  14.071  0.2683  0.6626  0.1055
 3308SOL    HW121560   0.116   2.109  14.069  0.3637  0.8233  0.0931
 3308SOL    HW221561   0.250   2.126  14.118  0.8052  0.3230 -0.0045
 3309SOL     OW21562   1.910   0.185   9.129  0.2767 -0.3003  0.3902
 3309SOL    HW121563   1.998   0.159   9.105  0.6305  1.6275 -0.3786
 3309SOL    HW221564   1.851   0.120   9.091 -1.1808  0.5141  1.2216
 3310SOL     OW21565   0.843   3.087   0.988  0.2892  0.1814  0.1718
 3310SOL    HW121566   0.758   3.049   0.963  0.2811 -0.7102  1.5504
 3310SOL    HW221567   0.839   3.177   0.956  1.6826 -0.4601 -1.8393
 3311SOL     OW21568   1.299   3.668   1.439  0.4558  0.2105  0.0663
 3311SOL    HW121569   1.221   3.714   1.407 -1.2662 -1.7492  1.4535
 3311SOL    HW221570   1.367   3.734   1.426  0.5155  0.1030 -0.1791
 3312SOL     OW21571   0.389   0.422   1.441 -0.0821 -0.3520  0.1122
 3312SOL    HW121572   0.441   0.491   1.481  2.2948 -2.1745  0.1295
 3312SOL    HW221573   0.369   0.368   1.517  4.4597 -0.7395  0.9964
 3313SOL     OW21574   4.605   0.694  12.584 -0.4013  0.9884  0.1645
 3313SOL    HW121575   4.697   0.717  12.577  0.3863 -2.6466 -1.2690
 3313SOL    HW221576   4.588   0.740  12.502 -0.4425  1.1090  0.2401
 3314SOL     OW21577   0.736   0.284   4.608  0.3681 -0.3178  0.0373
 3314SOL    HW121578   0.793   0.339   4.554 -1.6085  1.7466  0.1075
 3314SOL    HW221579   0.797   0.235   4.664  0.6721  0.9660  0.8367
 3315SOL     OW21580   0.448   3.713   2.175  0.2078  0.0409 -0.3933
 3315SOL    HW121581   0.381   3.736   2.111 -2.5009 -0.3429  2.3478
 3315SOL    HW221582   0.507   3.789   2.181 -0.9524  1.0816 -2.3197
 3316SOL     OW21583   0.840   2.898   1.424  0.2172 -0.1079 -0.2835
 3316SOL    HW121584   0.827   2.879   1.331 -0.4200 -0.9064 -0.0439
 3316SOL    HW221585   0.929   2.932   1.421  0.7142 -1.2722  1.0250
 3317SOL     OW21586   1.317   0.513   8.225  0.5660 -0.4809 -0.9197
 3317SOL    HW121587   1.332   0.419   8.237 -1.4289 -0.6748  0.0895
 3317SOL    HW221588   1.387   0.537   8.164  2.8601 -1.4071  1.3677
 3318SOL     OW21589   0.124   3.071   1.123  0.2682 -0.5073 -0.4537
 3318SOL    HW121590   0.203   3.120   1.148  1.4638 -1.3840 -2.5014
 3318SOL    HW221591   0.084   3.127   1.056 -0.9879 -0.2907  0.4780
 3319SOL     OW21592   2.821   3.197   7.795 -0.3209 -0.0507  0.0139
 3319SOL    HW121593   2.805   3.291   7.785  0.3313 -0.0291 -0.9233
 3319SOL    HW221594   2.739   3.164   7.760  0.9530 -3.7934  0.5308
 3320SOL     OW21595   4.043   3.724   5.292  0.4621 -0.3614 -0.0423
 3320SOL    HW121596   3.967   3.667   5.278 -0.7675  1.3480 -0.2344
 3320SOL    HW221597   4.029   3.764   5.378 -1.7367 -0.0162 -0.5726
 3321SOL     OW21598   3.353   2.768   3.678  0.0612  0.4148  0.3918
 3321SOL    HW121599   3.333   2.675   3.661  0.8081  0.2556  0.3817
 3321SOL    HW221600   3.270   2.816   3.675 -1.5044 -2.4479 -2.1948
 3322SOL     OW21601   1.160   4.268   1.703  0.0746 -0.3029 -0.0141
 3322SOL    HW121602   1.109   4.258   1.784 -0.4069  0.0859 -0.2689
 3322SOL    HW221603   1.100   4.322   1.653 -0.4188  0.9559  1.9508
 3323SOL     OW21604   1.246   2.307  12.690 -0.6704  0.0652 -0.1819
 3323SOL    HW121605   1.259   2.347  12.776 -1.4525 -0.6346  0.2727
 3323SOL    HW221606   1.196   2.370  12.639  0.9550 -1.0750 -3.1544
 3324SOL     OW21607   4.413   2.403   2.964  0.1807 -0.2892 -0.6673
 3324SOL    HW121608   4.346   2.471   2.970 -1.0246 -1.4548 -0.7564
 3324SOL    HW221609   4.397   2.357   3.046 -1.0628 -1.7145 -1.7099
 3325SOL     OW21610   0.546   3.788   7.701 -0.2733 -0.6132  0.4909
 3325SOL    HW121611   0.545   3.699   7.666  0.0443  0.3019 -1.8655
 3325SOL    HW221612   0.575   3.832   7.621 -1.9474 -1.0003 -0.3279
 3326SOL     OW21613   1.356   4.492   9.223  0.2496 -0.3504 -0.0718
 3326SOL    HW121614   1.367   4.509   9.317  2.2438  0.1074 -0.3718
 3326SOL    HW221615   1.382   4.400   9.218 -3.4776 -1.6123  3.8838
 3327SOL     OW21616   4.364   1.750  11.837  0.0497  0.0726 -0.0346
 3327SOL    HW121617   4.357   1.707  11.752 -1.6734  0.5459 -0.1231
 3327SOL    HW221618   4.364   1.672  11.892 -1.0471 -0.0510 -0.2091
 3328SOL     OW21619   2.675   0.573   6.252 -0.0330 -0.1463  0.1038
 3328SOL    HW121620   2.722   0.542   6.329 -0.4021  1.6534  1.0545
 3328SOL    HW221621   2.721   0.653   6.228 -1.0529  0.4219  0.0153
 3329SOL     OW21622   3.894   3.125   4.273  0.6334  0.3261 -0.0862
 3329SOL    HW121623   3.813   3.160   4.237 -0.2136 -0.5133  1.0187
 3329SOL    HW221624   3.947   3.204   4.283  2.3519 -0.7947 -0.2488
 3330SOL     OW21625   2.683   0.533  11.983 -0.3804  0.3980 -0.1341
 3330SOL    HW121626   2.675   0.609  11.925 -3.2617  1.0206  1.0543
 3330SOL    HW221627   2.646   0.569  12.064 -0.9010 -1.7817  0.6039
 3331SOL     OW21628   3.257   2.853   4.386 -0.3572 -0.0773 -0.0908
 3331SOL    HW121629   3.238   2.809   4.303 -2.8520 -1.3970  1.1984
 3331SOL    HW221630   3.324   2.796   4.423 -1.0202 -1.3011 -0.8020
 3332SOL     OW21631   2.517   2.622   3.317 -0.6321  0.1669  0.5451
 3332SOL    HW121632   2.482   2.705   3.283 -1.1338  0.2426  1.2456
 3332SOL    HW221633   2.461   2.572   3.258  1.5254 -0.9874 -0.5197
 3333SOL     OW21634   1.481   2.233   3.000 -0.2037 -0.1597 -0.0157
 3333SOL    HW121635   1.519   2.313   3.036 -0.9022  0.0547  0.2500
 3333SOL    HW221636   1.387   2.250   3.010  0.1031  0.2837  2.1582
 3334SOL     OW21637   1.865   1.916   4.980 -0.2569  0.5685  0.0563
 3334SOL    HW121638   1.926   1.940   4.909  1.3896  3.4784  2.4622
 3334SOL    HW221639   1.850   2.006   5.009 -2.3071  0.2080  0.1153
 3335SOL     OW21640   1.922   4.243   2.560 -0.4060 -0.1729 -0.1776
 3335SOL    HW121641   1.848   4.206   2.607 -0.3572  1.3704  1.1103
 3335SOL    HW221642   1.995   4.224   2.620  1.8872  1.5789 -2.3704
 3336SOL     OW21643   0.136   3.732  13.418 -0.4972  0.0114  1.0986
 3336SOL    HW121644   0.124   3.818  13.458  2.2499  1.7945 -1.9107
 3336SOL    HW221645   0.231   3.727  13.403 -0.6381 -0.0489  0.2610
 3337SOL     OW21646   0.501   2.751   8.898  0.2946 -0.1518 -0.4413
 3337SOL    HW121647   0.451   2.763   8.979  2.7162 -2.0430  1.3368
 3337SOL    HW221648   0.587   2.717   8.923  0.2957 -0.2820 -0.6260
 3338SOL     OW21649   1.118   3.654  16.685  0.0011  0.2325  0.4627
 3338SOL    HW121650   1.183   3.705  16.636  0.4913  1.1752  2.1191
 3338SOL    HW221651   1.177   3.607  16.743 -0.8906 -0.3268  0.9170
 3339SOL     OW21652   0.436   3.665  14.409 -0.1781  0.3838 -0.1974
 3339SOL    HW121653   0.521   3.703  14.388 -0.0690  0.6741  0.7894
 3339SOL    HW221654   0.377   3.740  14.408  1.2804  1.5323  0.9523
 3340SOL     OW21655   4.719   2.489   4.159  0.3035  0.4961 -0.4482
 3340SOL    HW121656   4.643   2.460   4.107 -0.7328  0.5487  1.0309
 3340SOL    HW221657   4.682   2.576   4.174 -0.7923 -0.2254  1.0571
 3341SOL     OW21658   1.033   0.458   1.668 -0.5099 -0.3532  0.0139
 3341SOL    HW121659   1.014   0.523   1.736  0.2160  0.0518 -0.1639
 3341SOL    HW221660   1.127   0.451   1.682 -0.2402 -0.8328 -2.1840
 3342SOL     OW21661   3.111   2.669  12.611 -0.2994  0.2677 -0.1561
 3342SOL    HW121662   3.108   2.624  12.526 -1.9685  0.4024 -0.1682
 3342SOL    HW221663   3.151   2.598  12.662 -1.2566 -1.1923 -1.4162
 3343SOL     OW21664   0.696   4.387   5.020 -0.1956 -0.0362 -0.2504
 3343SOL    HW121665   0.645   4.362   5.097 -1.4571  3.5055  0.0519
 3343SOL    HW221666   0.785   4.366   5.048 -1.0230 -0.3948  2.0798
 3344SOL     OW21667   1.653   2.608   1.313 -0.7597  0.2582  0.2391
 3344SOL    HW121668   1.560   2.587   1.320 -0.9557  1.3038  0.7725
 3344SOL    HW221669   1.672   2.633   1.403 -1.1254 -2.4706  1.0865
 3345SOL     OW21670   3.241   1.210  12.042 -0.4116 -0.6395 -0.6483
 3345SOL    HW121671   3.227   1.156  11.965  0.8044 -0.9366 -0.6534
 3345SOL    HW221672   3.271   1.291  12.000 -0.1638 -2.2779 -3.5675
 3346SOL     OW21673   1.751   0.897  12.898 -0.2369  0.0179  0.1458
 3346SOL    HW121674   1.665   0.857  12.883 -0.4244  0.8709 -1.0533
 3346SOL    HW221675   1.775   0.891  12.806 -1.5382 -2.3838 -0.0233
 3347SOL     OW21676   1.380   3.357   5.460  0.1302  0.1583  0.1611
 3347SOL    HW121677   1.429   3.390   5.385  0.6781 -2.3935 -0.6171
 3347SOL    HW221678   1.433   3.281   5.484 -1.7407 -0.7179  1.5879
 3348SOL     OW21679   1.081   0.469   1.017  0.7469  0.1441 -0.2118
 3348SOL    HW121680   1.134   0.537   1.059  1.1754  0.6990 -1.6642
 3348SOL    HW221681   1.147   0.440   0.955 -0.8356 -0.3771 -1.6497
 3349SOL     OW21682   3.923   3.345  11.809  0.2505  0.6037 -0.3208
 3349SOL    HW121683   3.829   3.363  11.804 -0.1536 -1.5955 -0.6727
 3349SOL    HW221684   3.937   3.252  11.793 -1.6358  0.6765 -2.3528
 3350SOL     OW21685   0.604   1.011   6.181  0.1556  0.5266 -0.0892
 3350SOL    HW121686   0.596   0.949   6.253 -1.3432 -0.2574 -0.9306
 3350SOL    HW221687   0.562   0.964   6.109 -0.4792  1.1931 -0.1596
 3351SOL     OW21688   2.679   3.158   7.242 -0.2023 -0.4813 -0.0930
 3351SOL    HW121689   2.605   3.186   7.296  1.5944  1.0800  1.5382
 3351SOL    HW221690   2.757   3.178   7.294 -1.1984 -0.2655  1.3196
 3352SOL     OW21691   1.829   4.551   5.012  0.0455 -0.4087 -0.3017
 3352SOL    HW121692   1.738   4.520   5.007 -0.7375  2.3228 -2.7173
 3352SOL    HW221693   1.856   4.506   5.092  1.2601  1.3446  0.2685
 3353SOL     OW21694   1.398   2.622   4.231 -0.6819  0.1060  0.3405
 3353SOL    HW121695   1.453   2.699   4.216 -2.9809  1.7623  0.4447
 3353SOL    HW221696   1.441   2.581   4.306 -1.0309 -0.8308  0.0234
 3354SOL     OW21697   2.006   1.139   5.400  0.0851  0.1992 -0.1735
 3354SOL    HW121698   2.082   1.082   5.411  1.3610  2.1555  1.2911
 3354SOL    HW221699   2.008   1.183   5.485  0.0628  2.7324 -1.4953
 3355SOL     OW21700   4.432   4.412   8.782  0.3072 -0.7117 -0.6945
 3355SOL    HW121701   4.490   4.487   8.770 -0.5607  0.1100  0.2517
 3355SOL    HW221702   4.429   4.391   8.875 -0.8600  1.3251 -0.2895
 3356SOL     OW21703   2.970   4.140   6.456  0.5535 -0.3292 -0.1210
 3356SOL    HW121704   2.958   4.206   6.525  0.2332  1.0279 -1.4784
 3356SOL    HW221705   2.940   4.194   6.383  1.8618  0.9333  0.2751
 3357SOL     OW21706   0.101   0.516  15.109 -0.6320 -0.5136  0.2740
 3357SOL    HW121707   0.062   0.431  15.087 -2.5016  1.2292 -3.2425
 3357SOL    HW221708   0.027   0.572  15.083 -0.3179  0.8850  2.4782
 3358SOL     OW21709   0.093   4.718   2.151  0.7377 -0.2997  0.1160
 3358SOL    HW121710   0.109   0.069   2.181 -0.8792  0.7367 -2.0797
 3358SOL    HW221711   0.016   4.689   2.198  1.2860 -0.1461  1.1044
 3359SOL     OW21712   1.719   0.178   7.122  0.2005  0.2468  0.3966
 3359SOL    HW121713   1.771   0.169   7.201 -0.1168  2.0197  0.7965
 3359SOL    HW221714   1.642   0.123   7.138 -0.0025  0.4585  0.1517
 3360SOL     OW21715   3.325   2.829   6.893 -0.2174 -0.0901  0.3534
 3360SOL    HW121716   3.340   2.734   6.892  0.0356 -0.0492  0.1195
 3360SOL    HW221717   3.245   2.828   6.841 -0.6048  0.2818  0.9499
 3361SOL     OW21718   2.728   3.465   7.215 -0.3077 -0.0345 -0.1186
 3361SOL    HW121719   2.707   3.376   7.188  2.2961  0.1903 -2.8243
 3361SOL    HW221720   2.816   3.488   7.187 -0.4453 -0.2574 -0.7230
 3362SOL     OW21721   4.579   4.473  15.893  0.1643  0.2734  0.5367
 3362SOL    HW121722   4.559   4.562  15.864 -1.7226  0.0859  1.2389
 3362SOL    HW221723   4.501   4.422  15.870  0.0685  0.5889  0.1711
 3363SOL     OW21724   1.247   1.982   3.000 -0.1618 -0.1203  0.1336
 3363SOL    HW121725   1.271   2.074   2.988  3.1128 -0.9977  0.0064
 3363SOL    HW221726   1.151   1.983   3.001 -0.1706 -0.6001 -0.3324
 3364SOL     OW21727   2.709   0.308   7.020  0.2081  0.1897 -0.5548
 3364SOL    HW121728   2.655   0.321   7.097  0.8224 -0.0129 -0.0833
 3364SOL    HW221729   2.791   0.299   7.069  0.6639  1.0730 -1.1670
 3365SOL     OW21730   0.486   0.836   2.887 -0.3468  0.7173 -0.3745
 3365SOL    HW121731   0.479   0.795   2.801 -0.6990 -0.3192  0.1569
 3365SOL    HW221732   0.404   0.806   2.925 -0.4984  1.7609  0.1322
 3366SOL     OW21733   0.246   2.568  12.356  0.5280  0.3814  0.0529
 3366SOL    HW121734   0.227   2.474  12.353 -1.7121  0.9037 -2.2059
 3366SOL    HW221735   0.180   2.596  12.419  0.5621  1.9656 -0.6024
 3367SOL     OW21736   2.810   2.788  13.048  0.2019  0.2012 -0.3092
 3367SOL    HW121737   2.850   2.796  12.961 -0.2651 -2.8416 -0.8051
 3367SOL    HW221738   2.736   2.846  13.029  1.4601  1.5407 -1.0513
 3368SOL     OW21739   4.166   3.346   5.058 -0.0269  0.2322 -0.0308
 3368SOL    HW121740   4.099   3.324   5.122  0.2075 -0.3197  0.0197
 3368SOL    HW221741   4.192   3.438   5.071  0.6795  0.0816 -0.3778
 3369SOL     OW21742   0.919   4.176   9.110  0.3310  0.0972 -0.2664
 3369SOL    HW121743   0.916   4.127   9.027  1.3225  1.0511 -0.8633
 3369SOL    HW221744   0.888   4.110   9.173 -0.4295 -0.3948 -1.1574
 3370SOL     OW21745   3.021   1.268   8.713  0.2720 -0.2376  0.0533
 3370SOL    HW121746   3.113   1.240   8.713  0.0689 -0.9244  0.7566
 3370SOL    HW221747   3.026   1.355   8.753  2.6082 -0.6709  0.7438
 3371SOL     OW21748   2.501   3.576  13.751  0.0570  0.1306  0.3995
 3371SOL    HW121749   2.537   3.606  13.835 -0.2061  1.0675  0.1860
 3371SOL    HW221750   2.546   3.632  13.688 -0.1424 -1.4329 -1.0975
 3372SOL     OW21751   2.563   3.995  15.465 -0.2110 -0.3015 -0.0020
 3372SOL    HW121752   2.503   4.017  15.394  0.5885 -2.1829 -1.2575
 3372SOL    HW221753   2.545   4.077  15.511 -1.2003  0.3742 -1.5996
 3373SOL     OW21754   1.749   0.470   9.107 -0.2519  0.1523  0.4577
 3373SOL    HW121755   1.794   0.386   9.108  0.2675  0.4328  0.3561
 3373SOL    HW221756   1.689   0.476   9.182 -2.4050  0.0015 -1.2637
 3374SOL     OW21757   3.043   0.025  17.164 -0.2366 -0.1752  0.4751
 3374SOL    HW121758   3.135   0.009  17.142 -0.9046  0.2922 -2.6466
 3374SOL    HW221759   3.025   0.099  17.106 -3.3460 -2.1270 -1.0530
 3375SOL     OW21760   2.712   1.674   2.546 -0.0210  0.2433 -0.4529
 3375SOL    HW121761   2.735   1.699   2.457 -0.6025  0.8040 -0.4477
 3375SOL    HW221762   2.668   1.589   2.539 -1.4378  0.9699 -0.2974
 3376SOL     OW21763   3.509   2.810   7.611  0.6040  0.0560  0.4984
 3376SOL    HW121764   3.424   2.836   7.576  2.2076  0.0341 -3.3903
 3376SOL    HW221765   3.524   2.746   7.541 -0.2107  0.1776  0.2157
 3377SOL     OW21766   3.377   2.807  14.918  0.2240 -0.3812 -0.1645
 3377SOL    HW121767   3.454   2.804  14.975  1.7885 -0.0135 -2.2502
 3377SOL    HW221768   3.329   2.743  14.969 -0.2122  0.1784  0.1338
 3378SOL     OW21769   1.119   3.466   5.436 -0.1060 -0.0063  0.4201
 3378SOL    HW121770   1.202   3.420   5.453  0.7510  2.1519  1.9772
 3378SOL    HW221771   1.055   3.395   5.440 -1.4179  1.1456 -0.1837
 3379SOL     OW21772   4.353   2.624   4.305 -0.9295  0.1504 -0.3158
 3379SOL    HW121773   4.352   2.615   4.210 -2.5013  0.5076 -0.3360
 3379SOL    HW221774   4.433   2.676   4.312 -1.8037  1.6175 -1.2395
 3380SOL     OW21775   0.986   1.064   7.425 -0.3647  0.1899  0.0670
 3380SOL    HW121776   1.022   1.070   7.514  0.0390 -0.5869 -0.0449
 3380SOL    HW221777   1.039   0.992   7.390 -1.6122 -0.4000 -0.6216
 3381SOL     OW21778   3.769   3.702  14.863 -0.1055  0.2603 -0.0672
 3381SOL    HW121779   3.756   3.648  14.940 -1.2501 -0.3477 -0.6849
 3381SOL    HW221780   3.756   3.636  14.795  0.3026 -0.1534  0.2547
 3382SOL     OW21781   4.116   1.495   4.968 -0.2199  0.3838  0.6493
 3382SOL    HW121782   4.097   1.464   4.880 -0.7441 -2.1725  1.6776
 3382SOL    HW221783   4.037   1.463   5.011 -1.4667  2.0015 -0.4170
 3383SOL     OW21784   4.561   2.221   4.332  0.3890 -0.1116 -0.6569
 3383SOL    HW121785   4.488   2.198   4.275 -0.3754  0.8773 -0.0743
 3383SOL    HW221786   4.517   2.241   4.414 -0.4014  3.6932 -1.9964
 3384SOL     OW21787   2.666   4.708   8.468 -0.3466 -0.3684  0.0301
 3384SOL    HW121788   2.609   0.046   8.481  2.2532  1.3308  1.3605
 3384SOL    HW221789   2.736   4.732   8.528  0.1684  0.2846 -0.8356
 3385SOL     OW21790   0.580   2.504  11.970 -0.1471  0.3599 -0.0530
 3385SOL    HW121791   0.490   2.472  11.972 -0.3157  0.9573  2.2129
 3385SOL    HW221792   0.572   2.567  12.042  0.8284  0.4452 -0.0172
 3386SOL     OW21793   3.871   1.300   8.156  0.2599  0.2163  0.0800
 3386SOL    HW121794   3.797   1.271   8.210 -0.2631 -0.6503 -1.0883
 3386SOL    HW221795   3.925   1.332   8.229 -0.8339  1.6651  0.2488
 3387SOL     OW21796   4.244   4.319   1.709 -0.4865  0.0702  0.2250
 3387SOL    HW121797   4.158   4.278   1.701 -0.2859 -0.6907  2.0193
 3387SOL    HW221798   4.244   4.380   1.635 -0.8565  0.1682  0.3061
 3388SOL     OW21799   3.338   0.717  12.903 -0.0448  0.0398 -0.6239
 3388SOL    HW121800   3.375   0.804  12.914 -2.1613  0.9620 -0.7329
 3388SOL    HW221801   3.261   0.712  12.959  0.9333  1.4429  0.8478
 3389SOL     OW21802   0.910   4.098   2.537  0.2076 -0.1475 -0.0569
 3389SOL    HW121803   0.845   4.168   2.543  0.4489  0.2065 -1.4425
 3389SOL    HW221804   0.841   4.032   2.530  0.1617 -0.1419  0.3675
 3390SOL     OW21805   0.073   0.551   2.837 -0.4702 -0.5294 -0.2760
 3390SOL    HW121806   0.099   0.531   2.747 -0.6603  1.3041 -0.7236
 3390SOL    HW221807   0.156   0.593   2.859 -0.1479 -0.9566 -0.6910
 3391SOL     OW21808   4.169   2.148   1.988  0.2009  0.0258 -0.2087
 3391SOL    HW121809   4.081   2.161   2.022  1.2194  0.8672  2.0805
 3391SOL    HW221810   4.235   2.145   2.058  0.0886  3.6690  0.0310
 3392SOL     OW21811   1.443   0.776  11.741  0.1282 -0.1806  0.2627
 3392SOL    HW121812   1.349   0.764  11.725 -0.2074  1.2212  1.1213
 3392SOL    HW221813   1.435   0.813  11.830 -0.9541 -1.9839  0.9171
 3393SOL     OW21814   3.316   3.145   2.336  0.2796  0.3135  0.2917
 3393SOL    HW121815   3.315   3.173   2.428  1.3023  2.6228 -0.3772
 3393SOL    HW221816   3.382   3.209   2.306  1.8157 -1.4471 -0.0969
 3394SOL     OW21817   2.960   2.212  13.331  0.2613  0.0610  0.1727
 3394SOL    HW121818   3.028   2.277  13.311 -0.8152  0.7960 -1.0780
 3394SOL    HW221819   2.891   2.244  13.272  1.3396  1.5269 -0.3163
 3395SOL     OW21820   1.640   3.663   2.421  0.3238  0.0384  0.8610
 3395SOL    HW121821   1.598   3.635   2.340  0.3499  2.9292 -0.1630
 3395SOL    HW221822   1.731   3.673   2.391 -0.1946 -0.7510 -0.9375
 3396SOL     OW21823   0.501   2.426   9.641  0.2860 -0.5347 -0.0168
 3396SOL    HW121824   0.419   2.382   9.660  0.3219 -0.7146 -0.2848
 3396SOL    HW221825   0.565   2.375   9.691  1.7039  0.3411 -0.9091
 3397SOL     OW21826   1.077   2.134   5.418 -0.3980 -0.3945 -0.1373
 3397SOL    HW121827   1.025   2.155   5.340 -1.1829  1.8612  1.0016
 3397SOL    HW221828   1.013   2.094   5.476  0.1983 -1.0518  0.0673
 3398SOL     OW21829   2.694   2.477  17.372  0.3084 -0.0417 -0.0278
 3398SOL    HW121830   2.702   2.457  17.465  0.7041  1.2169  0.2116
 3398SOL    HW221831   2.753   2.411  17.337  0.8563 -0.3348  1.4410
 3399SOL     OW21832   0.850   4.011   9.889  0.0245 -0.1244  0.1235
 3399SOL    HW121833   0.943   3.991   9.904 -0.9680 -2.4911  3.1549
 3399SOL    HW221834   0.843   4.106   9.896  0.8921  0.0140 -0.7600
 3400SOL     OW21835   0.097   2.052  16.456  0.8118  0.1193 -0.4003
 3400SOL    HW121836   0.040   2.092  16.390 -0.3429 -1.0726 -0.1378
 3400SOL    HW221837   0.184   2.076  16.424  0.0731  1.3481 -1.5136
 3401SOL     OW21838   0.583   1.456   9.049  0.5915  0.3548  0.3550
 3401SOL    HW121839   0.502   1.427   9.006  2.1523 -1.7905 -1.1350
 3401SOL    HW221840   0.556   1.548   9.049  3.9286  1.3293 -0.3985
 3402SOL     OW21841   2.023   4.449   3.774  0.1762  0.5042  0.3027
 3402SOL    HW121842   2.085   4.522   3.777  0.2494  0.4751 -0.4148
 3402SOL    HW221843   1.939   4.489   3.753 -0.4344 -1.2338 -0.5906
 3403SOL     OW21844   3.106   0.571   2.484  0.0165  0.3897 -0.4374
 3403SOL    HW121845   3.168   0.632   2.524 -0.7791  2.2151 -1.9999
 3403SOL    HW221846   3.062   0.632   2.425 -1.2142 -0.1606 -0.0851
 3404SOL     OW21847   3.557   1.190   3.259 -0.0910  0.1327  0.0375
 3404SOL    HW121848   3.565   1.246   3.182 -0.2098 -0.0898 -0.1388
 3404SOL    HW221849   3.505   1.235   3.326 -0.0029 -1.1094  0.9458
 3405SOL     OW21850   2.860   4.688   2.902 -0.5097  0.1679 -0.3277
 3405SOL    HW121851   2.937   4.666   2.848  1.0774  1.3531  1.4403
 3405SOL    HW221852   2.785   4.662   2.849  1.2019 -0.6815 -2.3407
 3406SOL     OW21853   1.054   3.154  14.591 -0.9640  0.3801  0.0080
 3406SOL    HW121854   0.981   3.136  14.531 -0.2713 -0.9205 -0.4284
 3406SOL    HW221855   1.043   3.086  14.657  0.0438  2.4285  2.2627
 3407SOL     OW21856   1.756   0.081   5.063 -0.0107  0.7521 -0.7710
 3407SOL    HW121857   1.821   0.135   5.108 -2.2777  0.5854  2.6559
 3407SOL    HW221858   1.812   0.030   5.004 -0.3366 -0.8498  0.3140
 3408SOL     OW21859   1.644   0.689  10.631 -0.0355  0.7421  0.1462
 3408SOL    HW121860   1.683   0.730  10.708 -1.6220  0.7111  0.9810
 3408SOL    HW221861   1.712   0.714  10.569 -1.2687 -0.1411 -1.5751
 3409SOL     OW21862   3.612   2.768   2.737  0.2831 -0.1024  0.3556
 3409SOL    HW121863   3.582   2.710   2.807 -1.1739 -0.7818 -0.8401
 3409SOL    HW221864   3.548   2.747   2.669  2.1316 -1.3864 -1.0157
 3410SOL     OW21865   4.002   4.694   5.990 -0.7729 -0.2545 -0.0035
 3410SOL    HW121866   3.997   0.025   5.924 -0.5591  1.8700  2.1687
 3410SOL    HW221867   4.058   4.728   6.060 -1.5987 -0.1893  0.6213
 3411SOL     OW21868   3.646   0.138   3.268  0.3218  0.2051  0.1851
 3411SOL    HW121869   3.623   0.218   3.222 -1.3351  0.5971  1.6922
 3411SOL    HW221870   3.564   0.099   3.299  0.8184 -0.5834  0.5212
 3412SOL     OW21871   0.088   0.239  13.670  0.0725  0.4729  0.4522
 3412SOL    HW121872   0.165   0.182  13.672  0.7801  1.4822  1.5777
 3412SOL    HW221873   0.128   0.309  13.721 -0.0325 -0.5551  1.9573
 3413SOL     OW21874   4.251   3.701   2.454  0.2145 -0.2532  0.1188
 3413SOL    HW121875   4.173   3.653   2.480  0.9407 -1.7630 -0.4715
 3413SOL    HW221876   4.317   3.670   2.516  0.5805  0.1681 -0.0597
 3414SOL     OW21877   3.683   0.025   8.327  0.7905  0.1163 -0.1978
 3414SOL    HW121878   3.750   4.694   8.335 -1.8711 -2.3900  0.6142
 3414SOL    HW221879   3.726   0.090   8.383 -0.5965  1.0834 -0.2749
 3415SOL     OW21880   3.660   4.032   2.785  0.3389 -0.2675 -0.0350
 3415SOL    HW121881   3.636   3.965   2.849  0.5246  1.2758  1.6440
 3415SOL    HW221882   3.664   4.112   2.838  0.4759 -0.9965  1.0437
 3416SOL     OW21883   0.985   3.790   9.111 -0.0750  0.1415  0.2498
 3416SOL    HW121884   1.080   3.782   9.116  0.1327  2.5095 -0.2544
 3416SOL    HW221885   0.973   3.780   9.017 -1.3508 -1.0609  0.5346
 3417SOL     OW21886   1.159   2.352   9.257  0.5233 -0.3526  0.1571
 3417SOL    HW121887   1.140   2.335   9.349  0.6263  1.2351  0.4718
 3417SOL    HW221888   1.248   2.387   9.263 -0.1920  1.1688  2.0789
 3418SOL     OW21889   4.113   0.435   5.023 -0.7313  0.0205 -0.1621
 3418SOL    HW121890   4.112   0.340   5.034 -1.6902 -0.0604 -0.9777
 3418SOL    HW221891   4.203   0.463   5.043 -0.6428 -1.3793  1.4506
 3419SOL     OW21892   0.977   4.293  12.943  0.4936  0.1953  0.5891
 3419SOL    HW121893   1.049   4.320  12.887 -1.8287  1.1813 -1.8734
 3419SOL    HW221894   0.925   4.257  12.872 -0.9834  1.2597  1.1407
 3420SOL     OW21895   1.129   2.022  11.806 -0.3070 -0.3179  0.6098
 3420SOL    HW121896   1.115   2.117  11.800 -2.1948 -0.5333  1.6295
 3420SOL    HW221897   1.120   2.006  11.900  0.8699  2.4993  1.2041
 3421SOL     OW21898   1.236   0.147  13.536  0.4926 -0.0791 -0.4442
 3421SOL    HW121899   1.189   0.225  13.507 -0.1224 -0.2660  0.0611
 3421SOL    HW221900   1.263   0.182  13.621  1.2320  2.3956 -1.6697
 3422SOL     OW21901   3.589   4.057   2.410  0.3121 -0.1618  0.2651
 3422SOL    HW121902   3.562   4.042   2.320 -1.5108  0.1661  0.7517
 3422SOL    HW221903   3.638   4.140   2.403  0.5176 -0.5745 -3.4180
 3423SOL     OW21904   0.504   2.989  17.136  0.4207  0.1304  1.2275
 3423SOL    HW121905   0.539   2.907  17.100  0.1629 -0.0821  1.4698
 3423SOL    HW221906   0.577   3.051  17.144  0.5340  0.0774  0.6377
 3424SOL     OW21907   2.193   1.253   3.536 -0.1469 -0.4847  0.5510
 3424SOL    HW121908   2.176   1.260   3.630 -2.6971  2.5460 -0.1347
 3424SOL    HW221909   2.109   1.225   3.499  0.6930 -1.4028 -0.6660
 3425SOL     OW21910   3.108   1.104   4.959 -0.1707 -0.8377 -0.2379
 3425SOL    HW121911   3.152   1.189   4.960 -0.3052 -0.7680  0.1787
 3425SOL    HW221912   3.017   1.133   4.951  0.3614 -0.0914 -3.4488
 3426SOL     OW21913   3.045   2.796   0.859 -0.7799  0.7297  0.5809
 3426SOL    HW121914   3.094   2.718   0.887  0.5147  0.6929 -1.6871
 3426SOL    HW221915   3.046   2.836   0.945  2.8013 -1.6683  1.6636
 3427SOL     OW21916   2.960   2.887  12.630  0.3287 -0.5242 -0.5038
 3427SOL    HW121917   2.880   2.849  12.665 -0.7862  1.3022 -1.0251
 3427SOL    HW221918   3.016   2.810  12.635  0.8961 -0.0184  0.7926
 3428SOL     OW21919   4.366   2.078   1.571 -0.1764 -0.8271  0.1556
 3428SOL    HW121920   4.391   2.049   1.658  0.3905  1.8548  0.8767
 3428SOL    HW221921   4.355   2.170   1.596  0.3807 -0.5734 -0.5334
 3429SOL     OW21922   3.150   4.487   1.506 -0.5838 -0.1534  0.2808
 3429SOL    HW121923   3.178   4.536   1.583  0.5428 -1.0875  0.4627
 3429SOL    HW221924   3.148   4.559   1.444 -2.9641 -0.6421 -0.2165
 3430SOL     OW21925   0.120   1.648   3.565  0.0859  0.2408  0.0296
 3430SOL    HW121926   0.163   1.635   3.650  0.0653 -2.7016 -0.4182
 3430SOL    HW221927   0.194   1.650   3.504  0.3395  0.9581  0.3545
 3431SOL     OW21928   2.215   0.914   5.454  0.3176 -0.0340  0.0722
 3431SOL    HW121929   2.306   0.939   5.466  0.2353  1.6616 -2.8534
 3431SOL    HW221930   2.226   0.819   5.460  1.8772  0.1533  0.1042
 3432SOL     OW21931   2.021   4.194   4.937  0.2052  0.1589  0.1409
 3432SOL    HW121932   2.086   4.258   4.966 -0.6033  0.6460  0.8598
 3432SOL    HW221933   1.984   4.246   4.865  1.1423  0.1563 -0.3391
 3433SOL     OW21934   1.389   3.270   3.586 -0.0414  0.0380 -0.4211
 3433SOL    HW121935   1.434   3.187   3.599 -0.9415 -0.4937 -0.6767
 3433SOL    HW221936   1.341   3.247   3.506 -1.2431 -1.1076  0.6263
 3434SOL     OW21937   2.011   1.834  17.118 -0.0997 -0.1059 -0.2103
 3434SOL    HW121938   1.991   1.915  17.071  0.7413  0.5673  0.6085
 3434SOL    HW221939   1.926   1.791  17.125 -0.0061 -0.3233 -0.4174
 3435SOL     OW21940   4.313   1.726   6.405 -0.3018  0.3718  0.4825
 3435SOL    HW121941   4.247   1.791   6.431 -1.5960 -0.8433  0.2202
 3435SOL    HW221942   4.373   1.722   6.479  1.4501  2.7833 -0.7816
 3436SOL     OW21943   3.854   3.660  12.550  0.0307 -0.1199  0.3727
 3436SOL    HW121944   3.802   3.592  12.593  0.0247  0.9271  2.0262
 3436SOL    HW221945   3.849   3.633  12.458 -0.0760  0.0791  0.3206
 3437SOL     OW21946   0.596   2.869   2.445 -0.1640 -0.1987 -0.1949
 3437SOL    HW121947   0.678   2.819   2.446 -0.6447 -0.9377  1.5177
 3437SOL    HW221948   0.631   2.959   2.446 -2.1939  0.5951 -0.7502
 3438SOL     OW21949   4.149   3.125   7.765  0.2324  0.5682  0.0304
 3438SOL    HW121950   4.091   3.202   7.771  1.1106  1.1917  0.5893
 3438SOL    HW221951   4.093   3.048   7.775  0.0467  0.5989 -0.8240
 3439SOL     OW21952   3.444   0.123   2.234 -0.6884  0.5117 -0.5734
 3439SOL    HW121953   3.403   0.197   2.280  0.1255 -0.4422  1.6252
 3439SOL    HW221954   3.488   0.178   2.169  0.5697 -0.4232 -0.4928
 3440SOL     OW21955   0.964   1.891   5.276  0.0215  0.2211 -0.3374
 3440SOL    HW121956   0.943   1.961   5.336 -0.3761  1.1568 -1.5663
 3440SOL    HW221957   1.017   1.830   5.327 -2.4466 -0.3728  1.5358
 3441SOL     OW21958   3.284   4.505  17.548  0.1145  0.2747 -0.1635
 3441SOL    HW121959   3.258   4.490  17.639  0.3795 -0.7938 -0.2608
 3441SOL    HW221960   3.197   4.494  17.510 -0.0737 -1.7523  0.8518
 3442SOL     OW21961   2.277   0.484   6.995 -0.3706  0.3512  0.7752
 3442SOL    HW121962   2.280   0.560   7.052  0.5604 -0.3633  1.6703
 3442SOL    HW221963   2.190   0.509   6.963  0.6459  2.1541 -0.5801
 3443SOL     OW21964   0.100   2.806   4.288 -0.9118 -0.3136 -0.0927
 3443SOL    HW121965   0.164   2.780   4.222  0.7941  0.8673  1.1046
 3443SOL    HW221966   0.155   2.861   4.344 -1.8213  0.5756 -0.0615
 3444SOL     OW21967   3.834   2.493   4.957  0.2353  0.1008  0.0785
 3444SOL    HW121968   3.861   2.401   4.953 -3.1447 -0.9989  1.9618
 3444SOL    HW221969   3.920   2.533   4.953  0.1639  0.2711  0.2613
 3445SOL     OW21970   1.919   0.273   5.499  0.9600  0.0762  0.1544
 3445SOL    HW121971   1.989   0.339   5.504 -2.5078  3.7904  0.1298
 3445SOL    HW221972   1.874   0.292   5.581 -2.0546  0.3581 -1.5358
 3446SOL     OW21973   1.169   3.441  17.555  0.1997 -0.1851 -0.1207
 3446SOL    HW121974   1.102   3.448  17.486 -1.1301 -3.0117  0.8715
 3446SOL    HW221975   1.239   3.406  17.500  0.2638  0.1960 -0.2843
 3447SOL     OW21976   4.416   3.953   0.479  0.3709 -0.2596  0.1070
 3447SOL    HW121977   4.507   3.965   0.452 -0.3834  2.3413 -1.2944
 3447SOL    HW221978   4.426   3.946   0.574  3.4335  0.3357 -0.1752
 3448SOL     OW21979   1.640   0.201   4.526  0.0480  0.5555 -0.5621
 3448SOL    HW121980   1.709   0.264   4.545  0.4809 -0.7391  2.0662
 3448SOL    HW221981   1.651   0.142   4.601 -1.3551  0.3150 -0.5385
 3449SOL     OW21982   0.642   2.205   8.494 -0.5031 -0.0620 -0.2025
 3449SOL    HW121983   0.597   2.289   8.495 -1.2081 -0.4633  2.1388
 3449SOL    HW221984   0.685   2.212   8.579 -0.3344 -0.9038 -0.2183
 3450SOL     OW21985   4.061   3.224   8.133  0.1250  0.2789 -0.0843
 3450SOL    HW121986   4.008   3.302   8.121  1.0725  1.1149  1.1768
 3450SOL    HW221987   4.149   3.250   8.106 -0.4218  0.5221 -1.5986
 3451SOL     OW21988   1.392   4.485  16.130 -0.0338  0.1315 -0.4841
 3451SOL    HW121989   1.399   4.411  16.069  0.0738  0.1500 -0.4940
 3451SOL    HW221990   1.337   4.551  16.088  0.1733  1.6139  1.5972
 3452SOL     OW21991   2.415   3.606  17.411  0.3223  0.3251  0.0298
 3452SOL    HW121992   2.505   3.637  17.421  0.0569  1.6911 -1.7149
 3452SOL    HW221993   2.407   3.604  17.315  1.3491  1.0958 -0.0664
 3453SOL     OW21994   0.616   0.430   5.763  0.6682 -0.3294  0.1780
 3453SOL    HW121995   0.629   0.344   5.722  2.8595  0.2483 -0.3726
 3453SOL    HW221996   0.548   0.462   5.703  1.2421  2.0779  0.8134
 3454SOL     OW21997   1.240   4.539   5.623  0.0597  0.0859 -0.4300
 3454SOL    HW121998   1.321   4.490   5.611  0.3844  0.0003  2.0573
 3454SOL    HW221999   1.175   4.473   5.598 -1.7282  1.8863 -0.5025
 3455SOL     OW22000   4.696   0.204   7.103 -0.2184 -0.1604 -0.8135
 3455SOL    HW122001   0.053   0.215   7.106 -0.2017 -1.2444  2.8939
 3455SOL    HW222002   4.685   0.184   7.010  4.3442  1.5680 -1.7351
 3456SOL     OW22003   2.384   1.191  11.562 -0.0196  0.2789 -0.7430
 3456SOL    HW122004   2.420   1.261  11.509  1.2482 -0.1373 -0.4261
 3456SOL    HW222005   2.355   1.140  11.487  0.1033 -2.7919  1.2928
 3457SOL     OW22006   2.632   1.857   2.945 -0.0855 -0.3592  0.2236
 3457SOL    HW122007   2.655   1.772   2.906  0.6784  0.3589 -0.8770
 3457SOL    HW222008   2.672   1.904   2.872  2.4345 -2.2941  0.3383
 3458SOL     OW22009   0.882   4.079  12.122 -0.1167 -0.2860 -0.0298
 3458SOL    HW122010   0.828   4.077  12.201 -0.9621  0.7453 -0.5681
 3458SOL    HW222011   0.956   4.139  12.128 -0.2599 -0.1791  0.6981
 3459SOL     OW22012   1.482   3.052   0.956  0.2959  0.3213 -0.3250
 3459SOL    HW122013   1.574   3.026   0.956  0.4060  0.6481  1.9318
 3459SOL    HW222014   1.496   3.141   0.924 -2.1290  0.2521 -1.5461
 3460SOL     OW22015   2.734   1.689   4.026 -0.5821 -0.5609 -0.1097
 3460SOL    HW122016   2.803   1.703   3.960  1.9458 -1.6150  2.2946
 3460SOL    HW222017   2.665   1.704   3.961 -1.1390 -1.0156  0.3856
 3461SOL     OW22018   3.221   0.209   2.511  0.3018  0.3057  0.3329
 3461SOL    HW122019   3.159   0.251   2.452  1.2668  0.2823 -0.7099
 3461SOL    HW222020   3.175   0.128   2.532  0.1364  0.4657  0.5909
 3462SOL     OW22021   4.194   0.350   6.477  0.4301 -0.2542  0.0011
 3462SOL    HW122022   4.169   0.352   6.569  3.6300 -0.6330  0.8834
 3462SOL    HW222023   4.107   0.340   6.440 -0.2869  2.1027  1.0401
 3463SOL     OW22024   2.534   4.200   4.927 -0.1088  0.0693 -0.4763
 3463SOL    HW122025   2.569   4.285   4.954 -0.2822  0.0172 -0.0837
 3463SOL    HW222026   2.465   4.235   4.870 -0.4047 -0.8431 -0.6751
 3464SOL     OW22027   0.846   2.076   4.043  0.1185  0.7497  0.2909
 3464SOL    HW122028   0.844   2.162   4.001  0.6386 -0.0277 -1.3480
 3464SOL    HW222029   0.936   2.057   4.015  0.2839  0.4811  0.9997
 3465SOL     OW22030   3.719   0.023   5.321 -0.5831  0.1824  0.8769
 3465SOL    HW122031   3.695   0.031   5.229  1.9856  0.7937  0.2462
 3465SOL    HW222032   3.734   4.667   5.328 -1.9128  0.1161  2.7035
 3466SOL     OW22033   1.261   2.353   6.072  0.5435  0.1051 -0.3726
 3466SOL    HW122034   1.285   2.367   6.164  0.9872 -2.0678 -0.1628
 3466SOL    HW222035   1.311   2.277   6.044 -0.2991 -0.8698  0.7649
 3467SOL     OW22036   1.343   0.182   7.074 -0.1823  0.0980 -0.3015
 3467SOL    HW122037   1.339   0.099   7.028  0.5838 -0.9022  1.4393
 3467SOL    HW222038   1.326   0.144   7.160 -0.5250  0.0726 -0.3803
 3468SOL     OW22039   0.187   3.218   1.597 -0.1535 -0.0120 -0.3453
 3468SOL    HW122040   0.231   3.134   1.609 -2.8446 -1.3727  0.0308
 3468SOL    HW222041   0.159   3.212   1.505 -2.0202  1.6280  0.1284
 3469SOL     OW22042   2.184   0.449   4.904 -0.6763  0.2948 -0.2061
 3469SOL    HW122043   2.170   0.354   4.905 -0.8527  0.3472  1.6966
 3469SOL    HW222044   2.197   0.468   4.996 -1.6540 -2.2261  0.4619
 3470SOL     OW22045   0.150   0.343  11.210 -0.3452  0.4588  0.6098
 3470SOL    HW122046   0.177   0.418  11.157  1.6375 -0.7894 -0.1726
 3470SOL    HW222047   0.193   0.276  11.157  2.6030  2.5696  0.2849
 3471SOL     OW22048   3.261   1.390  11.322  0.1079 -0.3620  0.1008
 3471SOL    HW122049   3.181   1.440  11.340  1.7942  2.3871 -0.0137
 3471SOL    HW222050   3.325   1.452  11.357  0.1357 -1.2455  1.6076
 3472SOL     OW22051   1.487   4.325   1.762  0.3877  0.0140 -0.1509
 3472SOL    HW122052   1.549   4.275   1.708  0.7404 -2.0662  2.1812
 3472SOL    HW222053   1.459   4.389   1.697 -0.5188 -2.0983 -1.8580
 3473SOL     OW22054   1.634   1.037   5.164  0.2496  0.2771  0.5425
 3473SOL    HW122055   1.710   1.037   5.105  0.3868 -1.1722  0.7120
 3473SOL    HW222056   1.602   1.124   5.143  0.8333  0.2677 -0.3971
 3474SOL     OW22057   4.679   3.880   0.559 -0.2425 -0.0137 -0.3862
 3474SOL    HW122058   0.000   3.861   0.487 -0.3702 -0.5040 -0.3598
 3474SOL    HW222059   4.685   3.793   0.597 -1.7489 -0.2686 -0.7355
 3475SOL     OW22060   0.817   2.017   7.674  0.1145  0.3535 -0.1843
 3475SOL    HW122061   0.835   1.972   7.757 -1.0878  2.6256  1.3344
 3475SOL    HW222062   0.903   2.055   7.654 -1.3449  2.5000 -2.3666
 3476SOL     OW22063   1.526   3.500   3.656  0.1503 -0.3750  0.3578
 3476SOL    HW122064   1.529   3.541   3.570 -2.8357  1.2416  1.0088
 3476SOL    HW222065   1.482   3.417   3.637  1.3495 -0.7390 -0.8682
 3477SOL     OW22066   3.398   0.305   5.463  0.6356 -0.0629  0.0899
 3477SOL    HW122067   3.384   0.210   5.471  0.6379 -0.1073 -0.4446
 3477SOL    HW222068   3.443   0.329   5.544  1.2010  0.9920 -0.5358
 3478SOL     OW22069   2.386   3.318   8.875 -0.6993  0.2067  0.1871
 3478SOL    HW122070   2.369   3.331   8.968 -1.2438 -1.7165  0.3642
 3478SOL    HW222071   2.420   3.405   8.856 -0.7469 -0.0372 -1.0015
 3479SOL     OW22072   4.733   3.322  14.554 -0.2108  0.5041 -0.1548
 3479SOL    HW122073   0.031   3.378  14.486  1.4419 -1.9600 -1.2935
 3479SOL    HW222074   4.646   3.304  14.518  0.1893 -0.9884 -0.3579
 3480SOL     OW22075   4.325   0.334   6.189 -0.0980  1.1642 -0.1913
 3480SOL    HW122076   4.417   0.352   6.204  0.1028 -0.6665  0.8125
 3480SOL    HW222077   4.286   0.389   6.257 -0.5217  0.7222 -0.0739
 3481SOL     OW22078   2.788   3.461   6.381  0.3794 -0.0560 -0.0771
 3481SOL    HW122079   2.818   3.525   6.445 -0.6206  1.0374 -0.6805
 3481SOL    HW222080   2.772   3.384   6.435 -1.8906 -0.1974 -0.9610
 3482SOL     OW22081   2.829   2.482   2.337  0.1530  0.6770  0.6247
 3482SOL    HW122082   2.832   2.446   2.249 -0.1591 -1.0820  1.3199
 3482SOL    HW222083   2.797   2.571   2.326  0.9528  1.0249  1.1014
 3483SOL     OW22084   4.523   2.269  10.490  0.0403 -0.4105  0.2207
 3483SOL    HW122085   4.598   2.250  10.546  2.4589 -1.2669 -3.2897
 3483SOL    HW222086   4.490   2.181  10.472 -0.8121 -0.0059 -0.1956
 3484SOL     OW22087   4.204   3.459   8.402  0.0023 -0.3753 -0.3637
 3484SOL    HW122088   4.242   3.524   8.462 -0.5136  0.7350 -1.2373
 3484SOL    HW222089   4.116   3.453   8.441 -1.0169 -1.6801 -2.8871
 3485SOL     OW22090   4.347   2.774   0.038 -0.2419 -0.1896 -0.3105
 3485SOL    HW122091   4.431   2.731   0.054 -0.7973 -0.6057  1.5354
 3485SOL    HW222092   4.379   2.855   0.076 -1.6625  0.8649 -1.3752
 3486SOL     OW22093   1.558   0.873   2.858  0.9940 -0.3403 -0.2724
 3486SOL    HW122094   1.574   0.956   2.904  0.4934 -1.3471  1.7210
 3486SOL    HW222095   1.472   0.895   2.823  0.7328 -1.4457 -0.3260
 3487SOL     OW22096   3.652   4.534   7.694  0.3987  0.7368 -0.5095
 3487SOL    HW122097   3.628   4.627   7.700  0.3829  0.6312  0.9729
 3487SOL    HW222098   3.571   4.484   7.686 -0.3953  1.8469  0.7271
 3488SOL     OW22099   1.429   2.519  17.214 -0.4908  0.2276  0.1511
 3488SOL    HW122100   1.454   2.540  17.124 -0.7529  0.0341  0.0320
 3488SOL    HW222101   1.421   2.606  17.253 -0.6973 -0.0073  0.6305
 3489SOL     OW22102   4.625   4.675   4.196  0.0145 -0.2699  0.1570
 3489SOL    HW122103   4.679   4.630   4.260 -0.6075 -2.8739 -1.1547
 3489SOL    HW222104   4.542   4.629   4.202 -1.5892  2.4891 -0.8815
 3490SOL     OW22105   4.458   0.446   7.638  0.4230 -0.3413 -0.3188
 3490SOL    HW122106   4.502   0.382   7.583  2.4976 -1.6185  2.8237
 3490SOL    HW222107   4.395   0.490   7.582 -2.0727  0.3382  3.0114
 3491SOL     OW22108   1.124   4.374  16.166  0.2247  0.0044  0.8479
 3491SOL    HW122109   1.107   4.370  16.260  2.1629  0.6476  1.2357
 3491SOL    HW222110   1.208   4.420  16.170  1.3399 -1.7581 -1.9133
 3492SOL     OW22111   3.134   1.758   2.927  0.6158 -0.5267  0.3311
 3492SOL    HW122112   3.061   1.765   2.865 -0.0381  0.9627  1.2747
 3492SOL    HW222113   3.093   1.731   3.009  0.3423  1.1573  0.7516
 3493SOL     OW22114   1.679   3.923   3.081  0.2854  0.5477  0.2616
 3493SOL    HW122115   1.618   3.857   3.115  1.2221 -0.8500 -0.7578
 3493SOL    HW222116   1.722   3.872   3.012  1.6520 -0.4855  1.8687
 3494SOL     OW22117   0.231   3.762   1.985 -0.3747  0.7449  0.4247
 3494SOL    HW122118   0.292   3.832   1.961  1.0303 -1.0654 -1.2509
 3494SOL    HW222119   0.152   3.814   2.000  0.6836  1.9698  1.7865
 3495SOL     OW22120   0.818   2.504   1.949 -0.3122  0.3501  0.1383
 3495SOL    HW122121   0.775   2.469   2.027 -0.7078 -1.2811 -0.7929
 3495SOL    HW222122   0.895   2.535   1.997 -0.3320  0.6054  0.0054
 3496SOL     OW22123   2.081   4.499   2.069  0.3107 -0.0646 -0.5424
 3496SOL    HW122124   2.087   4.417   2.019 -0.2888 -2.5181  3.3690
 3496SOL    HW222125   2.052   4.567   2.009 -0.3074  0.5183  0.4122
 3497SOL     OW22126   2.323   4.194  10.252 -0.3752  0.0969 -0.0855
 3497SOL    HW122127   2.233   4.182  10.221 -0.3562  1.1683 -0.5574
 3497SOL    HW222128   2.371   4.176  10.172  0.2637  0.3856  0.2308
 3498SOL     OW22129   2.072   3.033   9.663  0.2151 -0.1901  0.3353
 3498SOL    HW122130   2.091   3.010   9.754  0.7452 -0.2162  0.2191
 3498SOL    HW222131   2.144   2.987   9.619  0.7276  0.4987  0.4602
 3499SOL     OW22132   3.069   3.291   8.042  0.2703  0.4754  0.3707
 3499SOL    HW122133   3.048   3.211   8.089  0.9939  0.8424  1.3216
 3499SOL    HW222134   2.991   3.289   7.987  1.8790 -0.3089 -1.9121
 3500SOL     OW22135   3.326   2.659   8.884 -0.5314  0.4634 -0.4454
 3500SOL    HW122136   3.288   2.577   8.915  3.1981 -0.7484  1.0119
 3500SOL    HW222137   3.419   2.640   8.901 -1.2018 -0.9542  1.6263
 3501SOL     OW22138   1.116   1.315   0.629  0.0607 -0.1095  0.1150
 3501SOL    HW122139   1.191   1.344   0.681  1.5278 -0.2132 -1.9433
 3501SOL    HW222140   1.081   1.248   0.687  0.8847 -0.3059  0.3838
 3502SOL     OW22141   0.880   0.059   3.141 -0.8085 -0.4026  0.3590
 3502SOL    HW122142   0.846   0.001   3.074 -0.2370  0.0961 -0.3587
 3502SOL    HW222143   0.803   0.116   3.141 -0.6779 -0.2176  1.9317
 3503SOL     OW22144   0.524   0.408   2.739  0.1879 -0.0646 -0.1298
 3503SOL    HW122145   0.591   0.449   2.793  0.7333  0.4345 -1.1808
 3503SOL    HW222146   0.584   0.388   2.667 -0.8019  1.3967 -1.3670
 3504SOL     OW22147   2.401   2.460   7.273  0.7661 -0.0228 -0.7381
 3504SOL    HW122148   2.318   2.465   7.226  0.0954  1.7234  0.5988
 3504SOL    HW222149   2.384   2.519   7.347 -1.7972 -0.3945 -1.0305
 3505SOL     OW22150   1.235   1.796   3.229 -0.1491 -0.3554  0.2479
 3505SOL    HW122151   1.195   1.713   3.204 -0.4707 -0.1434  0.0524
 3505SOL    HW222152   1.261   1.829   3.143  1.4629 -0.0942  0.8307
 3506SOL     OW22153   0.290   3.274   6.122  0.1549  0.3727 -0.2555
 3506SOL    HW122154   0.264   3.198   6.174 -2.4181  1.1972 -0.3023
 3506SOL    HW222155   0.285   3.232   6.036  0.3645 -0.1235 -0.0197
 3507SOL     OW22156   1.963   1.981   7.676  0.6413  0.0667  0.3753
 3507SOL    HW122157   1.921   1.899   7.651  1.8208 -0.8802  1.5144
 3507SOL    HW222158   1.921   2.007   7.757 -1.0549 -0.8665 -0.2197
 3508SOL     OW22159   3.327   2.330  17.528  0.0289  0.0211  0.0045
 3508SOL    HW122160   3.259   2.348  17.463  0.4895 -0.6584 -0.6658
 3508SOL    HW222161   3.314   2.236  17.535  0.6194 -0.0135  0.6181
 3509SOL     OW22162   0.261   1.603   7.138 -0.2877  0.5026 -0.0216
 3509SOL    HW122163   0.313   1.681   7.156  1.1145 -0.2647 -0.7013
 3509SOL    HW222164   0.326   1.535   7.156  0.8223  1.9651  1.4352
 3510SOL     OW22165   3.524   2.543  10.633  0.0127 -0.1002 -0.1188
 3510SOL    HW122166   3.451   2.506  10.583 -1.2082  1.7704  0.2835
 3510SOL    HW222167   3.573   2.462  10.649  0.0744 -0.3875 -1.7628
 3511SOL     OW22168   0.981   4.363  10.046 -0.2790  0.1679 -0.1466
 3511SOL    HW122169   1.040   4.291  10.022 -0.0337  0.2168  0.3030
 3511SOL    HW222170   0.923   4.350   9.971 -0.4855 -2.1110  0.3818
 3512SOL     OW22171   0.152   3.011   6.819  0.7755  0.4335  0.1874
 3512SOL    HW122172   0.150   3.102   6.789 -0.8470  0.2385 -0.2521
 3512SOL    HW222173   0.181   3.017   6.911  0.4403 -0.5265  0.3582
 3513SOL     OW22174   2.468   4.216   3.265 -0.5646  0.2673 -0.4101
 3513SOL    HW122175   2.375   4.234   3.280 -1.0948 -2.5789 -0.2231
 3513SOL    HW222176   2.496   4.190   3.352  0.3749 -1.6840 -1.2896
 3514SOL     OW22177   1.573   3.276   9.307 -0.1973  0.6814 -0.4719
 3514SOL    HW122178   1.542   3.211   9.371 -1.4428 -0.3656 -2.1650
 3514SOL    HW222179   1.589   3.223   9.229  1.0601  1.1568 -0.5398
 3515SOL     OW22180   3.028   4.725   3.913 -0.4186  0.4305  0.0689
 3515SOL    HW122181   3.038   4.631   3.900 -2.1796  0.4988 -1.7501
 3515SOL    HW222182   3.040   0.006   4.006 -3.4812 -2.9458  1.1540
 3516SOL     OW22183   1.126   3.215  17.741  0.2184 -0.0955 -0.0712
 3516SOL    HW122184   1.142   3.296  17.692 -0.9285  0.3282  0.2464
 3516SOL    HW222185   1.195   3.158  17.707  0.0894  0.0650 -0.6057
 3517SOL     OW22186   3.924   1.402  11.034  0.1791  0.0058  0.5869
 3517SOL    HW122187   3.983   1.455  10.979  1.0868 -2.0491 -0.4306
 3517SOL    HW222188   3.987   1.352  11.087  0.9928  0.0619 -0.3203
 3518SOL     OW22189   1.064   3.604   2.003 -0.7793 -0.0056 -0.0227
 3518SOL    HW122190   1.045   3.641   2.089 -1.3847  1.0123 -0.6016
 3518SOL    HW222191   1.109   3.672   1.952  1.2874 -0.3866  1.2803
 3519SOL     OW22192   3.067   2.521   4.972  0.8670 -0.2530 -0.0631
 3519SOL    HW122193   3.092   2.577   4.898 -0.9148 -0.1452 -0.5799
 3519SOL    HW222194   2.973   2.538   4.969  0.7504 -0.7626  0.7938
 3520SOL     OW22195   0.885   4.635   4.542 -0.4249 -0.2796  0.1965
 3520SOL    HW122196   0.861   4.686   4.465  1.3290 -3.3834 -2.4200
 3520SOL    HW222197   0.961   4.677   4.583  0.9923 -1.9704 -0.7250
 3521SOL     OW22198   4.524   2.028   8.066 -0.2994 -0.1486  0.0429
 3521SOL    HW122199   4.593   2.083   8.030  0.3357 -0.7994  0.2622
 3521SOL    HW222200   4.513   2.079   8.146 -1.3568 -0.4212  0.0840
 3522SOL     OW22201   0.680   0.887  13.132  0.2257  0.4957 -0.0825
 3522SOL    HW122202   0.586   0.874  13.125 -0.1616  1.9417  2.3649
 3522SOL    HW222203   0.693   0.950  13.061 -2.2747  1.5034  0.3671
 3523SOL     OW22204   2.126   2.454  12.906 -0.1247  0.5295 -0.0173
 3523SOL    HW122205   2.084   2.423  12.825  1.2553 -1.1578 -0.0922
 3523SOL    HW222206   2.056   2.504  12.946 -1.0070 -1.4409  0.9241
 3524SOL     OW22207   0.635   2.295   5.054 -0.1981 -0.2262  0.5267
 3524SOL    HW122208   0.636   2.207   5.091  0.9043 -0.3663  0.1621
 3524SOL    HW222209   0.685   2.279   4.974  0.0057  1.9174  0.2076
 3525SOL     OW22210   0.854   4.692   7.278 -0.1732 -0.1236 -0.7184
 3525SOL    HW122211   0.781   4.657   7.328  0.8424 -0.0937  0.7959
 3525SOL    HW222212   0.860   0.031   7.335 -0.6236  0.0403 -0.8949
 3526SOL     OW22213   2.823   1.362   6.637  0.0424 -0.1864  0.0255
 3526SOL    HW122214   2.890   1.386   6.573 -1.0381  1.0039 -0.6724
 3526SOL    HW222215   2.872   1.316   6.705 -1.7301 -2.2473 -0.1065
 3527SOL     OW22216   0.430   3.334   7.670  0.3650  0.3312  0.1525
 3527SOL    HW122217   0.449   3.253   7.718 -2.2332  0.1154  0.8092
 3527SOL    HW222218   0.404   3.389   7.744  0.8917 -1.7516  1.8789
 3528SOL     OW22219   2.123   2.601   7.169  0.2738 -0.5284  0.3056
 3528SOL    HW122220   2.141   2.521   7.218  0.2083 -0.4161  0.5098
 3528SOL    HW222221   2.028   2.605   7.172  0.3300 -0.3133  1.6317
 3529SOL     OW22222   0.106   2.603   7.075  0.0078 -0.0581 -0.5252
 3529SOL    HW122223   0.160   2.636   7.003  0.7760 -0.7201 -0.2563
 3529SOL    HW222224   0.180   2.563   7.122 -1.8633  0.4721  2.8460
 3530SOL     OW22225   2.683   2.641   8.407  0.2099  0.4276  0.0739
 3530SOL    HW122226   2.627   2.633   8.330  0.5635  2.7530 -0.4437
 3530SOL    HW222227   2.734   2.562   8.392 -0.4748 -0.3551  1.9012
 3531SOL     OW22228   4.169   2.184   0.554 -0.4625 -0.5160  0.3496
 3531SOL    HW122229   4.207   2.237   0.484  1.9655 -0.4445  1.7172
 3531SOL    HW222230   4.119   2.117   0.507 -0.7351 -0.2129  0.2062
 3532SOL     OW22231   3.775   2.350   3.281  0.3095  0.4103 -0.3257
 3532SOL    HW122232   3.762   2.268   3.328 -1.8082  1.5346  1.0901
 3532SOL    HW222233   3.717   2.410   3.329  0.5179  0.0105  0.4166
 3533SOL     OW22234   0.685   1.090   7.351  0.3196  0.1499  0.5397
 3533SOL    HW122235   0.644   1.170   7.384 -0.8765 -1.9163  4.1326
 3533SOL    HW222236   0.697   1.041   7.433 -0.2553 -2.5506 -1.0069
 3534SOL     OW22237   3.132   2.156   2.670 -0.5793 -0.1847  0.3618
 3534SOL    HW122238   3.095   2.191   2.590  1.5786 -0.3555 -0.7123
 3534SOL    HW222239   3.061   2.112   2.718  0.0996 -1.0260  0.6141
 3535SOL     OW22240   1.050   2.630  14.136  0.1941  0.2506  0.0799
 3535SOL    HW122241   1.072   2.611  14.227  1.7344  3.2184  0.2979
 3535SOL    HW222242   1.133   2.660  14.100  0.7316 -3.4425 -1.7583
 3536SOL     OW22243   0.348   4.454   2.477 -0.0736  0.2160  0.0068
 3536SOL    HW122244   0.356   4.417   2.564 -0.7259 -0.9747 -0.4370
 3536SOL    HW222245   0.353   4.386   2.409 -1.0885 -0.0099  0.1616
 3537SOL     OW22246   0.319   2.473   2.804  0.0881  0.3400  0.0235
 3537SOL    HW122247   0.288   2.553   2.762  3.4079  2.1938  1.0739
 3537SOL    HW222248   0.241   2.422   2.824  1.1778 -0.2420  2.8233
 3538SOL     OW22249   2.599   1.068   3.710 -0.1245 -0.0504  0.0261
 3538SOL    HW122250   2.551   1.052   3.792 -0.4477  2.5464  0.3647
 3538SOL    HW222251   2.586   1.162   3.697 -0.4338  0.1376  1.6072
 3539SOL     OW22252   1.634   4.710   5.339  0.3088  0.0230  0.9928
 3539SOL    HW122253   1.680   0.001   5.260 -0.6390  1.2571  0.8812
 3539SOL    HW222254   1.623   4.616   5.331  1.0394  0.0671 -0.6295
 3540SOL     OW22255   2.432   2.613   3.595  0.0662 -0.2287 -0.5825
 3540SOL    HW122256   2.456   2.603   3.503 -0.6628  0.0889 -0.8022
 3540SOL    HW222257   2.342   2.581   3.603  0.0858 -0.0596  0.4120
 3541SOL     OW22258   2.008   4.695   1.888  0.1364  0.0934  0.5961
 3541SOL    HW122259   2.057   4.724   1.812 -0.0011 -0.0627  0.4488
 3541SOL    HW222260   2.010   0.045   1.925 -2.5994  0.6624 -0.6026
 3542SOL     OW22261   0.317   1.672   4.588  0.1534  0.0578 -0.0454
 3542SOL    HW122262   0.310   1.767   4.590  1.9643  0.1837  1.2681
 3542SOL    HW222263   0.277   1.655   4.674  0.3938 -1.4778 -0.2282
 3543SOL     OW22264   3.068   2.682  16.412 -0.2394 -0.4634 -0.0242
 3543SOL    HW122265   3.146   2.648  16.367 -0.6115 -0.1083 -0.9372
 3543SOL    HW222266   2.997   2.638  16.364 -0.2796  1.8204 -2.0824
 3544SOL     OW22267   0.383   2.091   0.649  0.0973 -0.2518  0.0317
 3544SOL    HW122268   0.379   2.006   0.691 -0.4645  0.2116  0.9035
 3544SOL    HW222269   0.476   2.114   0.652  0.7700 -2.8971 -0.8166
 3545SOL     OW22270   0.547   2.053   3.389 -0.1755  0.0920 -0.5657
 3545SOL    HW122271   0.525   1.973   3.437 -1.3482  1.0673  0.5471
 3545SOL    HW222272   0.461   2.093   3.380 -0.5658 -0.3255  1.2864
 3546SOL     OW22273   1.078   3.883   3.582 -0.6483  0.1784 -0.3592
 3546SOL    HW122274   1.072   3.824   3.657  3.6159 -0.5403 -0.6066
 3546SOL    HW222275   0.996   3.860   3.540 -1.2539 -0.8314  1.3742
 3547SOL     OW22276   1.347   4.202  16.695 -0.2115 -0.1550  0.2484
 3547SOL    HW122277   1.295   4.257  16.637  2.2132  0.3665 -1.4774
 3547SOL    HW222278   1.390   4.138  16.638 -0.3792 -0.7448  0.7791
 3548SOL     OW22279   0.523   0.680  16.130 -0.0885 -0.4494 -0.7333
 3548SOL    HW122280   0.618   0.678  16.140 -0.0340  0.0675 -1.2185
 3548SOL    HW222281   0.505   0.673  16.037 -0.5986  0.7649 -0.7265
 3549SOL     OW22282   0.318   1.068   8.133 -0.2192  0.3304  0.5705
 3549SOL    HW122283   0.343   1.019   8.055  0.8356  1.1829  0.3662
 3549SOL    HW222284   0.227   1.093   8.117  0.1283  0.9490 -0.4733
 3550SOL     OW22285   1.157   2.793   1.767  0.3389  0.1050 -0.2646
 3550SOL    HW122286   1.077   2.742   1.778 -0.6243  2.0289  1.8752
 3550SOL    HW222287   1.173   2.781   1.673 -2.3501 -0.1976 -0.6968
 3551SOL     OW22288   0.724   4.392   3.206 -0.1003  0.1035 -0.5845
 3551SOL    HW122289   0.734   4.429   3.118  1.5867  1.1508  0.0434
 3551SOL    HW222290   0.643   4.342   3.216 -0.0927 -0.1053 -1.5286
 3552SOL     OW22291   0.580   1.094   0.066 -0.1328  0.0794 -0.5192
 3552SOL    HW122292   0.574   1.138   0.151  0.2388 -4.6755  1.9403
 3552SOL    HW222293   0.507   1.033   0.073 -0.0674 -0.0612 -1.0531
 3553SOL     OW22294   1.077   1.816   6.800  0.4582 -0.7973  0.0828
 3553SOL    HW122295   0.992   1.815   6.757  0.0959  1.0770  0.7980
 3553SOL    HW222296   1.130   1.831   6.721 -0.8246 -0.2483 -0.6740
 3554SOL     OW22297   4.648   1.043   5.320 -0.0099 -0.0509  0.2824
 3554SOL    HW122298   4.677   1.056   5.230  0.6861 -1.1221  0.3497
 3554SOL    HW222299   4.556   1.016   5.317  0.7068 -2.2948 -1.5386
 3555SOL     OW22300   3.729   2.761   1.468 -0.5483 -0.2345  0.2899
 3555SOL    HW122301   3.822   2.787   1.470 -0.2877 -1.3858  2.6354
 3555SOL    HW222302   3.742   2.667   1.477 -0.9271 -0.4211 -1.2120
 3556SOL     OW22303   1.430   4.146   7.953  0.2754  0.4072  0.0391
 3556SOL    HW122304   1.504   4.138   8.013 -0.8751  0.3359  1.4509
 3556SOL    HW222305   1.375   4.077   7.989  1.6679 -0.3528  0.7358
 3557SOL     OW22306   3.093   0.591  11.731  0.6241 -0.0079 -0.6451
 3557SOL    HW122307   3.059   0.619  11.816  1.9244 -2.3726  0.6421
 3557SOL    HW222308   3.017   0.611  11.676  0.1031 -0.8777 -0.2441
 3558SOL     OW22309   0.245   2.187  16.679 -0.0185  0.3488 -0.3744
 3558SOL    HW122310   0.189   2.133  16.624  0.8999  0.0620 -1.0028
 3558SOL    HW222311   0.309   2.215  16.614 -0.5871  2.2586 -0.1164
 3559SOL     OW22312   1.012   1.327   6.473 -0.2249 -0.2929 -0.1922
 3559SOL    HW122313   1.031   1.250   6.419  0.8613  0.7979 -1.4010
 3559SOL    HW222314   0.917   1.323   6.462 -0.1896  1.2961 -1.1683
 3560SOL     OW22315   4.184   1.485   6.416 -0.2476 -0.7776  0.0923
 3560SOL    HW122316   4.256   1.428   6.444 -0.2226 -1.2466 -0.9347
 3560SOL    HW222317   4.230   1.563   6.388 -2.0261  0.4608  0.6136
 3561SOL     OW22318   1.552   2.254  12.874  0.2576  0.4533  0.4774
 3561SOL    HW122319   1.463   2.281  12.897  0.6717 -0.0653  2.6841
 3561SOL    HW222320   1.558   2.284  12.783 -0.7935  1.3318  0.6980
 3562SOL     OW22321   4.630   4.599  11.788  0.5113  0.0829 -0.3151
 3562SOL    HW122322   4.639   4.510  11.754  0.2063 -0.7490  1.8086
 3562SOL    HW222323   4.701   4.602  11.852  0.4321 -3.8381 -0.0244
 3563SOL     OW22324   3.145   4.330   3.863  0.0447  0.5146 -0.5715
 3563SOL    HW122325   3.053   4.309   3.849 -0.0051  1.3431 -1.4591
 3563SOL    HW222326   3.133   4.379   3.944  0.7042  1.7667 -1.2380
 3564SOL     OW22327   3.412   1.482   6.597  0.0860 -0.3197 -0.2603
 3564SOL    HW122328   3.389   1.448   6.684  1.1184 -0.5388 -0.0645
 3564SOL    HW222329   3.469   1.412   6.566 -0.1174  0.1537 -1.6939
 3565SOL     OW22330   0.992   1.657   8.239 -0.0815  0.2154  0.8504
 3565SOL    HW122331   0.952   1.708   8.169  1.3402  1.6046  1.0660
 3565SOL    HW222332   0.974   1.569   8.205  0.6988  0.3389  0.1443
 3566SOL     OW22333   0.680   0.354  15.706 -0.3682  0.4490  0.1239
 3566SOL    HW122334   0.658   0.330  15.616  0.9132 -1.0984  0.2076
 3566SOL    HW222335   0.734   0.278  15.728  0.3280  1.0940  0.6074
 3567SOL     OW22336   1.269   1.158   6.613  0.2807 -0.9275 -0.9013
 3567SOL    HW122337   1.227   1.110   6.684 -0.6015 -1.0117 -1.4694
 3567SOL    HW222338   1.190   1.156   6.558 -1.2318  1.7520  1.1660
 3568SOL     OW22339   1.039   2.994  17.270 -0.5997  0.0702 -0.2993
 3568SOL    HW122340   0.969   2.965  17.211  0.5902 -4.5453  0.5546
 3568SOL    HW222341   1.108   3.023  17.209  0.1940  0.1974  0.6578
 3569SOL     OW22342   2.658   2.368   7.373 -0.3329  0.2363 -0.3510
 3569SOL    HW122343   2.610   2.409   7.301 -2.0927  2.1488  1.9262
 3569SOL    HW222344   2.748   2.379   7.343  0.0446  1.7343  1.3343
 3570SOL     OW22345   3.432   4.644   6.469 -0.0985  0.8158 -0.0850
 3570SOL    HW122346   3.407   4.694   6.546  3.9212  0.2836  1.5762
 3570SOL    HW222347   3.454   4.567   6.521 -0.9056  0.2808 -0.5334
 3571SOL     OW22348   2.424   1.250  12.382 -0.1520 -0.2751  0.1980
 3571SOL    HW122349   2.464   1.178  12.334  2.2997  0.5071  1.0826
 3571SOL    HW222350   2.487   1.320  12.364 -0.7808  0.0907 -0.5916
 3572SOL     OW22351   0.852   3.661   9.758 -0.1525 -0.3081 -0.2013
 3572SOL    HW122352   0.851   3.701   9.671  1.3340  0.4297  0.1182
 3572SOL    HW222353   0.925   3.602   9.740  1.0572  0.9572  0.5643
 3573SOL     OW22354   0.766   4.305   1.189 -0.1238 -0.2317 -0.3140
 3573SOL    HW122355   0.744   4.265   1.105  0.2019  1.9750 -1.4607
 3573SOL    HW222356   0.689   4.362   1.196  1.0595  1.7235 -2.9557
 3574SOL     OW22357   2.313   3.718   7.395 -1.0540 -0.2910 -0.3803
 3574SOL    HW122358   2.372   3.709   7.321  0.9597  0.0143  1.1785
 3574SOL    HW222359   2.384   3.737   7.457 -1.0724  1.4522 -0.9045
 3575SOL     OW22360   4.632   1.225  10.792  0.3617  0.2195  0.0369
 3575SOL    HW122361   4.705   1.180  10.750 -0.1706  1.3162 -2.0502
 3575SOL    HW222362   4.650   1.206  10.885  1.0478 -2.4012 -0.6294
 3576SOL     OW22363   3.524   1.212  16.512 -0.1561  0.3020 -0.4096
 3576SOL    HW122364   3.472   1.133  16.494  0.5299 -0.0590 -0.7896
 3576SOL    HW222365   3.461   1.270  16.555  0.3017  1.5037 -1.3664
 3577SOL     OW22366   1.997   4.067  11.731 -0.2225 -1.0439 -0.1146
 3577SOL    HW122367   2.049   4.128  11.784 -1.0925 -1.3183  1.0709
 3577SOL    HW222368   1.906   4.093  11.746 -0.9028 -1.4553 -3.6451
 3578SOL     OW22369   4.070   4.290  11.552  0.2912  0.0271 -0.2928
 3578SOL    HW122370   4.039   4.201  11.568  0.6155  0.1753  1.2150
 3578SOL    HW222371   3.997   4.336  11.512  0.5480 -0.6083 -1.4831
 3579SOL     OW22372   3.633   1.371  17.296 -0.0454  0.0549  0.0284
 3579SOL    HW122373   3.695   1.427  17.344 -1.4279  1.3866  0.2714
 3579SOL    HW222374   3.562   1.373  17.360  0.8957  0.3551  1.0812
 3580SOL     OW22375   1.605   1.641   7.622 -0.2373  0.6936  0.2361
 3580SOL    HW122376   1.692   1.610   7.645 -0.9521 -1.7096 -0.2961
 3580SOL    HW222377   1.569   1.569   7.570 -0.6151 -0.2166  1.7660
 3581SOL     OW22378   2.811   2.884  17.029 -0.1073  0.3706  0.3238
 3581SOL    HW122379   2.855   2.803  17.005  3.1193  1.7318  1.6310
 3581SOL    HW222380   2.878   2.948  17.054 -0.3155  0.5401  0.4571
 3582SOL     OW22381   0.339   0.344   1.715  0.1567  0.3009 -0.3391
 3582SOL    HW122382   0.247   0.319   1.723  0.9661 -2.5402  0.1784
 3582SOL    HW222383   0.365   0.330   1.806 -1.6832 -0.5445  0.0437
 3583SOL     OW22384   3.445   0.409  10.741 -0.1396  0.5689 -0.0601
 3583SOL    HW122385   3.523   0.364  10.772  0.2297  0.7009 -0.8026
 3583SOL    HW222386   3.481   0.459  10.668 -1.2219 -1.4302 -1.9551
 3584SOL     OW22387   3.934   1.818  10.268  0.2735 -0.3231  0.0206
 3584SOL    HW122388   3.918   1.753  10.199 -0.4406 -0.0550 -0.0716
 3584SOL    HW222389   3.973   1.891  10.222  0.5573 -0.3732  0.1837
 3585SOL     OW22390   3.939   1.990   4.456  0.1682  0.5366  0.7118
 3585SOL    HW122391   3.962   1.898   4.472  0.8897  0.7723  1.0387
 3585SOL    HW222392   3.943   2.026   4.544 -1.0238  1.5966  0.3177
 3586SOL     OW22393   4.544   0.906   9.648 -0.2823 -0.3168 -0.5186
 3586SOL    HW122394   4.606   0.970   9.684 -0.4947 -0.5690  0.2844
 3586SOL    HW222395   4.458   0.943   9.668 -0.2406  0.0832 -1.0791
 3587SOL     OW22396   1.922   2.494  17.604  0.0301  0.3369  0.3424
 3587SOL    HW122397   1.864   2.563  17.639 -0.4858 -0.5570  1.2551
 3587SOL    HW222398   2.004   2.539  17.625  0.2650 -0.5958  1.3973
 3588SOL     OW22399   4.505   0.164   5.505 -0.1924 -0.1236  0.5567
 3588SOL    HW122400   4.540   0.249   5.477  0.4653 -0.8638 -0.8472
 3588SOL    HW222401   4.576   0.102   5.490 -2.4458 -2.4443 -0.3264
 3589SOL     OW22402   1.776   2.822  12.492 -0.4288  0.9053  0.1444
 3589SOL    HW122403   1.732   2.801  12.409 -1.3732  0.3465  0.7845
 3589SOL    HW222404   1.866   2.798  12.471  0.2007  2.2650  1.2849
 3590SOL     OW22405   1.521   3.969   6.145 -0.2238  0.0550 -0.2209
 3590SOL    HW122406   1.536   3.929   6.231  1.1239  0.7937 -0.1170
 3590SOL    HW222407   1.493   4.056   6.171 -1.0206 -0.5939  1.0824
 3591SOL     OW22408   3.510   2.974   4.760 -0.7300 -0.0760  0.3463
 3591SOL    HW122409   3.576   3.005   4.698 -1.1720 -0.9043 -0.5253
 3591SOL    HW222410   3.507   2.879   4.751 -0.1861 -0.1782  1.2528
 3592SOL     OW22411   3.149   2.736   2.930  0.0171  0.2330 -0.1453
 3592SOL    HW122412   3.170   2.655   2.884  2.0832  0.5699  0.1918
 3592SOL    HW222413   3.216   2.793   2.893  0.1456 -0.3878 -0.8793
 3593SOL     OW22414   2.457   0.011   8.105  0.0898  0.5877  0.0261
 3593SOL    HW122415   2.404   4.698   8.166  3.0611  0.0061  2.0836
 3593SOL    HW222416   2.503   4.682   8.054  0.9881  0.6321  0.7959
 3594SOL     OW22417   2.000   2.491   1.453  0.3951 -0.2760 -0.6023
 3594SOL    HW122418   1.970   2.498   1.362  0.0632 -0.4318 -0.5027
 3594SOL    HW222419   1.919   2.488   1.503  1.3442  0.6309  0.9761
 3595SOL     OW22420   0.658   0.176   3.859 -0.4102 -0.4438 -0.7890
 3595SOL    HW122421   0.577   0.126   3.851 -0.5147 -0.1096 -1.8759
 3595SOL    HW222422   0.719   0.114   3.819 -0.8765 -0.3350 -1.6673
 3596SOL     OW22423   0.405   1.075   1.284  0.1219  0.6311  0.3248
 3596SOL    HW122424   0.415   1.107   1.194  1.5626 -1.0555 -0.1244
 3596SOL    HW222425   0.472   1.131   1.323  1.3858 -2.3784  2.3853
 3597SOL     OW22426   3.868   0.396  16.224  0.0641  0.3726 -0.1658
 3597SOL    HW122427   3.916   0.351  16.293 -1.1694 -0.4013  0.1979
 3597SOL    HW222428   3.822   0.461  16.276  0.0438 -1.6318  2.3079
 3598SOL     OW22429   3.794   4.650   1.180  0.1237 -0.0685  0.3625
 3598SOL    HW122430   3.751   4.720   1.228 -0.6086 -0.3021  0.0435
 3598SOL    HW222431   3.773   4.681   1.092 -0.8843 -0.8863  0.3178
 3599SOL     OW22432   0.888   0.809   4.514  0.3599  0.1824 -0.5067
 3599SOL    HW122433   0.853   0.871   4.451  0.0329 -0.6177 -1.1100
 3599SOL    HW222434   0.818   0.805   4.579 -1.1767 -2.2524 -2.3422
 3600SOL     OW22435   1.027   2.460  12.655 -0.4859  0.2445  0.1975
 3600SOL    HW122436   1.014   2.552  12.631  1.7323  1.4113  3.4544
 3600SOL    HW222437   0.943   2.437  12.616 -0.4657 -0.7918  0.7669
 3601SOL     OW22438   3.657   4.391  10.823 -0.9966 -0.1685  0.4082
 3601SOL    HW122439   3.741   4.416  10.786 -0.9009 -1.5299 -0.2714
 3601SOL    HW222440   3.613   4.475  10.810 -1.1274 -0.6066 -1.8592
 3602SOL     OW22441   0.344   0.620   3.207 -0.1678 -0.1762 -0.2792
 3602SOL    HW122442   0.349   0.702   3.257  0.8652  0.1991 -1.0033
 3602SOL    HW222443   0.316   0.655   3.123  2.3332  0.4714 -0.8382
 3603SOL     OW22444   0.077   0.222   8.910 -0.1418  0.3973 -0.0246
 3603SOL    HW122445   4.731   0.241   8.869  0.1086 -2.3050 -1.7501
 3603SOL    HW222446   0.059   0.251   9.000 -0.1836 -3.2433  1.1213
 3604SOL     OW22447   2.994   3.203  12.516  0.4526 -0.2942 -0.2437
 3604SOL    HW122448   2.967   3.284  12.558  2.4363  1.1214 -1.7132
 3604SOL    HW222449   3.085   3.187  12.541  0.3736  0.2472  0.3960
 3605SOL     OW22450   0.727   0.531   6.309  0.2881 -0.4300  0.6872
 3605SOL    HW122451   0.726   0.443   6.271  1.2578  0.0361 -0.4100
 3605SOL    HW222452   0.665   0.521   6.382 -0.9834 -0.4060 -0.3836
 3606SOL     OW22453   0.100   3.242  14.976  0.9157  0.4766 -0.7649
 3606SOL    HW122454   0.046   3.275  15.047  0.2275  0.6813 -1.3890
 3606SOL    HW222455   0.093   3.312  14.912  1.2738  0.3201 -0.9758
 3607SOL     OW22456   4.260   1.090   6.302 -0.4651  0.1954  1.0951
 3607SOL    HW122457   4.191   1.055   6.246 -0.7295 -0.3584  1.7668
 3607SOL    HW222458   4.266   1.177   6.261  0.8674 -0.3510  0.1222
 3608SOL     OW22459   0.474   2.451  11.068  0.2381  0.1895  0.7129
 3608SOL    HW122460   0.480   2.422  11.159  2.4414 -2.0282 -0.1624
 3608SOL    HW222461   0.559   2.423  11.035  0.2706  2.0226 -0.7980
 3609SOL     OW22462   3.671   4.388  14.713 -0.2971  0.2049  0.1249
 3609SOL    HW122463   3.599   4.342  14.756  0.5246 -0.4442  0.8023
 3609SOL    HW222464   3.635   4.476  14.721  1.4012  0.6870  2.3796
 3610SOL     OW22465   1.247   4.125  17.459 -0.3750  0.4157  0.2125
 3610SOL    HW122466   1.181   4.121  17.390  1.3700  2.1122 -1.5634
 3610SOL    HW222467   1.290   4.211  17.456  0.3728  0.0142 -0.6374
 3611SOL     OW22468   4.584   0.549   5.900 -0.1167  0.1741 -0.1327
 3611SOL    HW122469   4.636   0.470   5.885 -2.2781 -1.1486 -0.7139
 3611SOL    HW222470   4.646   0.605   5.853 -2.8658  0.5163 -3.3461
 3612SOL     OW22471   2.015   0.338   3.944 -0.1759  0.0211  0.0218
 3612SOL    HW122472   1.963   0.280   3.887  0.5446 -0.2338 -0.3802
 3612SOL    HW222473   2.022   0.273   4.014 -0.2163 -1.3779 -1.2667
 3613SOL     OW22474   3.388   2.557  16.020 -0.0384  0.2276 -0.2019
 3613SOL    HW122475   3.454   2.613  16.060 -0.8969  1.9414 -1.1837
 3613SOL    HW222476   3.413   2.552  15.928 -1.1642 -2.4425 -0.3695
 3614SOL     OW22477   1.701   3.900  14.954 -0.2207 -0.1120 -0.3609
 3614SOL    HW122478   1.713   3.851  14.872 -1.8446 -0.3553 -0.4543
 3614SOL    HW222479   1.659   3.982  14.928 -2.3864 -0.5250  1.8923
 3615SOL     OW22480   0.311   3.763   6.503  0.1151  0.2495  0.5929
 3615SOL    HW122481   0.362   3.826   6.554  0.9986  0.0763 -0.0802
 3615SOL    HW222482   0.380   3.717   6.456  0.1146 -0.2505  1.0803
 3616SOL     OW22483   4.064   1.929   3.991  0.0115 -0.2996 -0.8548
 3616SOL    HW122484   4.076   1.916   4.085 -0.8125 -0.5106 -0.7857
 3616SOL    HW222485   4.021   1.849   3.962  1.1874 -1.0734 -0.4715
 3617SOL     OW22486   2.738   1.968  12.711 -0.0024 -0.2196 -0.3730
 3617SOL    HW122487   2.719   1.875  12.694 -2.1211  0.2911 -0.8367
 3617SOL    HW222488   2.773   1.969  12.800  1.7913  0.2751 -1.0860
 3618SOL     OW22489   0.372   1.771   3.073 -0.1638 -0.0693 -0.0763
 3618SOL    HW122490   0.342   1.690   3.114  0.1113  0.9785  2.1738
 3618SOL    HW222491   0.333   1.777   2.986  0.1915  1.6197 -0.1175
 3619SOL     OW22492   0.120   4.441   7.379  0.4909 -0.0840 -0.4055
 3619SOL    HW122493   0.033   4.459   7.345  0.0496 -1.1159  0.1687
 3619SOL    HW222494   0.169   4.453   7.298 -0.9849  2.4587 -0.8880
 3620SOL     OW22495   3.293   0.138   3.868 -0.1242 -0.3346 -0.0025
 3620SOL    HW122496   3.208   0.095   3.867 -0.3194  0.0049  2.1133
 3620SOL    HW222497   3.350   0.072   3.828 -1.0625 -0.4174 -1.1988
 3621SOL     OW22498   0.116   0.996   9.821 -0.3804 -0.0620 -0.4063
 3621SOL    HW122499   0.205   1.024   9.801  0.1644 -0.2761  1.7323
 3621SOL    HW222500   0.065   1.076   9.811  0.9577  1.2798  3.5745
 3622SOL     OW22501   2.309   3.209   7.965 -0.3404  0.2173  0.4252
 3622SOL    HW122502   2.345   3.210   8.054  0.2451  2.4102  0.1705
 3622SOL    HW222503   2.224   3.169   7.979 -0.5995 -0.0882 -2.0337
 3623SOL     OW22504   3.436   1.452   8.391 -0.4816 -0.1976  0.4591
 3623SOL    HW122505   3.367   1.504   8.350 -0.0492 -0.7483 -0.9749
 3623SOL    HW222506   3.507   1.469   8.329  0.4797 -0.5716  1.4569
 3624SOL     OW22507   1.407   2.806   1.234 -0.2803 -0.2105 -0.4997
 3624SOL    HW122508   1.324   2.855   1.236  0.3204  0.8070 -0.7978
 3624SOL    HW222509   1.379   2.717   1.255  0.7535 -0.6882 -1.1614
 3625SOL     OW22510   3.363   2.872   1.784 -0.5218  0.2940  0.4291
 3625SOL    HW122511   3.411   2.929   1.844  2.4823 -0.5640 -1.1774
 3625SOL    HW222512   3.440   2.832   1.744 -0.3712  1.7735 -0.7308
 3626SOL     OW22513   2.603   4.081   1.409  0.2901  0.8619  0.7445
 3626SOL    HW122514   2.653   4.105   1.331 -2.0537  2.1881 -0.3412
 3626SOL    HW222515   2.645   3.996   1.420 -0.5093  0.2210 -1.3314
 3627SOL     OW22516   0.757   0.983  14.866 -0.4975  0.7385  0.8613
 3627SOL    HW122517   0.777   0.895  14.896  0.2363  0.8598  0.7286
 3627SOL    HW222518   0.681   0.970  14.810 -2.2203  1.1536  3.1122
 3628SOL     OW22519   0.680   0.294   6.173  0.6768  0.3588  0.2915
 3628SOL    HW122520   0.669   0.214   6.224  0.7837  0.3953  0.3708
 3628SOL    HW222521   0.590   0.304   6.142  0.8850  0.4735 -0.2783
 3629SOL     OW22522   0.451   0.282   5.499 -0.0462 -0.0409  0.1089
 3629SOL    HW122523   0.521   0.284   5.434 -0.8021  1.2731 -0.6842
 3629SOL    HW222524   0.500   0.231   5.563  0.2887  0.6108  0.3699
 3630SOL     OW22525   2.040   4.219   3.604 -0.5413  0.2008 -0.1427
 3630SOL    HW122526   1.992   4.145   3.641 -1.3188  0.2170 -1.1083
 3630SOL    HW222527   2.018   4.287   3.667 -1.1555 -1.5144  1.4969
 3631SOL     OW22528   1.376   3.857   7.636 -0.9681  0.1806  0.2567
 3631SOL    HW122529   1.446   3.915   7.668 -2.2296  1.8501 -0.0350
 3631SOL    HW222530   1.337   3.914   7.571  1.3948  2.9060  1.2189
 3632SOL     OW22531   1.686   4.495   5.660  0.1443  0.1113 -0.0058
 3632SOL    HW122532   1.760   4.495   5.721 -0.0212  0.5760  0.1931
 3632SOL    HW222533   1.641   4.418   5.696 -0.7954  0.1378 -1.1340
 3633SOL     OW22534   2.760   1.602   2.836 -0.5320  0.0435 -0.1626
 3633SOL    HW122535   2.796   1.654   2.764 -1.8868  0.9298 -0.1995
 3633SOL    HW222536   2.833   1.541   2.850 -1.1751 -0.4289  1.1127
 3634SOL     OW22537   1.550   1.467   6.249 -0.1480 -0.0585 -0.2956
 3634SOL    HW122538   1.519   1.388   6.293  1.6066 -1.1564 -1.0310
 3634SOL    HW222539   1.549   1.523   6.327 -0.8542  0.0861 -0.4073
 3635SOL     OW22540   0.629   0.332   7.616  0.3907 -0.0007 -0.3018
 3635SOL    HW122541   0.555   0.341   7.555  0.2828 -0.8046 -0.2901
 3635SOL    HW222542   0.578   0.353   7.694  1.1294 -0.8620  0.4223
 3636SOL     OW22543   1.266   3.814   3.151  0.5570 -0.4946 -0.1001
 3636SOL    HW122544   1.174   3.842   3.156  0.2304 -1.8334  1.3595
 3636SOL    HW222545   1.271   3.782   3.061 -0.8177  0.8457 -0.6487
 3637SOL     OW22546   3.148   4.181   4.204  0.1757  0.1160 -0.3661
 3637SOL    HW122547   3.214   4.244   4.231 -1.2227  1.7050 -0.6133
 3637SOL    HW222548   3.188   4.095   4.200  2.2148  1.0904 -0.5791
 3638SOL     OW22549   1.514   1.826   8.430 -0.4230 -0.2280 -0.2574
 3638SOL    HW122550   1.525   1.891   8.500  0.4773 -0.6236 -0.0350
 3638SOL    HW222551   1.435   1.783   8.464 -0.8492  0.5576 -0.2228
 3639SOL     OW22552   0.880   1.189   5.634  0.1410 -0.1403 -0.2544
 3639SOL    HW122553   0.942   1.188   5.561  2.1118 -4.8462  1.4940
 3639SOL    HW222554   0.904   1.263   5.690 -0.5854  1.8869 -2.6297
 3640SOL     OW22555   4.000   4.225   1.712 -0.1999  0.0004 -0.2900
 3640SOL    HW122556   3.950   4.278   1.650 -0.1858  1.2649  0.7900
 3640SOL    HW222557   3.955   4.251   1.792 -1.5305 -3.6150  0.1627
 3641SOL     OW22558   0.933   0.015   4.036  0.6353 -0.6806 -0.4314
 3641SOL    HW122559   0.888   4.709   3.964 -0.7348  0.5787 -0.3464
 3641SOL    HW222560   0.893   0.102   4.039 -0.0150 -1.0483  1.2597
 3642SOL     OW22561   0.100   1.951  15.413  0.1801 -0.1868 -0.3350
 3642SOL    HW122562   0.096   1.902  15.331  0.1140  0.9903 -1.0310
 3642SOL    HW222563   0.093   2.041  15.381 -0.9576 -0.5230 -1.0385
 3643SOL     OW22564   3.534   0.528   2.072 -0.1322 -0.1029  0.5283
 3643SOL    HW122565   3.585   0.510   1.993 -0.0708 -0.9009  0.7471
 3643SOL    HW222566   3.470   0.593   2.045 -0.2506 -0.7225 -0.6668
 3644SOL     OW22567   2.351   3.150   1.817  0.0746 -0.1655  0.1031
 3644SOL    HW122568   2.302   3.232   1.821 -0.7097 -0.6049 -0.7026
 3644SOL    HW222569   2.437   3.182   1.848  1.0177 -0.7793 -1.8622
 3645SOL     OW22570   1.710   0.206  13.023 -0.3993  0.2992 -0.0697
 3645SOL    HW122571   1.739   0.119  12.997  0.5702  0.4992  0.3550
 3645SOL    HW222572   1.790   0.253  13.047 -0.5329  0.3806  0.2196
 3646SOL     OW22573   0.489   1.478  10.929 -0.2743 -0.4278  0.1084
 3646SOL    HW122574   0.446   1.401  10.892 -1.4911 -0.6875  2.0616
 3646SOL    HW222575   0.479   1.463  11.023 -1.2530 -0.0214  0.0702
 3647SOL     OW22576   0.518   4.046   1.351  0.7229  0.3757 -0.3455
 3647SOL    HW122577   0.602   4.002   1.339  0.4603 -0.8649  2.4776
 3647SOL    HW222578   0.549   4.133   1.324  2.4238 -0.2156 -0.2649
 3648SOL     OW22579   3.664   0.745  16.608 -0.3642  0.1645  0.7710
 3648SOL    HW122580   3.666   0.839  16.626  1.9008  0.1876  0.4336
 3648SOL    HW222581   3.594   0.725  16.670 -0.4866 -2.1065 -0.0839
 3649SOL     OW22582   3.984   1.782   0.071 -0.3468  0.0186  1.0417
 3649SOL    HW122583   3.991   1.876   0.087 -1.2957  0.1950  0.4142
 3649SOL    HW222584   4.040   1.762   0.146  0.0958 -1.2475  0.3609
 3650SOL     OW22585   1.981   4.073   5.851  0.0258  0.3377  0.2033
 3650SOL    HW122586   1.987   4.064   5.946  1.6531 -0.5799  0.0133
 3650SOL    HW222587   2.074   4.057   5.833 -0.6568  0.2607 -3.3134
 3651SOL     OW22588   2.581   0.885  11.488 -0.5030  0.4495  0.1366
 3651SOL    HW122589   2.641   0.811  11.474  0.0955  0.9629 -0.0056
 3651SOL    HW222590   2.538   0.900  11.404  0.9377 -1.2516 -0.9166
 3652SOL     OW22591   1.085   1.859   5.016  0.0266  0.1269  0.1256
 3652SOL    HW122592   1.037   1.878   5.097  0.6583 -1.2854  0.8082
 3652SOL    HW222593   1.166   1.908   5.028  0.6896 -0.7444 -0.8111
 3653SOL     OW22594   3.370   4.188   4.523 -0.0655  0.1429 -0.3586
 3653SOL    HW122595   3.308   4.229   4.583 -0.1809 -0.0148 -0.3700
 3653SOL    HW222596   3.326   4.109   4.491  0.1449 -0.1147 -0.0104
 3654SOL     OW22597   2.280   4.377  15.112 -0.3696 -0.3048 -0.2664
 3654SOL    HW122598   2.297   4.470  15.130 -0.2152 -0.8074  2.2194
 3654SOL    HW222599   2.317   4.342  15.193 -1.1347  1.5977  0.8988
 3655SOL     OW22600   1.881   3.958   8.099 -0.8419 -0.2210  0.8704
 3655SOL    HW122601   1.823   3.957   8.175 -2.1498  0.8804 -0.1262
 3655SOL    HW222602   1.944   4.026   8.125 -2.4233  1.1911  1.0192
 3656SOL     OW22603   2.356   3.933   3.354  0.4517 -0.0050  0.7342
 3656SOL    HW122604   2.309   3.866   3.404  1.1385  0.4576  1.9948
 3656SOL    HW222605   2.304   4.010   3.374  0.7227  0.6950 -1.2287
 3657SOL     OW22606   3.847   2.914   4.897  0.0357  0.1804  0.1626
 3657SOL    HW122607   3.762   2.932   4.856 -1.5891 -0.4526  3.2635
 3657SOL    HW222608   3.874   2.837   4.846 -0.5781 -0.1305  0.3111
 3658SOL     OW22609   1.567   2.898   9.047  0.0941 -0.2741 -0.1147
 3658SOL    HW122610   1.604   2.934   9.128 -1.1687  0.1900  0.2647
 3658SOL    HW222611   1.637   2.852   9.002  1.4027  0.8909  0.7364
 3659SOL     OW22612   2.406   4.108   8.771  0.3677  0.5155 -0.1608
 3659SOL    HW122613   2.444   4.175   8.714  1.0906 -0.3155 -0.6403
 3659SOL    HW222614   2.483   4.074   8.815 -0.7496 -1.3031  0.3965
 3660SOL     OW22615   2.860   3.099   0.475 -0.0917 -0.2332  0.3390
 3660SOL    HW122616   2.903   3.043   0.540 -1.5435 -1.2337  0.4516
 3660SOL    HW222617   2.830   3.029   0.417  0.6792 -0.6649  0.4610
 3661SOL     OW22618   1.084   4.279  14.456  0.3873 -0.0550 -0.4547
 3661SOL    HW122619   1.099   4.255  14.365  0.7220  1.0671 -0.6954
 3661SOL    HW222620   1.104   4.373  14.461 -2.9172  0.5350  1.7471
 3662SOL     OW22621   3.246   1.102   5.478  0.1412 -0.0569  0.0621
 3662SOL    HW122622   3.159   1.141   5.466 -1.3492 -3.2383  0.4964
 3662SOL    HW222623   3.215   1.020   5.518  0.5123  0.2224  0.9221
 3663SOL     OW22624   0.379   1.434  12.793  0.8632 -0.1976  0.4896
 3663SOL    HW122625   0.360   1.345  12.766 -0.1748  0.4502 -0.9527
 3663SOL    HW222626   0.473   1.433  12.808  0.4094  1.4834  3.4545
 3664SOL     OW22627   3.507   3.192   7.236  0.1109 -0.0058 -0.4380
 3664SOL    HW122628   3.455   3.265   7.203 -0.3333  0.5104  1.3548
 3664SOL    HW222629   3.500   3.211   7.330 -1.3304 -0.1318 -0.5274
 3665SOL     OW22630   4.274   3.612   3.979  0.3997 -0.7335 -0.1795
 3665SOL    HW122631   4.284   3.518   3.960  1.1434 -0.7174  0.1270
 3665SOL    HW222632   4.187   3.624   3.940  1.5408  0.5012 -2.3278
 3666SOL     OW22633   1.942   0.536   2.439 -0.4713  0.1142  0.2564
 3666SOL    HW122634   1.919   0.472   2.508  2.2382  0.0600  1.0922
 3666SOL    HW222635   1.903   0.614   2.478 -0.0057 -0.9097  2.8227
 3667SOL     OW22636   1.678   0.783   8.071 -0.0798  0.2025  0.4541
 3667SOL    HW122637   1.629   0.702   8.056  0.5050  0.3770 -2.2574
 3667SOL    HW222638   1.668   0.778   8.166  1.3419  2.9860  0.7288
 3668SOL     OW22639   4.609   0.086  13.657 -0.4679  0.2552  0.2145
 3668SOL    HW122640   4.543   0.140  13.612 -0.3376  0.4519  0.2611
 3668SOL    HW222641   4.687   0.141  13.657  1.0101 -1.8382 -0.2587
 3669SOL     OW22642   0.287   1.400   2.292 -0.7464  0.2374 -0.7635
 3669SOL    HW122643   0.255   1.431   2.207  0.1743 -1.0264 -1.5771
 3669SOL    HW222644   0.344   1.476   2.302  1.8482 -1.5733 -1.7890
 3670SOL     OW22645   4.575   4.049   5.951 -0.9426  0.0758 -0.3009
 3670SOL    HW122646   4.567   4.028   6.043 -0.9121 -0.9602 -0.5353
 3670SOL    HW222647   4.669   4.042   5.934 -1.1458 -0.3338 -1.2446
 3671SOL     OW22648   4.639   3.917   1.376  0.1118  0.2603  0.3727
 3671SOL    HW122649   4.652   3.843   1.317 -0.1970 -2.9647  4.4314
 3671SOL    HW222650   4.589   3.977   1.319 -2.1478 -1.9101  0.0850
 3672SOL     OW22651   3.921   0.974   8.477 -0.1475 -0.0852  0.7738
 3672SOL    HW122652   4.002   0.991   8.428 -0.9040 -1.1413 -0.8242
 3672SOL    HW222653   3.881   1.061   8.476  0.1869  0.0517 -2.3222
 3673SOL     OW22654   0.819   2.307   7.962  0.2663  1.1242 -0.5235
 3673SOL    HW122655   0.737   2.273   7.999  0.2283  1.6410 -0.1428
 3673SOL    HW222656   0.877   2.232   7.978 -1.0789  0.2470  0.2865
 3674SOL     OW22657   3.260   3.399   6.679 -0.1180  0.0607  0.0156
 3674SOL    HW122658   3.169   3.374   6.693 -0.1744 -0.7205 -1.8444
 3674SOL    HW222659   3.260   3.473   6.740  0.8012 -0.7508  1.0117
 3675SOL     OW22660   1.989   4.691   6.091 -0.4361  0.2848  0.5484
 3675SOL    HW122661   1.914   4.688   6.150 -0.7635 -0.7676  0.0670
 3675SOL    HW222662   2.053   4.646   6.146 -1.1690  1.2371  2.1827
 3676SOL     OW22663   1.258   2.153   2.669 -0.6369 -0.2743 -0.9137
 3676SOL    HW122664   1.350   2.141   2.694 -1.4607 -0.1164  2.1316
 3676SOL    HW222665   1.255   2.086   2.600  0.6078 -2.0795  0.7747
 3677SOL     OW22666   3.646   3.650  17.594  0.0603  0.2378  0.5734
 3677SOL    HW122667   3.654   3.727  17.651  0.6129 -0.7570  1.8401
 3677SOL    HW222668   3.706   3.593  17.642 -0.1104 -0.7564 -0.3947
 3678SOL     OW22669   3.153   3.996   8.020 -0.2918 -0.1936 -0.2167
 3678SOL    HW122670   3.237   3.952   8.018  0.6255  1.6408 -2.0226
 3678SOL    HW222671   3.166   4.064   7.954  1.5327 -0.1098  0.2433
 3679SOL     OW22672   1.070   2.353   5.071  0.0344 -0.1501  0.3295
 3679SOL    HW122673   1.027   2.431   5.035 -0.5130 -0.8414 -0.5042
 3679SOL    HW222674   1.004   2.296   5.112  0.8418 -0.7152  0.8440
 3680SOL     OW22675   3.793   0.015   3.943 -0.0817  0.0640 -0.1756
 3680SOL    HW122676   3.731   4.704   3.890 -0.8418  0.1472  0.6338
 3680SOL    HW222677   3.855   0.055   3.881 -1.8629  0.3169 -1.7843
 3681SOL     OW22678   3.727   4.701   2.501 -0.2505 -0.1735 -0.7012
 3681SOL    HW122679   3.639   4.668   2.517  0.0908 -1.2980 -1.1228
 3681SOL    HW222680   3.773   4.649   2.566 -0.1080 -1.3196 -1.7201
 3682SOL     OW22681   0.781   0.348   7.182 -0.1233  0.1106 -0.1273
 3682SOL    HW122682   0.851   0.369   7.120  0.2105  0.6684  0.4456
 3682SOL    HW222683   0.745   0.432   7.208  1.2889  0.1773  1.6161
 3683SOL     OW22684   4.488   1.733   6.950 -0.5011 -0.7987 -0.4114
 3683SOL    HW122685   4.441   1.783   6.883 -0.5478 -0.4099 -0.0900
 3683SOL    HW222686   4.573   1.777   6.950 -0.6624 -0.4865  2.4947
 3684SOL     OW22687   3.142   4.009   3.499 -0.3583  0.3011 -0.0087
 3684SOL    HW122688   3.130   4.094   3.457 -3.2820  0.2480  0.6744
 3684SOL    HW222689   3.213   4.030   3.559 -0.4348  1.0305 -0.1783
 3685SOL     OW22690   1.610   1.935   8.009 -0.2230  0.3796  0.1649
 3685SOL    HW122691   1.644   1.925   7.920 -0.7371  1.4581 -0.1594
 3685SOL    HW222692   1.684   1.948   8.068  0.9924  0.0903 -1.2822
 3686SOL     OW22693   0.886   2.832   7.479 -0.1662 -0.8327  0.4543
 3686SOL    HW122694   0.854   2.871   7.560  0.2063  0.8188 -0.1941
 3686SOL    HW222695   0.852   2.744   7.495 -1.1921 -0.5247 -0.0325
 3687SOL     OW22696   1.442   3.314  11.697  0.3747  0.1008 -0.3716
 3687SOL    HW122697   1.468   3.232  11.657  1.9066  0.4540 -0.0959
 3687SOL    HW222698   1.387   3.289  11.772  1.7599 -0.2246  0.5390
 3688SOL     OW22699   1.592   0.629   8.336 -0.0986 -0.3694  0.0299
 3688SOL    HW122700   1.541   0.603   8.413  2.1732 -0.0431  1.6256
 3688SOL    HW222701   1.638   0.706   8.369  2.1906 -2.1923  1.1138
 3689SOL     OW22702   0.283   2.995   4.395  0.0272 -0.6568 -0.3983
 3689SOL    HW122703   0.239   3.070   4.436  3.6764  1.7965 -0.9576
 3689SOL    HW222704   0.314   2.950   4.473  0.9161 -0.1749 -0.4699
 3690SOL     OW22705   4.051   1.262   7.959  0.4431 -0.3204 -0.0306
 3690SOL    HW122706   4.084   1.351   7.947 -1.7919  0.5636  0.4353
 3690SOL    HW222707   4.005   1.279   8.041 -0.6672  2.3578 -1.2240
 3691SOL     OW22708   4.016   4.328   5.777 -0.4761  0.2617 -0.1308
 3691SOL    HW122709   4.069   4.350   5.701  1.1635 -1.0144  0.6475
 3691SOL    HW222710   3.995   4.238   5.753  1.7749 -0.5573  1.0086
 3692SOL     OW22711   4.042   4.189   6.636 -0.0767 -0.0631 -0.3617
 3692SOL    HW122712   4.059   4.258   6.700 -0.5259 -0.8638  0.6028
 3692SOL    HW222713   3.978   4.126   6.668 -0.9548  0.5621 -0.8742
 3693SOL     OW22714   0.804   1.662   8.753  0.0960 -0.2396  0.5629
 3693SOL    HW122715   0.823   1.612   8.832  1.7526 -0.8553 -0.2306
 3693SOL    HW222716   0.887   1.664   8.706 -0.5479 -1.4202 -0.6524
 3694SOL     OW22717   4.425   0.691   1.788 -0.1064 -0.1588 -0.4211
 3694SOL    HW122718   4.474   0.639   1.724  1.1695 -0.2774  0.6714
 3694SOL    HW222719   4.497   0.732   1.835 -0.1777 -0.9484  0.3593
 3695SOL     OW22720   0.758   1.203   8.436  0.0858 -0.6441  0.2863
 3695SOL    HW122721   0.671   1.183   8.470  0.1183 -0.7227  0.3241
 3695SOL    HW222722   0.741   1.230   8.346 -1.1828  0.7680  0.9514
 3696SOL     OW22723   4.534   1.705   7.739  0.1497  0.0817 -0.5834
 3696SOL    HW122724   4.586   1.625   7.741  0.8883  0.5696  0.0319
 3696SOL    HW222725   4.599   1.769   7.770  0.9249 -1.1460  0.3218
 3697SOL     OW22726   3.154   1.118   8.102  0.1975 -0.0332 -0.1506
 3697SOL    HW122727   3.102   1.198   8.101  2.1759  1.2443 -0.0805
 3697SOL    HW222728   3.228   1.153   8.151  0.3364  0.2228 -0.5490
 3698SOL     OW22729   0.116   0.504   1.879  0.2880  0.3962  0.1741
 3698SOL    HW122730   0.134   0.413   1.903 -3.4370 -0.3332  0.1661
 3698SOL    HW222731   0.073   0.539   1.957 -0.3591  0.0573 -0.0405
 3699SOL     OW22732   4.543   2.355   1.979  0.4399 -0.1546  0.0364
 3699SOL    HW122733   4.540   2.406   1.898  1.1392 -1.6251 -0.9142
 3699SOL    HW222734   4.602   2.287   1.947  0.2084  0.0455 -0.8301
 3700SOL     OW22735   1.163   2.403   5.590  0.2751 -0.5707  0.1184
 3700SOL    HW122736   1.168   2.448   5.675  0.4657 -0.9906  0.3319
 3700SOL    HW222737   1.098   2.340   5.623  0.1328 -0.7153 -0.4415
 3701SOL     OW22738   0.784   3.140   6.857  0.0370  0.6484  0.0043
 3701SOL    HW122739   0.803   3.228   6.889 -0.6802  0.1955  1.7026
 3701SOL    HW222740   0.828   3.134   6.773 -0.2430 -0.0203 -0.1017
 3702SOL     OW22741   0.527   1.627  17.417  0.1927  0.2998  0.0175
 3702SOL    HW122742   0.456   1.691  17.432 -0.5738 -1.2463  2.9848
 3702SOL    HW222743   0.480   1.545  17.404 -0.7891  1.3367 -3.2692
 3703SOL     OW22744   0.528   3.403   3.409  0.0969 -0.0503 -0.3142
 3703SOL    HW122745   0.472   3.420   3.333 -0.6407  3.1035  0.9404
 3703SOL    HW222746   0.459   3.380   3.471 -0.3745  0.1036 -0.7838
 3704SOL     OW22747   2.921   4.088   6.092  0.7490  0.0040 -0.2578
 3704SOL    HW122748   2.855   4.151   6.120  0.1592 -1.1474  0.9381
 3704SOL    HW222749   3.001   4.139   6.077  0.0079  1.4377  0.6976
 3705SOL     OW22750   4.000   1.370   5.929  0.1945 -0.2374 -0.6457
 3705SOL    HW122751   3.974   1.451   5.974  0.0229 -0.2081 -0.7958
 3705SOL    HW222752   4.089   1.355   5.960  1.0724  0.9899 -2.5103
 3706SOL     OW22753   3.961   0.633   2.538  0.4872  0.4714  0.3161
 3706SOL    HW122754   4.044   0.677   2.517  0.3110 -0.0851 -1.6344
 3706SOL    HW222755   3.907   0.706   2.568 -0.3033  0.6907 -1.6132
 3707SOL     OW22756   1.087   0.591  13.912  0.0962  0.0666 -0.5489
 3707SOL    HW122757   0.994   0.587  13.889  0.2197 -0.1498 -1.0131
 3707SOL    HW222758   1.084   0.685  13.928  0.1906  0.0765 -0.5849
 3708SOL     OW22759   4.122   0.006   7.313  0.3653  0.1029 -0.6274
 3708SOL    HW122760   4.074   0.062   7.251 -1.4866 -0.2935  0.4393
 3708SOL    HW222761   4.203   0.057   7.315 -0.3351  1.1648  0.7849
 3709SOL     OW22762   0.693   1.843   3.224  0.4503  0.1810  0.5141
 3709SOL    HW122763   0.618   1.895   3.252 -0.5330 -2.0178  1.9186
 3709SOL    HW222764   0.750   1.855   3.301  1.5394  0.1901 -0.2958
 3710SOL     OW22765   2.932   4.169   7.077  0.5044 -0.4070 -0.0477
 3710SOL    HW122766   2.972   4.212   7.002 -1.8211  0.1583 -0.9555
 3710SOL    HW222767   2.848   4.134   7.046  0.9836 -2.8886  1.4377
 3711SOL     OW22768   2.409   0.256   4.443  0.2455 -0.0184  0.8493
 3711SOL    HW122769   2.486   0.310   4.460 -1.0069  2.2820 -0.7227
 3711SOL    HW222770   2.341   0.322   4.457  0.3499  0.3817 -0.4648
 3712SOL     OW22771   0.039   3.940   1.841  0.1601  0.2164 -0.3224
 3712SOL    HW122772   0.073   4.007   1.901 -1.1634 -0.6351  1.3843
 3712SOL    HW222773   0.031   3.996   1.764 -0.7079 -1.3422 -1.3529
 3713SOL     OW22774   3.248   3.425   6.138 -0.3523  0.2813 -0.1128
 3713SOL    HW122775   3.159   3.392   6.128 -0.1308 -0.8855  1.7297
 3713SOL    HW222776   3.257   3.416   6.233  2.1241 -0.5458 -0.4128
 3714SOL     OW22777   2.161   0.976  13.186 -0.2497 -0.4745  0.1898
 3714SOL    HW122778   2.105   0.903  13.213 -0.4853 -0.6002 -0.6232
 3714SOL    HW222779   2.177   0.959  13.093  2.5423 -0.0407  0.5999
 3715SOL     OW22780   1.501   4.383   4.298 -0.0708 -0.1859 -0.5298
 3715SOL    HW122781   1.594   4.361   4.299 -0.0814 -0.2063  0.1857
 3715SOL    HW222782   1.476   4.354   4.210 -1.3291 -0.0276 -0.2239
 3716SOL     OW22783   3.443   2.492   4.088  0.0645 -0.3098  0.2038
 3716SOL    HW122784   3.396   2.445   4.020 -0.4752  0.6877 -0.0990
 3716SOL    HW222785   3.391   2.570   4.108  1.4572  0.3779  1.1479
 3717SOL     OW22786   3.590   2.661   5.650  0.8250 -0.4397 -0.0869
 3717SOL    HW122787   3.577   2.742   5.600  0.7848 -0.8243 -0.7022
 3717SOL    HW222788   3.603   2.599   5.579  0.7890 -1.9996  1.2636
 3718SOL     OW22789   0.195   1.769   2.842  0.4157 -0.1660 -0.1566
 3718SOL    HW122790   0.138   1.846   2.835  1.5704  0.4265 -3.0285
 3718SOL    HW222791   0.226   1.770   2.752  1.3823  0.9446  0.1848
 3719SOL     OW22792   0.949   3.607  15.838 -0.3604 -0.0672 -0.6930
 3719SOL    HW122793   0.961   3.649  15.753 -3.6674  0.7171 -0.7560
 3719SOL    HW222794   0.856   3.627  15.850  0.5314  1.9134  2.7339
 3720SOL     OW22795   3.494   3.388  13.208 -0.2956 -0.5032 -0.1744
 3720SOL    HW122796   3.509   3.389  13.303 -1.7852  0.5153  0.0604
 3720SOL    HW222797   3.503   3.482  13.193 -2.0484 -0.3572 -0.3724
 3721SOL     OW22798   2.496   2.478   4.593  0.0962 -0.1854 -0.0725
 3721SOL    HW122799   2.473   2.386   4.606  2.8537 -1.0416 -1.2878
 3721SOL    HW222800   2.443   2.505   4.517  1.4534 -0.7204 -1.2083
 3722SOL     OW22801   0.399   2.878   1.300  0.2549 -0.0734 -0.1963
 3722SOL    HW122802   0.380   2.792   1.338 -1.2287  0.4630  0.2522
 3722SOL    HW222803   0.467   2.921   1.352  0.8544 -1.0713 -0.1385
 3723SOL     OW22804   3.918   1.466   3.256 -0.4908  0.6499  0.2527
 3723SOL    HW122805   3.935   1.540   3.197 -0.8294 -0.2955 -1.0327
 3723SOL    HW222806   3.835   1.492   3.296 -1.7809 -0.8678 -1.4103
 3724SOL     OW22807   0.134   1.147  16.911 -0.1940 -0.4113  0.1686
 3724SOL    HW122808   0.113   1.238  16.891  2.3630  0.4955  1.5382
 3724SOL    HW222809   0.047   1.126  16.942 -0.7624  0.3505 -0.8845
 3725SOL     OW22810   2.450   3.667  13.325  0.2038  0.1402  0.2746
 3725SOL    HW122811   2.403   3.586  13.345 -4.2662  2.7868  0.7346
 3725SOL    HW222812   2.529   3.653  13.377 -0.5736 -2.3239  0.7950
 3726SOL     OW22813   3.203   0.436   3.584  0.1593 -0.0233 -0.3594
 3726SOL    HW122814   3.278   0.378   3.589  0.3415  0.3930  1.7277
 3726SOL    HW222815   3.155   0.404   3.660  0.0224 -0.3437 -0.5801
 3727SOL     OW22816   4.732   2.935  13.083  0.0705  0.3880 -0.0051
 3727SOL    HW122817   0.057   2.863  13.080  1.1723  1.3227  0.6232
 3727SOL    HW222818   0.029   3.002  13.026  0.9578  0.0606  0.1622
 3728SOL     OW22819   1.568   1.412   9.699  0.9411  0.2813  0.0905
 3728SOL    HW122820   1.616   1.344   9.652 -3.3329 -1.0138 -2.4343
 3728SOL    HW222821   1.559   1.485   9.638 -2.3956 -1.2752 -1.3023
 3729SOL     OW22822   0.912   3.701   5.769  0.1792  0.2925 -0.1038
 3729SOL    HW122823   0.980   3.650   5.727  0.5714  0.5774  0.1847
 3729SOL    HW222824   0.968   3.779   5.772 -1.1060  1.2880 -1.4613
 3730SOL     OW22825   2.787   0.681   2.683  0.5671  0.1899 -0.4231
 3730SOL    HW122826   2.859   0.649   2.737  1.2607 -0.4667 -1.7225
 3730SOL    HW222827   2.806   0.634   2.601  1.4284 -3.7751  2.0692
 3731SOL     OW22828   1.761   1.740  14.609 -0.5277  0.0955 -0.0502
 3731SOL    HW122829   1.776   1.765  14.518  1.4487 -1.2963 -0.1013
 3731SOL    HW222830   1.669   1.718  14.596 -0.2099 -1.0857 -0.2716
 3732SOL     OW22831   3.194   2.050   2.337  0.6842  0.1321  0.4864
 3732SOL    HW122832   3.134   2.122   2.360  0.1657  0.4402 -1.8769
 3732SOL    HW222833   3.243   2.088   2.265  1.5645  0.1633  1.0992
 3733SOL     OW22834   2.037   4.510   8.340  0.0241 -1.1330  0.1992
 3733SOL    HW122835   2.036   4.415   8.334 -0.3624 -1.0623 -0.7385
 3733SOL    HW222836   1.946   4.526   8.318  0.4987  2.1113  0.6441
 3734SOL     OW22837   0.267   3.062  10.644  0.4981 -0.0016 -0.2497
 3734SOL    HW122838   0.189   3.061  10.700  1.4311 -0.0887  1.0619
 3734SOL    HW222839   0.328   3.015  10.700  1.2093 -2.0710 -2.7813
 3735SOL     OW22840   0.265   3.107  12.297 -0.2899 -0.8070 -0.1221
 3735SOL    HW122841   0.175   3.129  12.320  0.0113  1.8433 -1.4527
 3735SOL    HW222842   0.244   3.015  12.280 -0.2015 -1.3912  2.9006
 3736SOL     OW22843   0.732   0.656   5.817  0.0132 -0.1318  0.4925
 3736SOL    HW122844   0.696   0.572   5.788  0.2260 -0.1466  0.2691
 3736SOL    HW222845   0.825   0.640   5.832  0.3871  0.6745 -0.9513
 3737SOL     OW22846   1.771   2.994   3.233 -0.6742 -0.1362 -0.3438
 3737SOL    HW122847   1.856   2.951   3.227 -0.3927  0.2867  0.5010
 3737SOL    HW222848   1.732   2.958   3.154 -3.5806 -1.3139  1.6408
 3738SOL     OW22849   2.400   3.700   5.624 -0.3399  0.1334 -0.1361
 3738SOL    HW122850   2.322   3.686   5.571 -0.4863 -2.2525  0.6813
 3738SOL    HW222851   2.468   3.680   5.560 -0.6873 -0.2794 -0.3706
 3739SOL     OW22852   0.366   0.779   5.891 -0.3400 -0.6680 -0.0520
 3739SOL    HW122853   0.422   0.847   5.929  0.8053 -1.4020 -0.4363
 3739SOL    HW222854   0.395   0.780   5.800  1.6100  0.3496  0.5964
 3740SOL     OW22855   2.576   3.790   5.207  0.0007 -0.6478 -0.7513
 3740SOL    HW122856   2.536   3.735   5.140 -2.6726  0.3138  0.0546
 3740SOL    HW222857   2.597   3.873   5.163  2.6317 -1.8022 -1.7112
 3741SOL     OW22858   2.950   2.702   3.721  0.0474  0.6686  0.1970
 3741SOL    HW122859   2.989   2.788   3.702  1.8051  0.3793  2.4612
 3741SOL    HW222860   2.894   2.693   3.644  0.0329  0.2880  0.2494
 3742SOL     OW22861   2.294   0.036  13.542  0.2922  0.0572 -0.6209
 3742SOL    HW122862   2.229   0.107  13.545  1.0724  0.6897  1.1308
 3742SOL    HW222863   2.233   4.705  13.570  0.5624 -1.1133 -2.9284
 3743SOL     OW22864   0.792   2.199   3.379 -0.8749 -0.1404  0.5297
 3743SOL    HW122865   0.708   2.154   3.393 -1.3443  1.0634  1.6820
 3743SOL    HW222866   0.807   2.214   3.473  2.2951 -0.9076  0.1302
 3744SOL     OW22867   3.763   1.051   2.241  0.5743  0.3631 -0.5734
 3744SOL    HW122868   3.731   0.998   2.315  1.9070 -1.4367 -1.2795
 3744SOL    HW222869   3.817   0.989   2.191  0.6314  1.1314 -1.4487
 3745SOL     OW22870   0.122   3.786   4.836  0.3539 -0.4629  0.0413
 3745SOL    HW122871   0.080   3.723   4.777  0.6260  0.8458 -1.5457
 3745SOL    HW222872   0.122   3.729   4.913 -0.1160  0.5644  0.8026
 3746SOL     OW22873   2.976   1.000   4.360  0.0499 -0.2039 -0.2773
 3746SOL    HW122874   2.945   0.949   4.285  3.1254 -1.6866 -0.5350
 3746SOL    HW222875   2.998   0.925   4.416  1.1396 -0.9775 -1.7407
 3747SOL     OW22876   0.560   0.089   5.923  0.5601 -0.1928 -0.0669
 3747SOL    HW122877   0.571   4.732   5.930  0.7309 -0.1430  0.2851
 3747SOL    HW222878   0.549   0.111   6.015  0.0201 -1.1085  0.0907
 3748SOL     OW22879   1.522   0.435   9.265 -0.3376  0.4592 -0.2907
 3748SOL    HW122880   1.482   0.446   9.179 -1.7213 -0.9726  0.1522
 3748SOL    HW222881   1.495   0.345   9.287 -0.1552  0.4713 -0.0239
 3749SOL     OW22882   0.817   2.667   6.364 -0.2223  0.8562  0.3102
 3749SOL    HW122883   0.737   2.676   6.416  0.5095  2.9069  1.0788
 3749SOL    HW222884   0.883   2.718   6.411  2.3137 -1.3316 -0.8742
 3750SOL     OW22885   2.664   2.623   5.699  0.4935  0.2577 -0.0557
 3750SOL    HW122886   2.741   2.664   5.659  0.1313  0.8952 -0.1001
 3750SOL    HW222887   2.630   2.574   5.624 -0.5829 -1.4137  1.5331
 3751SOL     OW22888   0.418   1.655   7.900 -0.0490 -0.2631 -0.2974
 3751SOL    HW122889   0.480   1.664   7.827 -0.5499 -3.1634 -1.0904
 3751SOL    HW222890   0.461   1.581   7.943 -0.6926 -0.8740 -0.6985
 3752SOL     OW22891   0.701   0.874   7.179  0.3637 -0.1322 -0.0724
 3752SOL    HW122892   0.700   0.945   7.243  3.0291 -0.2319  0.0951
 3752SOL    HW222893   0.642   0.905   7.111 -0.1948  0.8157  0.8463
 3753SOL     OW22894   0.611   3.116   7.178  0.1624  0.0508  0.0459
 3753SOL    HW122895   0.678   3.055   7.210 -0.2832 -0.3659  0.1736
 3753SOL    HW222896   0.567   3.055   7.118  2.9011 -0.9984 -0.9063
 3754SOL     OW22897   3.420   4.206   3.906  0.0280 -0.0502  0.4808
 3754SOL    HW122898   3.342   4.243   3.864  1.3023  0.3548 -1.5434
 3754SOL    HW222899   3.383   4.132   3.955 -0.5449 -1.3247 -1.8581
 3755SOL     OW22900   2.072   3.335   5.833 -0.4578  0.0640 -0.2566
 3755SOL    HW122901   2.135   3.369   5.769 -0.1934 -2.6529 -1.4660
 3755SOL    HW222902   2.060   3.244   5.807 -0.0783  0.8652 -3.2391
 3756SOL     OW22903   2.090   4.293   4.498 -0.0917  0.7720 -0.3300
 3756SOL    HW122904   2.003   4.259   4.519  0.3135  1.2952  2.3008
 3756SOL    HW222905   2.079   4.328   4.410 -0.9060 -0.9559 -0.9076
 3757SOL     OW22906   2.997   1.741   2.172 -0.1621  0.3610 -0.2817
 3757SOL    HW122907   2.994   1.797   2.249 -2.3535 -1.4440  0.9293
 3757SOL    HW222908   2.994   1.812   2.108 -2.0999 -0.2635 -0.8814
 3758SOL     OW22909   3.934   3.404   5.585 -0.1553 -0.5635  0.0727
 3758SOL    HW122910   3.921   3.376   5.675 -1.0750 -0.3752 -0.0005
 3758SOL    HW222911   3.849   3.432   5.552 -0.3841 -0.8991  0.3782
 3759SOL     OW22912   4.216   4.662  14.464 -0.0072  0.3346  0.1662
 3759SOL    HW122913   4.232   0.007  14.421 -2.1409  1.1161  0.8899
 3759SOL    HW222914   4.289   4.607  14.437 -0.1467  0.0653  0.3328
 3760SOL     OW22915   0.414   1.007  10.953 -0.3041  0.0510 -0.0179
 3760SOL    HW122916   0.416   0.916  10.924  0.2528  0.6002 -1.6813
 3760SOL    HW222917   0.508   1.023  10.954  0.1070 -2.3825  0.0131
 3761SOL     OW22918   2.627   0.636   7.440  0.2825  0.0700  0.2750
 3761SOL    HW122919   2.667   0.550   7.454 -0.9047 -0.6215 -0.5077
 3761SOL    HW222920   2.638   0.650   7.346  0.3887 -1.7237  0.0201
 3762SOL     OW22921   3.362   3.090   2.980 -0.1129 -0.1470 -0.2932
 3762SOL    HW122922   3.358   3.027   3.052  1.4530  1.4443  1.1842
 3762SOL    HW222923   3.310   3.162   3.016  0.6751 -0.0266  0.5833
 3763SOL     OW22924   0.938   3.315  15.813 -0.8402 -0.1583 -0.4960
 3763SOL    HW122925   0.849   3.282  15.800 -0.6364  0.0250 -2.3951
 3763SOL    HW222926   0.929   3.406  15.785 -1.2613 -0.4383 -1.2622
 3764SOL     OW22927   3.849   3.529  12.311  0.1476  0.0458 -0.2850
 3764SOL    HW122928   3.760   3.558  12.289 -0.1736 -0.9949 -0.3398
 3764SOL    HW222929   3.866   3.462  12.246  2.4605 -1.1786  1.5914
 3765SOL     OW22930   4.045   2.835   3.021 -0.5710 -1.1167  0.1467
 3765SOL    HW122931   4.029   2.763   2.961  1.3289  0.0049 -1.6668
 3765SOL    HW222932   4.060   2.913   2.967 -2.5100 -0.0992  1.0595
 3766SOL     OW22933   3.250   3.085   4.599  0.3853 -0.1285  0.7325
 3766SOL    HW122934   3.327   3.058   4.648 -1.7535 -4.7829  1.5253
 3766SOL    HW222935   3.253   3.036   4.517 -1.1586 -0.9925  1.1733
 3767SOL     OW22936   4.564   0.402   6.291 -0.1656 -0.1468 -0.5833
 3767SOL    HW122937   4.638   0.462   6.288 -2.3102  2.4611 -1.0951
 3767SOL    HW222938   4.560   0.392   6.386  1.4516  0.5643 -0.4329
 3768SOL     OW22939   0.132   2.868   8.353 -0.3929 -0.0430 -0.5658
 3768SOL    HW122940   0.060   2.861   8.415  1.0317  0.2629  1.1348
 3768SOL    HW222941   0.159   2.959   8.364 -1.4287  0.1888  0.0273
 3769SOL     OW22942   0.391   2.364   3.163 -0.2737 -1.1684  0.6547
 3769SOL    HW122943   0.463   2.386   3.105  0.1561 -1.5984  1.0207
 3769SOL    HW222944   0.350   2.282   3.134 -1.9752 -0.4264  0.9664
 3770SOL     OW22945   4.055   4.153  15.423 -0.1254  0.5238 -0.0135
 3770SOL    HW122946   4.135   4.185  15.382  1.3139  0.6030  2.8369
 3770SOL    HW222947   3.993   4.222  15.400  0.0516  0.7876  0.3067
 3771SOL     OW22948   3.862   2.117  15.963 -0.1470 -0.5569  0.4245
 3771SOL    HW122949   3.812   2.045  16.001 -0.0019  0.5144  2.6487
 3771SOL    HW222950   3.950   2.099  15.996  0.6910 -0.4051 -1.7600
 3772SOL     OW22951   3.769   4.463   9.409  0.4666  0.4430  0.0928
 3772SOL    HW122952   3.863   4.456   9.429  0.1313 -2.0429  0.7567
 3772SOL    HW222953   3.727   4.471   9.495  0.1547 -0.6979  0.0370
 3773SOL     OW22954   4.246   2.354  10.731 -0.0248 -0.3476 -0.1571
 3773SOL    HW122955   4.167   2.378  10.780  0.2592  1.1837 -0.4750
 3773SOL    HW222956   4.208   2.332  10.646 -1.7928 -2.3982  1.1641
 3774SOL     OW22957   4.102   4.390   7.076  0.4717 -0.6012  0.1574
 3774SOL    HW122958   4.143   4.309   7.104  0.2584 -0.4705  0.8528
 3774SOL    HW222959   4.185   4.436   7.068  1.1860 -1.9085  0.1322
 3775SOL     OW22960   2.055   3.459   9.198  0.0922 -0.1275 -0.0485
 3775SOL    HW122961   2.130   3.494   9.150 -0.0021  1.4036  0.9362
 3775SOL    HW222962   2.041   3.529   9.261  0.5303  0.9881 -1.1930
 3776SOL     OW22963   2.601   1.344   4.874  0.9387 -0.0949 -0.6477
 3776SOL    HW122964   2.656   1.410   4.916  0.1069  0.6021 -0.6742
 3776SOL    HW222965   2.583   1.385   4.789 -0.6059  0.3778 -0.0669
 3777SOL     OW22966   0.779   1.023   0.772 -0.0059  0.0069  0.5261
 3777SOL    HW122967   0.715   0.980   0.716  1.0817 -0.4088 -0.3915
 3777SOL    HW222968   0.816   1.085   0.709 -2.2833 -1.3405 -2.1366
 3778SOL     OW22969   1.131   3.317  11.089  0.3752  0.6202  0.2777
 3778SOL    HW122970   1.201   3.350  11.146  1.2398 -0.7309 -0.0070
 3778SOL    HW222971   1.191   3.286  11.021  0.0915  2.0400 -0.6095
 3779SOL     OW22972   0.260   3.505  10.295 -0.2800  0.0828 -0.3387
 3779SOL    HW122973   0.177   3.479  10.336 -0.2018  1.1133  0.4608
 3779SOL    HW222974   0.267   3.424  10.243 -2.5511  1.4598 -2.7844
 3780SOL     OW22975   4.532   1.425   2.354  0.3381 -0.2452  0.4303
 3780SOL    HW122976   4.439   1.414   2.332 -0.0186  2.2307  0.7454
 3780SOL    HW222977   4.569   1.371   2.285 -0.9427  0.3658 -0.7423
 3781SOL     OW22978   2.698   0.780   7.655  0.4013 -0.0607 -0.1823
 3781SOL    HW122979   2.644   0.857   7.638  1.5562  0.6315 -0.7356
 3781SOL    HW222980   2.661   0.714   7.596  2.7388  0.3474 -2.1269
 3782SOL     OW22981   1.798   0.310   0.523 -0.6635  0.4777 -0.1902
 3782SOL    HW122982   1.847   0.331   0.444 -0.2576  0.3932  0.0391
 3782SOL    HW222983   1.870   0.274   0.575  0.4392  1.7268 -0.8466
 3783SOL     OW22984   0.427   0.560   4.262  0.1658  0.0174  0.0604
 3783SOL    HW122985   0.515   0.597   4.268 -0.1567  0.8143 -0.0492
 3783SOL    HW222986   0.440   0.490   4.325 -3.1239 -0.7461 -0.1178
 3784SOL     OW22987   3.278   4.175   5.851 -0.1506  0.0819 -0.3905
 3784SOL    HW122988   3.335   4.249   5.829  0.1606 -0.4059 -1.2316
 3784SOL    HW222989   3.305   4.115   5.781  1.9496  0.8529 -0.2463
 3785SOL     OW22990   4.202   2.481   7.946  0.0887 -0.0281  0.0925
 3785SOL    HW122991   4.185   2.428   7.868 -2.2314 -0.0016  0.6009
 3785SOL    HW222992   4.255   2.421   7.999  0.1398 -1.4968 -1.6079
 3786SOL     OW22993   4.425   0.336   1.988  0.2181 -0.2213  0.2452
 3786SOL    HW122994   4.430   0.343   2.083 -4.2213  0.4922  0.4300
 3786SOL    HW222995   4.370   0.414   1.977  0.6433 -0.0190 -0.4124
 3787SOL     OW22996   0.240   0.587  11.021  0.0267  0.1967  0.3235
 3787SOL    HW122997   0.331   0.598  10.992  0.1586 -0.4216  0.5043
 3787SOL    HW222998   0.209   0.677  11.025 -0.5718  0.0212 -0.3833
 3788SOL     OW22999   1.885   2.863   7.517  0.1653 -0.2535  0.4101
 3788SOL    HW123000   1.910   2.896   7.431  0.8012 -2.3751 -0.2371
 3788SOL    HW223001   1.971   2.881   7.554  1.4903  1.3196 -3.4439
 3789SOL     OW23002   4.552   3.558   5.214 -0.1349  0.2204 -0.5597
 3789SOL    HW123003   4.565   3.463   5.212  0.6289  0.3363 -0.9897
 3789SOL    HW223004   4.464   3.579   5.247  0.0712 -0.7185  0.5800
 3790SOL     OW23005   0.201   3.226  10.189 -0.3975 -0.4737 -0.6315
 3790SOL    HW123006   0.126   3.217  10.130 -0.1800 -0.3003 -0.9389
 3790SOL    HW223007   0.210   3.143  10.234 -1.7675 -0.7277 -0.8274
 3791SOL     OW23008   2.426   1.427  11.433  0.1931  0.5091  0.1174
 3791SOL    HW123009   2.426   1.390  11.345 -0.5142  0.5072  0.1149
 3791SOL    HW223010   2.399   1.515  11.410  0.6270  0.8061  0.7423
 3792SOL     OW23011   4.021   0.977   8.885 -0.6238 -0.3862 -0.3689
 3792SOL    HW123012   3.977   1.057   8.913 -0.8009  0.5634 -3.3193
 3792SOL    HW223013   3.951   0.920   8.854  0.1273 -0.6842 -1.5406
 3793SOL     OW23014   1.542   2.135  13.939  0.6834  0.2694 -0.3088
 3793SOL    HW123015   1.571   2.062  13.994  3.2101 -0.0633 -2.1043
 3793SOL    HW223016   1.481   2.092  13.879 -0.1008  0.7112  0.1785
 3794SOL     OW23017   2.191   1.626   6.071  0.2889 -0.3937 -0.5693
 3794SOL    HW123018   2.163   1.619   6.162 -0.1928 -0.1319 -0.6958
 3794SOL    HW223019   2.171   1.539   6.036 -1.7906 -0.6943  1.3556
 3795SOL     OW23020   1.125   4.559  14.506  0.4466  0.2405  0.0138
 3795SOL    HW123021   1.102   4.630  14.567  0.6207  1.2477 -1.0782
 3795SOL    HW223022   1.114   4.606  14.423  0.0457 -0.6204 -0.4257
 3796SOL     OW23023   4.303   3.179   7.080 -0.4311  0.2249 -0.4486
 3796SOL    HW123024   4.283   3.198   7.171 -1.0485 -0.1059 -0.5116
 3796SOL    HW223025   4.223   3.126   7.067  0.3087 -0.9652 -0.1923
 3797SOL     OW23026   2.525   0.657  15.717 -0.0348 -0.2382 -0.4474
 3797SOL    HW123027   2.537   0.566  15.689  0.2675  0.1183 -1.4875
 3797SOL    HW223028   2.607   0.679  15.761 -0.4917  0.3754  0.1024
 3798SOL     OW23029   4.475   3.213  10.815  0.2427  0.3007 -0.8627
 3798SOL    HW123030   4.425   3.191  10.736 -2.0822 -0.0062  0.7176
 3798SOL    HW223031   4.481   3.309  10.820  0.8481  0.2541 -0.6243
 3799SOL     OW23032   3.577   2.096   4.884  0.3020  0.0329  0.0843
 3799SOL    HW123033   3.573   2.182   4.844  0.0152  1.0675  2.3729
 3799SOL    HW223034   3.611   2.113   4.972 -1.2306  1.5802  0.3675
 3800SOL     OW23035   1.015   0.391  14.865  0.1058 -0.0896 -0.3229
 3800SOL    HW123036   0.932   0.426  14.898  0.2709  1.3104 -1.4062
 3800SOL    HW223037   0.986   0.323  14.804  0.9402  0.6876 -1.6004
 3801SOL     OW23038   0.417   2.673  16.137 -0.4010  0.0717  0.0435
 3801SOL    HW123039   0.455   2.696  16.221 -0.2069 -0.6548  0.1505
 3801SOL    HW223040   0.390   2.762  16.113 -0.6474  0.0730  0.3308
 3802SOL     OW23041   1.483   2.334   1.162 -0.9682 -0.2966  0.3431
 3802SOL    HW123042   1.572   2.301   1.149 -0.6560 -0.1162  1.9977
 3802SOL    HW223043   1.473   2.380   1.079 -0.6477 -1.9271 -0.5978
 3803SOL     OW23044   4.727   0.978   4.478 -0.1059  0.2976  0.1875
 3803SOL    HW123045   0.084   0.972   4.482 -0.0518  0.9449 -0.2362
 3803SOL    HW223046   4.719   1.051   4.539 -0.0355  0.0857  0.4517
 3804SOL     OW23047   3.949   0.859   9.206 -0.4038 -0.3365 -0.6741
 3804SOL    HW123048   3.940   0.780   9.153 -0.5976 -0.1719 -0.8869
 3804SOL    HW223049   3.915   0.923   9.143  0.5010  1.0167  0.2182
 3805SOL     OW23050   3.057   1.110   7.014  0.9661 -0.0395  0.1174
 3805SOL    HW123051   3.060   1.014   7.015 -1.5721 -0.1257 -1.7890
 3805SOL    HW223052   3.145   1.142   7.035  1.4226 -1.0305 -0.2757
 3806SOL     OW23053   1.562   3.224   3.125  0.1392 -0.0637 -0.0514
 3806SOL    HW123054   1.505   3.273   3.184  0.0232 -0.1234 -0.1132
 3806SOL    HW223055   1.514   3.147   3.092 -2.5092  1.1727  0.8828
 3807SOL     OW23056   4.694   2.705   0.316 -0.6764  0.4203 -0.4115
 3807SOL    HW123057   4.616   2.738   0.360  0.1896  1.0556  0.6775
 3807SOL    HW223058   0.024   2.765   0.348 -0.6833 -0.7606  1.8328
 3808SOL     OW23059   1.797   1.047   0.428 -0.1240  0.2480  0.7265
 3808SOL    HW123060   1.830   0.978   0.486  1.5711  0.4593 -0.0003
 3808SOL    HW223061   1.846   1.029   0.348  2.3188 -0.9510  2.5031
 3809SOL     OW23062   1.902   1.535   2.104 -0.1081  0.4336 -0.0712
 3809SOL    HW123063   1.816   1.563   2.071 -0.3405  1.5891  1.4983
 3809SOL    HW223064   1.972   1.555   2.042  0.5713  0.2785  0.6512
 3810SOL     OW23065   1.223   0.217   5.322  0.0088  0.2179  0.1083
 3810SOL    HW123066   1.164   0.144   5.342 -0.3839 -0.1199 -2.2578
 3810SOL    HW223067   1.196   0.249   5.235  0.6217 -0.7748 -0.4396
 3811SOL     OW23068   0.518   0.230   7.221  0.1532  0.0018  0.5720
 3811SOL    HW123069   0.607   0.254   7.195  0.0646  0.2969  0.5359
 3811SOL    HW223070   0.475   0.193   7.144 -0.4220  0.6011  0.5988
 3812SOL     OW23071   3.055   1.346   8.453 -0.1017 -0.1361  0.3627
 3812SOL    HW123072   3.104   1.424   8.478 -0.1788  0.1406 -0.3541
 3812SOL    HW223073   3.040   1.307   8.540 -0.6217 -4.2233 -1.5634
 3813SOL     OW23074   3.569   0.405  13.540  0.3780 -0.5024 -0.1253
 3813SOL    HW123075   3.592   0.343  13.609 -1.5963 -0.1505  0.8734
 3813SOL    HW223076   3.480   0.433  13.563  1.1663  0.7353  1.4529
 3814SOL     OW23077   1.019   0.371   4.302  0.3515 -0.0966 -0.0770
 3814SOL    HW123078   0.981   0.459   4.305  0.9009  0.0822  2.3135
 3814SOL    HW223079   1.103   0.401   4.268  0.7369  0.2044  1.1130
 3815SOL     OW23080   0.718   0.391   1.336 -0.1558 -0.8649 -0.2649
 3815SOL    HW123081   0.627   0.363   1.344 -0.2440 -1.5012 -3.5334
 3815SOL    HW223082   0.727   0.431   1.423 -0.9037 -0.6436 -0.2899
 3816SOL     OW23083   2.297   3.349  17.501  0.3912 -0.3315  0.5021
 3816SOL    HW123084   2.364   3.303  17.552  1.3394  1.1396  0.5801
 3816SOL    HW223085   2.338   3.432  17.479  3.1465 -1.9214 -0.3097
 3817SOL     OW23086   1.350   4.567  14.145 -0.6107  0.0604 -0.8378
 3817SOL    HW123087   1.277   4.601  14.196  1.0720  3.7506 -0.8583
 3817SOL    HW223088   1.343   4.471  14.145 -0.2949  0.0291  1.5862
 3818SOL     OW23089   2.109   0.057   7.124  0.4371 -0.5643  0.1384
 3818SOL    HW123090   2.037   0.118   7.138  2.6015  1.9602  0.3224
 3818SOL    HW223091   2.126   0.036   7.216 -1.3718 -0.8452  0.3973
 3819SOL     OW23092   0.694   3.613  17.227 -0.0875  0.4293  0.0513
 3819SOL    HW123093   0.695   3.518  17.241  0.1286  0.2385 -1.2217
 3819SOL    HW223094   0.690   3.645  17.317  0.5010  1.2372 -0.2183
 3820SOL     OW23095   2.074   1.835  15.639 -0.1214  0.0822  0.1192
 3820SOL    HW123096   2.159   1.791  15.644  0.6779  1.5932 -0.0359
 3820SOL    HW223097   2.105   1.926  15.638  0.3821 -0.0836  0.9869
 3821SOL     OW23098   2.474   0.404   6.203  0.7124 -0.4719 -0.2678
 3821SOL    HW123099   2.476   0.468   6.132  1.3636 -0.6522 -0.4111
 3821SOL    HW223100   2.477   0.469   6.274  2.6703 -1.5277  0.6050
 3822SOL     OW23101   4.548   2.926  11.996  0.0582  0.2966  0.2005
 3822SOL    HW123102   4.576   2.929  11.904 -0.3575  1.8131  0.1314
 3822SOL    HW223103   4.630   2.936  12.043  0.6062 -0.1636 -0.6564
 3823SOL     OW23104   4.196   0.148   9.341  0.2788  0.1258  0.2793
 3823SOL    HW123105   4.142   0.195   9.404 -0.6640  0.9907 -1.1754
 3823SOL    HW223106   4.266   0.135   9.405  0.2049 -1.6024 -0.0065
 3824SOL     OW23107   4.351   2.912  11.639  0.3454 -0.0495  0.4762
 3824SOL    HW123108   4.335   3.006  11.627  0.4949 -0.1745 -0.7191
 3824SOL    HW223109   4.430   2.920  11.692 -0.5805  0.9121  1.6938
 3825SOL     OW23110   2.350   2.059   0.535 -0.0557  0.1256 -0.1854
 3825SOL    HW123111   2.274   2.115   0.519 -0.4686 -0.2901  0.2870
 3825SOL    HW223112   2.384   2.098   0.616  0.7680 -0.8715 -0.0563
 3826SOL     OW23113   0.002   0.116   9.333  0.3345  0.2760 -0.2357
 3826SOL    HW123114   4.724   0.060   9.257  1.2488  0.5384 -0.6214
 3826SOL    HW223115   4.674   0.083   9.393  1.0860  0.6708  0.8043
 3827SOL     OW23116   2.376   4.594   4.238 -0.1062  0.0826  0.0551
 3827SOL    HW123117   2.435   4.519   4.243  0.1767  0.2389 -1.0418
 3827SOL    HW223118   2.388   4.610   4.145  0.6808  1.5001  0.4024
 3828SOL     OW23119   4.339   4.339   9.340 -0.2206  0.0705 -0.3292
 3828SOL    HW123120   4.303   4.404   9.280 -2.4350  0.2494  1.1929
 3828SOL    HW223121   4.313   4.379   9.422  0.8960 -0.9772  0.5436
 3829SOL     OW23122   3.914   3.974   3.572 -0.0867  0.1843  0.1755
 3829SOL    HW123123   3.872   4.056   3.544 -1.3294 -0.9449 -1.2306
 3829SOL    HW223124   3.941   3.950   3.483  1.4853 -0.1398  0.7332
 3830SOL     OW23125   4.131   2.180   8.734  0.8127  0.3147 -0.4451
 3830SOL    HW123126   4.107   2.223   8.653 -0.8029 -0.7470 -0.5266
 3830SOL    HW223127   4.096   2.093   8.717  0.3889  0.5663 -0.8262
 3831SOL     OW23128   3.556   3.134   0.210  0.1138 -0.4446 -0.0748
 3831SOL    HW123129   3.576   3.040   0.205 -0.9469 -0.6341 -0.7793
 3831SOL    HW223130   3.593   3.168   0.291  1.1621 -2.1498  0.1674
 3832SOL     OW23131   0.220   2.677   1.680  0.6693  0.3843 -0.7200
 3832SOL    HW123132   0.183   2.588   1.682  0.5742  0.4391  0.0070
 3832SOL    HW223133   0.292   2.670   1.742  1.7407  0.2245 -1.9908
 3833SOL     OW23134   3.136   0.459   1.185 -0.2623  0.7744  0.1736
 3833SOL    HW123135   3.209   0.444   1.125 -0.4530 -0.3222  0.2099
 3833SOL    HW223136   3.179   0.496   1.262 -1.7862 -2.2084  2.4917
 3834SOL     OW23137   1.455   4.495   6.475 -0.0760 -0.0667 -0.6284
 3834SOL    HW123138   1.362   4.495   6.452  0.2760  0.8901 -2.0561
 3834SOL    HW223139   1.450   4.447   6.558 -1.2913 -3.0429 -2.4452
 3835SOL     OW23140   0.085   0.355   9.434 -0.0297 -0.0433 -0.4079
 3835SOL    HW123141   0.064   0.378   9.344  1.1966 -1.0563 -0.9522
 3835SOL    HW223142   0.072   0.260   9.430 -1.1693  0.0776  0.2201
 3836SOL     OW23143   3.745   2.557  12.427 -0.1281 -0.1648  0.0004
 3836SOL    HW123144   3.802   2.503  12.482  0.5979  1.2579  0.6330
 3836SOL    HW223145   3.811   2.591  12.368 -0.7754  0.5310 -0.3236
 3837SOL     OW23146   3.294   3.672   8.161  0.3844 -0.3709  0.0315
 3837SOL    HW123147   3.251   3.730   8.223 -0.4783 -2.1342  1.0556
 3837SOL    HW223148   3.248   3.589   8.166  1.6344 -0.9300  2.2482
 3838SOL     OW23149   0.283   2.874   6.622  0.2266  0.2018 -0.0934
 3838SOL    HW123150   0.242   2.922   6.694  0.9682  0.5711  0.0769
 3838SOL    HW223151   0.350   2.937   6.596  0.6302 -0.7796 -1.4441
 3839SOL     OW23152   1.618   4.252  15.880  0.2310  0.0449  0.2923
 3839SOL    HW123153   1.567   4.332  15.883  2.0884  1.2039  0.8953
 3839SOL    HW223154   1.570   4.193  15.821 -0.1606 -1.4515  2.1222
 3840SOL     OW23155   3.443   3.884  15.560 -0.3141  0.1719 -0.1610
 3840SOL    HW123156   3.429   3.869  15.466 -1.0230 -1.2055  0.1637
 3840SOL    HW223157   3.356   3.866  15.595  0.4141 -1.9253  0.5702
 3841SOL     OW23158   1.585   4.283   8.232  0.0695  0.1100 -0.5007
 3841SOL    HW123159   1.503   4.234   8.232  1.3657 -2.0379 -1.2556
 3841SOL    HW223160   1.544   4.365   8.205 -0.2805 -0.5127 -1.8481
 3842SOL     OW23161   0.602   2.047   7.134 -0.0264 -0.6647  0.2478
 3842SOL    HW123162   0.648   2.026   7.215  2.1804  1.4858 -0.4552
 3842SOL    HW223163   0.637   2.135   7.119 -0.7621 -0.3245  0.5388
 3843SOL     OW23164   0.845   3.386  11.074  0.4128 -0.2782  0.1806
 3843SOL    HW123165   0.939   3.385  11.089  0.4159 -0.3271  0.1575
 3843SOL    HW223166   0.820   3.362  11.163 -0.5172 -0.1904 -0.0534
 3844SOL     OW23167   0.945   2.794   0.650  0.7340 -0.0491  0.1203
 3844SOL    HW123168   1.035   2.788   0.615 -0.0084 -0.3929 -1.7447
 3844SOL    HW223169   0.903   2.747   0.578  0.5129 -0.1214  0.2997
 3845SOL     OW23170   1.544   0.400   7.513  0.2049  0.5480 -0.5418
 3845SOL    HW123171   1.639   0.404   7.502 -0.0054  3.3834 -1.2064
 3845SOL    HW223172   1.524   0.352   7.433 -0.3040  0.7435 -0.5326
 3846SOL     OW23173   2.730   4.058   2.606  0.1645  0.2252  0.0526
 3846SOL    HW123174   2.701   4.040   2.696  0.5300  3.2959  0.8178
 3846SOL    HW223175   2.696   4.147   2.593 -2.4007 -0.4174  2.3083
 3847SOL     OW23176   3.384   1.582   8.801  0.3955  0.5245 -0.2857
 3847SOL    HW123177   3.376   1.489   8.779  0.4604  0.9189 -1.9664
 3847SOL    HW223178   3.313   1.596   8.864  1.7114 -2.1510  1.8280
 3848SOL     OW23179   2.496   4.095   7.874 -0.1013  0.6362 -0.2180
 3848SOL    HW123180   2.549   4.108   7.796  1.2485 -0.8532  0.4534
 3848SOL    HW223181   2.420   4.046   7.843 -0.0754  0.8218 -0.5720
 3849SOL     OW23182   0.886   3.305   5.487 -0.5313 -0.5416 -0.4701
 3849SOL    HW123183   0.814   3.366   5.471 -1.1649 -0.8637  1.1053
 3849SOL    HW223184   0.849   3.250   5.556  0.3080  0.9066  1.1190
 3850SOL     OW23185   1.338   3.368  17.326  0.2972  0.0146 -0.2490
 3850SOL    HW123186   1.375   3.282  17.308  1.3727 -0.3703  3.7119
 3850SOL    HW223187   1.335   3.409  17.240 -3.1150 -0.9571 -0.6033
 3851SOL     OW23188   2.620   2.608   5.210 -0.0535  0.1887 -0.5726
 3851SOL    HW123189   2.681   2.676   5.238 -0.4032  0.2113  0.1306
 3851SOL    HW223190   2.622   2.543   5.280 -0.5191  0.3632 -0.3946
 3852SOL     OW23191   3.616   1.825   8.101 -0.4623  0.2527 -0.3408
 3852SOL    HW123192   3.566   1.779   8.034 -1.3121  0.3120  0.2526
 3852SOL    HW223193   3.543   1.873   8.139  0.4070  0.9924  0.3950
 3853SOL     OW23194   0.534   0.734  11.785  0.4121 -0.8194  0.3492
 3853SOL    HW123195   0.587   0.725  11.706 -0.4706  2.3487 -0.5961
 3853SOL    HW223196   0.486   0.651  11.787  0.2191 -0.6750  1.7061
 3854SOL     OW23197   3.510   0.713   3.315 -0.2261  0.5246 -0.2925
 3854SOL    HW123198   3.570   0.787   3.317  0.9875 -0.4127 -1.5611
 3854SOL    HW223199   3.434   0.736   3.368 -2.2351 -1.1011 -2.4662
 3855SOL     OW23200   3.970   3.495  11.118 -0.3426 -0.7245 -0.0615
 3855SOL    HW123201   3.883   3.530  11.137  0.0654 -0.5829  1.5348
 3855SOL    HW223202   3.972   3.433  11.190  3.2681 -0.0005  0.4426
 3856SOL     OW23203   3.531   2.298   3.738  0.3769 -0.0866  0.6281
 3856SOL    HW123204   3.477   2.263   3.808  0.3834 -0.4332  0.4628
 3856SOL    HW223205   3.618   2.313   3.775  1.1078  0.4037 -1.2935
 3857SOL     OW23206   1.864   4.499   2.628  0.0447 -0.3326  0.0554
 3857SOL    HW123207   1.869   4.405   2.616 -2.2920 -0.6431  1.5010
 3857SOL    HW223208   1.782   4.497   2.677 -0.3224  0.7572 -0.5114
 3858SOL     OW23209   2.329   1.796   0.474  0.5562 -0.3440 -0.1733
 3858SOL    HW123210   2.238   1.823   0.461  1.1875  2.0171  0.2632
 3858SOL    HW223211   2.365   1.880   0.502  2.8842 -1.6590  0.7461
 3859SOL     OW23212   1.657   2.146   0.988 -0.1854 -0.5163  0.6286
 3859SOL    HW123213   1.633   2.056   0.968  0.1904 -0.8329  1.6141
 3859SOL    HW223214   1.745   2.144   0.950 -1.2939  0.2038 -2.0319
 3860SOL     OW23215   0.364   3.666  16.345 -0.4324 -0.1314 -0.5599
 3860SOL    HW123216   0.342   3.758  16.361  1.9759  0.4944 -0.8543
 3860SOL    HW223217   0.432   3.650  16.411 -1.3598  1.7422  0.8455
 3861SOL     OW23218   0.538   1.745   2.774 -0.2102 -0.0306 -0.4379
 3861SOL    HW123219   0.609   1.703   2.725 -0.5780 -0.1974 -0.8232
 3861SOL    HW223220   0.473   1.675   2.767 -1.0762  0.8156 -0.7545
 3862SOL     OW23221   1.368   0.145   2.668  0.0516 -0.1822 -0.0217
 3862SOL    HW123222   1.280   0.163   2.636  0.3295 -0.1624 -0.7633
 3862SOL    HW223223   1.386   0.220   2.725 -0.3161 -0.8654  0.9954
 3863SOL     OW23224   2.947   4.082   5.272  0.1622 -0.4964  0.0854
 3863SOL    HW123225   2.917   3.993   5.290 -0.9047  0.1107  1.2730
 3863SOL    HW223226   2.990   4.099   5.356  0.5621 -2.2645  0.2518
 3864SOL     OW23227   1.494   0.585   2.219  0.2468  0.2472 -0.4241
 3864SOL    HW123228   1.542   0.657   2.261  3.3911 -0.2388 -3.1507
 3864SOL    HW223229   1.564   0.538   2.175  0.4341  0.6793 -0.5926
 3865SOL     OW23230   2.337   4.237   6.656 -0.0389  0.4729  0.2842
 3865SOL    HW123231   2.376   4.316   6.692  0.0308  1.6066 -2.2936
 3865SOL    HW223232   2.295   4.271   6.577 -0.3380 -0.0078  0.2402
 3866SOL     OW23233   2.526   4.217   2.991  0.7120  0.6093 -0.4327
 3866SOL    HW123234   2.511   4.200   3.084  0.4406 -2.0758 -0.9672
 3866SOL    HW223235   2.547   4.127   2.966 -0.3630 -0.1714  1.4473
 3867SOL     OW23236   2.826   2.583   1.142 -0.9049  0.2753  0.2809
 3867SOL    HW123237   2.749   2.602   1.196 -1.2237 -1.3932  0.4052
 3867SOL    HW223238   2.799   2.503   1.097 -0.4949  1.2793 -1.7579
 3868SOL     OW23239   0.127   0.233   3.861 -0.7548 -0.2055  0.9080
 3868SOL    HW123240   0.189   0.304   3.877  0.0506 -0.4327 -1.1680
 3868SOL    HW223241   0.118   0.198   3.949 -3.4122  1.0578  1.1466
 3869SOL     OW23242   1.822   1.723  15.163  0.0985  0.0830  0.0647
 3869SOL    HW123243   1.860   1.644  15.202  1.1274  1.0593  1.0387
 3869SOL    HW223244   1.900   1.778  15.156 -0.0416  0.1545 -0.9550
 3870SOL     OW23245   3.773   2.781   6.347  0.5920  0.3783 -0.0699
 3870SOL    HW123246   3.712   2.783   6.273  1.9413 -1.3620 -1.2506
 3870SOL    HW223247   3.802   2.872   6.342  0.5189  0.3569 -0.8977
 3871SOL     OW23248   0.177   0.830  11.107  0.0952  0.2693  0.2747
 3871SOL    HW123249   0.235   0.887  11.057 -0.0505 -1.5563 -1.9393
 3871SOL    HW223250   0.140   0.893  11.169  0.2245  1.9080 -1.3319
 3872SOL     OW23251   4.437   1.521  16.502  0.5490 -0.9719 -1.0713
 3872SOL    HW123252   4.434   1.597  16.559 -0.9667 -1.5822 -0.3584
 3872SOL    HW223253   4.398   1.454  16.559  1.3175  0.8595  1.6052
 3873SOL     OW23254   3.803   2.096   2.882  0.2592 -0.0365  0.5600
 3873SOL    HW123255   3.719   2.140   2.891  1.2174  1.4828  2.1998
 3873SOL    HW223256   3.762   2.010   2.873  2.6034 -1.0352 -0.5676
 3874SOL     OW23257   2.049   4.253   6.977  0.1259  0.2865  0.4312
 3874SOL    HW123258   2.002   4.329   7.012  0.5655 -0.0779  1.7714
 3874SOL    HW223259   1.986   4.216   6.914  1.7272 -1.8166  0.0795
 3875SOL     OW23260   1.536   4.104   6.618 -0.2000  0.6784 -1.0040
 3875SOL    HW123261   1.454   4.077   6.577 -0.7251  0.6604  0.0629
 3875SOL    HW223262   1.517   4.197   6.632  1.4277  0.7516  0.8171
 3876SOL     OW23263   4.620   3.714   3.349 -0.8330 -0.2278  0.1428
 3876SOL    HW123264   4.558   3.746   3.415 -0.7452 -0.3386  0.2789
 3876SOL    HW223265   4.704   3.733   3.392 -0.4249 -0.1808 -0.6771
 3877SOL     OW23266   0.798   1.398   7.853  0.2617  0.1643  0.5482
 3877SOL    HW123267   0.737   1.345   7.801 -0.8826  1.0316  1.0135
 3877SOL    HW223268   0.863   1.339   7.890  1.7138  1.0645 -0.5845
 3878SOL     OW23269   3.824   0.897   8.720 -0.0778  0.1259 -0.6782
 3878SOL    HW123270   3.758   0.965   8.732  0.9093  1.0217 -0.2899
 3878SOL    HW223271   3.859   0.914   8.632  0.5922 -1.7217 -0.7677
 3879SOL     OW23272   4.368   4.509  11.093  0.4385 -0.3744  0.2379
 3879SOL    HW123273   4.344   4.443  11.159 -2.3488 -0.2424 -0.6537
 3879SOL    HW223274   4.450   4.542  11.129  1.1237 -0.2511 -1.4597
 3880SOL     OW23275   0.188   3.375   4.829 -0.1701 -0.3053  0.3974
 3880SOL    HW123276   0.249   3.431   4.877  1.2246 -1.7531  0.3209
 3880SOL    HW223277   0.150   3.445   4.777  0.1736 -1.8826 -1.9608
 3881SOL     OW23278   0.697   0.033   8.382 -0.2722  0.3302  0.4746
 3881SOL    HW123279   0.720   0.028   8.290  0.1183 -1.7559  0.6931
 3881SOL    HW223280   0.780   0.043   8.428 -0.0847  1.5843 -0.1369
 3882SOL     OW23281   2.128   3.104  14.430  0.1860  0.0020 -0.3548
 3882SOL    HW123282   2.081   3.035  14.478  0.1265  1.9620  2.4213
 3882SOL    HW223283   2.173   3.055  14.361  1.8935  3.0025 -1.3732
 3883SOL     OW23284   0.235   1.250   0.740 -0.3446  0.2569  0.1985
 3883SOL    HW123285   0.155   1.223   0.786  0.9146 -1.6120  1.3200
 3883SOL    HW223286   0.296   1.178   0.756  0.2958  0.3035 -2.0707
 3884SOL     OW23287   1.073   1.428   8.549 -0.1248  0.0915 -0.2785
 3884SOL    HW123288   1.012   1.501   8.548 -0.2431 -0.0582 -2.6382
 3884SOL    HW223289   1.120   1.448   8.630 -0.7893  0.3089  0.0481
 3885SOL     OW23290   1.889   2.238  10.465  0.3798 -0.3657  0.0964
 3885SOL    HW123291   1.838   2.284  10.532 -1.4862 -1.0450 -0.8396
 3885SOL    HW223292   1.831   2.199  10.399  0.9759 -0.4049 -0.4032
 3886SOL     OW23293   2.165   3.265   9.445  0.1616  0.1335  0.1156
 3886SOL    HW123294   2.139   3.353   9.471 -0.2050 -0.1034  0.5339
 3886SOL    HW223295   2.084   3.232   9.407  0.1825 -0.4358  0.5661
 3887SOL     OW23296   1.532   1.924   4.255  0.8781  0.3925  0.1285
 3887SOL    HW123297   1.447   1.956   4.287  1.6228  2.6753 -0.2067
 3887SOL    HW223298   1.587   1.982   4.307 -0.0607 -0.8430  2.5187
 3888SOL     OW23299   4.634   1.191   7.677 -0.0790  0.0506  0.4571
 3888SOL    HW123300   4.596   1.106   7.699 -0.0450 -0.6190 -2.1173
 3888SOL    HW223301   4.697   1.210   7.747  0.2252 -2.3482  0.8507
 3889SOL     OW23302   4.284   1.384   2.192 -0.2442  0.4597 -0.0764
 3889SOL    HW123303   4.289   1.476   2.165 -1.8570  1.2910  2.4810
 3889SOL    HW223304   4.205   1.390   2.245 -0.3263  1.4289 -0.3052
 3890SOL     OW23305   2.077   4.172   2.766  0.0374 -0.1956 -0.1781
 3890SOL    HW123306   2.053   4.224   2.843  0.2614  0.7784 -0.7689
 3890SOL    HW223307   2.076   4.086   2.808 -0.9796  0.7761  1.7627
 3891SOL     OW23308   0.589   4.646   3.689 -0.4543 -0.1853 -0.2498
 3891SOL    HW123309   0.496   4.664   3.678 -0.1233  0.4665 -1.8704
 3891SOL    HW223310   0.617   4.625   3.600  1.9913 -1.4658  0.8131
 3892SOL     OW23311   2.956   2.427   2.840 -0.1732 -0.1251 -0.0118
 3892SOL    HW123312   2.875   2.456   2.799  1.3015  2.9042 -0.7898
 3892SOL    HW223313   2.934   2.338   2.868 -1.2782  0.0894 -0.2284
 3893SOL     OW23314   1.740   3.633   2.031 -0.1930  0.4239  0.4211
 3893SOL    HW123315   1.690   3.709   2.000 -0.0280  1.3730  2.4688
 3893SOL    HW223316   1.814   3.627   1.971 -0.6329 -0.3948 -0.0442
 3894SOL     OW23317   4.255   2.325   3.162  0.2365 -0.1795  0.3434
 3894SOL    HW123318   4.168   2.355   3.189 -0.0527 -1.3294  0.6868
 3894SOL    HW223319   4.230   2.290   3.077 -0.0860 -0.7056  0.6497
 3895SOL     OW23320   4.309   4.443   4.315  0.0486  0.0126 -0.0479
 3895SOL    HW123321   4.363   4.364   4.313 -0.9985 -0.7556  1.3134
 3895SOL    HW223322   4.268   4.444   4.401  1.1378 -1.3717  0.4919
 3896SOL     OW23323   3.081   3.893   7.626  0.0918  0.0417 -0.4472
 3896SOL    HW123324   3.081   3.978   7.583  3.3634 -0.0723 -0.7297
 3896SOL    HW223325   3.172   3.891   7.656  0.6001  2.6687 -1.7920
 3897SOL     OW23326   0.974   2.916   3.237  0.1176  0.0145 -0.3480
 3897SOL    HW123327   1.018   2.934   3.154  1.0585  0.9308  0.3557
 3897SOL    HW223328   0.881   2.918   3.213  0.4062  1.4562 -1.3655
 3898SOL     OW23329   0.341   0.588   7.811  0.1921 -0.4390 -0.2466
 3898SOL    HW123330   0.406   0.518   7.820  0.5722  0.4270  3.9399
 3898SOL    HW223331   0.390   0.641   7.748 -0.8087  2.3182  1.2861
 3899SOL     OW23332   1.999   2.235   7.862  0.0586  0.1915  0.3268
 3899SOL    HW123333   2.033   2.152   7.897 -0.3081 -0.0960 -0.0031
 3899SOL    HW223334   2.053   2.267   7.790  0.0194  1.0891  0.6887
 3900SOL     OW23335   1.621   3.273  16.750  0.0172  0.3621  0.6955
 3900SOL    HW123336   1.685   3.293  16.818  0.7766 -0.0091  0.0928
 3900SOL    HW223337   1.667   3.320  16.681 -1.8573 -1.1192 -1.5582
 3901SOL     OW23338   4.552   4.689   8.724 -0.2231 -0.1428 -0.0961
 3901SOL    HW123339   4.626   0.010   8.736 -0.3256  0.3392 -1.7001
 3901SOL    HW223340   4.497   4.706   8.800 -1.7171  1.5181 -1.5464
 3902SOL     OW23341   0.387   4.638   4.414 -0.0760 -0.3778 -0.2489
 3902SOL    HW123342   0.365   4.728   4.439 -0.5469 -0.6613  0.3695
 3902SOL    HW223343   0.302   4.594   4.422  1.1794 -2.7758  0.1009
 3903SOL     OW23344   3.731   4.151   5.560  0.1826 -0.1203 -0.4059
 3903SOL    HW123345   3.730   4.120   5.470  2.5671  2.6080 -1.3812
 3903SOL    HW223346   3.814   4.110   5.584 -0.0775 -2.3442 -3.4107
 3904SOL     OW23347   1.134   3.095   7.438 -0.6001 -0.4167 -0.0714
 3904SOL    HW123348   1.204   3.147   7.400 -0.3244 -1.1416 -0.5741
 3904SOL    HW223349   1.063   3.125   7.382  0.1949  0.6822 -0.4726
 3905SOL     OW23350   1.794   1.259   7.362 -1.1133 -0.0756  0.1687
 3905SOL    HW123351   1.805   1.240   7.269 -1.4859  1.6884 -0.2410
 3905SOL    HW223352   1.837   1.344   7.367  0.7458 -1.0387  0.6300
 3906SOL     OW23353   2.654   0.994   3.981  0.4117  0.4908 -0.0113
 3906SOL    HW123354   2.598   0.975   4.056  1.2396 -1.4772  0.1023
 3906SOL    HW223355   2.711   1.066   4.009  0.4394  1.2900 -2.0557
 3907SOL     OW23356   4.021   3.372   4.356  0.1748 -0.2085 -0.3563
 3907SOL    HW123357   4.112   3.404   4.355  1.6956 -4.5698 -1.4781
 3907SOL    HW223358   4.000   3.375   4.450  2.1622 -1.2884  0.1279
 3908SOL     OW23359   0.279   1.896   7.929  0.0137 -0.2319  0.1492
 3908SOL    HW123360   0.324   1.812   7.936 -1.7754 -1.1017  1.1185
 3908SOL    HW223361   0.195   1.870   7.892 -0.0400 -0.1054  0.1827
 3909SOL     OW23362   4.205   4.414   5.589  0.3876  0.2410  0.3849
 3909SOL    HW123363   4.147   4.476   5.545 -0.7360 -0.5580  0.7495
 3909SOL    HW223364   4.252   4.379   5.513  0.9956  2.7621 -0.3907
 3910SOL     OW23365   1.067   3.446   9.154 -0.0744  0.2871 -0.2071
 3910SOL    HW123366   1.150   3.401   9.171  0.1200  0.5260 -0.5253
 3910SOL    HW223367   1.047   3.483   9.240 -0.0156 -0.2344  0.0336
 3911SOL     OW23368   2.181   1.527   5.682 -0.2378  0.0049  0.1170
 3911SOL    HW123369   2.198   1.620   5.697  1.6681 -0.4632  0.8407
 3911SOL    HW223370   2.093   1.536   5.720 -0.5581  1.6504 -1.0292
 3912SOL     OW23371   3.506   0.568   5.367 -0.3509 -0.1546  0.4885
 3912SOL    HW123372   3.468   0.480   5.372 -2.9853  1.0091  1.0704
 3912SOL    HW223373   3.534   0.578   5.458  1.8276 -1.1208 -0.0768
 3913SOL     OW23374   3.589   1.586   6.044  0.2367 -0.3511 -0.3844
 3913SOL    HW123375   3.557   1.509   6.091  1.1301 -0.8370 -0.5573
 3913SOL    HW223376   3.571   1.553   5.956  0.1846  1.7885 -1.1487
 3914SOL     OW23377   1.089   4.680   2.770 -0.3484 -0.3899  0.0043
 3914SOL    HW123378   1.089   0.027   2.815 -1.6499 -0.5469  0.2979
 3914SOL    HW223379   0.995   4.675   2.754 -0.0428  1.6316 -2.5216
 3915SOL     OW23380   0.773   2.191   6.770  0.5235 -0.6632 -0.2677
 3915SOL    HW123381   0.797   2.284   6.764 -1.9515 -0.0290 -0.5045
 3915SOL    HW223382   0.687   2.191   6.813  1.9135 -1.7769  2.4985
 3916SOL     OW23383   0.081   3.363   8.290 -0.0543 -0.1727 -0.1282
 3916SOL    HW123384   0.048   3.407   8.211  1.5221 -2.5618 -2.1052
 3916SOL    HW223385   0.007   3.367   8.351  0.0267  0.2311 -0.0577
 3917SOL     OW23386   0.306   1.130  10.451  0.6060  0.0312  0.0109
 3917SOL    HW123387   0.302   1.034  10.451 -0.8410  0.0824 -0.0154
 3917SOL    HW223388   0.289   1.146  10.359 -1.6083 -3.1807 -0.1264
 3918SOL     OW23389   4.161   4.467   6.308  0.1649  0.7095 -0.2418
 3918SOL    HW123390   4.106   4.441   6.233  1.3915 -0.8056 -0.6290
 3918SOL    HW223391   4.181   4.558   6.288  4.7244 -0.6831 -1.9418
 3919SOL     OW23392   0.853   0.891   1.868 -0.5852  0.6248 -0.4428
 3919SOL    HW123393   0.795   0.958   1.830 -1.3679  0.9113  1.2358
 3919SOL    HW223394   0.936   0.903   1.822  0.0090  0.9789  0.7347
 3920SOL     OW23395   0.379   3.950   1.851 -0.2533  0.0654  0.2153
 3920SOL    HW123396   0.347   4.026   1.802  0.8082 -0.4683 -1.3339
 3920SOL    HW223397   0.439   3.998   1.909  1.1965 -2.9783  1.2476
 3921SOL     OW23398   0.299   1.629   0.799  0.7991  0.5763 -0.6024
 3921SOL    HW123399   0.335   1.578   0.726 -3.4181 -1.2845 -1.3600
 3921SOL    HW223400   0.358   1.705   0.804  3.0982 -1.1966 -0.5359
 3922SOL     OW23401   4.720   0.897  13.136 -0.2851  0.8659 -0.3612
 3922SOL    HW123402   0.002   0.877  13.228 -0.4452 -1.0097 -0.7262
 3922SOL    HW223403   4.700   0.990  13.143  0.7407  1.1128 -0.7447
 3923SOL     OW23404   0.735   2.279   7.151 -0.5227 -0.2975 -0.1014
 3923SOL    HW123405   0.809   2.331   7.183  0.7993 -1.1158 -1.8435
 3923SOL    HW223406   0.674   2.329   7.204 -0.7783 -0.7203  0.0010
 3924SOL     OW23407   3.231   1.620  10.684 -0.0478  0.5612  0.0223
 3924SOL    HW123408   3.310   1.575  10.655  0.0749  0.9727 -0.2914
 3924SOL    HW223409   3.222   1.600  10.777  2.2816 -1.7000 -0.2575
 3925SOL     OW23410   3.788   1.523  13.706 -0.2950  0.0433  0.4636
 3925SOL    HW123411   3.877   1.559  13.703 -2.0171  4.1512 -0.9968
 3925SOL    HW223412   3.819   1.435  13.731  0.8019  0.3666  0.2500
 3926SOL     OW23413   4.185   2.545   2.930  0.6557 -0.6433 -0.2799
 3926SOL    HW123414   4.125   2.563   2.858  2.5796 -0.5769 -1.8681
 3926SOL    HW223415   4.136   2.505   3.001  0.7520  1.6392  1.0976
 3927SOL     OW23416   3.828   1.745   2.057  0.3141 -0.2553 -0.1880
 3927SOL    HW123417   3.813   1.681   2.127  1.1601  0.2514  0.4597
 3927SOL    HW223418   3.779   1.713   1.982  1.5770  2.3487 -2.1180
 3928SOL     OW23419   3.659   4.493   2.252  0.4998 -0.1502  0.1210
 3928SOL    HW123420   3.708   4.570   2.220 -2.0533  1.4949  0.1963
 3928SOL    HW223421   3.594   4.539   2.305 -0.0610 -0.2621 -0.4749
 3929SOL     OW23422   0.016   3.777   0.316 -0.5790  0.9629 -0.2914
 3929SOL    HW123423   4.681   3.725   0.286 -1.0575  3.3907 -3.4040
 3929SOL    HW223424   0.053   3.800   0.230  0.2952  1.0072  0.0880
 3930SOL     OW23425   2.130   4.166  11.470 -0.0880  0.0666 -0.1790
 3930SOL    HW123426   2.086   4.155  11.555  0.5879  2.7284  0.5250
 3930SOL    HW223427   2.091   4.093  11.423  0.8385 -2.2253  2.6523
 3931SOL     OW23428   0.737   4.327   8.962  0.1556 -0.1800 -0.1418
 3931SOL    HW123429   0.794   4.298   9.034 -0.3425  0.7001  0.6048
 3931SOL    HW223430   0.668   4.262   8.975 -0.9343  0.8173 -0.9897
 3932SOL     OW23431   4.702   4.731   9.094  0.4812  0.1710 -0.3227
 3932SOL    HW123432   0.017   4.667   9.046 -0.7862 -1.5346  0.5452
 3932SOL    HW223433   4.706   0.055   9.022  1.5185 -1.4258 -1.6491
 3933SOL     OW23434   2.213   4.184   3.384 -0.2889  0.2962  0.3998
 3933SOL    HW123435   2.152   4.202   3.455 -1.2887 -0.9961 -0.1238
 3933SOL    HW223436   2.175   4.232   3.311 -1.5526 -0.3853  0.6174
 3934SOL     OW23437   3.661   2.031   5.495  0.3739  0.2623  0.0886
 3934SOL    HW123438   3.583   2.033   5.552  0.0143  1.4497 -0.4487
 3934SOL    HW223439   3.680   1.937   5.488 -2.2129 -0.3272  0.8344
 3935SOL     OW23440   4.467   0.968   4.387 -0.3862 -0.5211 -0.2187
 3935SOL    HW123441   4.560   0.971   4.409 -0.7403  0.3661  1.1578
 3935SOL    HW223442   4.441   1.051   4.429  2.6209 -1.1827  2.9164
 3936SOL     OW23443   0.880   0.337   8.527 -0.1029 -0.0958  0.6027
 3936SOL    HW123444   0.841   0.411   8.575 -0.3720  0.7738 -0.9409
 3936SOL    HW223445   0.944   0.396   8.487  1.2087  0.2003  3.1152
 3937SOL     OW23446   2.310   1.049   8.815  0.3921  0.2722  0.2530
 3937SOL    HW123447   2.403   1.028   8.829  0.9861  1.0788 -2.5367
 3937SOL    HW223448   2.322   1.113   8.745  2.0921  1.2324  1.4009
 3938SOL     OW23449   0.941   0.045  13.213  0.6546 -0.2260  0.2192
 3938SOL    HW123450   0.986   0.043  13.129  2.1750  1.6496  0.9832
 3938SOL    HW223451   0.957   0.133  13.248  2.8534 -0.1579 -0.9971
 3939SOL     OW23452   3.311   3.184   5.482 -0.0628 -0.6707  0.6270
 3939SOL    HW123453   3.283   3.184   5.573  1.9470 -1.6951  1.2338
 3939SOL    HW223454   3.242   3.227   5.432 -0.4246 -2.1105 -0.0995
 3940SOL     OW23455   1.567   4.151  12.705 -0.1983  0.7173  0.0063
 3940SOL    HW123456   1.617   4.112  12.777  1.0983  2.8285  0.2551
 3940SOL    HW223457   1.620   4.118  12.632  1.3562 -2.5752  2.6130
 3941SOL     OW23458   2.834   0.239  16.768  0.3750  0.1910  0.0698
 3941SOL    HW123459   2.791   0.154  16.769  1.5158 -0.3783  1.3452
 3941SOL    HW223460   2.779   0.288  16.706  2.2347  1.3956 -0.6337
 3942SOL     OW23461   4.173   1.903  14.421  0.1981 -0.0696  0.2813
 3942SOL    HW123462   4.105   1.968  14.441 -0.0272  0.8398 -3.5869
 3942SOL    HW223463   4.136   1.848  14.352  0.8745 -1.0589  0.7049
 3943SOL     OW23464   0.715   3.220   2.991 -0.1158 -0.0504 -0.4641
 3943SOL    HW123465   0.806   3.199   2.968  0.4157  0.0296  1.5244
 3943SOL    HW223466   0.702   3.309   2.959 -1.6204 -0.1897 -0.2156
 3944SOL     OW23467   3.271   4.359   5.555  0.0888  0.1982 -0.5820
 3944SOL    HW123468   3.293   4.432   5.612  1.9199 -1.5611  0.9542
 3944SOL    HW223469   3.357   4.355   5.513  0.6360  1.4144  0.4149
 3945SOL     OW23470   0.947   2.785  13.751 -0.3190 -0.2005  0.1599
 3945SOL    HW123471   0.892   2.733  13.809  1.5315 -0.0744  1.9891
 3945SOL    HW223472   0.902   2.869  13.755  1.1717  0.4889  1.9968
 3946SOL     OW23473   3.127   2.049   8.146 -0.8478 -0.3502  0.1989
 3946SOL    HW123474   3.215   2.013   8.158 -0.2912  0.6910 -0.6910
 3946SOL    HW223475   3.113   2.043   8.052 -2.3950  0.4342  0.3868
 3947SOL     OW23476   4.142   2.978   2.253  0.7787  0.1051 -0.3419
 3947SOL    HW123477   4.204   3.023   2.195  1.0700  1.0491  0.6976
 3947SOL    HW223478   4.104   2.915   2.192  0.1332 -2.6496  2.9340
 3948SOL     OW23479   3.133   3.320   4.646  0.3643 -0.4676  0.4261
 3948SOL    HW123480   3.096   3.347   4.561  0.2253  1.6191  1.1333
 3948SOL    HW223481   3.180   3.238   4.633  1.4309 -0.1311  2.2333
 3949SOL     OW23482   1.238   3.083   2.024  0.1463 -0.0169 -0.2117
 3949SOL    HW123483   1.273   3.002   1.986 -0.7914 -0.0025 -1.0955
 3949SOL    HW223484   1.307   3.094   2.090 -1.1921 -0.0069  1.1838
 3950SOL     OW23485   1.361   3.149   7.782  0.4995  0.4705 -0.4829
 3950SOL    HW123486   1.411   3.228   7.766  2.1037 -0.4489  0.0428
 3950SOL    HW223487   1.406   3.088   7.723  1.4304 -0.5813  1.3201
 3951SOL     OW23488   4.029   4.472   0.921  0.2316 -0.7056 -0.4774
 3951SOL    HW123489   4.060   4.440   1.006  0.8945 -0.7460 -0.7294
 3951SOL    HW223490   4.059   4.563   0.925  1.3908 -1.2272  3.1136
 3952SOL     OW23491   0.403   3.508   1.536  0.4686  0.4081  0.4183
 3952SOL    HW123492   0.354   3.509   1.618 -0.9813 -1.4545 -0.4282
 3952SOL    HW223493   0.450   3.425   1.536  0.2424  0.2753 -0.8094
 3953SOL     OW23494   3.250   3.178  12.637  0.3877  0.3425  0.1110
 3953SOL    HW123495   3.320   3.168  12.701  0.3387  0.8422  0.2433
 3953SOL    HW223496   3.279   3.104  12.584 -3.1699 -1.3392  0.5334
 3954SOL     OW23497   1.955   1.008   6.891 -0.3166  0.1727  0.1732
 3954SOL    HW123498   1.894   0.978   6.959 -1.7070  1.2551 -0.6005
 3954SOL    HW223499   1.996   1.079   6.941  2.6429 -0.0792 -1.9337
 3955SOL     OW23500   4.257   1.250  16.530  0.7623 -0.2104  0.2537
 3955SOL    HW123501   4.283   1.197  16.606 -0.5429 -1.2727 -0.0423
 3955SOL    HW223502   4.173   1.292  16.548  1.0066  0.5865 -0.4991
 3956SOL     OW23503   3.259   1.144   7.751  0.0642 -0.1069  0.1424
 3956SOL    HW123504   3.207   1.222   7.772 -1.4970 -0.6936 -1.6283
 3956SOL    HW223505   3.199   1.094   7.696  0.3847 -0.1871 -0.1361
 3957SOL     OW23506   2.426   4.537   7.729 -0.3499 -0.2603 -0.1187
 3957SOL    HW123507   2.486   4.486   7.675  0.9872  1.5297 -0.3454
 3957SOL    HW223508   2.444   4.505   7.818 -2.6468  0.0693  0.4673
 3958SOL     OW23509   2.296   4.369   5.413  0.3057 -0.1623 -0.2891
 3958SOL    HW123510   2.361   4.396   5.478 -0.0051 -0.2945  0.0787
 3958SOL    HW223511   2.345   4.311   5.356 -0.3940 -1.6648  0.6437
 3959SOL     OW23512   2.386   2.082   1.896  0.1102 -0.3942 -0.0326
 3959SOL    HW123513   2.328   2.107   1.824  1.6107  1.9287 -0.4108
 3959SOL    HW223514   2.458   2.044   1.846 -1.2023  1.4824 -3.3372
 3960SOL     OW23515   2.749   2.100   2.404 -0.0424  0.5710 -0.2008
 3960SOL    HW123516   2.711   2.123   2.319 -0.3325  0.7720 -0.0176
 3960SOL    HW223517   2.668   2.096   2.455 -1.5452  1.4051 -2.5124
 3961SOL     OW23518   1.881   1.218   2.539  0.5288 -0.1112 -0.6280
 3961SOL    HW123519   1.877   1.261   2.454 -2.0848  1.9298  0.5153
 3961SOL    HW223520   1.938   1.142   2.528 -1.1912 -1.5158  0.0321
 3962SOL     OW23521   1.514   3.547   7.922  0.5102 -0.0114  0.0888
 3962SOL    HW123522   1.490   3.640   7.923 -0.0588 -0.1288 -3.4667
 3962SOL    HW223523   1.528   3.536   8.016 -2.7022  0.7596  0.6747
 3963SOL     OW23524   3.903   2.708   4.598  0.2242  0.1799  0.0185
 3963SOL    HW123525   3.832   2.722   4.660  1.1866 -0.9040  1.3477
 3963SOL    HW223526   3.885   2.775   4.532 -0.6280  0.4143  0.4961
 3964SOL     OW23527   4.032   2.695   5.452 -0.4145  0.6070 -0.0299
 3964SOL    HW123528   4.044   2.693   5.547 -2.8529  2.0038  0.3208
 3964SOL    HW223529   4.119   2.667   5.425  0.1937  1.9244  0.5895
 3965SOL     OW23530   0.472   4.132  15.776  0.1201  0.2994 -0.0230
 3965SOL    HW123531   0.512   4.213  15.745  0.3112  0.7523  1.3916
 3965SOL    HW223532   0.444   4.148  15.866  0.3065 -1.9048  0.4351
 3966SOL     OW23533   2.460   1.866  10.204 -0.0613  0.5335  0.1734
 3966SOL    HW123534   2.495   1.779  10.224  1.1748  0.7857 -0.9231
 3966SOL    HW223535   2.397   1.849  10.135  2.3917  0.4837 -2.0605
 3967SOL     OW23536   2.102   1.171   7.269 -0.6682  0.0278 -0.3337
 3967SOL    HW123537   2.146   1.234   7.326 -0.0132 -0.0485 -0.7440
 3967SOL    HW223538   2.035   1.139   7.329 -2.0293  0.1307 -1.7810
 3968SOL     OW23539   3.321   0.969   2.312 -0.8366 -0.1835 -0.6390
 3968SOL    HW123540   3.320   0.931   2.400  1.7909  1.9442  0.2740
 3968SOL    HW223541   3.228   0.957   2.291 -1.1671 -0.8539  1.2604
 3969SOL     OW23542   1.938   2.594  13.046  0.0149  0.1371  0.1402
 3969SOL    HW123543   1.881   2.550  13.110  0.0747  0.6985  0.5768
 3969SOL    HW223544   1.932   2.687  13.067 -2.9158  1.0312 -4.9091
 3970SOL     OW23545   1.792   1.581   6.132  0.1586  0.3683 -0.1393
 3970SOL    HW123546   1.710   1.570   6.179  0.0902 -1.2762 -0.6550
 3970SOL    HW223547   1.812   1.491   6.108 -1.0220  0.2188 -0.5861
 3971SOL     OW23548   3.428   4.423   5.917 -0.0462 -0.0548  0.6226
 3971SOL    HW123549   3.510   4.428   5.966  0.9948  0.5054 -1.1514
 3971SOL    HW223550   3.361   4.415   5.985  0.3053 -1.8664  0.7349
 3972SOL     OW23551   0.789   3.721   1.223 -0.2615 -0.0100 -0.0350
 3972SOL    HW123552   0.819   3.652   1.163 -0.2075  0.8644 -1.0049
 3972SOL    HW223553   0.784   3.664   1.300 -0.2585 -2.1508 -1.5938
 3973SOL     OW23554   1.488   1.264   2.493 -0.1747 -0.1116 -0.0041
 3973SOL    HW123555   1.583   1.258   2.502 -0.3585 -0.5597  1.5747
 3973SOL    HW223556   1.451   1.187   2.535 -0.5798  1.3762  2.3326
 3974SOL     OW23557   0.583   0.108   3.248  0.2947  0.4021  0.5673
 3974SOL    HW123558   0.658   0.144   3.295 -0.9520  0.4418  2.5380
 3974SOL    HW223559   0.587   0.164   3.170 -0.4104 -0.7030 -0.2611
 3975SOL     OW23560   2.821   0.249   8.061  0.1974 -0.5143  0.3927
 3975SOL    HW123561   2.876   0.197   8.121 -2.4350 -0.8083  2.5870
 3975SOL    HW223562   2.864   0.223   7.980 -1.6841 -0.5411 -0.5916
 3976SOL     OW23563   0.600   1.042   5.423 -0.2592  0.1822 -0.3417
 3976SOL    HW123564   0.511   1.048   5.387 -0.5114  0.1453  0.2813
 3976SOL    HW223565   0.596   1.114   5.485  2.0874 -0.5725  0.6743
 3977SOL     OW23566   1.940   1.406   6.980 -0.3221  0.2388 -0.0218
 3977SOL    HW123567   1.919   1.338   7.044  0.5321 -0.7726 -0.8305
 3977SOL    HW223568   2.032   1.385   6.968 -0.6040 -1.8277  1.4242
 3978SOL     OW23569   1.263   0.329   8.517  0.1401  0.2056 -0.1024
 3978SOL    HW123570   1.243   0.236   8.512  0.7165  0.0163  1.1875
 3978SOL    HW223571   1.350   0.324   8.479  0.9816 -2.9087  2.2320
 3979SOL     OW23572   4.717   2.460   7.608  0.2788 -0.6376  0.1014
 3979SOL    HW123573   0.033   2.484   7.683 -0.5823  0.9176  0.2219
 3979SOL    HW223574   4.633   2.467   7.655  0.0986 -2.5104  0.0554
 3980SOL     OW23575   4.729   0.944   1.497 -0.2033  0.2852  0.2803
 3980SOL    HW123576   0.052   1.006   1.457 -0.7250 -0.5272 -1.7499
 3980SOL    HW223577   4.669   0.995   1.551 -0.4806  0.8656 -0.5808
 3981SOL     OW23578   0.743   2.071  10.006  0.0914 -0.2452 -0.1757
 3981SOL    HW123579   0.734   2.140   9.940 -1.5784 -0.1934  0.1160
 3981SOL    HW223580   0.820   2.030   9.966  0.5644  2.4368 -2.0793
 3982SOL     OW23581   3.301   3.083   9.490 -0.3031  0.4207  0.1368
 3982SOL    HW123582   3.325   3.114   9.578 -1.2720  0.8526  0.2514
 3982SOL    HW223583   3.206   3.086   9.493 -0.2829 -0.1740  1.3417
 3983SOL     OW23584   2.723   2.935   2.164  0.1630 -0.4445 -0.1683
 3983SOL    HW123585   2.698   2.957   2.254  1.2024 -2.2081  0.5486
 3983SOL    HW223586   2.770   2.852   2.167 -2.6110 -2.0055 -0.1561
 3984SOL     OW23587   4.065   4.698   4.350 -0.5564  0.1273  0.0480
 3984SOL    HW123588   4.041   4.719   4.440 -1.9264 -2.8586  0.3778
 3984SOL    HW223589   3.976   4.717   4.321 -0.6781  0.8119  0.8878
 3985SOL     OW23590   2.180   3.276   4.391  0.1412  0.3004  0.3391
 3985SOL    HW123591   2.150   3.356   4.435  0.6154  1.5409 -1.6324
 3985SOL    HW223592   2.274   3.274   4.408  0.0549 -1.5522  0.5961
 3986SOL     OW23593   1.427   1.961   5.047  0.1916  0.3152  0.1879
 3986SOL    HW123594   1.454   2.047   5.016 -0.8649  0.1458 -1.1928
 3986SOL    HW223595   1.419   1.910   4.966  0.0363 -0.9304  0.9924
 3987SOL     OW23596   2.543   1.350   3.811  0.0682 -0.4308 -0.3315
 3987SOL    HW123597   2.457   1.313   3.794  0.4212 -1.0732 -0.7356
 3987SOL    HW223598   2.518   1.396   3.891  0.0169  1.2654 -1.3142
 3988SOL     OW23599   3.038   1.562   4.394 -0.1753 -0.5047  0.3971
 3988SOL    HW123600   3.087   1.528   4.319  0.1963  1.5246 -0.2807
 3988SOL    HW223601   3.001   1.476   4.415 -0.6858 -0.9055 -2.1334
 3989SOL     OW23602   1.593   0.759   5.586  0.1302 -0.3213 -0.1787
 3989SOL    HW123603   1.506   0.751   5.625 -1.0868  2.3217 -2.3149
 3989SOL    HW223604   1.585   0.830   5.522 -1.8988  0.4102  0.9161
 3990SOL     OW23605   3.364   2.295   8.393  0.3777 -0.1404  0.1080
 3990SOL    HW123606   3.281   2.262   8.359  0.8048 -2.3715  1.2298
 3990SOL    HW223607   3.421   2.293   8.316  0.8794  0.0372  0.4806
 3991SOL     OW23608   2.075   1.035   2.505  0.3686  0.4896  0.1456
 3991SOL    HW123609   2.128   1.005   2.430 -1.2355  0.5448 -1.0113
 3991SOL    HW223610   2.133   1.029   2.581 -1.8344 -4.6473  1.4198
 3992SOL     OW23611   2.628   3.783  14.230 -0.0732  0.0645 -0.3067
 3992SOL    HW123612   2.575   3.808  14.305  0.9557  1.5031 -0.0726
 3992SOL    HW223613   2.576   3.830  14.165  0.3404 -1.9355 -2.1098
 3993SOL     OW23614   0.528   0.531   0.873  0.0757  0.0954  0.3527
 3993SOL    HW123615   0.528   0.435   0.866 -2.4136  0.0679  0.7069
 3993SOL    HW223616   0.494   0.553   0.786 -1.6486 -1.8186  0.5347
 3994SOL     OW23617   1.110   0.088   8.019 -0.1304  0.3463  0.5547
 3994SOL    HW123618   1.069   0.168   7.986 -2.7556 -0.7928  1.0857
 3994SOL    HW223619   1.074   0.030   7.952  0.8587  0.8595 -0.4337
 3995SOL     OW23620   4.060   3.237   6.243  0.5270 -0.1098 -0.6982
 3995SOL    HW123621   4.013   3.299   6.299  1.2026 -0.4048  0.1973
 3995SOL    HW223622   4.008   3.250   6.164 -1.5181  2.1480  1.0288
 3996SOL     OW23623   4.597   2.075   2.821  0.5745 -0.0903  0.2487
 3996SOL    HW123624   4.555   2.157   2.795 -0.4200 -0.4753  0.6398
 3996SOL    HW223625   4.528   2.012   2.799  2.3783 -1.3983 -1.6339
 3997SOL     OW23626   1.294   0.132   3.046 -0.1929 -0.2579  0.3880
 3997SOL    HW123627   1.337   0.053   3.010 -1.1957 -1.3167  1.5518
 3997SOL    HW223628   1.221   0.136   2.985  1.0846  1.4890 -1.0408
 3998SOL     OW23629   0.143   3.128   8.412  0.1283  0.2715 -0.0264
 3998SOL    HW123630   0.138   3.216   8.373 -1.8319  0.0568 -0.2564
 3998SOL    HW223631   0.190   3.150   8.492 -0.5145 -0.7722  0.6270
 3999SOL     OW23632   2.602   1.941   7.677  0.1800  0.0301  0.1457
 3999SOL    HW123633   2.615   1.990   7.596  2.7104 -1.8910 -0.5659
 3999SOL    HW223634   2.561   2.003   7.738  1.4425 -0.4677  1.5077
 4000SOL     OW23635   4.535   0.248   3.743  0.5949 -0.4612 -0.1686
 4000SOL    HW123636   4.572   0.313   3.802  0.7678 -0.9317  0.2392
 4000SOL    HW223637   4.531   0.167   3.794 -3.7334 -0.3171 -0.3273
 4001SOL     OW23638   0.270   3.415   4.389 -0.4008 -0.3226  0.0565
 4001SOL    HW123639   0.216   3.339   4.408  1.3619 -0.3073  5.0757
 4001SOL    HW223640   0.359   3.389   4.414 -0.3928 -1.6196 -1.3157
 4002SOL     OW23641   0.866   4.018   7.640  0.3150 -0.6441 -0.2039
 4002SOL    HW123642   0.883   3.931   7.605  0.4853 -0.5931 -0.2499
 4002SOL    HW223643   0.920   4.005   7.717  0.7900 -3.3704 -0.9951
 4003SOL     OW23644   1.175   0.429  12.587  0.5500 -0.3281 -0.5055
 4003SOL    HW123645   1.143   0.341  12.606 -0.3662  0.3464  1.0544
 4003SOL    HW223646   1.111   0.459  12.522 -0.9977 -1.8866  0.2888
 4004SOL     OW23647   3.921   1.965   5.174 -0.0027  0.6711 -0.7844
 4004SOL    HW123648   3.840   2.013   5.155 -1.4555 -2.6146 -2.9384
 4004SOL    HW223649   3.913   1.928   5.261 -1.0313  2.0604 -0.2857
 4005SOL     OW23650   1.575   4.271   6.993 -0.0088  0.3296 -0.1986
 4005SOL    HW123651   1.545   4.197   7.045 -0.3234 -0.0379 -0.9109
 4005SOL    HW223652   1.659   4.249   6.954  1.3483  1.3118  2.1621
 4006SOL     OW23653   3.288   2.337   6.170  0.3837  0.0864 -0.0068
 4006SOL    HW123654   3.377   2.302   6.165  0.3033 -0.1607  0.2931
 4006SOL    HW223655   3.241   2.254   6.164  0.9809 -0.2606  0.0799
 4007SOL     OW23656   3.097   3.736  17.327  0.1630 -0.0804  0.4926
 4007SOL    HW123657   3.156   3.810  17.314 -1.4235  1.2229  0.6518
 4007SOL    HW223658   3.156   3.662  17.314  1.0231  0.8643 -1.0456
 4008SOL     OW23659   3.136   0.299   8.954  0.3162  0.5624 -0.2844
 4008SOL    HW123660   3.162   0.224   9.007  1.2554  0.5891 -0.7011
 4008SOL    HW223661   3.212   0.306   8.896 -0.6094  2.2239 -1.3137
 4009SOL     OW23662   4.254   0.116  12.372 -0.3884  0.2922 -0.0991
 4009SOL    HW123663   4.277   0.157  12.288  0.1245  1.5190  0.6355
 4009SOL    HW223664   4.188   0.174  12.410 -0.3111 -0.5455  1.2981
 4010SOL     OW23665   3.047   3.940   0.847 -0.6021  0.3434 -0.1513
 4010SOL    HW123666   3.121   3.879   0.850 -0.2235  0.8966  2.4094
 4010SOL    HW223667   3.072   3.987   0.768  1.2812  0.2028  0.3569
 4011SOL     OW23668   3.144   1.773   7.916 -1.0004 -0.4313 -0.0018
 4011SOL    HW123669   3.089   1.780   7.838 -0.0907 -0.6986 -0.6662
 4011SOL    HW223670   3.097   1.731   7.987 -0.7578 -0.8783 -0.1031
 4012SOL     OW23671   3.831   2.115   3.659  0.2927  0.7783  0.3683
 4012SOL    HW123672   3.796   2.095   3.746  0.3869  2.6266  0.8243
 4012SOL    HW223673   3.923   2.134   3.679  1.2476 -1.4888 -1.7955
 4013SOL     OW23674   1.860   4.625  15.741  0.3672 -0.4277 -0.2151
 4013SOL    HW123675   1.840   4.666  15.657 -1.9966 -0.1010  0.4988
 4013SOL    HW223676   1.870   4.700  15.801  0.0182 -1.1174  0.6979
 4014SOL     OW23677   0.070   1.096  12.596  0.4207 -0.5044  0.0424
 4014SOL    HW123678   0.009   1.124  12.527  0.0768  1.4050  1.1095
 4014SOL    HW223679   0.017   1.058  12.666 -0.8344  0.7572 -0.2168
 4015SOL     OW23680   2.961   3.353  11.057 -0.4421  0.2018 -0.4694
 4015SOL    HW123681   2.930   3.386  10.973  1.6182  1.8664 -0.5512
 4015SOL    HW223682   2.891   3.364  11.122 -0.5859  2.9197 -1.0792
 4016SOL     OW23683   3.562   4.062   2.152 -0.3434 -0.1075 -0.0065
 4016SOL    HW123684   3.631   4.059   2.085  0.4798 -0.6626  0.8564
 4016SOL    HW223685   3.509   3.988   2.121  1.5028 -1.4689  0.0961
 4017SOL     OW23686   4.089   0.765   3.778  0.0395  0.3319 -0.3204
 4017SOL    HW123687   4.135   0.692   3.737  1.4214  0.8427  0.3007
 4017SOL    HW223688   4.047   0.716   3.849  0.1551  0.0001 -0.4854
 4018SOL     OW23689   4.368   4.246  14.520 -0.6489 -0.2706  0.3826
 4018SOL    HW123690   4.281   4.284  14.535  1.1074  3.6467  0.4524
 4018SOL    HW223691   4.351   4.165  14.471  2.5858 -1.6829  1.5935
 4019SOL     OW23692   0.121   3.967   6.832 -0.1984  0.2090 -0.2526
 4019SOL    HW123693   0.162   4.021   6.764  1.3331 -0.6402  0.0039
 4019SOL    HW223694   0.102   3.884   6.788  1.7004  0.2226 -1.0988
 4020SOL     OW23695   0.302   0.171   4.484 -0.4409 -0.2343 -0.2305
 4020SOL    HW123696   0.377   0.226   4.463  1.6165 -2.6563  0.7235
 4020SOL    HW223697   0.265   0.213   4.561 -0.9444  1.5487 -1.4579
 4021SOL     OW23698   4.538   0.932  10.637 -0.1559  0.1639  0.7322
 4021SOL    HW123699   4.542   1.020  10.676 -0.2435  0.6884 -0.4310
 4021SOL    HW223700   4.603   0.934  10.566  1.2444  0.1156  2.0267
 4022SOL     OW23701   0.951   1.371  16.584 -0.5849 -0.2913  0.0452
 4022SOL    HW123702   0.984   1.352  16.672 -0.3879 -0.5796 -0.0915
 4022SOL    HW223703   1.002   1.447  16.558 -0.3511 -0.5133 -0.1458
 4023SOL     OW23704   1.930   1.598  14.777 -0.1691 -0.7706 -0.3211
 4023SOL    HW123705   1.889   1.651  14.709 -1.0015  0.3871  1.0508
 4023SOL    HW223706   1.932   1.667  14.844 -0.5115 -0.4897 -0.5983
 4024SOL     OW23707   1.426   1.233   6.412 -0.0770 -0.8448  0.4303
 4024SOL    HW123708   1.363   1.184   6.465 -1.1192  0.9843  0.8514
 4024SOL    HW223709   1.485   1.254   6.484 -1.9994 -2.1440  2.3816
 4025SOL     OW23710   4.643   1.840   3.169 -0.0451  0.4264 -0.3656
 4025SOL    HW123711   4.639   1.902   3.242  0.4661 -0.9517  0.8266
 4025SOL    HW223712   4.608   1.760   3.208  0.9648  0.5145  0.7295
 4026SOL     OW23713   0.532   2.094   9.562 -0.2224 -0.6585  0.3871
 4026SOL    HW123714   0.491   2.086   9.476 -0.8414 -0.6221  0.6791
 4026SOL    HW223715   0.457   2.099   9.621 -0.4845  2.4422 -0.1910
 4027SOL     OW23716   1.875   2.964   8.673 -0.2105 -0.0656  0.1890
 4027SOL    HW123717   1.950   3.021   8.658  0.5128 -0.9838  0.3202
 4027SOL    HW223718   1.918   2.881   8.691 -2.4564 -1.6161 -1.4755
 4028SOL     OW23719   1.372   0.362  16.721 -0.1764  0.2209  0.1147
 4028SOL    HW123720   1.419   0.401  16.795  1.1523 -1.3088  0.0617
 4028SOL    HW223721   1.337   0.445  16.686  0.6120  1.1845  1.6464
 4029SOL     OW23722   3.492   0.372   4.832  0.3580 -0.2779 -0.2087
 4029SOL    HW123723   3.532   0.403   4.913 -0.3608 -1.4028  0.5656
 4029SOL    HW223724   3.576   0.349   4.793 -0.3918 -0.9663 -1.4228
 4030SOL     OW23725   4.464   0.291  13.532  0.8746  0.0794 -0.2493
 4030SOL    HW123726   4.416   0.374  13.533  2.5284  1.0330 -0.5498
 4030SOL    HW223727   4.420   0.254  13.455 -0.6078 -0.8402  1.0376
 4031SOL     OW23728   0.400   0.601   6.868 -0.2569 -0.0381  0.0672
 4031SOL    HW123729   0.448   0.641   6.796 -1.2794 -1.3805 -1.3454
 4031SOL    HW223730   0.363   0.678   6.912 -0.3421 -0.6530  1.0594
 4032SOL     OW23731   2.668   1.711  12.649 -0.0496  0.1174 -0.0685
 4032SOL    HW123732   2.630   1.626  12.629  0.6398 -0.3377  0.5514
 4032SOL    HW223733   2.710   1.684  12.730  1.5503 -0.1729 -0.9965
 4033SOL     OW23734   1.342   0.673   7.679  0.0067 -0.5053 -0.5491
 4033SOL    HW123735   1.349   0.747   7.738  0.1162 -0.5009 -0.5681
 4033SOL    HW223736   1.404   0.611   7.716 -0.5756 -1.1595 -0.6585
 4034SOL     OW23737   1.751   0.401  16.234 -0.0631 -0.7137 -0.2036
 4034SOL    HW123738   1.779   0.311  16.218 -2.4283 -1.8292  2.0576
 4034SOL    HW223739   1.704   0.389  16.317  0.1307 -2.1879 -0.3091
 4035SOL     OW23740   2.522   0.951   2.591 -0.2108  0.4533  0.1345
 4035SOL    HW123741   2.577   1.027   2.610 -0.1601  0.3691  0.3241
 4035SOL    HW223742   2.536   0.938   2.497  0.8189 -2.4636  0.6934
 4036SOL     OW23743   4.492   3.563   2.968  0.4389 -0.2350  0.2898
 4036SOL    HW123744   4.547   3.533   3.040  0.8609 -0.2453 -0.0345
 4036SOL    HW223745   4.419   3.501   2.969  0.8341 -0.6736  1.6304
 4037SOL     OW23746   1.172   1.979  13.545 -0.0642 -0.5437  0.9077
 4037SOL    HW123747   1.139   2.028  13.620  1.0010  0.2100  0.8848
 4037SOL    HW223748   1.098   1.984  13.485  0.9324  0.3350 -0.2390
 4038SOL     OW23749   0.443   3.671   5.572  0.0291  0.3735  0.6873
 4038SOL    HW123750   0.445   3.583   5.608 -1.9771  0.2405  0.4373
 4038SOL    HW223751   0.527   3.706   5.604  0.2135  0.1294  0.4675
 4039SOL     OW23752   4.413   3.323   8.706  0.0440 -0.5565  0.1490
 4039SOL    HW123753   4.393   3.240   8.748 -1.0752  0.4368  1.5849
 4039SOL    HW223754   4.502   3.314   8.673 -0.5687 -2.1247 -1.0863
 4040SOL     OW23755   2.810   0.854   6.152 -0.5128 -0.3972 -0.1375
 4040SOL    HW123756   2.893   0.833   6.196 -0.3528  0.1700 -0.1660
 4040SOL    HW223757   2.845   0.905   6.079  0.1658  0.4529  0.7872
 4041SOL     OW23758   2.678   2.868   4.423  0.2639 -0.1985 -0.2548
 4041SOL    HW123759   2.614   2.859   4.494  1.1733 -0.0586  0.5857
 4041SOL    HW223760   2.690   2.775   4.407 -2.9714 -0.3027 -2.1548
 4042SOL     OW23761   0.779   2.247   8.733 -0.7521 -0.3421  0.0654
 4042SOL    HW123762   0.768   2.208   8.820 -1.3627  0.5135  0.3697
 4042SOL    HW223763   0.765   2.340   8.747  1.8458  0.0451  0.1638
 4043SOL     OW23764   4.594   1.225   6.787 -0.2182 -0.2270  0.1023
 4043SOL    HW123765   4.608   1.313   6.823 -0.5955  1.0068 -2.8140
 4043SOL    HW223766   4.499   1.238   6.781  0.0508  0.3256 -3.0620
 4044SOL     OW23767   3.097   2.489  14.295 -0.2257  0.0210  0.4034
 4044SOL    HW123768   3.136   2.576  14.302  1.5740 -0.7816  0.3214
 4044SOL    HW223769   3.054   2.504  14.211  1.1205  1.4976 -0.0124
 4045SOL     OW23770   1.191   0.360   6.914  0.2465  0.2827  0.0863
 4045SOL    HW123771   1.229   0.320   6.992 -1.1871 -0.7774  0.2343
 4045SOL    HW223772   1.161   0.281   6.869  0.5044  1.0563 -1.4458
 4046SOL     OW23773   4.176   3.632  16.141  0.0676  0.0967 -1.0518
 4046SOL    HW123774   4.140   3.686  16.070  0.8859  0.1573 -1.4199
 4046SOL    HW223775   4.268   3.656  16.136  0.5698 -1.7408 -0.8289
 4047SOL     OW23776   0.655   2.499   8.227 -0.1038 -0.3792 -0.4763
 4047SOL    HW123777   0.626   2.566   8.165  1.5451  0.5411 -0.2201
 4047SOL    HW223778   0.739   2.535   8.254 -0.4043  0.0962 -0.1708
 4048SOL     OW23779   2.169   2.978   6.962 -0.0414  0.4342 -0.4438
 4048SOL    HW123780   2.225   2.911   6.923 -0.8846 -1.2087  1.1136
 4048SOL    HW223781   2.201   2.977   7.053  1.2956 -0.3565 -0.9244
 4049SOL     OW23782   1.219   0.450  10.640 -0.1542 -0.1665 -0.1074
 4049SOL    HW123783   1.148   0.430  10.579  0.0467 -1.4675  0.0885
 4049SOL    HW223784   1.194   0.385  10.705  0.6735  0.2138  0.5897
 4050SOL     OW23785   3.383   2.262  10.057 -0.2441  0.1038 -0.0406
 4050SOL    HW123786   3.399   2.167  10.054  1.8169  0.4677 -0.5322
 4050SOL    HW223787   3.466   2.294  10.024 -0.0056  1.1896  1.6422
 4051SOL     OW23788   0.362   3.149  13.855 -0.5327  0.2196  0.1947
 4051SOL    HW123789   0.353   3.229  13.804 -0.7123  0.9525  1.3568
 4051SOL    HW223790   0.309   3.085  13.807  0.9678 -0.8342 -0.0635
 4052SOL     OW23791   3.591   0.300  17.560  0.4275 -0.2960  0.2291
 4052SOL    HW123792   3.557   0.350  17.634  1.7151  0.9663 -0.0467
 4052SOL    HW223793   3.559   0.358  17.492 -0.1291  0.0344  0.7798
 4053SOL     OW23794   2.556   4.086  11.479  0.0280  0.6052 -0.3343
 4053SOL    HW123795   2.621   4.143  11.437  1.0147 -1.3107 -1.4023
 4053SOL    HW223796   2.507   4.143  11.539  1.8366  0.2621  1.4626
 4054SOL     OW23797   4.416   4.567  12.907  0.2543 -0.5964  0.0062
 4054SOL    HW123798   4.492   4.538  12.958  0.5874 -0.7567 -0.5754
 4054SOL    HW223799   4.364   4.487  12.918  0.0439 -0.3249  0.9892
 4055SOL     OW23800   2.374   4.682   2.502  0.4816  0.1300 -0.2380
 4055SOL    HW123801   2.382   4.622   2.576 -2.0868 -0.0398 -0.0740
 4055SOL    HW223802   2.305   4.646   2.447  3.1127 -0.6441 -3.0222
 4056SOL     OW23803   3.816   0.501   9.201 -0.0122 -0.2605  0.1463
 4056SOL    HW123804   3.726   0.497   9.168  0.2965  0.0393 -0.7559
 4056SOL    HW223805   3.868   0.483   9.122 -0.4578 -0.8999  0.0048
 4057SOL     OW23806   0.752   0.743  15.031  0.1507  0.1650  0.1484
 4057SOL    HW123807   0.772   0.659  14.990  0.6637 -0.0195  0.7742
 4057SOL    HW223808   0.754   0.715  15.122 -3.9066 -1.7417 -0.3648
 4058SOL     OW23809   1.062   0.547   8.483  0.1467  0.6805 -0.0858
 4058SOL    HW123810   1.109   0.615   8.434 -1.1405 -0.2801 -2.6892
 4058SOL    HW223811   1.143   0.496   8.488 -2.1500 -2.9572 -0.2986
 4059SOL     OW23812   2.475   0.185   9.340 -0.3790  0.3843  0.4451
 4059SOL    HW123813   2.552   0.191   9.396  1.1823 -0.9494 -1.5470
 4059SOL    HW223814   2.404   0.204   9.401 -0.6324  0.8247  0.0122
 4060SOL     OW23815   4.558   3.361  13.632 -0.0547  0.1565  0.1414
 4060SOL    HW123816   4.612   3.371  13.553 -0.6128  1.7337 -0.0364
 4060SOL    HW223817   4.582   3.277  13.672  0.3720  1.0696  1.8050
 4061SOL     OW23818   0.733   0.243   3.421 -0.1218  0.1081  0.4616
 4061SOL    HW123819   0.772   0.284   3.498  0.1017  0.6911  0.0452
 4061SOL    HW223820   0.649   0.284   3.437  0.7684  2.5545 -1.0315
 4062SOL     OW23821   3.538   3.008   7.800  0.3087 -0.0644  0.4775
 4062SOL    HW123822   3.546   2.946   7.727 -0.9917 -1.8751  1.8600
 4062SOL    HW223823   3.446   2.996   7.825  0.3599  1.5196  1.3889
 4063SOL     OW23824   1.718   4.135  14.108 -0.1190  0.4223 -0.0253
 4063SOL    HW123825   1.794   4.119  14.163  0.6140 -1.8335 -1.7162
 4063SOL    HW223826   1.755   4.111  14.023 -0.9781 -1.0929  0.0269
 4064SOL     OW23827   0.910   4.084  14.505 -0.3885  0.1534 -0.4272
 4064SOL    HW123828   0.967   4.144  14.458  1.0713 -1.6973 -1.0024
 4064SOL    HW223829   0.923   4.002  14.456  0.5605  0.4061 -0.5887
 4065SOL     OW23830   1.638   0.307  17.445  0.1049 -0.1314 -0.2189
 4065SOL    HW123831   1.648   0.277  17.535 -0.2323  1.4452  0.3499
 4065SOL    HW223832   1.722   0.285  17.405 -0.0905  0.6250 -1.0382
 4066SOL     OW23833   1.046   2.146   4.342  0.7176  0.7162  0.0586
 4066SOL    HW123834   0.972   2.126   4.399  0.3842  0.2922 -0.5260
 4066SOL    HW223835   1.000   2.193   4.272 -0.2785 -1.0086 -0.4402
 4067SOL     OW23836   0.477   2.984   3.619 -0.3290 -0.5060 -0.2387
 4067SOL    HW123837   0.444   2.992   3.709 -0.2163  1.0628 -0.3275
 4067SOL    HW223838   0.396   3.008   3.576  0.5280  0.2611 -1.4163
 4068SOL     OW23839   2.041   2.930   3.145  0.4042  1.1304 -0.1115
 4068SOL    HW123840   2.102   2.875   3.096  1.2365  0.0167  2.1540
 4068SOL    HW223841   2.103   2.973   3.204  3.6081 -1.2475 -1.7683
 4069SOL     OW23842   3.220   3.297   4.014 -0.9970  0.0334 -0.7349
 4069SOL    HW123843   3.149   3.329   4.069  0.0891  0.3124  0.5117
 4069SOL    HW223844   3.186   3.300   3.924  1.0810  2.0118 -1.4676
 4070SOL     OW23845   1.625   1.798  11.548  0.1075  0.1705 -0.2219
 4070SOL    HW123846   1.603   1.843  11.629 -1.7532  0.5993 -0.9851
 4070SOL    HW223847   1.567   1.843  11.487 -1.7028  0.6509  1.8449
 4071SOL     OW23848   3.102   4.697   2.531  0.2568  0.0246  0.4905
 4071SOL    HW123849   3.178   4.644   2.505  1.8395  1.9986  1.0040
 4071SOL    HW223850   3.037   4.638   2.568 -0.6381 -0.1864 -1.4059
 4072SOL     OW23851   1.488   1.531   4.419  0.5809 -0.1713 -0.5059
 4072SOL    HW123852   1.546   1.569   4.485  1.4610  1.4306 -2.1819
 4072SOL    HW223853   1.402   1.533   4.461  0.7174  1.3780 -0.2817
 4073SOL     OW23854   0.588   3.346   2.519  0.3196  0.1968 -0.4676
 4073SOL    HW123855   0.657   3.392   2.567  0.2901  0.0900 -0.3237
 4073SOL    HW223856   0.546   3.418   2.473  0.3842  0.0821 -0.7055
 4074SOL     OW23857   0.812   1.992   2.441  0.2364 -0.1338  0.1043
 4074SOL    HW123858   0.751   1.987   2.513 -0.9272  0.1848 -0.8589
 4074SOL    HW223859   0.882   1.937   2.478  1.4107 -0.1429 -2.1091
 4075SOL     OW23860   2.674   3.798   4.470  0.9283 -0.2616 -0.4817
 4075SOL    HW123861   2.621   3.866   4.429  2.2284  0.2600 -1.3169
 4075SOL    HW223862   2.691   3.736   4.399  2.4264  0.0601 -0.4057
 4076SOL     OW23863   3.169   4.715   3.022  0.2622 -0.1729 -0.4488
 4076SOL    HW123864   3.124   4.704   3.106 -1.3851  3.1007 -0.9036
 4076SOL    HW223865   3.118   0.045   2.978  0.2805 -1.7419 -2.9181
 4077SOL     OW23866   4.720   3.878   4.114 -0.3465 -0.2766  0.3531
 4077SOL    HW123867   0.044   3.844   4.050 -0.3163  1.4125 -0.5062
 4077SOL    HW223868   4.650   3.814   4.101  0.1464 -0.7314 -0.0636
 4078SOL     OW23869   1.337   2.220   0.330 -0.4806  0.3082  0.0670
 4078SOL    HW123870   1.400   2.159   0.290  2.1351  2.3904  1.0039
 4078SOL    HW223871   1.396   2.279   0.377  1.0139 -1.5106  0.4873
 4079SOL     OW23872   1.367   2.239   6.771 -0.0713 -0.4514  0.1049
 4079SOL    HW123873   1.363   2.327   6.733 -0.5003 -0.7913 -0.6355
 4079SOL    HW223874   1.273   2.223   6.765 -0.0798  1.0306 -3.2469
 4080SOL     OW23875   1.893   3.287   8.952  0.0552 -0.3113 -0.4014
 4080SOL    HW123876   1.970   3.342   8.963  1.0988 -1.7651 -0.4947
 4080SOL    HW223877   1.822   3.344   8.980  2.1899  1.0695  2.2064
 4081SOL     OW23878   0.978   3.217   3.109 -0.7586 -0.4322 -0.2732
 4081SOL    HW123879   1.045   3.282   3.132 -0.8306 -0.5915  0.3590
 4081SOL    HW223880   0.904   3.246   3.162  0.5964 -0.2828  1.5213
 4082SOL     OW23881   0.595   1.473   8.018 -0.2668  0.3663 -0.0896
 4082SOL    HW123882   0.582   1.408   8.087  0.7690  0.2650  0.0136
 4082SOL    HW223883   0.663   1.438   7.961 -0.8271 -1.7018  0.5239
 4083SOL     OW23884   3.035   0.740   3.253 -0.0632  1.0511 -0.2037
 4083SOL    HW123885   3.028   0.647   3.271  0.0598  1.4312  1.7838
 4083SOL    HW223886   2.946   0.766   3.233 -0.6449 -1.0838 -0.3297
 4084SOL     OW23887   4.325   2.338   5.153  0.0064  0.5552  0.4423
 4084SOL    HW123888   4.265   2.267   5.130  0.6165  0.6247 -1.3497
 4084SOL    HW223889   4.404   2.331   5.100 -0.7807  0.6181 -0.7351
 4085SOL     OW23890   0.994   4.035   8.901  0.2385  0.1511  0.1349
 4085SOL    HW123891   0.968   4.071   8.815 -0.8533  0.8560  0.7521
 4085SOL    HW223892   0.996   3.942   8.881 -1.0076  0.3747 -1.0415
 4086SOL     OW23893   0.630   0.191   4.145 -0.3255 -0.2917  0.3027
 4086SOL    HW123894   0.553   0.231   4.105 -0.1800  0.3132  0.6269
 4086SOL    HW223895   0.703   0.226   4.095  0.4726  0.9150  2.2923
 4087SOL     OW23896   0.820   3.817   3.559  0.2133  0.2721  0.0200
 4087SOL    HW123897   0.758   3.745   3.546 -2.8470  2.7041  0.9264
 4087SOL    HW223898   0.759   3.891   3.554  0.2277  0.2399 -0.6371
 4088SOL     OW23899   4.291   1.563   6.778 -0.7221  0.2271  0.7958
 4088SOL    HW123900   4.251   1.637   6.824  1.5922  1.3358  1.0362
 4088SOL    HW223901   4.341   1.613   6.713  2.5964  1.8144  4.5933
 4089SOL     OW23902   1.743   2.015  14.121 -0.1828 -0.0634  0.0935
 4089SOL    HW123903   1.755   2.088  14.182 -2.4606 -0.0415  0.5219
 4089SOL    HW223904   1.830   2.019  14.081 -1.0523 -1.9874 -1.9438
 4090SOL     OW23905   0.663   1.861   9.101 -0.6173 -0.2014 -0.7082
 4090SOL    HW123906   0.713   1.809   9.164  1.9331  1.9502 -0.9304
 4090SOL    HW223907   0.624   1.930   9.154  0.6120 -0.5384  0.6166
 4091SOL     OW23908   3.679   4.648  13.552 -0.4877 -0.1902  0.6092
 4091SOL    HW123909   3.625   4.581  13.512 -1.4936 -0.0579  1.7769
 4091SOL    HW223910   3.609   4.709  13.574 -0.9228 -1.2908  2.2010
 4092SOL     OW23911   4.083   0.380  10.953 -0.0158  0.1542  0.0491
 4092SOL    HW123912   4.084   0.475  10.941  0.7470 -0.1303 -2.1489
 4092SOL    HW223913   4.165   0.368  10.904  0.5304 -2.9585  1.7329
 4093SOL     OW23914   4.174   4.706   5.452 -0.4937 -0.2945  0.1045
 4093SOL    HW123915   4.097   4.664   5.489 -0.0030 -1.5941 -0.3685
 4093SOL    HW223916   4.137   0.051   5.422  1.3321 -0.4736 -2.6206
 4094SOL     OW23917   0.113   2.187   2.156  0.2423  0.1527 -0.3913
 4094SOL    HW123918   0.144   2.276   2.138 -1.5102  0.6078 -1.1684
 4094SOL    HW223919   0.099   2.197   2.250  1.4395  2.7422 -0.4814
 4095SOL     OW23920   1.519   0.007   7.641 -0.2204  0.2207  0.0249
 4095SOL    HW123921   1.502   0.059   7.719  0.7240 -1.1798  1.1716
 4095SOL    HW223922   1.442   4.689   7.641  0.8481 -1.2499  0.5197
 4096SOL     OW23923   2.994   3.488  11.845  0.6774 -0.0785 -0.4744
 4096SOL    HW123924   2.913   3.525  11.809  0.1026 -0.6906  0.1930
 4096SOL    HW223925   3.041   3.572  11.841 -1.5331  1.2934  1.9276
 4097SOL     OW23926   1.227   1.034   4.714  0.1583  0.0781  0.3140
 4097SOL    HW123927   1.180   0.952   4.703  0.1282  0.4965 -2.5877
 4097SOL    HW223928   1.245   1.033   4.808 -2.2668 -0.0069  0.7901
 4098SOL     OW23929   3.945   3.137   6.574  0.4254 -0.3441  0.0834
 4098SOL    HW123930   3.882   3.185   6.520  0.4794  0.8391  1.0802
 4098SOL    HW223931   3.936   3.173   6.662 -0.3000 -2.7719  1.0113
 4099SOL     OW23932   2.644   3.402   9.251  0.2933  0.1755 -0.1504
 4099SOL    HW123933   2.643   3.317   9.295  1.4676  0.6243  0.7485
 4099SOL    HW223934   2.689   3.461   9.312  0.2891  1.9148 -1.8120
 4100SOL     OW23935   0.920   1.530   7.635 -0.2854 -0.6516 -0.4596
 4100SOL    HW123936   0.888   1.486   7.714 -0.0630  1.9889  1.1213
 4100SOL    HW223937   0.998   1.478   7.617 -0.2448 -0.3928 -1.0040
 4101SOL     OW23938   4.319   2.021   5.299  0.1445 -0.9605 -1.1550
 4101SOL    HW123939   4.383   2.027   5.228  0.5525 -1.6772 -0.8458
 4101SOL    HW223940   4.237   2.044   5.253  0.3227 -0.0633 -1.0257
 4102SOL     OW23941   4.671   2.700   4.983 -0.1779 -0.1410 -0.4637
 4102SOL    HW123942   4.725   2.746   4.918 -1.4518  1.1187 -0.6401
 4102SOL    HW223943   4.590   2.751   4.977  0.1159  0.5051  1.2408
 4103SOL     OW23944   3.206   3.871   3.269  0.2238  0.0030 -0.5359
 4103SOL    HW123945   3.247   3.950   3.235  0.6358  0.2645  0.5936
 4103SOL    HW223946   3.187   3.904   3.356 -2.1210 -0.3464 -0.9195
 4104SOL     OW23947   0.148   3.352   6.975 -0.5474  0.3279 -0.5265
 4104SOL    HW123948   0.058   3.384   6.970 -0.6493  0.1813  0.3876
 4104SOL    HW223949   0.146   3.278   7.035  0.6223  0.0256 -0.8731
 4105SOL     OW23950   1.989   3.068   4.379 -0.0792  0.2559  0.7811
 4105SOL    HW123951   2.060   3.130   4.396 -0.8389  2.2806 -3.5535
 4105SOL    HW223952   1.927   3.092   4.448 -1.8107  4.1942 -2.1502
 4106SOL     OW23953   4.579   0.317  15.428 -0.5424 -0.0368 -0.0414
 4106SOL    HW123954   4.574   0.409  15.452 -1.3127 -0.1169  0.1270
 4106SOL    HW223955   4.566   0.281  15.516  1.4595 -0.1468  0.1962
 4107SOL     OW23956   2.354   4.248   8.194 -0.0199  0.3165  0.4973
 4107SOL    HW123957   2.294   4.285   8.259  0.7058  0.8006  0.8889
 4107SOL    HW223958   2.410   4.197   8.252  0.0853  1.8023  1.7045
 4108SOL     OW23959   0.663   0.053  13.143 -0.1500 -0.0640 -0.0466
 4108SOL    HW123960   0.623   0.028  13.226 -1.1229 -1.2742 -0.8868
 4108SOL    HW223961   0.751   0.076  13.172 -1.4532  0.3544  3.5916
 4109SOL     OW23962   2.350   1.853  15.631  0.2411 -0.0720 -0.5048
 4109SOL    HW123963   2.425   1.852  15.692 -2.3398 -0.0806  2.6931
 4109SOL    HW223964   2.348   1.941  15.595  2.9262 -0.1903 -0.9901
 4110SOL     OW23965   2.881   3.841   7.258  0.8967 -0.0745 -0.1314
 4110SOL    HW123966   2.831   3.895   7.319  1.3074  1.5572 -1.2559
 4110SOL    HW223967   2.933   3.786   7.317  2.0201  0.5032 -0.5736
 4111SOL     OW23968   3.709   0.366   4.039  0.0076  0.3020 -0.0983
 4111SOL    HW123969   3.786   0.317   4.013 -0.9432 -1.9583  1.3124
 4111SOL    HW223970   3.685   0.328   4.124 -1.3073 -2.7014 -1.8202
 4112SOL     OW23971   0.198   2.444   3.895 -0.5578 -0.2790 -0.3261
 4112SOL    HW123972   0.166   2.516   3.840 -0.7698  0.2142  0.4285
 4112SOL    HW223973   0.118   2.395   3.914 -0.7242  0.0381 -0.1973
 4113SOL     OW23974   0.167   4.601   3.248  0.5651 -0.4777 -0.0655
 4113SOL    HW123975   0.083   4.558   3.260 -0.3565  1.0480 -1.0074
 4113SOL    HW223976   0.207   4.582   3.333 -0.7732  1.7611  1.0388
 4114SOL     OW23977   2.812   2.330   8.782  0.6881 -0.3928  0.0224
 4114SOL    HW123978   2.730   2.295   8.816  0.6034  0.3442  0.5559
 4114SOL    HW223979   2.865   2.250   8.788  0.4621 -0.6230 -1.1108
 4115SOL     OW23980   2.737   1.161   8.643  0.4718  0.4587 -0.1395
 4115SOL    HW123981   2.753   1.069   8.664  0.7943  0.4262 -0.5422
 4115SOL    HW223982   2.823   1.200   8.628 -0.1645  1.6603 -0.7259
 4116SOL     OW23983   1.360   4.074   1.919 -0.3382  0.2553 -0.3421
 4116SOL    HW123984   1.444   4.071   1.965 -0.3109  1.8254 -0.2757
 4116SOL    HW223985   1.360   4.165   1.890  0.4995  0.0072 -1.0896
 4117SOL     OW23986   1.043   0.777   1.423  0.0397 -0.2144 -0.8125
 4117SOL    HW123987   0.974   0.720   1.388 -2.4289  2.4980 -0.3283
 4117SOL    HW223988   1.127   0.732   1.412 -0.9322 -2.3485  0.5746
 4118SOL     OW23989   1.743   4.722   2.018  0.3382 -0.1540 -0.0994
 4118SOL    HW123990   1.826   0.016   1.985  2.3543 -2.5743  2.6743
 4118SOL    HW223991   1.746   4.639   1.972  2.8862  0.2831 -0.7028
 4119SOL     OW23992   1.792   2.177   7.362 -0.5079 -0.2077 -0.0432
 4119SOL    HW123993   1.718   2.173   7.303 -2.3049  4.0571  1.9125
 4119SOL    HW223994   1.760   2.247   7.420 -1.0594 -0.3220 -0.2198
 4120SOL     OW23995   3.780   0.167  12.177 -0.4088 -0.0224 -0.1914
 4120SOL    HW123996   3.748   0.108  12.246 -1.8855  0.0992 -0.7641
 4120SOL    HW223997   3.715   0.145  12.111 -1.7680  1.3657  0.6710
 4121SOL     OW23998   3.816   1.009  12.649  0.3059 -0.6281 -0.2056
 4121SOL    HW123999   3.805   0.997  12.555 -1.0630 -0.5069 -0.0689
 4121SOL    HW224000   3.769   1.092  12.659  0.5884 -0.5449  0.4908
 4122SOL     OW24001   2.133   0.516   2.728 -0.2200  0.1706 -0.6404
 4122SOL    HW124002   2.172   0.434   2.758  0.1855  0.5895 -0.0142
 4122SOL    HW224003   2.070   0.542   2.796  1.0685 -0.2880  0.7333
 4123SOL     OW24004   2.933   1.760   3.465 -0.1542 -0.3314 -0.0822
 4123SOL    HW124005   2.852   1.807   3.444  0.2226  0.0309 -0.7439
 4123SOL    HW224006   2.936   1.768   3.560  3.0399  1.8527 -0.3646
 4124SOL     OW24007   2.467   2.535   8.252  0.0197 -0.0655 -0.5528
 4124SOL    HW124008   2.516   2.469   8.202 -1.6827 -1.2468 -0.6552
 4124SOL    HW224009   2.407   2.564   8.184  0.1284 -0.4088 -0.7951
 4125SOL     OW24010   1.699   2.681  17.685 -0.2254 -0.2642 -0.5789
 4125SOL    HW124011   1.619   2.642  17.650 -1.1734  0.4451  0.7782
 4125SOL    HW224012   1.665   2.735   0.006  0.3832  1.3789 -1.5229
 4126SOL     OW24013   0.045   0.447  13.164 -0.1628 -0.3322  0.3841
 4126SOL    HW124014   0.014   0.397  13.240  0.2129 -2.1160 -0.6262
 4126SOL    HW224015   4.714   0.512  13.153  0.3521  0.2480  0.5637
 4127SOL     OW24016   4.679   4.145   2.158 -0.6536  0.1476 -0.4563
 4127SOL    HW124017   4.674   4.156   2.253  1.4589  1.2421 -0.4641
 4127SOL    HW224018   4.661   4.234   2.129  0.4030  0.6773  0.5004
 4128SOL     OW24019   1.158   4.240   4.831  0.6875  0.2018 -0.2408
 4128SOL    HW124020   1.090   4.307   4.830  1.0514  0.5692 -1.0096
 4128SOL    HW224021   1.110   4.164   4.863  1.2138  0.0769  0.2533
 4129SOL     OW24022   3.320   1.462   1.018  0.8185 -0.8432 -0.0337
 4129SOL    HW124023   3.326   1.435   0.926 -0.6506 -1.6177  0.0984
 4129SOL    HW224024   3.255   1.400   1.052 -0.2804  0.3569  0.0093
 4130SOL     OW24025   0.495   0.465  17.371 -0.0884 -0.4544 -0.2407
 4130SOL    HW124026   0.441   0.446  17.295  0.1951 -0.1288 -0.5228
 4130SOL    HW224027   0.536   0.546  17.340  1.2452 -0.6376  1.0634
 4131SOL     OW24028   3.758   1.323   7.482  0.3785 -0.5184  0.4756
 4131SOL    HW124029   3.803   1.372   7.551  0.8953 -0.3523  0.0195
 4131SOL    HW224030   3.817   1.322   7.407  0.2017  1.6613  0.2883
 4132SOL     OW24031   4.452   4.330   5.229  0.7568  0.3877 -0.0952
 4132SOL    HW124032   4.464   4.372   5.314 -0.5616  0.5784  0.0077
 4132SOL    HW224033   4.518   4.381   5.183  1.0476 -0.7772 -0.9931
 4133SOL     OW24034   3.298   1.822   5.008  0.0983  0.3869  0.1732
 4133SOL    HW124035   3.371   1.851   4.953  0.0248  1.2740  0.5475
 4133SOL    HW224036   3.333   1.834   5.096 -0.3840  1.4180  0.2280
 4134SOL     OW24037   2.218   3.670   8.227  0.4013 -0.2509  0.5955
 4134SOL    HW124038   2.164   3.695   8.301  0.4227 -0.6147  0.7363
 4134SOL    HW224039   2.218   3.574   8.228  0.4438 -0.2815 -1.2806
 4135SOL     OW24040   0.953   2.611   1.372 -0.2993  0.1483 -0.2415
 4135SOL    HW124041   0.858   2.625   1.378 -0.3091 -0.0990  0.1510
 4135SOL    HW224042   0.950   2.519   1.397  2.4254  0.6740  2.0075
 4136SOL     OW24043   1.116   2.695   1.164  0.4175  0.5075  0.3560
 4136SOL    HW124044   1.054   2.754   1.121  0.1294  0.7173  1.0619
 4136SOL    HW224045   1.068   2.655   1.237  2.2998 -0.3294  1.1420
 4137SOL     OW24046   3.029   4.695  14.595  0.4206  0.6794 -0.2290
 4137SOL    HW124047   3.105   4.670  14.542  0.7777 -0.3006  0.7311
 4137SOL    HW224048   3.071   4.717  14.678 -0.2063  0.6793  0.0890
 4138SOL     OW24049   2.339   0.189   2.625 -0.2917  0.8863 -0.3423
 4138SOL    HW124050   2.343   0.103   2.584  2.5511  0.7570  0.1435
 4138SOL    HW224051   2.244   0.197   2.627 -0.2221  1.0951  2.0625
 4139SOL     OW24052   0.162   4.098  12.521  0.4195  0.3042  0.0981
 4139SOL    HW124053   0.220   4.100  12.597 -0.9409  1.8226  1.0641
 4139SOL    HW224054   0.122   4.184  12.533  0.9807  0.7743 -1.3080
 4140SOL     OW24055   3.386   3.097   1.329  0.0614  0.0072 -0.4326
 4140SOL    HW124056   3.456   3.073   1.389 -1.2324 -1.2656  0.5487
 4140SOL    HW224057   3.327   3.022   1.340  0.2218 -0.4664 -2.7593
 4141SOL     OW24058   1.811   1.558  13.973  0.1182  0.0294 -0.1283
 4141SOL    HW124059   1.718   1.559  13.997  0.3956 -0.8508  0.9667
 4141SOL    HW224060   1.817   1.491  13.904  1.0636  0.5317 -0.5314
 4142SOL     OW24061   4.721   3.567  13.224  0.4939  0.0226  0.2320
 4142SOL    HW124062   0.042   3.605  13.289  0.9531 -0.6871  0.2281
 4142SOL    HW224063   4.707   3.485  13.271 -2.8033  0.0540 -0.7345
 4143SOL     OW24064   1.706   3.894   8.740 -0.5438 -0.1071  0.4097
 4143SOL    HW124065   1.669   3.809   8.763 -2.2713  0.2786 -0.9368
 4143SOL    HW224066   1.788   3.889   8.790  1.7020  0.5786 -3.2021
 4144SOL     OW24067   0.525   2.670   5.402 -0.4394  0.0370  0.2031
 4144SOL    HW124068   0.568   2.640   5.482 -1.6696  0.3316  0.9612
 4144SOL    HW224069   0.543   2.593   5.348 -2.3069 -1.8593  2.2714
 4145SOL     OW24070   0.715   2.577   9.508 -0.2710 -0.1187 -0.1260
 4145SOL    HW124071   0.742   2.485   9.507 -0.1569 -0.0873  0.1732
 4145SOL    HW224072   0.650   2.578   9.578  0.4388  0.5522  0.5199
 4146SOL     OW24073   2.460   3.826   2.484 -0.4286 -0.1339  0.4992
 4146SOL    HW124074   2.449   3.732   2.474 -0.5984 -0.1912  1.2322
 4146SOL    HW224075   2.375   3.854   2.449  1.3269 -0.1621 -3.7872
 4147SOL     OW24076   2.768   1.541   7.664 -0.4172 -0.2396 -0.1004
 4147SOL    HW124077   2.793   1.491   7.586  1.3358 -1.7966  1.4769
 4147SOL    HW224078   2.804   1.488   7.735  1.8779  0.7168 -0.5741
 4148SOL     OW24079   1.645   2.024  17.682 -0.1553  0.4038  0.1752
 4148SOL    HW124080   1.690   2.095  17.729  2.8124  0.0343 -2.1358
 4148SOL    HW224081   1.721   1.984  17.642  0.5618 -0.2707  2.2124
 4149SOL     OW24082   1.212   0.318   1.932  0.2454 -0.1142  0.2595
 4149SOL    HW124083   1.233   0.395   1.985 -0.2386 -0.6464  1.2181
 4149SOL    HW224084   1.240   0.340   1.844 -1.9210  0.4646 -0.2766
 4150SOL     OW24085   0.797   2.242   1.846  0.1373  0.1214 -0.4361
 4150SOL    HW124086   0.750   2.207   1.922  0.5671  0.1579 -0.1519
 4150SOL    HW224087   0.786   2.337   1.847 -0.0669  0.0898  0.4287
 4151SOL     OW24088   3.995   2.581   8.746 -0.3570 -0.1245 -0.2959
 4151SOL    HW124089   3.997   2.673   8.775 -0.0032 -0.5351  0.9651
 4151SOL    HW224090   3.910   2.555   8.782 -0.2190 -2.6416 -1.7893
 4152SOL     OW24091   0.845   0.687   1.065  0.5806  0.2384 -0.3113
 4152SOL    HW124092   0.854   0.593   1.049 -0.2608  0.1468 -0.2287
 4152SOL    HW224093   0.865   0.696   1.158 -1.8872  1.4780  0.0957
 4153SOL     OW24094   1.682   1.697  14.916  0.5876  0.3218  0.2216
 4153SOL    HW124095   1.727   1.701  15.001  1.7196 -1.3688 -0.2989
 4153SOL    HW224096   1.752   1.735  14.863 -0.3968  0.7949 -0.7379
 4154SOL     OW24097   1.347   4.406   3.489  0.2964 -0.7078 -0.2910
 4154SOL    HW124098   1.426   4.409   3.435  0.7234  2.0508  0.4557
 4154SOL    HW224099   1.287   4.348   3.442 -0.7088  0.4743 -0.4466
 4155SOL     OW24100   3.442   3.341  10.664 -0.3273 -0.2409 -0.1961
 4155SOL    HW124101   3.354   3.374  10.647  0.2548  1.1056 -0.5739
 4155SOL    HW224102   3.460   3.367  10.755 -0.7431 -2.9225  0.6515
 4156SOL     OW24103   1.671   3.827   1.805  0.3499  0.3847  0.4292
 4156SOL    HW124104   1.757   3.863   1.826  1.4071 -1.0643 -1.3455
 4156SOL    HW224105   1.691   3.779   1.724  4.3029  0.3460  1.4272
 4157SOL     OW24106   1.903   1.816   7.981  0.1998 -0.2376  0.8197
 4157SOL    HW124107   1.871   1.774   8.061  0.9002  1.5913  2.0392
 4157SOL    HW224108   1.925   1.905   8.008 -0.3460 -0.0066  0.5109
 4158SOL     OW24109   3.458   1.372   3.055 -0.2018 -0.0163  0.0046
 4158SOL    HW124110   3.398   1.361   3.129  2.6818 -0.9651  2.1901
 4158SOL    HW224111   3.403   1.427   2.999  1.0628 -0.7413 -1.9577
 4159SOL     OW24112   1.162   2.753   1.477 -0.0081 -0.6763  0.2754
 4159SOL    HW124113   1.144   2.841   1.444 -0.1983 -0.5932  0.6002
 4159SOL    HW224114   1.091   2.701   1.437 -0.7301 -0.2934  1.0647
 4160SOL     OW24115   0.729   1.583  10.866  0.2282  0.4234 -0.0262
 4160SOL    HW124116   0.726   1.586  10.770 -0.4440  0.9550  0.0065
 4160SOL    HW224117   0.643   1.547  10.888 -0.4900  2.5130  0.6563
 4161SOL     OW24118   0.143   1.429   8.727 -0.4119  0.1021  0.3225
 4161SOL    HW124119   0.175   1.498   8.785 -1.0257  0.1777  0.5808
 4161SOL    HW224120   0.054   1.463   8.713 -1.4979 -1.6015  3.0134
 4162SOL     OW24121   0.456   3.247  11.417 -0.0359 -0.1867  0.5870
 4162SOL    HW124122   0.519   3.195  11.466  0.2855  0.8000  1.2242
 4162SOL    HW224123   0.384   3.221  11.474 -0.5282  0.9078  0.4695
 4163SOL     OW24124   3.670   0.291   2.168  0.1432  0.0194  0.1316
 4163SOL    HW124125   3.610   0.345   2.116  0.5873  1.1904  0.8250
 4163SOL    HW224126   3.717   0.363   2.212 -0.0818 -0.3098  0.9134
 4164SOL     OW24127   1.070   3.731   7.137  0.6882  0.6747 -0.5762
 4164SOL    HW124128   0.977   3.756   7.132  0.6884  0.6615 -0.6431
 4164SOL    HW224129   1.062   3.640   7.111  0.8673 -0.2009  2.4737
 4165SOL     OW24130   0.384   3.128   2.190  0.3828 -0.4347  0.3542
 4165SOL    HW124131   0.390   3.126   2.285  2.6601 -3.7605  0.1381
 4165SOL    HW224132   0.434   3.204   2.160 -3.0775  2.0552  0.8202
 4166SOL     OW24133   3.733   4.075   3.975  0.0802 -0.1140  0.4266
 4166SOL    HW124134   3.797   4.007   3.954 -0.8507 -0.7281 -0.4911
 4166SOL    HW224135   3.706   4.104   3.888  2.9317 -1.0535 -0.7776
 4167SOL     OW24136   3.004   3.010   4.378  0.1815  0.5986 -0.1174
 4167SOL    HW124137   2.939   2.940   4.367  2.0288 -0.8985 -1.3828
 4167SOL    HW224138   3.086   2.962   4.371 -0.6904 -0.7801 -0.9864
 4168SOL     OW24139   2.211   2.317   6.680 -0.0269  0.1045 -0.2396
 4168SOL    HW124140   2.262   2.238   6.662 -0.4640 -0.4105  0.7643
 4168SOL    HW224141   2.253   2.332   6.765 -0.8038 -2.1623  0.5748
 4169SOL     OW24142   1.035   1.117   8.816  0.2912  0.0829  0.2004
 4169SOL    HW124143   1.123   1.145   8.791 -1.1437  3.1972 -1.3634
 4169SOL    HW224144   1.039   1.023   8.833  2.0229 -0.1664 -1.6811
 4170SOL     OW24145   0.958   0.605   1.882  0.2425  0.4734 -0.3403
 4170SOL    HW124146   1.003   0.569   1.958  0.0650 -0.8769 -0.8709
 4170SOL    HW224147   0.911   0.687   1.899  1.5051  1.1014  0.0705
 4171SOL     OW24148   3.519   0.596   2.357 -0.5161  0.2106  0.0150
 4171SOL    HW124149   3.531   0.608   2.262  0.3370 -0.9058 -0.0213
 4171SOL    HW224150   3.602   0.551   2.374 -0.3746 -0.0450 -1.3170
 4172SOL     OW24151   4.194   2.911   5.618  0.5204  0.4353 -0.4280
 4172SOL    HW124152   4.161   2.841   5.676  0.2437  0.4289 -0.5928
 4172SOL    HW224153   4.214   2.860   5.540  0.8040  1.7886 -1.2293
 4173SOL     OW24154   4.242   1.200   4.608  0.0235 -0.1719  0.0782
 4173SOL    HW124155   4.308   1.161   4.665 -1.8365 -0.3515  2.1127
 4173SOL    HW224156   4.171   1.138   4.590 -0.3481  0.5019 -0.8001
 4174SOL     OW24157   4.104   1.996   0.349  0.3800 -0.2147  0.7705
 4174SOL    HW124158   4.142   1.909   0.345  2.8382  0.8902 -0.2885
 4174SOL    HW224159   4.067   1.999   0.261  1.2653  0.3737  0.4161
 4175SOL     OW24160   2.748   1.151   6.199  1.1889  0.8162 -0.0574
 4175SOL    HW124161   2.822   1.102   6.234  0.4350 -0.5188 -0.3457
 4175SOL    HW224162   2.760   1.244   6.218 -2.6537  1.1661  0.6726
 4176SOL     OW24163   2.481   3.794   6.890  0.2225 -0.1800 -0.3985
 4176SOL    HW124164   2.563   3.786   6.939  0.3528 -0.9548 -0.7334
 4176SOL    HW224165   2.426   3.855   6.938 -1.1670 -0.3345 -1.7960
 4177SOL     OW24166   3.458   1.221  12.716  0.0667  0.2992 -0.6535
 4177SOL    HW124167   3.500   1.169  12.785 -3.0458 -1.5186 -0.1222
 4177SOL    HW224168   3.534   1.270  12.684 -0.8591  0.3954 -2.7090
 4178SOL     OW24169   3.709   2.138   4.430  0.1601  0.4219 -0.1432
 4178SOL    HW124170   3.799   2.107   4.439  0.1703  0.8098  1.0593
 4178SOL    HW224171   3.696   2.190   4.509  2.6831  0.6883  0.0961
 4179SOL     OW24172   3.332   0.671   0.844  0.0818 -0.6332 -0.1759
 4179SOL    HW124173   3.381   0.743   0.804 -0.8215 -0.1022 -0.3262
 4179SOL    HW224174   3.356   0.658   0.935  1.7695  0.5699 -0.4489
 4180SOL     OW24175   2.260   2.695   6.586  0.3531 -0.8522 -0.1356
 4180SOL    HW124176   2.302   2.640   6.521  0.1192 -0.1060 -0.9093
 4180SOL    HW224177   2.174   2.653   6.589  0.7103 -1.6817 -1.8590
 4181SOL     OW24178   1.272   0.992   4.969 -0.2055  0.0243  0.3192
 4181SOL    HW124179   1.347   0.936   4.988  0.4156 -0.0968 -2.5462
 4181SOL    HW224180   1.201   0.955   5.022  0.8559 -0.5088  1.3516
 4182SOL     OW24181   3.405   3.421   5.592 -0.7239  0.3739 -0.0999
 4182SOL    HW124182   3.361   3.422   5.677 -1.7161 -2.1807 -0.5854
 4182SOL    HW224183   3.383   3.332   5.564  0.4442 -0.4265  1.5338
 4183SOL     OW24184   1.877   1.344  13.829  1.0695 -0.4297  0.5491
 4183SOL    HW124185   1.829   1.281  13.882  0.4344  0.0594  0.5545
 4183SOL    HW224186   1.929   1.290  13.769  0.4219  0.2050 -0.5869
 4184SOL     OW24187   1.438   0.324   3.549  0.2974 -0.0933 -0.0442
 4184SOL    HW124188   1.515   0.335   3.492 -0.1800 -0.2891 -0.7229
 4184SOL    HW224189   1.371   0.298   3.486 -1.4957  1.0733  1.4235
 4185SOL     OW24190   3.095   1.768  13.084  0.3077  0.0487  0.2110
 4185SOL    HW124191   3.035   1.808  13.021 -1.2467  0.9567  2.2619
 4185SOL    HW224192   3.103   1.838  13.149 -2.9458 -0.5535  1.2420
 4186SOL     OW24193   1.480   3.056   9.502 -0.3681  0.1850  0.2382
 4186SOL    HW124194   1.406   3.044   9.442 -0.6806 -0.8977  0.8313
 4186SOL    HW224195   1.510   2.965   9.513  0.7848  0.3556 -1.3784
 4187SOL     OW24196   3.338   2.369   4.544 -0.1077 -0.4406 -0.2677
 4187SOL    HW124197   3.359   2.314   4.469 -1.2015  1.0223 -1.6386
 4187SOL    HW224198   3.271   2.426   4.507 -0.5221  1.3245  3.1824
 4188SOL     OW24199   0.575   1.645   7.438 -0.1006 -0.0974  1.1569
 4188SOL    HW124200   0.563   1.732   7.475 -2.0161  0.2860 -0.3524
 4188SOL    HW224201   0.594   1.674   7.348 -0.5574  2.0202  1.7641
 4189SOL     OW24202   2.240   1.541   7.568  0.9044 -0.7963  0.2013
 4189SOL    HW124203   2.215   1.543   7.661  0.4938  1.6955  0.0394
 4189SOL    HW224204   2.253   1.631   7.539  2.0362 -0.7929  0.7321
 4190SOL     OW24205   0.327   2.059   2.774  0.0627 -0.6168 -0.0705
 4190SOL    HW124206   0.400   2.002   2.797 -0.2829  0.4271  3.6789
 4190SOL    HW224207   0.371   2.126   2.722 -1.2468 -0.5449 -1.0891
 4191SOL     OW24208   4.733   1.991  17.721  0.3540 -0.1603 -0.5133
 4191SOL    HW124209   4.716   2.076   0.011  1.8076  0.7305 -1.7595
 4191SOL    HW224210   4.697   1.942   0.044 -0.8518  0.4348 -0.7196
 4192SOL     OW24211   0.316   1.732   0.016  0.0102 -0.1275 -0.3177
 4192SOL    HW124212   0.359   1.662  17.717  0.6059  0.3963 -0.5369
 4192SOL    HW224213   0.228   1.697   0.028  0.0121  0.1178  0.4412
 4193SOL     OW24214   4.611   3.006  16.482 -0.0949  0.4055  0.1074
 4193SOL    HW124215   4.636   2.938  16.420 -0.6468 -0.0060  0.3392
 4193SOL    HW224216   4.596   2.950  16.558  1.2596 -0.4991 -0.2774
 4194SOL     OW24217   2.306   0.486   0.240  0.7007  0.3850  0.1190
 4194SOL    HW124218   2.365   0.512   0.169 -0.3199  0.3745 -0.7369
 4194SOL    HW224219   2.243   0.558   0.247  0.6683  0.5985 -2.4819
 4195SOL     OW24220   3.738   3.021   5.963 -0.4789 -0.0355 -0.1595
 4195SOL    HW124221   3.687   2.953   6.007  1.1079 -1.1867 -0.0844
 4195SOL    HW224222   3.825   2.982   5.977 -0.5244 -0.3683 -0.7862
 4196SOL     OW24223   2.545   1.515   2.983 -0.4550  0.1468  0.0761
 4196SOL    HW124224   2.609   1.566   2.933  0.2783 -1.9901 -1.1149
 4196SOL    HW224225   2.585   1.502   3.069  2.2898  1.6048 -0.9580
 4197SOL     OW24226   4.199   1.654  12.769 -0.1651  0.5594  0.5170
 4197SOL    HW124227   4.242   1.702  12.698  0.7547 -1.3688 -0.2406
 4197SOL    HW224228   4.113   1.638  12.731 -0.2673  0.4259  0.8123
 4198SOL     OW24229   4.446   3.040   7.731  0.0402  0.3175  0.0168
 4198SOL    HW124230   4.470   3.072   7.645 -0.6590  0.5713 -0.0834
 4198SOL    HW224231   4.352   3.049   7.715  0.0084 -0.0875 -0.0214
 4199SOL     OW24232   2.488   4.327  10.622  0.0599  0.2197 -0.7037
 4199SOL    HW124233   2.485   4.346  10.716 -0.4743 -1.1939 -0.4331
 4199SOL    HW224234   2.399   4.345  10.591  0.6130  3.5246 -0.4176
 4200SOL     OW24235   1.015   2.970  11.369 -0.0115  0.0168  0.2531
 4200SOL    HW124236   1.079   2.973  11.440 -0.5949 -3.3935  0.9510
 4200SOL    HW224237   0.999   3.064  11.360 -0.3196  0.0656  1.3028
 4201SOL     OW24238   0.560   2.505   2.927 -0.7061  0.1631 -0.3080
 4201SOL    HW124239   0.554   2.600   2.932  1.3596  0.2102  1.0932
 4201SOL    HW224240   0.496   2.481   2.859 -1.3612  1.5274 -0.1710
 4202SOL     OW24241   4.013   1.951   2.491 -0.7049  0.0943 -0.0489
 4202SOL    HW124242   3.951   1.913   2.553 -0.1363 -0.3325  0.2605
 4202SOL    HW224243   4.022   2.040   2.524 -1.2795  0.7731 -1.7320
 4203SOL     OW24244   2.769   0.770   0.312 -0.1036 -0.3737 -0.2756
 4203SOL    HW124245   2.792   0.850   0.359 -0.6973 -1.5249  1.9543
 4203SOL    HW224246   2.815   0.712   0.373 -2.0116 -0.7046  0.8486
 4204SOL     OW24247   0.091   2.676   6.210  0.0528  0.3225 -0.3132
 4204SOL    HW124248   0.025   2.610   6.231  0.5320 -0.5555 -1.5855
 4204SOL    HW224249   0.037   2.740   6.163  1.4705  1.4392 -0.4298
 4205SOL     OW24250   0.024   3.794   7.725  0.6268  0.6725 -0.0390
 4205SOL    HW124251   0.110   3.826   7.753 -0.8900  0.6963  4.4934
 4205SOL    HW224252   0.008   3.746   7.806  3.4839 -2.5954 -1.4242
 4206SOL     OW24253   2.157   0.511  10.584  0.6193 -0.0664 -0.0834
 4206SOL    HW124254   2.224   0.459  10.628 -1.4997 -0.6872  2.4607
 4206SOL    HW224255   2.144   0.459  10.505 -1.9858 -0.5675  0.6742
 4207SOL     OW24256   2.408   0.491   6.571  1.0891  0.2673 -0.3075
 4207SOL    HW124257   2.371   0.578   6.555 -0.2386 -0.1916  0.3213
 4207SOL    HW224258   2.326   0.449   6.596 -0.2515  3.0904 -0.0078
 4208SOL     OW24259   0.914   1.026  13.832 -0.6025 -0.4942 -1.0190
 4208SOL    HW124260   0.835   0.979  13.858 -1.0558  1.4032  0.9704
 4208SOL    HW224261   0.880   1.115  13.825 -2.4574 -1.2192 -1.1033
 4209SOL     OW24262   3.846   4.707   8.634  0.3938  0.0061  0.1451
 4209SOL    HW124263   3.824   0.046   8.582 -1.1077 -1.3947 -1.2422
 4209SOL    HW224264   3.831   4.632   8.577 -1.8863  1.0678 -0.6217
 4210SOL     OW24265   2.953   2.883   3.070 -0.2854  0.1320 -0.5402
 4210SOL    HW124266   3.016   2.826   3.025  0.6235 -0.4969  1.5499
 4210SOL    HW224267   2.877   2.828   3.092  0.1890 -0.2537  0.1185
 4211SOL     OW24268   0.730   4.687  17.703  0.3954 -0.3047  0.8194
 4211SOL    HW124269   0.733   0.026  17.646  0.3482  0.0622  1.3090
 4211SOL    HW224270   0.638   4.684  17.727  0.2485 -0.4140  0.2424
 4212SOL     OW24271   1.481   0.850  15.346 -0.2230  0.2537  0.0525
 4212SOL    HW124272   1.417   0.893  15.289  0.4151  0.2330 -0.6635
 4212SOL    HW224273   1.566   0.884  15.321 -0.7084  1.8077  0.4511
 4213SOL     OW24274   0.739   4.088   3.504 -0.2551 -0.3062  0.1228
 4213SOL    HW124275   0.750   4.182   3.521 -1.5392 -0.1294 -0.0498
 4213SOL    HW224276   0.803   4.083   3.433  0.4626  1.9573  0.5895
 4214SOL     OW24277   2.893   2.886  11.009  0.2187 -0.4065 -0.0930
 4214SOL    HW124278   2.983   2.881  11.041  0.5607  1.6919 -0.7186
 4214SOL    HW224279   2.912   2.945  10.936  0.8900 -0.2018  0.2459
 4215SOL     OW24280   2.533   4.699   7.048 -0.0978 -0.1624 -0.4828
 4215SOL    HW124281   2.456   4.711   6.993  0.3251 -1.3739 -1.3372
 4215SOL    HW224282   2.608   4.709   6.990  0.3323 -2.0400 -0.2341
 4216SOL     OW24283   3.820   2.475   2.138  0.2067 -0.2330  0.3867
 4216SOL    HW124284   3.858   2.481   2.226  0.9153 -0.8375  0.1178
 4216SOL    HW224285   3.896   2.498   2.085  0.4218 -1.2772  0.2380
 4217SOL     OW24286   4.637   3.680  10.550 -0.2342 -0.6392 -0.3986
 4217SOL    HW124287   4.707   3.677  10.615 -0.4717 -0.1154 -0.1219
 4217SOL    HW224288   4.575   3.727  10.604  0.6649  2.0192 -1.6769
 4218SOL     OW24289   1.216   1.073  14.976  0.3967  0.4223  0.9480
 4218SOL    HW124290   1.250   1.072  14.887 -3.0255 -2.3399 -0.3041
 4218SOL    HW224291   1.146   1.138  14.975  0.3541  0.3507 -1.1605
 4219SOL     OW24292   3.288   2.185  10.639  0.2965 -0.5376  0.3121
 4219SOL    HW124293   3.339   2.120  10.688 -1.1860 -3.5305 -2.0844
 4219SOL    HW224294   3.199   2.163  10.666  0.2478 -1.3401 -0.4707
 4220SOL     OW24295   2.714   0.031   5.692  0.1503  1.1881 -0.5707
 4220SOL    HW124296   2.762   0.001   5.615 -0.3791 -0.7561 -0.1373
 4220SOL    HW224297   2.677   0.106   5.647  0.1265  2.1352  1.0155
 4221SOL     OW24298   3.559   3.660   2.256 -0.3525 -0.1997 -0.7678
 4221SOL    HW124299   3.650   3.689   2.254 -0.4196 -0.0179 -1.2728
 4221SOL    HW224300   3.528   3.648   2.346  0.9189 -0.1435 -0.3257
 4222SOL     OW24301   1.332   3.338  11.334 -0.3997  0.2927 -0.0887
 4222SOL    HW124302   1.405   3.328  11.272  0.4542 -1.9122  1.2666
 4222SOL    HW224303   1.377   3.384  11.404  0.8792 -2.2803  0.7997
 4223SOL     OW24304   0.820   4.033  12.814  0.1731 -0.4180  0.4821
 4223SOL    HW124305   0.794   4.058  12.902  0.1718 -1.0067  0.6473
 4223SOL    HW224306   0.778   4.103  12.764 -0.2041 -2.1321 -1.6134
 4224SOL     OW24307   4.294   4.461  12.625  0.0852  0.4259  0.3606
 4224SOL    HW124308   4.329   4.408  12.696  0.7059  0.9328  0.4435
 4224SOL    HW224309   4.296   4.551  12.657  1.8256  0.1491  1.0265
 4225SOL     OW24310   2.321   2.980   2.733 -0.6337  0.4859 -0.2682
 4225SOL    HW124311   2.326   3.073   2.758  2.1136  0.2978 -0.1621
 4225SOL    HW224312   2.232   2.976   2.696  0.1906 -1.5631 -2.0132
 4226SOL     OW24313   2.721   0.968  13.609 -0.2114 -0.5437 -0.4183
 4226SOL    HW124314   2.746   0.923  13.689 -1.2044  1.3505  0.9574
 4226SOL    HW224315   2.800   1.022  13.595 -0.9867  0.7861  0.3231
 4227SOL     OW24316   2.174   1.140   1.023  0.2316 -0.3372 -0.0366
 4227SOL    HW124317   2.252   1.100   1.060 -0.6833 -1.5291  0.6021
 4227SOL    HW224318   2.136   1.069   0.972 -1.2592  0.7600 -0.4900
 4228SOL     OW24319   1.956   2.114   2.207  0.3265  0.4286  0.2690
 4228SOL    HW124320   1.925   2.196   2.170  1.2112  0.3767 -0.5614
 4228SOL    HW224321   2.046   2.121   2.176  0.7431 -1.9190  0.9340
 4229SOL     OW24322   0.051   3.094   1.392  0.4008 -0.0284 -0.3103
 4229SOL    HW124323   4.710   3.144   1.378  0.3339  0.6871  2.5940
 4229SOL    HW224324   0.052   3.052   1.306  0.5019 -1.5033  0.4050
 4230SOL     OW24325   4.196   0.450   5.346  0.0035 -0.1401  0.2083
 4230SOL    HW124326   4.254   0.487   5.280  1.4939  0.2360  1.7641
 4230SOL    HW224327   4.250   0.453   5.424 -0.3620 -0.8523  0.4855
 4231SOL     OW24328   4.630   0.643  10.531 -0.7725 -0.1088  0.1355
 4231SOL    HW124329   4.543   0.654  10.492 -0.8664  2.1415  0.9847
 4231SOL    HW224330   4.672   0.600  10.457 -1.2991 -1.2858  0.5163
 4232SOL     OW24331   2.495   2.381   3.131  0.3892 -0.1287 -0.0744
 4232SOL    HW124332   2.535   2.299   3.161 -0.5981  0.1358  1.9695
 4232SOL    HW224333   2.530   2.393   3.043 -2.0245  0.6547 -0.9121
 4233SOL     OW24334   1.036   2.307   5.846 -0.3346 -0.3389 -0.5241
 4233SOL    HW124335   1.098   2.312   5.918  0.6123  2.5791 -1.5476
 4233SOL    HW224336   1.001   2.218   5.835  2.4363 -1.5765  0.7512
 4234SOL     OW24337   3.841   0.351  14.955  0.4341 -0.0644  0.7684
 4234SOL    HW124338   3.865   0.443  14.958 -0.0649  0.1501 -1.8918
 4234SOL    HW224339   3.923   0.310  14.925  1.0197  0.6876  1.3536
 4235SOL     OW24340   4.539   0.677  14.068 -0.5951 -0.0303  0.3960
 4235SOL    HW124341   4.454   0.634  14.078 -0.2067 -0.9448 -0.3107
 4235SOL    HW224342   4.570   0.660  14.157 -1.5114 -2.2520  0.2915
 4236SOL     OW24343   0.436   2.146   5.588 -0.4880  0.4611 -0.3649
 4236SOL    HW124344   0.482   2.119   5.668  1.1354 -0.4061 -1.5755
 4236SOL    HW224345   0.348   2.166   5.618  0.6145 -0.6154  3.6885
 4237SOL     OW24346   1.123   2.008   1.698  0.2487  0.2645  0.0534
 4237SOL    HW124347   1.209   2.038   1.728 -0.1386 -0.3677  1.8210
 4237SOL    HW224348   1.136   1.933   1.641  0.1693  2.3950 -2.7738
 4238SOL     OW24349   1.970   2.555   5.699 -0.2639 -0.4241  0.0933
 4238SOL    HW124350   1.989   2.527   5.788  1.3990  1.0375  0.1956
 4238SOL    HW224351   1.938   2.473   5.661  2.7680 -1.6141  0.1692
 4239SOL     OW24352   3.833   3.926   6.165  0.0099 -0.0923  0.6728
 4239SOL    HW124353   3.850   3.939   6.258 -0.3866  0.3207  0.6866
 4239SOL    HW224354   3.768   3.996   6.161 -1.0412 -1.1266 -0.6792
 4240SOL     OW24355   1.447   0.539  15.190 -0.8412 -0.0646 -0.3353
 4240SOL    HW124356   1.416   0.520  15.101 -2.1020  1.4610 -0.2194
 4240SOL    HW224357   1.522   0.595  15.170 -0.4913 -1.1785 -2.1041
 4241SOL     OW24358   0.058   3.678   8.561 -0.1501  0.2036 -0.3211
 4241SOL    HW124359   4.715   3.646   8.599 -0.1648  0.6547  0.0301
 4241SOL    HW224360   0.026   3.704   8.474  0.1337  1.2983 -0.1049
 4242SOL     OW24361   1.320   0.833   3.115 -0.1334  0.6544  0.3756
 4242SOL    HW124362   1.336   0.801   3.026  0.2745  0.3991  0.5396
 4242SOL    HW224363   1.403   0.876   3.135  1.3653 -0.6230 -2.9772
 4243SOL     OW24364   4.568   2.995   6.266  0.0116 -0.0420 -0.6210
 4243SOL    HW124365   4.529   3.082   6.263  0.2386  0.0738 -0.1569
 4243SOL    HW224366   4.640   2.994   6.202  0.2398  2.9312 -0.3995
 4244SOL     OW24367   0.089   0.682   6.586 -0.2060  0.9819 -0.0297
 4244SOL    HW124368   0.139   0.721   6.515 -1.1784  1.1073 -0.6400
 4244SOL    HW224369   0.123   0.592   6.594 -2.0176  0.2204 -1.0534
 4245SOL     OW24370   0.443   4.140   1.596  0.0128  0.0284  0.3125
 4245SOL    HW124371   0.506   4.208   1.575 -1.4066  0.7840 -1.3874
 4245SOL    HW224372   0.497   4.065   1.570 -2.3498 -1.0013 -1.5461
 4246SOL     OW24373   1.181   3.057   4.548  0.2006 -0.7695  0.8822
 4246SOL    HW124374   1.253   3.065   4.610 -0.2083 -0.9388  1.3702
 4246SOL    HW224375   1.114   3.105   4.595  0.5412  1.2858 -0.7189
 4247SOL     OW24376   2.831   2.020   0.826 -0.3282  0.0163  0.1362
 4247SOL    HW124377   2.861   1.941   0.781 -1.2260  0.0436 -0.5217
 4247SOL    HW224378   2.783   1.977   0.898 -1.7182  2.5286  0.6926
 4248SOL     OW24379   4.271   2.824  13.402  0.1506 -0.1635 -0.3156
 4248SOL    HW124380   4.207   2.836  13.332  1.4715  1.1447 -1.2958
 4248SOL    HW224381   4.216   2.813  13.479  2.0778  0.2047  1.1168
 4249SOL     OW24382   2.181   1.340   4.803 -0.0159  0.1817  0.5135
 4249SOL    HW124383   2.246   1.372   4.865  0.3920 -1.4405  0.9140
 4249SOL    HW224384   2.198   1.246   4.801 -1.8827 -0.1216 -1.9363
 4250SOL     OW24385   3.288   3.412   7.856 -0.0293  0.3630  0.3171
 4250SOL    HW124386   3.351   3.397   7.927 -0.1401  0.8231  0.5120
 4250SOL    HW224387   3.208   3.409   7.907 -1.2304  0.2792 -1.5740
 4251SOL     OW24388   0.272   3.170   5.875  0.4776  0.0024  0.2023
 4251SOL    HW124389   0.238   3.144   5.790 -0.5415 -1.2472  0.9943
 4251SOL    HW224390   0.316   3.086   5.888  2.0715  0.4392 -2.3677
 4252SOL     OW24391   0.425   0.851  11.998 -0.1717 -0.3839  0.3060
 4252SOL    HW124392   0.471   0.808  11.926  0.8625  0.2156  0.6209
 4252SOL    HW224393   0.494   0.889  12.052 -1.6200 -0.1077  1.9923
 4253SOL     OW24394   0.502   4.087  13.019 -0.0662  0.3952 -0.4734
 4253SOL    HW124395   0.597   4.099  13.021 -0.3161  2.2341  0.6554
 4253SOL    HW224396   0.475   4.173  13.054 -3.7520 -0.1868 -1.8876
 4254SOL     OW24397   1.930   4.515  15.993 -0.5952  0.1890  0.1534
 4254SOL    HW124398   1.940   4.438  15.936 -0.0012 -0.0414  0.5698
 4254SOL    HW224399   1.911   4.577  15.922  0.3067  1.7755  1.3208
 4255SOL     OW24400   3.641   0.630   9.396 -0.4311  0.1451  0.3917
 4255SOL    HW124401   3.721   0.675   9.424  0.7919 -1.3594 -0.6868
 4255SOL    HW224402   3.685   0.566   9.340  0.6392  1.0192  0.2237
 4256SOL     OW24403   2.726   4.707   8.899  0.2375  0.4365 -0.1575
 4256SOL    HW124404   2.706   0.062   8.892 -0.0582  0.2360 -1.8391
 4256SOL    HW224405   2.695   4.675   8.814 -1.6047 -0.8625  0.9948
 4257SOL     OW24406   2.744   1.763  11.735  1.0323  0.0205 -0.0074
 4257SOL    HW124407   2.669   1.705  11.720 -0.2880  2.1591 -1.7028
 4257SOL    HW224408   2.772   1.719  11.815  0.1176  0.6023  0.6344
 4258SOL     OW24409   1.993   2.534   3.810 -0.2584  0.0586  0.3329
 4258SOL    HW124410   1.924   2.471   3.827 -0.0874 -0.9529 -2.7463
 4258SOL    HW224411   1.941   2.611   3.788  0.0436 -0.2191 -1.3638
 4259SOL     OW24412   3.923   0.648   2.203 -0.2167 -0.3095  0.0665
 4259SOL    HW124413   3.909   0.595   2.125 -0.5415  0.2383 -0.2413
 4259SOL    HW224414   3.864   0.596   2.258 -1.8661  1.8570  0.3440
 4260SOL     OW24415   1.397   3.820   7.952 -0.4621  0.1462  0.1072
 4260SOL    HW124416   1.328   3.754   7.952 -2.7683  2.5531  2.1543
 4260SOL    HW224417   1.352   3.880   8.012  0.2344 -0.4251  1.1957
 4261SOL     OW24418   0.304   1.088   6.903  0.2147  0.1274  0.6395
 4261SOL    HW124419   0.273   1.089   6.813 -0.7864 -1.3757  0.9741
 4261SOL    HW224420   0.243   1.157   6.932  1.4945  1.2748  0.6019
 4262SOL     OW24421   3.070   0.293   7.638 -0.0945 -0.1462 -0.3893
 4262SOL    HW124422   3.015   0.224   7.674  3.0484 -2.3547  0.2385
 4262SOL    HW224423   3.116   0.324   7.716 -3.3505  0.7417  1.1461
 4263SOL     OW24424   1.289   0.087   2.102  0.1184  0.2724 -0.2297
 4263SOL    HW124425   1.248   0.158   2.053 -1.4028 -1.3681 -1.3456
 4263SOL    HW224426   1.274   0.008   2.049  0.2467 -0.4372  0.7766
 4264SOL     OW24427   1.940   3.473   3.113 -0.1826  0.3805 -0.3026
 4264SOL    HW124428   1.894   3.393   3.138  1.0691 -0.4340 -0.6375
 4264SOL    HW224429   1.961   3.444   3.025  0.4624 -1.6685  0.5317
 4265SOL     OW24430   3.707   3.510  14.654  0.0807 -0.1066  0.6966
 4265SOL    HW124431   3.633   3.457  14.624 -1.3016  2.3041 -0.1495
 4265SOL    HW224432   3.730   3.565  14.580  2.0113 -1.7224  0.0889
 4266SOL     OW24433   0.798   3.482   2.622  0.5445 -0.1580  0.0827
 4266SOL    HW124434   0.816   3.408   2.680  2.1730  0.2477  0.1068
 4266SOL    HW224435   0.887   3.507   2.596  0.0481  0.0893 -1.4167
 4267SOL     OW24436   2.976   4.549   0.007 -0.0738 -0.1699  0.5287
 4267SOL    HW124437   2.915   4.558   0.080 -1.2555  2.1212 -0.7360
 4267SOL    HW224438   3.040   4.486   0.039 -0.4641 -1.2409 -0.7985
 4268SOL     OW24439   2.625   1.646  10.243 -0.0997  0.0112  0.6190
 4268SOL    HW124440   2.703   1.615  10.289  1.4738  0.3328 -1.7940
 4268SOL    HW224441   2.659   1.697  10.169 -0.1224 -1.0775 -0.1326
 4269SOL     OW24442   3.729   2.826  11.112 -0.6125  0.0655 -0.0122
 4269SOL    HW124443   3.638   2.827  11.143 -0.8898  1.0560 -0.8301
 4269SOL    HW224444   3.778   2.887  11.167  0.0133 -2.1963  1.8883
 4270SOL     OW24445   4.721   1.992  12.679  0.6703  0.1165  0.4232
 4270SOL    HW124446   4.727   2.035  12.765 -0.5384 -0.4245  0.7928
 4270SOL    HW224447   4.736   1.900  12.702 -0.4180  0.2104  1.5388
 4271SOL     OW24448   3.453   1.029   5.332 -0.8302 -0.1443  0.7916
 4271SOL    HW124449   3.372   1.059   5.372 -0.2987  1.1006  0.9375
 4271SOL    HW224450   3.462   0.940   5.364 -0.6214 -0.4826 -0.1896
 4272SOL     OW24451   0.517   2.458   8.460  0.8170 -0.1006  0.1435
 4272SOL    HW124452   0.527   2.523   8.530 -1.2843  0.9334 -0.5260
 4272SOL    HW224453   0.575   2.488   8.390  0.9858 -2.8473 -0.9052
 4273SOL     OW24454   2.751   0.190   9.662 -0.3384 -0.5677  0.1232
 4273SOL    HW124455   2.801   0.269   9.642 -0.3591 -0.6903 -0.4103
 4273SOL    HW224456   2.697   0.228   9.731  0.3510 -1.7826  1.3323
 4274SOL     OW24457   2.866   3.768   5.177  0.1941 -0.5113  0.3147
 4274SOL    HW124458   2.816   3.813   5.246  2.6536  1.5280  0.7512
 4274SOL    HW224459   2.819   3.686   5.163 -1.0332  0.5190 -1.6198
 4275SOL     OW24460   4.417   1.863   2.159  0.1116  0.5098  0.0574
 4275SOL    HW124461   4.351   1.836   2.094 -0.0432 -0.7938  0.7599
 4275SOL    HW224462   4.371   1.944   2.181 -0.3933  0.2010  0.1473
 4276SOL     OW24463   0.107   3.872   0.073 -0.2330  0.4253 -0.3964
 4276SOL    HW124464   0.045   3.941   0.053 -0.0226 -0.1895 -3.1207
 4276SOL    HW224465   0.184   3.927   0.090 -1.1754  2.1345 -1.7212
 4277SOL     OW24466   4.106   2.784   6.413  0.0875 -0.3535 -0.3251
 4277SOL    HW124467   4.072   2.726   6.345  0.2558 -0.0869 -0.6369
 4277SOL    HW224468   4.025   2.798   6.463  0.2436  0.8593 -0.4119
 4278SOL     OW24469   3.891   1.432  12.748 -0.3125 -0.2958  0.0093
 4278SOL    HW124470   3.892   1.485  12.828  2.4524  0.3975 -0.4648
 4278SOL    HW224471   3.968   1.452  12.695  0.9412 -2.1707  1.1421
 4279SOL     OW24472   4.117   2.232   3.952 -0.0319 -0.5312 -0.2238
 4279SOL    HW124473   4.205   2.207   3.981 -0.7834 -1.2251  1.4263
 4279SOL    HW224474   4.119   2.198   3.863 -0.6368 -1.1606  0.0038
 4280SOL     OW24475   0.252   1.428   5.536  0.1126 -0.0329 -0.5653
 4280SOL    HW124476   0.192   1.491   5.495  2.3298  1.9670 -0.7722
 4280SOL    HW224477   0.213   1.345   5.513 -0.3288  0.0463 -0.1057
 4281SOL     OW24478   2.530   1.252  10.018 -0.3646 -0.2779 -0.0551
 4281SOL    HW124479   2.549   1.275   9.927  2.3402 -0.4395  0.4660
 4281SOL    HW224480   2.474   1.323  10.050 -0.5499 -0.7742  0.7194
 4282SOL     OW24481   3.083   2.589   1.220  0.8053 -0.1214 -0.4730
 4282SOL    HW124482   2.992   2.589   1.191  0.9616  1.6068 -0.9213
 4282SOL    HW224483   3.136   2.616   1.146  1.3210  1.9130  0.6272
 4283SOL     OW24484   1.971   2.278  12.113 -1.0379  0.3728 -0.0852
 4283SOL    HW124485   2.001   2.229  12.190 -1.2998 -0.9798 -0.8513
 4283SOL    HW224486   1.974   2.364  12.154  1.5312 -0.7274  2.0165
 4284SOL     OW24487   3.699   3.235   9.130 -0.5151 -0.5237 -0.0105
 4284SOL    HW124488   3.725   3.227   9.038  0.4918 -1.0799  0.3228
 4284SOL    HW224489   3.704   3.140   9.138  0.4868 -0.5840 -1.4439
 4285SOL     OW24490   3.766   2.676   7.106 -0.3359 -0.3754 -0.0185
 4285SOL    HW124491   3.790   2.763   7.074 -1.3833 -0.4121 -0.9050
 4285SOL    HW224492   3.788   2.690   7.198 -0.0389  1.4586 -0.3795
 4286SOL     OW24493   2.287   1.011  11.375  0.1970  0.3918  0.2662
 4286SOL    HW124494   2.330   0.972  11.299 -0.2439 -2.5887  1.5495
 4286SOL    HW224495   2.195   0.992  11.358  0.3982 -0.7668  0.4654
 4287SOL     OW24496   1.873   0.700   5.025  0.1295 -0.3516 -0.5125
 4287SOL    HW124497   1.837   0.723   4.939  1.6600  1.5870 -0.6159
 4287SOL    HW224498   1.934   0.773   5.028 -0.3127  0.1682 -3.9052
 4288SOL     OW24499   4.072   2.208   2.986  0.6406  0.2932 -0.3326
 4288SOL    HW124500   4.111   2.199   2.899  1.4190  1.3903 -0.0912
 4288SOL    HW224501   3.988   2.168   2.961  1.8353 -0.8953 -2.5319
 4289SOL     OW24502   3.465   0.702  16.787  0.2794  0.3604 -0.1052
 4289SOL    HW124503   3.395   0.733  16.730 -0.0069  0.4086  0.2733
 4289SOL    HW224504   3.461   0.777  16.846  1.7868 -1.0512  1.7660
 4290SOL     OW24505   0.949   0.313   5.646  0.2384 -0.1635 -0.0037
 4290SOL    HW124506   1.010   0.373   5.689  0.0431  1.5395 -2.1184
 4290SOL    HW224507   0.882   0.295   5.711  1.6619 -2.5799  0.7769
 4291SOL     OW24508   4.039   1.734  14.229  0.0005 -0.0798 -0.7157
 4291SOL    HW124509   3.955   1.723  14.183 -0.7339  2.2869  0.0337
 4291SOL    HW224510   4.026   1.682  14.309 -1.0214  0.4869 -0.5055
 4292SOL     OW24511   1.103   4.573   3.288  0.1243 -0.4237 -0.2688
 4292SOL    HW124512   1.048   4.649   3.269  0.0295 -1.0584 -2.5311
 4292SOL    HW224513   1.049   4.509   3.334  0.6510  0.8632  2.0969
 4293SOL     OW24514   1.858   2.611   7.305 -0.2565 -0.2180 -0.0041
 4293SOL    HW124515   1.776   2.564   7.318 -0.8857  0.7209 -0.6494
 4293SOL    HW224516   1.830   2.702   7.310 -2.5863 -1.0043  1.2843
 4294SOL     OW24517   0.596   1.149  12.066  0.7941  0.2568  0.0886
 4294SOL    HW124518   0.598   1.072  12.123  0.8223 -0.7162 -1.2072
 4294SOL    HW224519   0.598   1.217  12.133 -0.5671  0.6689 -0.2881
 4295SOL     OW24520   2.851   3.122  11.986 -0.0783 -0.1521 -0.2834
 4295SOL    HW124521   2.822   3.034  11.965 -1.5929  0.6337 -1.5171
 4295SOL    HW224522   2.769   3.162  12.016  0.4122 -0.7098  1.8436
 4296SOL     OW24523   3.872   3.924   2.004 -0.0928 -0.4611  0.0225
 4296SOL    HW124524   3.948   3.892   1.955  1.7002  1.3495  1.6335
 4296SOL    HW224525   3.899   3.886   2.087 -2.2856  0.1242  1.0080
 4297SOL     OW24526   0.853   1.041   2.369 -0.1104 -0.4367 -0.0688
 4297SOL    HW124527   0.786   1.003   2.426 -0.4814 -2.3682 -1.7907
 4297SOL    HW224528   0.825   1.131   2.357  0.1969 -0.5923 -2.0314
 4298SOL     OW24529   1.450   1.523   3.913 -0.1783 -0.0723 -0.6744
 4298SOL    HW124530   1.426   1.547   4.003 -2.8220  0.1839 -1.4363
 4298SOL    HW224531   1.410   1.593   3.861 -1.5700 -1.8762 -1.9885
 4299SOL     OW24532   1.785   3.845   7.118 -0.0877  0.3278 -0.3469
 4299SOL    HW124533   1.881   3.843   7.122 -0.1313  1.0275  0.9514
 4299SOL    HW224534   1.771   3.847   7.213 -0.8731 -3.0339 -0.3892
 4300SOL     OW24535   0.930   1.334   7.316 -0.1235  0.3218 -0.1945
 4300SOL    HW124536   0.942   1.255   7.368 -3.1247 -0.6518 -1.0258
 4300SOL    HW224537   1.018   1.374   7.314  0.1055 -0.0275  2.6202
 4301SOL     OW24538   1.491   4.657   9.510 -0.5804 -0.2819 -0.1460
 4301SOL    HW124539   1.435   4.580   9.521  0.1287 -0.9052 -0.8705
 4301SOL    HW224540   1.544   4.645   9.589 -0.4082  1.2322 -0.0432
 4302SOL     OW24541   2.561   3.780   3.719  0.1228 -0.3475 -0.0036
 4302SOL    HW124542   2.473   3.780   3.681 -0.4794  0.2658  1.3872
 4302SOL    HW224543   2.616   3.752   3.646  1.3351  0.7012  0.5104
 4303SOL     OW24544   4.030   2.377   6.741 -0.1382 -0.2245  0.3939
 4303SOL    HW124545   3.964   2.339   6.684  2.4007 -1.6644 -1.5982
 4303SOL    HW224546   4.050   2.458   6.693 -0.5321 -0.8335 -0.7999
 4304SOL     OW24547   0.068   0.673   5.141 -0.8651 -0.3399 -0.2187
 4304SOL    HW124548   4.734   0.725   5.103 -1.5937 -2.1825 -1.3840
 4304SOL    HW224549   0.121   0.748   5.168  0.0000 -1.0684  0.0940
 4305SOL     OW24550   1.983   2.246  17.517 -0.5953  0.0761 -0.0432
 4305SOL    HW124551   1.947   2.330  17.543  0.2705  1.0074 -1.8822
 4305SOL    HW224552   2.066   2.263  17.473 -0.5676 -1.2535 -0.5070
 4306SOL     OW24553   4.421   2.694   3.005  0.1089 -0.1208 -0.1546
 4306SOL    HW124554   4.495   2.696   2.945 -1.1430 -3.5138 -1.8256
 4306SOL    HW224555   4.345   2.682   2.948 -0.0865 -0.6585  0.2156
 4307SOL     OW24556   0.495   0.780  10.760 -0.2696  0.1994 -0.5381
 4307SOL    HW124557   0.559   0.794  10.690  0.9341 -1.4878  0.2448
 4307SOL    HW224558   0.444   0.711  10.717 -0.6248  0.6814 -0.8954
 4308SOL     OW24559   1.788   2.063  16.458 -0.8612 -0.5114 -0.6355
 4308SOL    HW124560   1.830   1.999  16.402  2.9131  0.5791  0.8839
 4308SOL    HW224561   1.781   2.016  16.541  1.3250  0.8035  0.2968
 4309SOL     OW24562   0.114   1.013   5.662  0.5873  0.2644  0.1078
 4309SOL    HW124563   0.057   0.948   5.703 -0.1086  1.7038  1.4414
 4309SOL    HW224564   0.198   0.968   5.648 -0.1184 -0.6741 -1.0634
 4310SOL     OW24565   0.075   0.406   0.356  0.0810  0.1539 -0.1984
 4310SOL    HW124566   0.167   0.426   0.340 -0.0516 -0.7256 -2.1023
 4310SOL    HW224567   0.037   0.493   0.369 -1.3144 -0.5062  0.2298
 4311SOL     OW24568   1.008   2.645   4.418  0.0692  0.2467  0.1907
 4311SOL    HW124569   1.051   2.635   4.333  1.5473  1.9986  0.7395
 4311SOL    HW224570   1.009   2.554   4.447 -0.3159  0.3784  0.6069
 4312SOL     OW24571   3.023   2.179   6.399  0.2641 -0.1179  0.1621
 4312SOL    HW124572   3.037   2.273   6.386  1.7732 -0.2268  1.1106
 4312SOL    HW224573   2.983   2.156   6.315  1.6184 -1.7015 -0.0413
 4313SOL     OW24574   1.800   0.553  16.003  0.3311 -0.0512  0.2064
 4313SOL    HW124575   1.810   0.507  16.087 -2.5642 -0.8743  0.0978
 4313SOL    HW224576   1.722   0.507  15.973 -1.0376  1.3068  1.6767
 4314SOL     OW24577   3.032   1.024   3.932 -0.3397  0.7008 -0.2376
 4314SOL    HW124578   3.004   0.933   3.928 -0.5820  0.8262 -1.2715
 4314SOL    HW224579   3.063   1.024   3.842 -0.9279  0.4186 -0.4428
 4315SOL     OW24580   3.198   2.987   2.044  0.2698 -0.4009  0.1950
 4315SOL    HW124581   3.164   2.898   2.054  1.1960 -0.7080  0.7197
 4315SOL    HW224582   3.291   2.971   2.065  0.4905  1.3179  0.4826
 4316SOL     OW24583   4.594   3.079   1.859  0.1578 -0.0868 -0.1051
 4316SOL    HW124584   4.630   3.156   1.903  1.3668  0.0832 -1.4270
 4316SOL    HW224585   4.667   3.021   1.841 -0.8194 -0.6638 -2.1622
 4317SOL     OW24586   3.181   3.125  11.331  0.2777 -0.0542  0.0321
 4317SOL    HW124587   3.154   3.162  11.247 -1.6355 -0.1523  0.5981
 4317SOL    HW224588   3.277   3.130  11.333  0.2981  0.0411 -1.1511
 4318SOL     OW24589   3.391   3.585  14.844 -0.1384  0.1394 -0.2674
 4318SOL    HW124590   3.426   3.595  14.755  1.0359  2.1706  0.4245
 4318SOL    HW224591   3.337   3.507  14.831 -0.9539  0.8084 -0.9470
 4319SOL     OW24592   2.826   3.710   3.339  0.5904 -0.1794 -0.2372
 4319SOL    HW124593   2.823   3.799   3.374  1.5088 -0.9357  1.7099
 4319SOL    HW224594   2.875   3.725   3.258 -0.6501 -0.1223 -0.9907
 4320SOL     OW24595   4.502   3.176  14.765  0.0929  0.2666  0.1478
 4320SOL    HW124596   4.560   3.103  14.783  0.6357  0.7016  0.1601
 4320SOL    HW224597   4.421   3.140  14.729  0.4387 -1.1287  0.7775
 4321SOL     OW24598   3.803   3.866   5.601 -0.6364 -0.0334 -0.1292
 4321SOL    HW124599   3.750   3.788   5.588 -1.8292  0.7592  0.0067
 4321SOL    HW224600   3.803   3.856   5.696 -0.3046 -1.6915 -0.3164
 4322SOL     OW24601   1.916   3.348   2.818  0.5498  0.0274 -0.4773
 4322SOL    HW124602   1.916   3.288   2.744 -1.0697  0.5292 -0.8794
 4322SOL    HW224603   1.824   3.369   2.835  0.7199  1.1858 -1.0198
 4323SOL     OW24604   0.427   4.632   5.572  0.4508 -0.3726 -0.0965
 4323SOL    HW124605   0.475   4.621   5.653 -0.4345  0.8934  0.6015
 4323SOL    HW224606   0.417   4.541   5.544 -0.6345 -0.6142  1.1000
 4324SOL     OW24607   3.716   3.292   4.577 -0.4258  0.2126 -0.0568
 4324SOL    HW124608   3.748   3.369   4.530  0.8614 -0.3986 -0.1884
 4324SOL    HW224609   3.631   3.323   4.607 -1.0940  1.6407 -3.4850
 4325SOL     OW24610   4.604   2.584   5.510 -0.1338  0.1255 -0.3054
 4325SOL    HW124611   4.613   2.655   5.445 -0.3165 -1.3191 -1.9242
 4325SOL    HW224612   4.634   2.518   5.447  1.5994 -0.3102  1.0057
 4326SOL     OW24613   2.273   1.999   3.308 -0.6221 -1.3223  0.0985
 4326SOL    HW124614   2.364   1.974   3.287 -0.0763  1.0631 -0.3248
 4326SOL    HW224615   2.242   2.045   3.230 -0.1976 -0.1615  0.6265
 4327SOL     OW24616   2.098   1.927   4.811  0.6008 -0.4011 -0.1633
 4327SOL    HW124617   2.165   1.930   4.743 -0.2884 -0.6276 -1.0505
 4327SOL    HW224618   2.150   1.909   4.889  1.7479 -1.4346 -1.1639
 4328SOL     OW24619   4.257   1.626   7.546  0.2235  0.3419  0.6418
 4328SOL    HW124620   4.224   1.658   7.630  1.6664  0.1479  1.2891
 4328SOL    HW224621   4.185   1.575   7.509  1.7145 -1.8777  0.7922
 4329SOL     OW24622   0.033   0.500   8.494  0.2285  0.3477  0.1560
 4329SOL    HW124623   0.020   0.520   8.402  1.2951  0.9864  0.1476
 4329SOL    HW224624   4.704   0.432   8.496 -0.9689  1.5931  3.2139
 4330SOL     OW24625   3.681   2.170  16.418 -0.1261 -0.1063 -0.0859
 4330SOL    HW124626   3.700   2.076  16.418  1.6194  0.2642  1.9011
 4330SOL    HW224627   3.747   2.212  16.473 -3.2139  3.5176  0.8532
 4331SOL     OW24628   4.269   3.951   3.247  0.1959 -0.0235 -0.2991
 4331SOL    HW124629   4.330   3.938   3.320 -0.7370 -1.5001  0.2090
 4331SOL    HW224630   4.241   4.040   3.266  2.9366  0.8807 -0.4418
 4332SOL     OW24631   1.201   3.977   8.055  0.0514 -0.8981 -0.2384
 4332SOL    HW124632   1.144   3.981   7.978 -0.9014 -1.8639  0.4138
 4332SOL    HW224633   1.142   3.997   8.128  2.0551 -1.6900  1.5913
 4333SOL     OW24634   1.426   0.368   2.840  0.1574 -0.4321  0.0215
 4333SOL    HW124635   1.485   0.440   2.819 -0.0385 -0.1986  0.2665
 4333SOL    HW224636   1.469   0.330   2.917 -2.6363 -0.7903  1.4263
 4334SOL     OW24637   1.782   2.142  17.265 -0.3112  0.0399  0.4655
 4334SOL    HW124638   1.824   2.207  17.322 -1.0082  0.9196 -0.0247
 4334SOL    HW224639   1.691   2.157  17.288 -0.6573 -0.7959 -0.3499
 4335SOL     OW24640   2.344   2.392   0.375  0.0037  0.0716 -0.1425
 4335SOL    HW124641   2.372   2.416   0.286  0.2405  0.6895  0.0995
 4335SOL    HW224642   2.426   2.413   0.420  0.4959 -2.3798  0.1024
 4336SOL     OW24643   1.536   0.415   1.849 -0.3359 -0.0741  0.3731
 4336SOL    HW124644   1.540   0.327   1.811  1.0803 -0.4611  1.4383
 4336SOL    HW224645   1.443   0.434   1.859 -0.3132  1.1986 -1.8763
 4337SOL     OW24646   1.524   2.183  16.449 -0.3848  0.0604  0.4561
 4337SOL    HW124647   1.542   2.267  16.407  2.3530 -0.6867  0.1684
 4337SOL    HW224648   1.614   2.152  16.447  0.1093  1.5689 -0.8606
 4338SOL     OW24649   1.029   3.440   1.542 -0.6548  0.2366  0.8332
 4338SOL    HW124650   1.005   3.528   1.571 -1.5987  1.1908 -2.8081
 4338SOL    HW224651   0.941   3.402   1.544 -0.5507  0.0632  1.9226
 4339SOL     OW24652   1.524   2.867   7.294  0.1997 -0.2934 -0.3084
 4339SOL    HW124653   1.596   2.869   7.232 -0.4685 -2.5260 -1.1767
 4339SOL    HW224654   1.453   2.829   7.243 -0.8786  0.0626  0.9156
 4340SOL     OW24655   0.629   1.341   6.129  0.5715 -0.3216  0.1126
 4340SOL    HW124656   0.637   1.251   6.163  1.8572  0.0560  0.8069
 4340SOL    HW224657   0.703   1.392   6.160  0.7622 -1.5018  1.5987
 4341SOL     OW24658   2.295   1.951   0.019  0.2525 -0.5202 -0.0829
 4341SOL    HW124659   2.290   2.000   0.101 -1.4271  1.4657 -1.3685
 4341SOL    HW224660   2.348   1.878   0.050 -1.8650 -2.8124 -1.9003
 4342SOL     OW24661   1.254   1.004  11.647 -0.0017  0.3650 -0.2407
 4342SOL    HW124662   1.242   0.910  11.641  0.0367  0.4605 -1.9261
 4342SOL    HW224663   1.292   1.025  11.562  0.2921 -0.6781 -0.3539
 4343SOL     OW24664   2.399   0.203   4.001 -0.5327 -0.2124  0.7314
 4343SOL    HW124665   2.342   0.278   3.980 -1.3709 -0.9997  0.1827
 4343SOL    HW224666   2.413   0.223   4.093  0.6092  1.5324  0.1755
 4344SOL     OW24667   1.435   4.193   5.221 -0.0464  0.2980  0.2856
 4344SOL    HW124668   1.491   4.115   5.221  0.1485  0.4303  1.2544
 4344SOL    HW224669   1.498   4.252   5.180 -0.2027  0.4642  0.2843
 4345SOL     OW24670   3.061   3.178   3.530 -0.2469 -0.0436  0.8602
 4345SOL    HW124671   3.040   3.110   3.466  0.3164  0.6580 -0.0694
 4345SOL    HW224672   3.004   3.248   3.496 -1.1342  0.2940  3.0700
 4346SOL     OW24673   3.090   4.612   0.684 -0.0889 -0.0633 -0.2192
 4346SOL    HW124674   3.132   4.529   0.659  0.1980  0.2342 -0.7289
 4346SOL    HW224675   3.012   4.581   0.730 -0.0041  2.0709  1.3652
 4347SOL     OW24676   0.605   0.549   2.303 -0.3720 -0.1033 -0.0967
 4347SOL    HW124677   0.574   0.464   2.271  0.7826 -0.0794 -1.3342
 4347SOL    HW224678   0.685   0.536   2.354 -0.9267 -1.9163  0.3129
 4348SOL     OW24679   4.698   3.513  12.257 -0.4779  0.2479 -0.0279
 4348SOL    HW124680   4.644   3.471  12.325  1.0318 -0.8157  0.5092
 4348SOL    HW224681   4.630   3.534  12.193  1.0430 -1.0074 -2.0644
 4349SOL     OW24682   1.502   2.964   1.740 -0.0848 -0.6785 -0.1862
 4349SOL    HW124683   1.550   3.006   1.812  0.5872  0.7038 -1.4456
 4349SOL    HW224684   1.432   2.921   1.789 -0.4958  1.9597  1.5997
 4350SOL     OW24685   1.783   3.757   9.484 -0.3491  0.0691 -0.6110
 4350SOL    HW124686   1.818   3.761   9.573  1.3812  2.2291 -1.3907
 4350SOL    HW224687   1.753   3.843   9.453  0.3075  0.3478 -0.4873
 4351SOL     OW24688   4.068   4.665   3.594 -0.2997 -0.1304  0.3751
 4351SOL    HW124689   4.096   4.730   3.659  0.3064 -0.6904  0.6653
 4351SOL    HW224690   3.974   4.665   3.610 -0.0876  0.9103  1.6673
 4352SOL     OW24691   3.060   4.459   8.292 -0.5368 -0.3038 -0.7208
 4352SOL    HW124692   3.043   4.365   8.291  0.0739 -0.4580  1.9415
 4352SOL    HW224693   3.022   4.489   8.209 -1.5261 -0.2795 -0.2675
 4353SOL     OW24694   1.785   1.060  13.569 -0.3561 -0.0892 -0.5920
 4353SOL    HW124695   1.748   1.148  13.576  2.1545  0.9907 -0.6732
 4353SOL    HW224696   1.802   1.041  13.661 -3.0322  1.6327  0.2336
 4354SOL     OW24697   1.746   2.727  15.122  0.3518 -0.1135  0.3139
 4354SOL    HW124698   1.700   2.663  15.177  0.4932 -0.8481 -0.4281
 4354SOL    HW224699   1.695   2.806  15.144  0.7811 -0.4226  2.4948
 4355SOL     OW24700   1.949   1.365  13.495  0.2000 -0.6796 -0.0222
 4355SOL    HW124701   1.872   1.398  13.449 -0.4691 -0.5354  1.1882
 4355SOL    HW224702   2.015   1.372  13.425  0.7812 -0.1456  0.5798
 4356SOL     OW24703   2.110   0.946   4.163  0.0466 -0.1787  0.4978
 4356SOL    HW124704   2.060   0.985   4.235 -2.0951 -1.6458 -0.1769
 4356SOL    HW224705   2.135   1.022   4.111 -1.3888  0.5940  0.9559
 4357SOL     OW24706   1.559   2.310   3.522  0.3313 -0.1133  0.1510
 4357SOL    HW124707   1.546   2.386   3.579 -0.2340 -0.0802 -0.0193
 4357SOL    HW224708   1.613   2.254   3.577  1.4212  1.1900  0.4167
 4358SOL     OW24709   4.486   1.973   4.888 -0.0062 -0.3412 -0.4540
 4358SOL    HW124710   4.485   2.066   4.865 -1.2966  0.1024  1.3609
 4358SOL    HW224711   4.529   1.938   4.810 -1.6295 -0.6585 -1.2086
 4359SOL     OW24712   4.396   4.685  11.428 -0.5496 -0.7548 -0.6043
 4359SOL    HW124713   4.459   4.680  11.355 -0.4298  1.0611 -0.6061
 4359SOL    HW224714   4.382   4.594  11.454  0.8456 -0.8115 -0.0555
 4360SOL     OW24715   0.631   3.170   4.104  0.3232  0.3107 -0.1967
 4360SOL    HW124716   0.616   3.075   4.100  0.4016  0.2881  0.0809
 4360SOL    HW224717   0.554   3.204   4.150  0.4409  1.5098 -0.8793
 4361SOL     OW24718   4.364   3.881   1.149 -0.7731 -0.5216 -0.9574
 4361SOL    HW124719   4.420   3.844   1.081 -1.3462 -1.3484 -0.9834
 4361SOL    HW224720   4.331   3.794   1.171  0.2242 -0.6560 -0.0435
 4362SOL     OW24721   3.778   2.623   1.016  0.1716  0.2813 -0.4580
 4362SOL    HW124722   3.764   2.657   0.927  1.1574  0.9639 -0.3450
 4362SOL    HW224723   3.802   2.707   1.054  1.1266 -0.2339  0.0758
 4363SOL     OW24724   4.249   1.025   6.659 -0.0787 -0.2929 -0.0948
 4363SOL    HW124725   4.272   1.117   6.673 -1.5942  0.3446 -1.7754
 4363SOL    HW224726   4.324   0.978   6.623 -1.3715 -2.6545  0.2850
 4364SOL     OW24727   2.749   0.232   5.459 -0.2806  0.2742  0.7096
 4364SOL    HW124728   2.713   0.166   5.400 -1.5029  0.1810  1.5555
 4364SOL    HW224729   2.673   0.286   5.479 -1.7709 -0.8448 -1.9558
 4365SOL     OW24730   2.407   1.350   0.173  0.1071  0.0963  0.3355
 4365SOL    HW124731   2.404   1.388   0.261  0.1321  0.4144  0.2000
 4365SOL    HW224732   2.416   1.428   0.117  0.7898  0.7308  1.3120
 4366SOL     OW24733   3.603   3.342   2.452 -0.0337 -0.0624  0.1679
 4366SOL    HW124734   3.516   3.352   2.491 -0.7695  0.4911 -1.6038
 4366SOL    HW224735   3.661   3.306   2.519  0.2152 -1.6978 -0.9060
 4367SOL     OW24736   0.228   2.687  17.138 -0.0967  0.0730  0.7597
 4367SOL    HW124737   0.272   2.769  17.113  2.3645 -1.6653 -0.6290
 4367SOL    HW224738   0.294   2.636  17.184  0.1534  0.0997  0.4285
 4368SOL     OW24739   1.934   0.640   7.500  0.2846  1.0028  0.0400
 4368SOL    HW124740   1.974   0.554   7.487 -0.9811  0.1759  1.5946
 4368SOL    HW224741   1.940   0.643   7.596 -1.6442 -0.6199  0.1952
 4369SOL     OW24742   2.162   4.163   9.202 -0.0696  0.0657 -0.1593
 4369SOL    HW124743   2.242   4.209   9.229 -1.5500  1.5803  1.7063
 4369SOL    HW224744   2.108   4.240   9.187 -1.9522 -1.3242 -0.4413
 4370SOL     OW24745   3.385   2.391   9.083 -0.1018 -0.2131 -0.3459
 4370SOL    HW124746   3.392   2.360   8.993  1.9554 -0.0770 -0.2496
 4370SOL    HW224747   3.477   2.412   9.098 -0.2041 -0.0604  0.0836
 4371SOL     OW24748   4.714   2.149   1.904 -0.0597  0.3382 -0.4769
 4371SOL    HW124749   0.015   2.164   1.990  1.2226 -2.6473 -0.5317
 4371SOL    HW224750   0.040   2.093   1.861 -0.4656  0.3649 -1.1126
 4372SOL     OW24751   1.081   1.811   0.919 -0.1162 -0.1122  0.0507
 4372SOL    HW124752   1.066   1.901   0.890 -1.0331  0.5931  2.7569
 4372SOL    HW224753   1.090   1.761   0.837 -1.2797 -0.4980  0.1528
 4373SOL     OW24754   4.617   4.401   2.602  0.4649 -0.0669 -0.2019
 4373SOL    HW124755   4.637   4.474   2.661 -0.5105  0.6866 -0.7907
 4373SOL    HW224756   4.597   4.328   2.660  1.7299 -1.0626 -1.0068
 4374SOL     OW24757   3.079   1.311   4.661  0.2652 -0.0893  0.4826
 4374SOL    HW124758   3.004   1.345   4.709 -0.6907 -2.7442  0.8463
 4374SOL    HW224759   3.028   1.294   4.581 -0.3708 -0.4863  0.9687
 4375SOL     OW24760   3.167   4.723   9.580 -0.0828  0.4365 -0.3380
 4375SOL    HW124761   3.251   0.025   9.601 -0.5813  0.2503  1.9898
 4375SOL    HW224762   3.194   4.634   9.556 -0.3978 -0.6569  3.3225
 4376SOL     OW24763   3.530   1.390   8.106  0.3372 -0.2138  1.1223
 4376SOL    HW124764   3.439   1.398   8.078  0.8956  0.5690 -0.4795
 4376SOL    HW224765   3.547   1.306   8.064  0.3591 -0.0411  0.7791
 4377SOL     OW24766   3.903   1.108   5.949 -0.0754  0.2560  0.2530
 4377SOL    HW124767   3.815   1.136   5.974 -0.6013  0.0094 -1.3150
 4377SOL    HW224768   3.920   1.201   5.935  2.6602 -0.6385 -2.4684
 4378SOL     OW24769   3.529   2.350   8.161 -0.1447 -0.5334  0.0277
 4378SOL    HW124770   3.623   2.361   8.145  0.1205 -1.7971  0.7185
 4378SOL    HW224771   3.496   2.439   8.172  0.1090 -0.2881 -1.1401
 4379SOL     OW24772   0.335   1.086   2.873 -0.0855  0.0538 -0.0963
 4379SOL    HW124773   0.395   1.014   2.896  0.2618  0.3530 -0.0610
 4379SOL    HW224774   0.278   1.033   2.817 -0.1839  1.3420 -1.2225
 4380SOL     OW24775   0.234   2.316   5.147 -0.1251  0.2295  0.2610
 4380SOL    HW124776   0.266   2.273   5.068 -0.5275  4.0426 -1.9498
 4380SOL    HW224777   0.260   2.251   5.212  0.1722 -0.7039 -0.8005
 4381SOL     OW24778   4.320   1.409  16.789  0.5380  0.4760 -0.2129
 4381SOL    HW124779   4.305   1.414  16.883 -1.0538  2.5888 -0.5546
 4381SOL    HW224780   4.362   1.325  16.774 -0.9288 -0.5529  1.5899
 4382SOL     OW24781   1.120   1.845  11.597 -0.6075 -0.1915 -0.0671
 4382SOL    HW124782   1.087   1.909  11.660  0.0450  1.4816 -1.4313
 4382SOL    HW224783   1.076   1.762  11.618  0.2973 -0.6714 -0.0693
 4383SOL     OW24784   4.402   3.878   5.470 -0.1351  0.7492  0.1037
 4383SOL    HW124785   4.345   3.802   5.460  0.2943  0.5448 -0.8332
 4383SOL    HW224786   4.433   3.871   5.560 -0.2273  0.4016  0.1092
 4384SOL     OW24787   0.076   2.147   1.578 -0.0896  0.7557 -0.2779
 4384SOL    HW124788   0.075   2.096   1.659  0.2536  0.7712 -0.2606
 4384SOL    HW224789   0.106   2.077   1.520 -1.8696 -1.3946  1.4294
 4385SOL     OW24790   3.831   2.326   8.647  0.8438 -0.7337 -0.1057
 4385SOL    HW124791   3.920   2.340   8.617  1.9157 -2.2540  2.2971
 4385SOL    HW224792   3.802   2.248   8.600  1.3189  0.9242 -3.0873
 4386SOL     OW24793   3.512   3.506   4.924 -0.3879  0.7124 -0.4935
 4386SOL    HW124794   3.420   3.478   4.921  0.0603 -0.6270 -1.9306
 4386SOL    HW224795   3.546   3.429   4.970 -1.3065  0.8252  0.3724
 4387SOL     OW24796   0.942   2.447   3.255  0.2818  0.1282  0.0670
 4387SOL    HW124797   0.918   2.419   3.167 -0.2639 -0.8433  0.5268
 4387SOL    HW224798   0.856   2.442   3.296  0.9452  0.7976  1.5823
 4388SOL     OW24799   4.111   3.927   6.088  0.4752 -0.2598 -0.0442
 4388SOL    HW124800   4.146   3.838   6.087 -1.3431 -0.9808 -0.1463
 4388SOL    HW224801   4.023   3.928   6.125  0.0082 -0.4638 -1.1753
 4389SOL     OW24802   0.676   4.510   1.533 -0.3752  0.3777  0.2970
 4389SOL    HW124803   0.729   4.527   1.611 -0.6700 -2.7174  1.1496
 4389SOL    HW224804   0.679   4.414   1.531 -1.8524  0.3508 -0.3974
 4390SOL     OW24805   4.077   1.726   2.345  0.6931  0.0542  0.6091
 4390SOL    HW124806   4.139   1.677   2.400  0.5053 -0.8954 -0.0313
 4390SOL    HW224807   4.059   1.805   2.397 -0.6368  0.4172 -0.4026
 4391SOL     OW24808   3.593   4.736  17.393  0.1644  0.9152 -0.1678
 4391SOL    HW124809   3.512   0.040  17.363 -2.2935 -2.5990  1.6508
 4391SOL    HW224810   3.591   4.655  17.342  0.5881 -0.4123  1.9563
 4392SOL     OW24811   1.939   3.075   2.914 -0.5913 -0.4575 -0.1863
 4392SOL    HW124812   1.982   3.036   2.989  1.9256  0.6716 -1.0360
 4392SOL    HW224813   1.926   3.166   2.943 -0.9085 -0.1344 -1.3177
 4393SOL     OW24814   4.260   2.179   8.981 -0.2100  0.1155  0.2019
 4393SOL    HW124815   4.236   2.186   8.889 -1.2754 -1.7662  0.3232
 4393SOL    HW224816   4.171   2.201   9.010 -0.6083 -0.8941 -0.2524
 4394SOL     OW24817   1.584   3.211   4.706  0.5198  0.2726  0.3187
 4394SOL    HW124818   1.497   3.175   4.693  0.5647  0.0624  0.5946
 4394SOL    HW224819   1.579   3.244   4.796  1.8323 -0.2434  0.5824
 4395SOL     OW24820   2.485   0.489  10.488 -0.0371  0.0839 -0.1723
 4395SOL    HW124821   2.435   0.420  10.531  0.2654 -0.3475 -0.5083
 4395SOL    HW224822   2.541   0.438  10.430 -2.5417 -0.1233 -2.4309
 4396SOL     OW24823   2.242   1.768   7.363 -0.4776 -0.0064 -0.3013
 4396SOL    HW124824   2.312   1.739   7.305  1.7064 -0.2011  2.4041
 4396SOL    HW224825   2.258   1.856   7.397  1.1024 -0.3484 -0.1459
 4397SOL     OW24826   0.175   0.628  11.316 -0.2715  0.0820  0.2090
 4397SOL    HW124827   0.100   0.685  11.334 -0.2266 -0.0813  0.9142
 4397SOL    HW224828   0.174   0.632  11.221 -1.5162  0.7108  0.2394
 4398SOL     OW24829   3.722   4.532  15.570 -0.3632 -0.0090  0.2526
 4398SOL    HW124830   3.740   4.447  15.530  1.6614  0.2881  0.5572
 4398SOL    HW224831   3.629   4.531  15.594 -0.7456 -3.1487 -1.4251
 4399SOL     OW24832   3.545   0.687   3.678  0.6433  0.3077  0.1526
 4399SOL    HW124833   3.525   0.623   3.747  1.7648 -0.4233 -0.1997
 4399SOL    HW224834   3.569   0.620   3.614  0.7909  1.2139 -0.7455
 4400SOL     OW24835   3.182   4.353   8.007  0.1181 -0.1245  0.2845
 4400SOL    HW124836   3.150   4.442   7.997 -0.1415 -0.0315  1.9836
 4400SOL    HW224837   3.115   4.320   8.067 -1.0929  1.7618 -0.0568
 4401SOL     OW24838   1.101   3.319  12.818  0.0737 -0.3390  0.1196
 4401SOL    HW124839   1.030   3.377  12.791  1.4213  0.9525 -0.6181
 4401SOL    HW224840   1.085   3.318  12.913 -0.8328 -0.8058 -0.0370
 4402SOL     OW24841   0.409   1.221   1.032  0.1378 -1.2287 -0.0150
 4402SOL    HW124842   0.412   1.231   0.937  0.4136 -0.6316  0.0573
 4402SOL    HW224843   0.345   1.291   1.046  0.5224 -0.9891  0.5494
 4403SOL     OW24844   1.673   2.465   6.955  0.1815 -0.5740 -0.0082
 4403SOL    HW124845   1.741   2.406   6.988 -2.1743 -3.4374 -0.1896
 4403SOL    HW224846   1.706   2.467   6.865  2.3636 -1.1120  0.7642
 4404SOL     OW24847   0.083   3.062   7.137 -0.1293 -0.6136 -0.5588
 4404SOL    HW124848   0.060   3.111   7.216 -0.4927  0.4432 -1.3204
 4404SOL    HW224849   0.013   2.998   7.126  0.1267 -1.0662  0.3897
 4405SOL     OW24850   0.520   3.672  16.586 -0.0124 -0.3470  0.2015
 4405SOL    HW124851   0.475   3.694  16.667  1.7065  0.7316  0.8536
 4405SOL    HW224852   0.603   3.721  16.591 -0.1782 -0.0965  0.5202
 4406SOL     OW24853   0.989   1.522  12.132 -0.0011  0.1767  0.6279
 4406SOL    HW124854   0.938   1.551  12.056 -0.1030 -0.8674  0.3024
 4406SOL    HW224855   1.051   1.595  12.130  1.4396 -1.0678 -0.1106
 4407SOL     OW24856   3.542   4.084   1.059  0.1272 -0.0851  0.4251
 4407SOL    HW124857   3.575   4.169   1.087 -1.2804  0.2313  1.1394
 4407SOL    HW224858   3.457   4.080   1.103  0.8932 -0.3458  1.8968
 4408SOL     OW24859   0.765   1.315   2.343 -0.3815 -0.3954 -0.0073
 4408SOL    HW124860   0.712   1.348   2.416  0.6472 -0.4326  0.7536
 4408SOL    HW224861   0.763   1.397   2.294 -0.2779  0.4696  1.4048
 4409SOL     OW24862   0.738   2.837   8.537  0.7108 -0.1522 -0.5268
 4409SOL    HW124863   0.764   2.918   8.492  4.7013 -1.5834 -0.7303
 4409SOL    HW224864   0.642   2.833   8.533  0.6817 -0.1818  0.1644
 4410SOL     OW24865   1.389   3.908   5.059  0.3420 -0.2266 -0.0671
 4410SOL    HW124866   1.360   3.920   4.968  0.6654 -1.2285 -0.3090
 4410SOL    HW224867   1.476   3.948   5.061 -0.7670  2.1479  1.3027
 4411SOL     OW24868   1.729   3.974   5.743 -0.7239 -0.0600 -0.2198
 4411SOL    HW124869   1.694   3.910   5.804 -1.8782  0.6469 -0.1290
 4411SOL    HW224870   1.811   4.005   5.781  0.3851 -0.9494 -1.9125
 4412SOL     OW24871   3.279   0.373   4.021  0.5096 -0.1874  0.3935
 4412SOL    HW124872   3.278   0.329   4.107  0.1968 -0.3978  0.2824
 4412SOL    HW224873   3.311   0.301   3.967  4.1135  1.6938  0.0090
 4413SOL     OW24874   2.952   3.481   6.147 -0.1076 -0.5869 -0.2756
 4413SOL    HW124875   2.957   3.571   6.179 -1.7472  0.1567 -2.1811
 4413SOL    HW224876   2.906   3.445   6.223 -2.3452  0.7009 -1.0360
 4414SOL     OW24877   0.441   1.325   5.390  0.3782  0.0474  0.2382
 4414SOL    HW124878   0.378   1.396   5.408  1.6158  1.3407 -0.5066
 4414SOL    HW224879   0.464   1.303   5.480 -0.0346  4.0596  1.3540
 4415SOL     OW24880   1.748   1.179   7.639  0.2481  0.8954 -0.5271
 4415SOL    HW124881   1.740   1.266   7.601  0.3899  1.8252  1.6149
 4415SOL    HW224882   1.809   1.133   7.581  1.1887 -0.8346  1.8575
 4416SOL     OW24883   0.475   0.438   6.442  0.3132 -0.2614  0.0780
 4416SOL    HW124884   0.461   0.379   6.368 -0.3086  0.9654 -0.7848
 4416SOL    HW224885   0.522   0.378   6.499 -0.0450 -1.6376 -1.0591
 4417SOL     OW24886   1.848   1.237   3.742  0.4106  0.4112  0.4485
 4417SOL    HW124887   1.873   1.281   3.823 -2.2357  1.3759  0.7691
 4417SOL    HW224888   1.829   1.320   3.698 -0.5753  1.1900  2.3189
 4418SOL     OW24889   3.843   2.106   3.940  0.1690 -0.4588 -0.5412
 4418SOL    HW124890   3.930   2.067   3.938 -0.2722 -1.3310 -2.6302
 4418SOL    HW224891   3.811   2.076   4.025  0.7774 -0.9643 -0.4951
 4419SOL     OW24892   0.464   2.877   8.441  0.2921 -0.0961 -0.2563
 4419SOL    HW124893   0.488   2.837   8.357  0.2236 -0.7007  0.0057
 4419SOL    HW224894   0.370   2.860   8.447 -0.6084  4.5134 -1.9390
 4420SOL     OW24895   4.412   4.093   1.735 -0.8015  0.1242  0.3440
 4420SOL    HW124896   4.368   4.169   1.697  0.4924  1.2450  1.1002
 4420SOL    HW224897   4.494   4.135   1.760  0.2237 -1.3019 -0.6628
 4421SOL     OW24898   3.338   0.805   6.070 -0.0715  0.2578 -0.2334
 4421SOL    HW124899   3.298   0.718   6.070 -0.4554  0.4453  1.3889
 4421SOL    HW224900   3.406   0.814   6.137 -0.4600  0.6714  0.1008
 4422SOL     OW24901   0.647   2.467   5.256  0.5271 -0.1278  0.1145
 4422SOL    HW124902   0.640   2.407   5.182  0.3709  2.1337 -1.7101
 4422SOL    HW224903   0.725   2.516   5.229 -0.5936  1.5329 -0.1314
 4423SOL     OW24904   0.735   4.459   7.844 -0.5461  0.2979  0.0969
 4423SOL    HW124905   0.710   4.425   7.930  0.7766  0.2263  0.4503
 4423SOL    HW224906   0.646   4.485   7.820 -0.4306  0.7301  0.1379
 4424SOL     OW24907   1.148   2.242   8.433  0.1391 -0.0162 -0.1340
 4424SOL    HW124908   1.180   2.202   8.513  1.6725 -0.6833 -1.0822
 4424SOL    HW224909   1.091   2.308   8.472  0.3628 -0.0992  0.3256
 4425SOL     OW24910   1.322   1.440   3.326  0.8208  0.0909  0.1308
 4425SOL    HW124911   1.235   1.423   3.361  0.4092  0.4248 -0.7193
 4425SOL    HW224912   1.326   1.376   3.255 -2.9870  1.9742 -1.8134
 4426SOL     OW24913   1.325   4.080   4.563 -0.0213 -0.2546  0.1968
 4426SOL    HW124914   1.327   4.172   4.536 -1.5234  0.0319  1.0201
 4426SOL    HW224915   1.240   4.075   4.607 -0.0532 -1.6673 -0.0166
 4427SOL     OW24916   4.486   3.290  14.423 -0.2270 -0.2522 -0.4059
 4427SOL    HW124917   4.477   3.304  14.329  0.0220 -2.7561 -0.8015
 4427SOL    HW224918   4.405   3.334  14.446 -0.2964  0.6394 -2.4071
 4428SOL     OW24919   3.085   3.225   1.509 -0.0302  0.1106  0.1872
 4428SOL    HW124920   3.155   3.258   1.565  0.1714  1.3578 -0.7994
 4428SOL    HW224921   3.005   3.236   1.562  0.3299  0.7942  0.5838
 4429SOL     OW24922   4.613   0.603   8.725 -0.1121  0.0722  0.1613
 4429SOL    HW124923   4.679   0.576   8.662 -1.7062 -3.4787  0.0149
 4429SOL    HW224924   4.603   0.698   8.724  1.2471  0.2339  1.6729
 4430SOL     OW24925   4.315   0.678   3.941  0.4508  0.6129  0.1579
 4430SOL    HW124926   4.341   0.730   3.865 -1.5382  0.0126 -0.9020
 4430SOL    HW224927   4.363   0.716   4.015  1.4141  2.2384 -1.3040
 4431SOL     OW24928   2.253   3.363   8.258 -0.0809 -0.2835  0.0198
 4431SOL    HW124929   2.302   3.379   8.339  2.3609 -2.3643 -1.0499
 4431SOL    HW224930   2.167   3.329   8.283 -1.4963  2.8549 -0.5296
 4432SOL     OW24931   4.365   0.666   6.469 -0.4257  0.4360  0.0116
 4432SOL    HW124932   4.279   0.630   6.491 -0.2853 -1.0716 -2.0107
 4432SOL    HW224933   4.357   0.760   6.488 -1.0197  0.3797  0.0212
 4433SOL     OW24934   1.763   0.347   1.650  0.2651 -0.1198  0.2706
 4433SOL    HW124935   1.769   0.421   1.710  3.5805  0.0956 -0.3683
 4433SOL    HW224936   1.675   0.361   1.614 -0.0044  0.3679  1.1081
 4434SOL     OW24937   2.351   0.798   3.621 -0.2696 -0.0212  0.3039
 4434SOL    HW124938   2.372   0.718   3.572 -0.5758 -0.0792  0.2660
 4434SOL    HW224939   2.374   0.767   3.708  1.1524  3.7313  1.2544
 4435SOL     OW24940   3.374   1.329   5.275  0.2650  0.8454 -0.3003
 4435SOL    HW124941   3.369   1.326   5.180 -1.2636  1.9221 -0.2493
 4435SOL    HW224942   3.405   1.240   5.292  1.7875  1.4345  0.0621
 4436SOL     OW24943   1.475   0.060  17.553  0.4594  0.0147 -0.0249
 4436SOL    HW124944   1.545   0.116  17.586 -1.4909  2.2773  0.2348
 4436SOL    HW224945   1.391   0.100  17.574 -0.0987  0.5033 -3.1946
 4437SOL     OW24946   0.051   2.823   3.420  0.1851 -0.0874  0.5865
 4437SOL    HW124947   0.141   2.829   3.452  0.9267  3.1511 -2.2316
 4437SOL    HW224948   0.065   2.778   3.337 -1.4331  2.1857 -0.8998
 4438SOL     OW24949   3.135   0.624   7.867  0.1207  0.2734 -0.0897
 4438SOL    HW124950   3.148   0.679   7.790 -1.2572  0.9667  0.1602
 4438SOL    HW224951   3.142   0.691   7.935 -0.8080 -0.4176  0.6761
 4439SOL     OW24952   4.613   0.323   1.812  0.2911  0.2593  0.3893
 4439SOL    HW124953   4.537   0.325   1.870 -0.0459  0.3144 -0.0524
 4439SOL    HW224954   4.598   0.391   1.746  2.3922 -2.2935 -2.7243
 4440SOL     OW24955   2.957   3.569   4.513 -0.3162  0.9832  0.5138
 4440SOL    HW124956   2.908   3.567   4.431 -1.5513  0.0874  1.2792
 4440SOL    HW224957   2.889   3.539   4.574 -0.9286  0.8696 -0.2146
 4441SOL     OW24958   1.581   4.539   4.833 -0.1624  0.0476 -0.0086
 4441SOL    HW124959   1.519   4.598   4.876 -1.1031 -1.9163  1.3303
 4441SOL    HW224960   1.527   4.462   4.813  0.0190  0.7268 -3.2015
 4442SOL     OW24961   2.713   4.687   6.851  0.3326  0.7830  0.2915
 4442SOL    HW124962   2.789   4.640   6.817 -0.4340 -0.3957  0.2173
 4442SOL    HW224963   2.689   4.736   6.772 -1.5918 -2.4304 -1.0845
 4443SOL     OW24964   1.257   3.384   2.728  0.0816  0.2861  0.4257
 4443SOL    HW124965   1.302   3.372   2.644 -0.2008  1.4020  0.1121
 4443SOL    HW224966   1.228   3.298   2.759 -0.4256  0.1596 -0.4024
 4444SOL     OW24967   4.723   3.570   7.275 -0.4548 -0.2329  0.2176
 4444SOL    HW124968   0.037   3.643   7.242  1.6646 -1.9689 -0.2770
 4444SOL    HW224969   4.712   3.589   7.369 -0.2734 -3.6818  0.9380
 4445SOL     OW24970   2.526   1.919  15.343  0.3782  0.6219  0.5642
 4445SOL    HW124971   2.519   1.980  15.269  3.1356  0.9441  0.5854
 4445SOL    HW224972   2.461   1.858  15.308  1.8226  0.0831 -1.1886
 4446SOL     OW24973   4.374   4.435   7.639 -0.0444  0.1591 -0.2996
 4446SOL    HW124974   4.312   4.454   7.710  0.6225 -0.6409  0.5079
 4446SOL    HW224975   4.324   4.376   7.583  0.5880  0.8979 -1.6435
 4447SOL     OW24976   3.049   4.016   9.091  0.1155  0.2074 -0.1486
 4447SOL    HW124977   2.998   3.952   9.141  1.0425  0.3876  1.0336
 4447SOL    HW224978   3.052   4.087   9.155 -0.6450 -0.4860  0.6591
 4448SOL     OW24979   0.811   3.292   3.353  0.2370 -0.4253 -1.2041
 4448SOL    HW124980   0.737   3.332   3.399 -0.1188 -0.4214 -1.7936
 4448SOL    HW224981   0.881   3.320   3.412 -0.7981  2.7404 -1.5023
 4449SOL     OW24982   4.385   0.399   1.445 -0.1027 -0.3265 -0.4331
 4449SOL    HW124983   4.296   0.371   1.469  0.0723  0.4592  1.1632
 4449SOL    HW224984   4.374   0.477   1.392  0.4208  0.2661  0.3401
 4450SOL     OW24985   0.280   2.341   6.186 -0.0295 -0.0351  0.7317
 4450SOL    HW124986   0.375   2.344   6.185 -0.1030  0.7254 -3.3346
 4450SOL    HW224987   0.256   2.416   6.132 -0.9396 -1.4706 -0.8669
 4451SOL     OW24988   3.866   3.105   2.231  0.4322 -0.1568 -0.6944
 4451SOL    HW124989   3.954   3.068   2.241  1.5142  2.4745 -0.5368
 4451SOL    HW224990   3.881   3.196   2.253  0.0115 -0.3175  0.2324
 4452SOL     OW24991   1.216   4.307   5.101 -0.6212  0.0537  0.3188
 4452SOL    HW124992   1.309   4.288   5.107  0.0100  3.2475  0.9084
 4452SOL    HW224993   1.206   4.298   5.006 -0.0150  1.0170  0.1596
 4453SOL     OW24994   4.536   4.325   7.826 -0.3526 -0.3787  0.0898
 4453SOL    HW124995   4.483   4.356   7.753 -0.8047 -1.8280 -0.1987
 4453SOL    HW224996   4.585   4.252   7.787  2.1772  2.2226 -1.5899
 4454SOL     OW24997   3.323   0.411   7.055 -0.6128  0.5828 -0.5165
 4454SOL    HW124998   3.305   0.391   6.964 -0.9824 -2.4076  0.2203
 4454SOL    HW224999   3.396   0.350   7.066 -1.5659 -0.7811 -1.9188
 4455SOL     OW25000   4.413   4.204  10.377  0.1698  0.5632 -0.3956
 4455SOL    HW125001   4.423   4.132  10.440 -0.8760 -0.1191 -0.9927
 4455SOL    HW225002   4.330   4.184  10.332  0.2035 -0.5859  0.0463
 4456SOL     OW25003   2.707   2.709   2.987  0.3354  0.4870  0.1678
 4456SOL    HW125004   2.699   2.697   3.081 -0.5388  1.8077  0.2577
 4456SOL    HW225005   2.649   2.782   2.966 -0.5331 -0.3951 -0.5002
 4457SOL     OW25006   2.036   1.861   7.044  0.1387 -0.2944 -0.0084
 4457SOL    HW125007   1.974   1.930   7.022 -0.1828  0.2003  2.4093
 4457SOL    HW225008   2.028   1.799   6.972  2.1466 -1.9469  1.2010
 4458SOL     OW25009   3.290   2.964   7.869  0.0705  0.8780  0.1347
 4458SOL    HW125010   3.203   2.981   7.832 -0.5174  2.9242  2.4543
 4458SOL    HW225011   3.277   2.999   7.957 -2.4933 -0.0738  0.1119
 4459SOL     OW25012   2.141   1.375   3.228  0.7565  0.1610  0.1498
 4459SOL    HW125013   2.157   1.442   3.162  0.7268  0.7533  0.7483
 4459SOL    HW225014   2.204   1.408   3.292  1.6333  1.8458 -1.5641
 4460SOL     OW25015   3.663   4.653   4.515 -0.1539  0.1105  0.2964
 4460SOL    HW125016   3.663   4.622   4.425 -2.2787 -3.0027  1.3773
 4460SOL    HW225017   3.628   4.579   4.564 -0.2011  0.2624  0.4957
 4461SOL     OW25018   2.937   1.915   2.443  0.5111 -0.5065  0.1313
 4461SOL    HW125019   3.018   1.966   2.448 -1.8988  3.0917  1.7242
 4461SOL    HW225020   2.875   1.983   2.419  1.4065  1.0403  2.2449
 4462SOL     OW25021   3.127   1.288  12.282 -0.6462  0.4214 -0.5019
 4462SOL    HW125022   3.141   1.261  12.191 -1.5019  1.4609 -0.9408
 4462SOL    HW225023   3.206   1.338  12.306  0.4037 -1.4295 -0.0928
 4463SOL     OW25024   3.004   4.448   9.118 -0.2346 -0.0334  0.1025
 4463SOL    HW125025   2.909   4.455   9.114 -0.3054 -1.3549 -0.5082
 4463SOL    HW225026   3.035   4.525   9.070 -0.6757 -0.0942 -0.2742
 4464SOL     OW25027   1.945   0.614  15.000 -0.2725 -0.7305 -0.2267
 4464SOL    HW125028   1.990   0.687  14.959  0.3093 -1.5291 -0.9919
 4464SOL    HW225029   2.012   0.549  15.019 -0.0494 -0.4188  0.0622
 4465SOL     OW25030   1.964   4.621   2.294 -0.2701 -0.4654  0.8011
 4465SOL    HW125031   1.980   4.598   2.202 -2.0478 -0.3561  0.4565
 4465SOL    HW225032   1.872   4.592   2.296 -0.9902  1.7192 -0.2616
 4466SOL     OW25033   0.199   1.870  13.824 -0.4517 -0.1749  0.5686
 4466SOL    HW125034   0.242   1.930  13.885 -1.6369  0.9998  0.2512
 4466SOL    HW225035   0.107   1.896  13.830 -0.6529 -1.1610  1.7904
 4467SOL     OW25036   4.217   0.855  17.629 -0.1487  0.0958  0.7710
 4467SOL    HW125037   4.202   0.944  17.596  0.7887 -0.0783 -0.1046
 4467SOL    HW225038   4.259   0.880  17.712 -0.2197  1.2833  0.4568
 4468SOL     OW25039   3.010   1.686  16.870  0.0847  0.1042 -0.3619
 4468SOL    HW125040   2.940   1.729  16.821 -0.3295  1.0309  1.0675
 4468SOL    HW225041   3.025   1.615  16.807  0.4698 -0.1687  0.0401
 4469SOL     OW25042   4.624   3.431   7.046  0.0271  0.7097  0.3633
 4469SOL    HW125043   4.547   3.484   7.026 -0.3164 -0.1950 -0.6858
 4469SOL    HW225044   4.630   3.454   7.139 -2.7119  2.0563  0.1860
 4470SOL     OW25045   0.605   3.743   4.413  0.4208  0.0893  0.1299
 4470SOL    HW125046   0.589   3.824   4.461 -3.4604 -0.4146 -0.3381
 4470SOL    HW225047   0.648   3.777   4.334 -0.5392  0.2508 -0.3267
 4471SOL     OW25048   2.130   2.664  14.974 -0.5141  0.5695  0.0759
 4471SOL    HW125049   2.124   2.697  15.064 -3.5599 -1.7200  0.6985
 4471SOL    HW225050   2.223   2.645  14.961 -0.5057  0.2421  0.6202
 4472SOL     OW25051   3.745   4.077   7.562 -0.0369 -0.2187 -0.5873
 4472SOL    HW125052   3.723   4.118   7.478  0.8162  1.5211  0.0502
 4472SOL    HW225053   3.838   4.056   7.553 -0.3011 -2.1258  1.1032
 4473SOL     OW25054   0.469   0.628  15.869 -0.3113 -0.0914  0.3726
 4473SOL    HW125055   0.560   0.599  15.864 -1.0729 -2.2890 -0.7178
 4473SOL    HW225056   0.433   0.638  15.781  1.6110 -1.7925 -0.6211
 4474SOL     OW25057   1.352   0.789   6.438  0.8922  0.3689 -0.9560
 4474SOL    HW125058   1.382   0.723   6.376 -2.4328 -1.4785 -0.5866
 4474SOL    HW225059   1.271   0.816   6.395  0.3151  1.2250  0.6739
 4475SOL     OW25060   0.824   1.177  15.046  0.1971  0.3965  0.0950
 4475SOL    HW125061   0.882   1.231  14.992  0.5863 -0.9803 -0.8612
 4475SOL    HW225062   0.790   1.117  14.980  0.0128 -0.3764  0.8881
 4476SOL     OW25063   3.305   2.127   8.720  0.1844  0.1057 -0.6594
 4476SOL    HW125064   3.296   2.185   8.796  2.8953 -1.2611  0.6878
 4476SOL    HW225065   3.319   2.185   8.645  1.5996 -1.7576 -1.8465
 4477SOL     OW25066   0.241   3.700   5.753 -0.1671 -0.6651 -0.7010
 4477SOL    HW125067   0.285   3.704   5.668 -0.2684  0.6240 -0.6988
 4477SOL    HW225068   0.211   3.610   5.762 -1.2075 -0.2899 -0.4662
 4478SOL     OW25069   0.469   3.935   5.394  0.0714  0.2555  0.2380
 4478SOL    HW125070   0.558   3.930   5.359  0.5995  0.2725  1.5750
 4478SOL    HW225071   0.460   3.848   5.435 -2.2725 -0.1859 -1.2136
 4479SOL     OW25072   3.995   2.682   1.747  0.6986  0.4394  0.0470
 4479SOL    HW125073   4.066   2.735   1.783  0.5971 -1.4364  2.9534
 4479SOL    HW225074   4.043   2.670   1.665 -0.0756  4.3554 -1.0240
 4480SOL     OW25075   4.509   1.768   2.669  0.1969 -0.2688 -0.1043
 4480SOL    HW125076   4.468   1.797   2.587 -1.8316  0.3995  1.1472
 4480SOL    HW225077   4.500   1.673   2.662 -1.9155 -0.1434  0.9795
 4481SOL     OW25078   4.457   2.127   3.258  0.1473  0.1883  0.2081
 4481SOL    HW125079   4.436   2.198   3.318 -0.7208  0.1199 -0.0239
 4481SOL    HW225080   4.412   2.054   3.298  0.8003 -1.4241 -1.9810
 4482SOL     OW25081   1.857   4.429   7.356  0.5598  0.4369  0.1283
 4482SOL    HW125082   1.862   4.508   7.410 -1.3583 -0.2669  1.3523
 4482SOL    HW225083   1.785   4.382   7.397 -0.6123 -0.8384 -3.4541
 4483SOL     OW25084   2.843   2.756   2.497 -0.5278 -0.2942 -0.1283
 4483SOL    HW125085   2.812   2.845   2.475  2.0414  0.8812  1.0247
 4483SOL    HW225086   2.806   2.745   2.584  0.9645  1.7156  0.7641
 4484SOL     OW25087   0.568   3.797  11.251 -0.3307 -0.8349  0.1830
 4484SOL    HW125088   0.611   3.837  11.327 -0.0668  1.6649 -1.2863
 4484SOL    HW225089   0.571   3.702  11.258  0.0265 -0.8102  0.3532
 4485SOL     OW25090   0.131   3.211   3.819  0.2131  0.2459  0.0398
 4485SOL    HW125091   0.041   3.178   3.825  0.7009 -0.9867  0.6918
 4485SOL    HW225092   0.177   3.141   3.772  0.0357  1.3896 -1.8187
 4486SOL     OW25093   3.742   0.264   5.748 -0.2690 -0.9654 -0.2039
 4486SOL    HW125094   3.753   0.203   5.675 -0.3994 -1.7214  0.4036
 4486SOL    HW225095   3.746   0.197   5.817 -3.4780  0.2747  1.2197
 4487SOL     OW25096   1.315   4.368   1.979  0.1864 -0.1754 -0.1228
 4487SOL    HW125097   1.388   4.355   2.040 -1.6129  1.2432  2.3167
 4487SOL    HW225098   1.369   4.348   1.902 -0.0953  1.7102 -0.8091
 4488SOL     OW25099   4.335   0.174   3.579  0.3409 -0.4590 -0.3562
 4488SOL    HW125100   4.391   0.144   3.507 -0.3160  0.0470 -1.0761
 4488SOL    HW225101   4.406   0.205   3.635  0.1013 -1.1805  0.3463
 4489SOL     OW25102   2.775   2.496  12.582 -0.4062 -0.1696 -0.0337
 4489SOL    HW125103   2.820   2.433  12.638 -0.2927 -1.5516 -1.6758
 4489SOL    HW225104   2.837   2.502  12.509 -0.0108 -0.3789  0.2848
 4490SOL     OW25105   1.430   3.465   4.400 -0.4643  1.1190  0.7481
 4490SOL    HW125106   1.395   3.433   4.483  2.6142 -1.3272  1.1424
 4490SOL    HW225107   1.358   3.441   4.342  2.4714 -1.7211 -1.7735
 4491SOL     OW25108   3.458   3.616   3.481 -0.7382  0.2035  0.2014
 4491SOL    HW125109   3.473   3.708   3.457 -0.1548 -0.1163 -0.6351
 4491SOL    HW225110   3.379   3.594   3.432 -0.8277 -0.3109  0.5828
 4492SOL     OW25111   2.944   2.359  16.756  0.0253 -0.3260 -0.4281
 4492SOL    HW125112   2.963   2.410  16.835  0.8889 -2.1945  0.5737
 4492SOL    HW225113   2.998   2.398  16.687 -1.4560 -0.5871 -1.7438
 4493SOL     OW25114   2.673   1.216   5.166 -0.4010  0.7856  0.7462
 4493SOL    HW125115   2.739   1.285   5.162 -0.1681  0.5151 -0.0561
 4493SOL    HW225116   2.623   1.230   5.247 -1.0973  0.7421  0.3281
 4494SOL     OW25117   4.482   2.256   7.036 -0.1382  0.2738 -0.0433
 4494SOL    HW125118   4.466   2.171   7.078 -1.3891  1.3867  1.7255
 4494SOL    HW225119   4.550   2.289   7.093 -1.6578  1.6774  0.9454
 4495SOL     OW25120   0.444   3.759  10.058 -0.7252  0.1597 -0.2785
 4495SOL    HW125121   0.491   3.695  10.112 -1.0462  2.2835  2.5120
 4495SOL    HW225122   0.469   3.845  10.090  1.8839 -0.3399 -0.9752
 4496SOL     OW25123   4.481   3.023  14.416 -0.6748 -0.0764 -0.5633
 4496SOL    HW125124   4.421   3.006  14.489 -1.4438  2.3250 -0.6270
 4496SOL    HW225125   4.486   3.119  14.419  0.0711 -0.0728 -2.2278
 4497SOL     OW25126   3.693   3.490  15.054  0.4587 -0.5479  0.3977
 4497SOL    HW125127   3.715   3.489  15.147  0.4108  1.1042  0.4105
 4497SOL    HW225128   3.643   3.408  15.045 -0.7624  0.3994 -1.3332
 4498SOL     OW25129   2.574   1.783   5.641  0.2684 -0.5423  0.0638
 4498SOL    HW125130   2.649   1.834   5.672 -0.9515  1.3915 -0.1408
 4498SOL    HW225131   2.512   1.804   5.711  3.5708  0.4756  2.7352
 4499SOL     OW25132   0.932   1.412   1.852  0.4369  0.4070  0.5190
 4499SOL    HW125133   0.924   1.414   1.756 -0.2172 -2.2618  0.5036
 4499SOL    HW225134   0.952   1.504   1.869 -0.5466  1.1412 -2.1876
 4500SOL     OW25135   2.499   2.862   9.347  0.4374  0.6690  0.5568
 4500SOL    HW125136   2.578   2.895   9.391  0.0000  0.9842  1.1039
 4500SOL    HW225137   2.528   2.844   9.257 -0.4461 -0.9941  0.5943
 4501SOL     OW25138   3.788   2.215   2.475  0.0991 -0.3066 -0.2984
 4501SOL    HW125139   3.717   2.152   2.488  2.1449 -2.0591  2.1947
 4501SOL    HW225140   3.827   2.184   2.394  1.1750 -0.6224  0.3468
 4502SOL     OW25141   4.450   0.723   6.906 -0.1964 -0.3056  0.1216
 4502SOL    HW125142   4.446   0.713   7.001  0.1803  0.6094  0.2308
 4502SOL    HW225143   4.497   0.806   6.892  0.2984 -0.5816  0.1555
 4503SOL     OW25144   0.078   0.799  10.674  0.0153  0.5900  0.7715
 4503SOL    HW125145   0.010   0.749  10.630  0.1275  1.6896 -0.6528
 4503SOL    HW225146   0.035   0.824  10.755  1.5384  1.3517  1.3536
 4504SOL     OW25147   2.686   1.764   4.836  0.1481 -0.1661 -0.2009
 4504SOL    HW125148   2.724   1.851   4.818  0.0193 -0.2779 -1.0341
 4504SOL    HW225149   2.719   1.712   4.762 -4.0888  0.5395 -2.5975
 4505SOL     OW25150   2.231   2.503  12.299  0.3598  0.6372 -0.6343
 4505SOL    HW125151   2.307   2.447  12.283 -0.1075 -0.3313  0.5224
 4505SOL    HW225152   2.243   2.547  12.383  0.5784  0.1402 -0.4006
 4506SOL     OW25153   1.435   2.662   9.134  0.6393 -0.2859  0.0220
 4506SOL    HW125154   1.471   2.746   9.106  0.0208  0.3822  1.2463
 4506SOL    HW225155   1.362   2.650   9.073 -0.3102  0.5535  1.0125
 4507SOL     OW25156   0.297   1.001   6.654  0.1825 -0.2688 -0.2440
 4507SOL    HW125157   0.351   1.022   6.578 -0.4677  0.0516 -0.6218
 4507SOL    HW225158   0.309   0.906   6.657  1.7317 -0.0853 -1.1295
 4508SOL     OW25159   1.233   2.903   8.624 -0.3176  0.0157 -0.3558
 4508SOL    HW125160   1.231   2.837   8.695  0.2808  0.2971 -0.0763
 4508SOL    HW225161   1.327   2.913   8.612 -0.3850  1.3497  0.2839
 4509SOL     OW25162   3.292   0.750   5.298 -0.2167 -0.1438 -0.5742
 4509SOL    HW125163   3.347   0.672   5.310 -0.6464 -0.5637 -1.3111
 4509SOL    HW225164   3.297   0.768   5.204  0.3012  0.7717 -0.3713
 4510SOL     OW25165   0.299   1.995  17.739 -0.5701  0.4412 -0.9783
 4510SOL    HW125166   0.315   1.900  17.742 -0.8688  0.4708  1.7381
 4510SOL    HW225167   0.203   1.998  17.744 -0.5775 -1.9586  0.9443
 4511SOL     OW25168   3.736   0.745   2.692  0.0562  0.4851 -0.3516
 4511SOL    HW125169   3.738   0.808   2.764 -0.5353  0.1978 -0.0811
 4511SOL    HW225170   3.646   0.711   2.693  0.6551 -1.1146 -1.3006
 4512SOL     OW25171   3.508   3.326  14.719 -0.9797  0.5730 -0.0442
 4512SOL    HW125172   3.459   3.252  14.756  0.8099 -0.3303  0.5164
 4512SOL    HW225173   3.529   3.387  14.789 -0.6838 -1.2213  1.4322
 4513SOL     OW25174   3.663   0.203  10.790  0.1483 -0.5394  0.2326
 4513SOL    HW125175   3.736   0.231  10.735  0.2501 -0.6948  0.2908
 4513SOL    HW225176   3.703   0.181  10.874 -0.5135 -1.4601  0.2984
 4514SOL     OW25177   2.519   4.690   3.991 -0.3212  0.1214 -0.1236
 4514SOL    HW125178   2.481   4.703   3.904 -0.1634 -0.1210 -0.2296
 4514SOL    HW225179   2.508   0.036   4.033  0.7891 -0.1310  0.6533
 4515SOL     OW25180   2.053   3.311   9.725 -0.4394 -0.0782  0.4525
 4515SOL    HW125181   2.139   3.310   9.767  0.5531  2.0086 -1.5384
 4515SOL    HW225182   2.057   3.221   9.692  1.4055  0.7926 -1.7360
 4516SOL     OW25183   4.424   0.364   2.260  0.7485  0.2337 -0.2021
 4516SOL    HW125184   4.464   0.382   2.346 -0.2263  1.0885  0.0696
 4516SOL    HW225185   4.365   0.440   2.261  0.1561 -0.2449  0.8673
 4517SOL     OW25186   4.095   2.000   1.458 -0.1209 -0.8741 -0.3321
 4517SOL    HW125187   4.119   1.940   1.387  0.4854 -0.7266 -0.2449
 4517SOL    HW225188   4.172   2.054   1.473  0.7158 -1.3518 -2.9379
 4518SOL     OW25189   2.108   0.666   0.255  0.2972 -0.0016 -0.1865
 4518SOL    HW125190   2.040   0.701   0.313 -0.0017 -1.7610  0.5032
 4518SOL    HW225191   2.051   0.639   0.183  0.1411  1.5242 -0.6500
 4519SOL     OW25192   4.636   0.284   7.481 -0.3120  0.2839 -0.2760
 4519SOL    HW125193   4.702   0.309   7.546 -0.9093  1.2681 -0.0558
 4519SOL    HW225194   4.670   0.311   7.395  0.7807  1.2023  0.4513
 4520SOL     OW25195   3.437   2.052   2.703  0.6173  0.2106 -0.8267
 4520SOL    HW125196   3.361   2.070   2.646  0.4755 -4.2221 -2.0506
 4520SOL    HW225197   3.431   1.961   2.732  1.2110  0.9084  1.4713
 4521SOL     OW25198   4.283   0.959   5.945 -0.2667 -0.6438  0.1810
 4521SOL    HW125199   4.286   1.049   5.913 -1.1864 -0.7708 -0.2852
 4521SOL    HW225200   4.217   0.975   6.013 -0.6239  1.7474 -0.7341
 4522SOL     OW25201   2.561   1.730   3.787 -0.1596 -0.4423 -0.5638
 4522SOL    HW125202   2.544   1.692   3.701  1.8064  0.2614 -1.2635
 4522SOL    HW225203   2.580   1.817   3.752  0.0107 -0.2606 -0.0189
 4523SOL     OW25204   1.724   1.899   7.458 -0.3930  0.1191  0.6196
 4523SOL    HW125205   1.811   1.872   7.428 -0.3856  3.2435 -2.0968
 4523SOL    HW225206   1.726   1.991   7.433 -2.2870 -0.1088 -0.3764
 4524SOL     OW25207   2.375   0.288   6.831 -0.2982 -0.4666 -0.1695
 4524SOL    HW125208   2.334   0.346   6.895 -2.6016 -2.5397  0.2444
 4524SOL    HW225209   2.365   0.203   6.873  0.0333 -0.6023 -0.3620
 4525SOL     OW25210   3.499   1.205   7.271  0.1160 -0.0875 -0.2978
 4525SOL    HW125211   3.434   1.256   7.319 -0.8147 -2.3653  0.8785
 4525SOL    HW225212   3.532   1.145   7.338 -1.2340  2.5032  2.6307
 4526SOL     OW25213   2.831   2.051   5.535  0.4319  1.0202 -0.1335
 4526SOL    HW125214   2.927   2.048   5.533  0.3916  1.6660 -2.4579
 4526SOL    HW225215   2.822   2.057   5.630  0.2041  0.5084 -0.1228
 4527SOL     OW25216   4.182   4.070   0.325  0.0060  0.0139 -0.3874
 4527SOL    HW125217   4.271   4.035   0.322 -0.3999 -1.0256 -0.3041
 4527SOL    HW225218   4.150   4.040   0.410 -0.2561  0.4539 -0.3307
 4528SOL     OW25219   1.918   0.685   2.132 -0.1241  0.0309 -0.1529
 4528SOL    HW125220   2.009   0.686   2.102  0.3618 -1.7560  1.2751
 4528SOL    HW225221   1.902   0.591   2.135 -0.5083 -0.0005 -3.0162
 4529SOL     OW25222   0.766   1.864  16.473  0.0027  0.3123 -0.8003
 4529SOL    HW125223   0.678   1.826  16.465 -0.3110  0.6943  0.9138
 4529SOL    HW225224   0.773   1.940  16.414 -2.9039  0.9025 -0.4088
 4530SOL     OW25225   2.953   1.464   3.366  0.1159  0.0573  0.5549
 4530SOL    HW125226   2.938   1.550   3.406 -1.8929  0.7288 -1.6285
 4530SOL    HW225227   2.875   1.416   3.391  0.0828  0.1327  0.5954
 4531SOL     OW25228   3.221   0.348  11.762 -0.2088  0.3340 -0.0329
 4531SOL    HW125229   3.212   0.358  11.856  1.1436  1.9097 -0.0651
 4531SOL    HW225230   3.174   0.427  11.734  1.7013  1.7205  0.6593
 4532SOL     OW25231   1.611   0.120   0.766 -0.3893 -0.0193 -0.1567
 4532SOL    HW125232   1.586   0.028   0.762 -0.8857  0.0635  1.0631
 4532SOL    HW225233   1.697   0.132   0.807  0.4198  0.3277 -1.9347
 4533SOL     OW25234   0.299   3.578   1.758  0.0121 -1.3720  0.1592
 4533SOL    HW125235   0.254   3.654   1.796  0.1622 -0.7765 -0.8403
 4533SOL    HW225236   0.370   3.563   1.820 -0.1157  0.2489  0.6998
 4534SOL     OW25237   0.427   1.331  11.887 -0.0719 -0.1849 -0.4613
 4534SOL    HW125238   0.464   1.252  11.926  0.8038  0.4144 -0.0833
 4534SOL    HW225239   0.506   1.358  11.841 -0.3318  1.9993  0.3664
 4535SOL     OW25240   4.414   4.190  13.549  0.0352  0.3045  0.5999
 4535SOL    HW125241   4.402   4.215  13.457 -0.4455 -3.8979 -0.5082
 4535SOL    HW225242   4.494   4.238  13.566  1.2037 -1.1274 -0.8415
 4536SOL     OW25243   4.110   0.546   9.310  0.0134  1.1079 -0.6086
 4536SOL    HW125244   4.202   0.539   9.285  0.3032 -0.0411  0.7774
 4536SOL    HW225245   4.102   0.456   9.343 -1.0972  2.1047  1.8188
 4537SOL     OW25246   4.269   3.762   2.805 -0.4157 -0.3123 -0.0184
 4537SOL    HW125247   4.267   3.748   2.900  0.7500  0.1364  0.0715
 4537SOL    HW225248   4.215   3.841   2.800  4.3056  2.8063 -2.0412
 4538SOL     OW25249   1.852   2.100   4.008  0.6220  0.3809 -0.1125
 4538SOL    HW125250   1.883   2.116   4.097 -1.6213  0.3739  0.6715
 4538SOL    HW225251   1.820   2.010   4.020  1.1207 -0.0066 -1.6870
 4539SOL     OW25252   4.489   3.925   8.518  0.3295  0.0575  0.4216
 4539SOL    HW125253   4.429   3.934   8.443  1.5254  0.0250 -0.5464
 4539SOL    HW225254   4.485   4.015   8.551  3.6519  0.0957  0.6366
 4540SOL     OW25255   0.287   0.065   5.415  0.0706  0.3084  0.7282
 4540SOL    HW125256   0.337   4.733   5.455  0.6181  0.2279 -0.0739
 4540SOL    HW225257   0.343   0.140   5.435  1.4168 -0.1999 -1.0725
 4541SOL     OW25258   0.793   2.674  10.631  0.1664  0.1366  0.4087
 4541SOL    HW125259   0.759   2.658  10.718 -1.0370  0.1086 -0.0725
 4541SOL    HW225260   0.888   2.679  10.642  0.1493  0.0784  0.5732
 4542SOL     OW25261   4.295   3.012   8.284  0.2222 -0.0825  0.3283
 4542SOL    HW125262   4.274   3.071   8.356 -1.0350  0.2002 -0.2799
 4542SOL    HW225263   4.226   3.028   8.221  3.0629  1.7846 -2.3086
 4543SOL     OW25264   2.330   1.504  12.519 -0.0036 -0.3490 -0.1847
 4543SOL    HW125265   2.354   1.458  12.599  1.1692  0.6117  0.0085
 4543SOL    HW225266   2.346   1.439  12.450  1.1490 -0.0799 -0.1551
 4544SOL     OW25267   3.072   1.390   7.552 -0.4156 -0.1123 -0.3597
 4544SOL    HW125268   3.162   1.405   7.523  0.1919 -1.2759  0.9024
 4544SOL    HW225269   3.052   1.345   7.470 -1.0905 -1.2316  0.4160
 4545SOL     OW25270   1.256   3.742   5.971  0.3471  0.3431 -0.0549
 4545SOL    HW125271   1.290   3.719   5.885  0.2687  0.2483 -0.0608
 4545SOL    HW225272   1.270   3.836   5.967 -2.2221  0.7754  0.6730
 4546SOL     OW25273   3.483   4.558   9.744  0.0692  0.0920  0.6457
 4546SOL    HW125274   3.472   4.648   9.712  2.5484  0.0306 -0.4442
 4546SOL    HW225275   3.396   4.528   9.768  0.4840 -0.9751  0.8238
 4547SOL     OW25276   2.424   2.904   5.439 -0.0148  0.3656  0.7398
 4547SOL    HW125277   2.486   2.903   5.366  0.0785 -1.5769  0.8437
 4547SOL    HW225278   2.350   2.852   5.407  1.1391 -0.4158 -0.6571
 4548SOL     OW25279   2.857   2.130   1.692 -0.3183  0.3902  0.2413
 4548SOL    HW125280   2.850   2.041   1.657  0.9113  1.0767 -1.6740
 4548SOL    HW225281   2.939   2.126   1.742  0.0063 -1.3172 -0.4107
 4549SOL     OW25282   1.070   0.420  14.483 -0.7809 -0.2803 -0.3286
 4549SOL    HW125283   1.074   0.364  14.560 -1.6488 -1.1969 -0.9542
 4549SOL    HW225284   1.010   0.491  14.505  0.7861  0.8817  0.1484
 4550SOL     OW25285   1.753   0.548  14.831  0.4984  0.5854  0.0040
 4550SOL    HW125286   1.810   0.567  14.905  0.4247  0.9815 -0.0417
 4550SOL    HW225287   1.726   0.458  14.844 -0.3137  0.6484 -1.2191
 4551SOL     OW25288   4.454   0.962   6.459 -0.2828  0.6038 -0.0385
 4551SOL    HW125289   4.398   1.013   6.401 -0.1222  1.0368  0.1782
 4551SOL    HW225290   4.526   0.955   6.397  0.5685  0.3501  0.9669
 4552SOL     OW25291   4.057   3.244   8.915 -0.2475  0.0051  0.5459
 4552SOL    HW125292   4.119   3.214   8.847 -2.0802 -0.7326 -0.8143
 4552SOL    HW225293   4.050   3.338   8.898 -1.0964  0.3852  3.0659
 4553SOL     OW25294   0.902   4.717  16.785 -0.2993 -0.2104 -0.1733
 4553SOL    HW125295   0.911   0.071  16.762 -0.8845 -0.5281 -1.6512
 4553SOL    HW225296   0.986   4.682  16.754 -0.2725  0.3101 -0.6942
 4554SOL     OW25297   2.130   2.837   8.338 -0.6265  0.1435  0.5018
 4554SOL    HW125298   2.140   2.866   8.248 -2.0640  0.7258  0.5261
 4554SOL    HW225299   2.039   2.810   8.352 -0.9100  2.1466  2.4873
 4555SOL     OW25300   3.112   3.251   0.389  0.1839 -0.0869 -0.8360
 4555SOL    HW125301   3.072   3.333   0.360 -2.0025 -1.6617 -2.2531
 4555SOL    HW225302   3.033   3.201   0.405 -0.4745  1.5277  1.0353
 4556SOL     OW25303   4.284   0.583   2.260 -0.1599  0.0074  0.5107
 4556SOL    HW125304   4.283   0.662   2.315  0.1942 -0.1926  0.8089
 4556SOL    HW225305   4.207   0.588   2.203 -0.9024  1.6087  1.6505
 4557SOL     OW25306   2.215   2.073   2.626 -0.1606  0.1480  0.3383
 4557SOL    HW125307   2.250   1.984   2.623  0.0669  0.3117 -2.1249
 4557SOL    HW225308   2.136   2.065   2.681 -1.3782  0.4812 -1.3535
 4558SOL     OW25309   2.320   2.027   3.826  0.1595 -0.6328  0.1335
 4558SOL    HW125310   2.303   2.024   3.920 -0.2683  1.4644  0.1180
 4558SOL    HW225311   2.261   2.094   3.791 -1.7653 -2.7098 -0.5785
 4559SOL     OW25312   1.247   0.298   0.152 -0.3004  0.5004  0.6019
 4559SOL    HW125313   1.336   0.311   0.121  0.3592 -2.6012  1.2307
 4559SOL    HW225314   1.225   0.353   0.228  0.9657 -0.4394  1.6498
 4560SOL     OW25315   1.054   0.922   1.673  0.1357  0.4603 -0.2513
 4560SOL    HW125316   1.029   1.001   1.625 -1.5076  0.7110  0.9781
 4560SOL    HW225317   1.055   0.863   1.598 -0.8500 -0.1470  0.2179
 4561SOL     OW25318   4.333   4.416   4.614  0.3624  0.0190 -0.9287
 4561SOL    HW125319   4.256   4.360   4.605  1.4439 -1.6170  0.0385
 4561SOL    HW225320   4.409   4.358   4.619 -0.4243 -0.8171  1.5444
 4562SOL     OW25321   3.166   0.515   7.472  0.8112  0.0828 -0.1903
 4562SOL    HW125322   3.113   0.465   7.535  0.4031  1.1234  0.2951
 4562SOL    HW225323   3.102   0.538   7.406 -1.6180  0.9765  2.4646
 4563SOL     OW25324   2.987   3.011  13.828 -0.5392 -0.0683 -0.3395
 4563SOL    HW125325   3.058   2.948  13.817 -0.4802  0.0175 -0.4399
 4563SOL    HW225326   2.925   2.956  13.875 -0.1088 -0.6169 -0.4169
 4564SOL     OW25327   0.187   4.095   5.486  0.6104  0.0901 -0.1719
 4564SOL    HW125328   0.273   4.102   5.527  0.8246  1.0109 -0.7809
 4564SOL    HW225329   0.129   4.079   5.561 -1.0450 -0.2312 -1.5150
 4565SOL     OW25330   3.323   0.235   3.005  0.3205 -0.2670 -0.4648
 4565SOL    HW125331   3.233   0.237   2.973 -0.4689 -0.0100  1.7860
 4565SOL    HW225332   3.314   0.184   3.085  1.8215  2.4387  1.4306
 4566SOL     OW25333   1.093   2.138   2.010  0.5003 -0.0076  0.2116
 4566SOL    HW125334   1.021   2.109   2.066 -0.2948 -1.4602 -1.5767
 4566SOL    HW225335   1.053   2.192   1.942  0.4345  0.9361  0.9969
 4567SOL     OW25336   0.175   3.787  10.141 -0.1839  0.3402  0.0299
 4567SOL    HW125337   0.265   3.786  10.108 -0.3264 -1.7559 -0.3119
 4567SOL    HW225338   0.189   3.761  10.232 -1.0852 -0.2638 -0.0036
 4568SOL     OW25339   2.488   3.134   3.000  0.2876 -0.3866  0.3982
 4568SOL    HW125340   2.547   3.207   3.017 -1.4534  1.5667 -2.0529
 4568SOL    HW225341   2.413   3.166   3.051  0.6520  0.1825  0.5764
 4569SOL     OW25342   2.964   0.494   8.947  0.3433 -0.3852  0.3472
 4569SOL    HW125343   2.899   0.425   8.961 -0.9702  0.6837 -0.4916
 4569SOL    HW225344   3.045   0.443   8.954  0.4021 -0.4374 -0.7315
 4570SOL     OW25345   0.323   2.357   8.662  0.5017  0.1502  0.0183
 4570SOL    HW125346   0.386   2.315   8.721  1.5222 -0.9560 -1.8600
 4570SOL    HW225347   0.383   2.405   8.604 -1.0685  1.3860 -0.5812
 4571SOL     OW25348   3.869   1.599   7.470  0.5469  0.3352  0.1005
 4571SOL    HW125349   3.849   1.677   7.522  1.9362 -0.1507  1.3471
 4571SOL    HW225350   3.902   1.552   7.547 -2.2845 -1.4291  0.2239
 4572SOL     OW25351   3.931   1.980   2.004  0.1359 -0.3990  0.1719
 4572SOL    HW125352   4.003   1.940   1.954 -0.3014  1.6672 -2.0875
 4572SOL    HW225353   3.876   1.904   2.021  0.0060 -0.7516 -1.8931
 4573SOL     OW25354   1.761   3.079   8.444 -0.0244 -0.2231  0.1100
 4573SOL    HW125355   1.685   3.135   8.458  0.1434 -0.1778  0.8584
 4573SOL    HW225356   1.798   3.064   8.532  1.8820  0.8014 -0.5270
 4574SOL     OW25357   4.714   3.069  12.788 -0.7637 -0.2716  0.4665
 4574SOL    HW125358   0.004   3.133  12.854  0.4806  1.1884 -1.4687
 4574SOL    HW225359   4.620   3.072  12.807 -0.1148  1.3855  3.4774
 4575SOL     OW25360   0.234   4.179   1.423 -0.4163 -0.8401  0.1241
 4575SOL    HW125361   0.216   4.107   1.363 -0.2795 -1.3205  0.6637
 4575SOL    HW225362   0.297   4.142   1.485 -0.8952  1.1198  1.7552
 4576SOL     OW25363   4.329   0.075   7.021  0.4230  0.1920 -0.0985
 4576SOL    HW125364   4.392   0.133   6.979  0.6432 -0.1081 -0.1896
 4576SOL    HW225365   4.253   0.131   7.035  0.2410 -0.4618  1.4853
 4577SOL     OW25366   1.986   4.133   7.353 -0.3504  0.0425  0.1592
 4577SOL    HW125367   1.964   4.224   7.372  1.6565  0.3065  1.3079
 4577SOL    HW225368   1.910   4.093   7.396  0.8752 -1.8800  0.5428
 4578SOL     OW25369   2.687   2.895   3.264 -0.2218  0.2410  0.7098
 4578SOL    HW125370   2.597   2.884   3.232  0.6918  1.2784 -2.1461
 4578SOL    HW225371   2.723   2.981   3.242 -1.5150  0.4791 -0.4807
 4579SOL     OW25372   2.698   3.786   2.185 -0.2809  0.4320 -0.1698
 4579SOL    HW125373   2.659   3.873   2.175  2.1610  1.7810  1.8177
 4579SOL    HW225374   2.730   3.798   2.274 -0.8053  1.7368 -0.1541
 4580SOL     OW25375   3.312   3.544   8.519  0.4203  0.3659 -0.6276
 4580SOL    HW125376   3.264   3.480   8.573  1.8185 -1.2629 -1.2934
 4580SOL    HW225377   3.238   3.593   8.483 -0.6943 -1.5353 -0.9383
 4581SOL     OW25378   3.707   3.662   8.006 -0.1455  0.2223  0.2566
 4581SOL    HW125379   3.790   3.635   8.045 -0.7267  0.9571  2.0057
 4581SOL    HW225380   3.683   3.720   8.077 -0.9453  1.3167 -0.9139
 4582SOL     OW25381   2.444   3.387  11.442  0.1822  0.1722 -0.0206
 4582SOL    HW125382   2.376   3.397  11.376  0.3050 -1.1991 -0.3567
 4582SOL    HW225383   2.462   3.479  11.462 -0.6926  0.4179 -0.3826
 4583SOL     OW25384   0.580   4.190  12.086 -0.0196 -0.0994 -0.4007
 4583SOL    HW125385   0.640   4.258  12.115 -0.0546 -0.7610  1.1943
 4583SOL    HW225386   0.639   4.115  12.076  1.4159  0.9141  0.5018
 4584SOL     OW25387   3.475   1.960   1.913  0.6073  0.5369  0.2204
 4584SOL    HW125388   3.472   2.048   1.878  0.9047  0.9562  1.2356
 4584SOL    HW225389   3.475   1.965   2.009 -3.1990  0.2983  0.2528
 4585SOL     OW25390   2.141   1.546   5.140 -0.1845 -0.2968 -0.2010
 4585SOL    HW125391   2.080   1.572   5.070  0.0042  0.6860 -0.0011
 4585SOL    HW225392   2.211   1.500   5.095  2.1652  0.1660  3.0593
 4586SOL     OW25393   0.467   1.108   8.885  0.0475 -0.1286 -0.0211
 4586SOL    HW125394   0.545   1.093   8.831 -0.7328 -0.8175 -0.9582
 4586SOL    HW225395   0.504   1.063   8.960  1.3094 -0.5430 -0.8931
 4587SOL     OW25396   2.979   1.217   7.354  0.3095  0.1288  0.2612
 4587SOL    HW125397   3.037   1.148   7.387 -0.4873 -0.9056 -0.5244
 4587SOL    HW225398   2.894   1.182   7.381  1.7638 -2.1933  1.8703
 4588SOL     OW25399   1.517   3.701  10.458 -0.1293  0.1998 -0.2163
 4588SOL    HW125400   1.577   3.775  10.468  2.7339 -2.1689  0.4269
 4588SOL    HW225401   1.493   3.680  10.548 -2.2794  2.7511 -0.2032
 4589SOL     OW25402   2.067   3.383   3.831 -0.2666  0.0336 -0.6822
 4589SOL    HW125403   1.986   3.351   3.790 -0.1628 -1.2317  0.0929
 4589SOL    HW225404   2.067   3.327   3.909  1.7212  0.6680 -0.2301
 4590SOL     OW25405   3.763   1.081  14.864 -0.6901  0.3813 -0.0559
 4590SOL    HW125406   3.822   1.156  14.858  1.2057 -0.8786  2.9001
 4590SOL    HW225407   3.685   1.134  14.881 -1.3324 -0.1863 -1.2253
 4591SOL     OW25408   1.925   1.265   9.336 -0.1772  0.2712  0.1948
 4591SOL    HW125409   2.017   1.279   9.358  0.9326 -0.1814 -4.1674
 4591SOL    HW225410   1.890   1.196   9.392 -0.7322  1.2675  1.0777
 4592SOL     OW25411   3.963   2.100  14.379 -0.2119 -0.2952 -0.2595
 4592SOL    HW125412   3.964   2.196  14.384  0.2711 -0.2516 -1.1989
 4592SOL    HW225413   3.885   2.081  14.431 -0.3277 -1.5704 -0.9109
 4593SOL     OW25414   2.969   2.509   0.414  0.3789 -0.5708  0.6349
 4593SOL    HW125415   2.890   2.555   0.442  0.3283 -1.1339  1.4193
 4593SOL    HW225416   2.936   2.424   0.444 -0.8634 -0.6684 -1.0521
 4594SOL     OW25417   4.153   3.433   7.489  0.4685  0.2803  0.1165
 4594SOL    HW125418   4.232   3.436   7.436  0.5724  0.4886  0.2849
 4594SOL    HW225419   4.185   3.429   7.579 -0.4280  0.7488  0.4570
 4595SOL     OW25420   4.256   4.719   1.735  0.3444  0.2443  0.1943
 4595SOL    HW125421   4.274   4.694   1.825 -0.9317  0.6460  0.5563
 4595SOL    HW225422   4.272   0.075   1.739 -2.7512  0.8631 -2.0218
 4596SOL     OW25423   3.364   0.675  11.389 -0.1212  0.1354 -0.2820
 4596SOL    HW125424   3.418   0.606  11.426 -0.3372  0.9128  1.4925
 4596SOL    HW225425   3.406   0.704  11.308 -2.5600  0.5670 -1.3957
 4597SOL     OW25426   2.879   2.461   6.997 -0.0773  0.0197 -0.0312
 4597SOL    HW125427   2.911   2.529   6.937  0.8512  2.0151  2.7439
 4597SOL    HW225428   2.908   2.384   6.948  1.0971  0.5681 -0.1890
 4598SOL     OW25429   1.378   0.942   8.333  0.7439  0.2561  0.2685
 4598SOL    HW125430   1.432   0.965   8.257 -1.2118  0.5104 -1.0542
 4598SOL    HW225431   1.288   0.967   8.311  0.2513 -1.4569  0.3589
 4599SOL     OW25432   0.720   3.728   7.910 -0.0481 -0.2948  0.6705
 4599SOL    HW125433   0.635   3.761   7.878 -1.2301 -4.1837 -0.2184
 4599SOL    HW225434   0.755   3.684   7.832 -1.6661 -0.3708 -0.0394
 4600SOL     OW25435   3.509   3.097  11.344  0.1961  0.1589  0.0353
 4600SOL    HW125436   3.535   3.175  11.296 -0.4298  0.7033  0.5813
 4600SOL    HW225437   3.595   3.073  11.377  0.8016  1.3139 -0.7265
 4601SOL     OW25438   4.078   0.288   0.203  0.2799  0.3527 -0.1705
 4601SOL    HW125439   4.102   0.276   0.111 -3.1233 -4.0057 -0.4862
 4601SOL    HW225440   4.153   0.320   0.253 -0.1310 -0.7898  1.1801
 4602SOL     OW25441   0.682   2.743  10.366  0.7101 -0.2489 -0.3129
 4602SOL    HW125442   0.674   2.838  10.367 -0.4870 -0.3670  0.7082
 4602SOL    HW225443   0.717   2.725  10.454 -1.8315  0.0842  0.7753
 4603SOL     OW25444   0.974   3.868  16.420 -0.0034  0.2666  0.1367
 4603SOL    HW125445   0.888   3.852  16.381 -0.8754 -0.0905  2.2139
 4603SOL    HW225446   1.019   3.784  16.414 -0.3310  0.1031 -0.0653
 4604SOL     OW25447   3.472   3.920   7.509 -0.0025 -0.1209  0.5826
 4604SOL    HW125448   3.518   4.003   7.518  1.3646 -0.8462  0.1808
 4604SOL    HW225449   3.412   3.924   7.584  0.0482  1.5745  0.5346
 4605SOL     OW25450   0.051   1.023   8.551 -0.7918 -0.0016  0.2485
 4605SOL    HW125451   0.116   1.063   8.609 -2.5663  1.4807  1.2405
 4605SOL    HW225452   0.097   0.976   8.482  1.7417  2.1274  0.4722
 4606SOL     OW25453   1.858   2.783   2.842 -0.8061 -0.3450  0.1149
 4606SOL    HW125454   1.928   2.846   2.823 -2.4071  1.4588  0.2444
 4606SOL    HW225455   1.911   2.704   2.826 -2.0428 -1.4076  1.2934
 4607SOL     OW25456   3.217   1.624   3.837  0.1478  0.6576  0.1481
 4607SOL    HW125457   3.286   1.599   3.898  0.8077 -2.0503 -1.6957
 4607SOL    HW225458   3.156   1.550   3.832 -0.1865  0.9764 -0.4147
 4608SOL     OW25459   4.382   1.039   8.210  0.3279  0.1467  0.0623
 4608SOL    HW125460   4.383   1.125   8.252 -0.0038 -0.1586  0.7021
 4608SOL    HW225461   4.468   1.002   8.230  0.5090  1.3337  1.4582
 4609SOL     OW25462   1.552   0.990   3.156 -0.0274  0.1428  0.1347
 4609SOL    HW125463   1.577   1.052   3.225 -2.0527  1.2313 -0.0891
 4609SOL    HW225464   1.519   1.048   3.087 -0.1177 -1.4189 -1.1233
 4610SOL     OW25465   0.097   1.716   6.046  0.4986 -0.0089 -0.0867
 4610SOL    HW125466   0.099   1.641   5.987 -1.3342 -0.9218  1.0090
 4610SOL    HW225467   0.072   1.784   5.984 -0.8142 -1.5663 -1.2576
 4611SOL     OW25468   1.934   2.769   7.834  0.1405  0.0007 -0.3019
 4611SOL    HW125469   2.001   2.753   7.768 -0.5560 -0.9020 -0.7836
 4611SOL    HW225470   1.932   2.690   7.888 -0.2977  0.5833  0.5403
 4612SOL     OW25471   1.524   1.970  16.698  0.1085  0.1449 -0.2835
 4612SOL    HW125472   1.588   1.994  16.765  2.3077  0.7357 -2.5844
 4612SOL    HW225473   1.492   2.051  16.659 -0.2158  1.7994  3.5123
 4613SOL     OW25474   1.814   2.664   4.358 -0.1468  0.1736  0.2891
 4613SOL    HW125475   1.727   2.700   4.339 -0.1475  0.7208  1.3827
 4613SOL    HW225476   1.783   2.591   4.412 -0.1549  0.1206  0.2140
 4614SOL     OW25477   4.078   0.381   3.814 -0.8345  0.2574  0.7750
 4614SOL    HW125478   4.137   0.381   3.889  0.2074 -0.0299 -0.0528
 4614SOL    HW225479   4.145   0.402   3.750 -0.7048 -0.8006  0.5728
 4615SOL     OW25480   4.693   4.177   3.732  0.1299 -0.5224  0.3425
 4615SOL    HW125481   0.010   4.252   3.756  0.9533 -2.1326  3.4257
 4615SOL    HW225482   0.016   4.141   3.667 -0.6936 -0.7936 -0.2776
 4616SOL     OW25483   1.209   2.074  17.653 -0.1912  0.4974 -0.5418
 4616SOL    HW125484   1.233   2.114  17.737  1.4172  3.1148 -2.2674
 4616SOL    HW225485   1.294   2.059  17.611 -0.9453 -1.5137 -1.3692
 4617SOL     OW25486   0.810   3.558   7.700 -0.8267  0.1412 -0.8325
 4617SOL    HW125487   0.725   3.525   7.674 -1.0166  0.8273 -1.0934
 4617SOL    HW225488   0.848   3.473   7.721 -3.6182 -1.1179 -1.0101
 4618SOL     OW25489   3.528   3.916   8.387 -0.4177  0.4211  0.6181
 4618SOL    HW125490   3.440   3.924   8.349 -0.9394  0.8495  1.9094
 4618SOL    HW225491   3.506   3.873   8.470  0.3284  1.3788  1.3130
 4619SOL     OW25492   0.162   1.160   1.439  0.0436  0.0227  0.5483
 4619SOL    HW125493   0.249   1.132   1.413 -0.4191  0.4720 -1.5074
 4619SOL    HW225494   0.189   1.251   1.453  0.6069  0.0573 -0.8568
 4620SOL     OW25495   0.378   3.036   3.278  0.2178 -0.7434 -0.6179
 4620SOL    HW125496   0.463   3.079   3.277 -0.6652  1.1116  2.1564
 4620SOL    HW225497   0.364   3.005   3.189  0.2387 -1.2252 -0.4513
 4621SOL     OW25498   3.880   3.431   6.366 -0.1030 -0.2767 -0.8506
 4621SOL    HW125499   3.925   3.488   6.428  0.5914 -1.3143 -0.4138
 4621SOL    HW225500   3.793   3.434   6.407 -0.3363  1.5135 -1.4482
 4622SOL     OW25501   3.167   0.698  13.598  0.6145 -0.2036  0.1974
 4622SOL    HW125502   3.129   0.644  13.667  0.2943 -1.2136 -0.7600
 4622SOL    HW225503   3.238   0.744  13.643 -0.0720 -0.4944  1.5600
 4623SOL     OW25504   4.724   2.146   7.705 -0.6816  0.2456  0.2301
 4623SOL    HW125505   0.078   2.147   7.677 -0.6935  2.2890  0.2336
 4623SOL    HW225506   4.717   2.137   7.800 -0.6259 -0.7292  0.1360
 4624SOL     OW25507   4.187   3.459  14.786  0.1792  0.2842 -0.0458
 4624SOL    HW125508   4.165   3.444  14.878  0.1386  1.3725  0.1234
 4624SOL    HW225509   4.156   3.548  14.768  0.4727  0.6164  1.0888
 4625SOL     OW25510   2.970   0.033  14.064 -0.3958  0.7859 -0.2688
 4625SOL    HW125511   3.038   0.064  14.124 -1.5108  0.1453  1.3351
 4625SOL    HW225512   2.896   0.012  14.121  0.3877 -1.1148  0.0612
 4626SOL     OW25513   2.464   4.342   4.127 -0.6619  0.2266 -0.3363
 4626SOL    HW125514   2.459   4.248   4.107 -0.7810 -0.1550  1.5346
 4626SOL    HW225515   2.559   4.349   4.134 -0.5908 -0.8668 -0.1447
 4627SOL     OW25516   0.005   3.839   2.555 -0.1176 -0.5194  0.2338
 4627SOL    HW125517   4.729   3.775   2.485  0.3180 -0.3003 -0.0542
 4627SOL    HW225518   4.660   3.831   2.602  0.8448  1.8835  2.3760
 4628SOL     OW25519   4.349   3.751   4.988 -0.0997 -0.1719  0.8474
 4628SOL    HW125520   4.426   3.715   4.943  1.4069  3.0022  0.8842
 4628SOL    HW225521   4.398   3.809   5.045  0.7426 -1.4963  1.4776
 4629SOL     OW25522   1.498   1.259   5.476 -0.2402  0.5958 -0.9327
 4629SOL    HW125523   1.559   1.270   5.403 -0.6230  2.1494 -1.0266
 4629SOL    HW225524   1.428   1.208   5.436  2.7531 -2.3845 -2.3580
 4630SOL     OW25525   4.712   2.202   7.985 -0.4473  0.8940  0.5080
 4630SOL    HW125526   0.054   2.238   8.024  0.4884  1.2308 -1.7498
 4630SOL    HW225527   4.667   2.285   7.971  1.9026  2.0116 -0.4319
 4631SOL     OW25528   2.737   4.209   5.347  0.0499  0.4231  0.5269
 4631SOL    HW125529   2.773   4.283   5.397  1.7434  0.0166 -0.0904
 4631SOL    HW225530   2.812   4.151   5.337 -1.7489 -2.1326  1.8741
 4632SOL     OW25531   0.749   0.560   8.626 -0.0279 -0.3097 -0.3293
 4632SOL    HW125532   0.702   0.572   8.543  2.2973  0.3089 -1.5670
 4632SOL    HW225533   0.746   0.650   8.659 -0.1936 -0.3546 -0.2224
 4633SOL     OW25534   1.077   3.850   8.500  0.3511 -0.1617 -0.3100
 4633SOL    HW125535   1.146   3.786   8.516  2.3662  1.1821 -3.5689
 4633SOL    HW225536   1.003   3.788   8.499 -1.2893  1.7610  1.9741
 4634SOL     OW25537   2.438   0.716   4.286  0.0113 -0.2427  0.3182
 4634SOL    HW125538   2.517   0.681   4.327  0.6980  2.1095  0.9904
 4634SOL    HW225539   2.429   0.804   4.322  3.4213 -0.6156  2.0417
 4635SOL     OW25540   0.447   1.931   2.000  0.4185 -0.6506  0.4254
 4635SOL    HW125541   0.486   1.876   1.932  2.3942  0.2556  0.8308
 4635SOL    HW225542   0.352   1.920   1.992  0.3687 -0.9083  1.4748
 4636SOL     OW25543   1.821   1.688   2.937 -0.2804  0.2726 -0.0390
 4636SOL    HW125544   1.863   1.627   2.876  2.1095  1.0903  0.7539
 4636SOL    HW225545   1.855   1.657   3.021 -0.3491  0.2445 -0.0219
 4637SOL     OW25546   0.491   1.850   8.905 -0.1917  0.1010  0.4340
 4637SOL    HW125547   0.532   1.827   8.821 -0.3839 -0.7875  0.5891
 4637SOL    HW225548   0.569   1.846   8.960 -1.1854  3.3139  2.0884
 4638SOL     OW25549   3.903   4.336  12.292  0.0756  0.6409 -0.4324
 4638SOL    HW125550   3.912   4.241  12.285 -0.2656  0.6436 -0.8983
 4638SOL    HW225551   3.984   4.372  12.328  1.1906  0.2715 -2.5856
 4639SOL     OW25552   2.994   1.624   3.123 -0.3880  0.0554 -0.1326
 4639SOL    HW125553   2.961   1.570   3.194  0.7958 -0.0857  0.3142
 4639SOL    HW225554   2.928   1.692   3.111 -0.5748 -0.2758 -0.9591
 4640SOL     OW25555   1.937   4.481   5.274 -0.7053 -0.3436 -0.2006
 4640SOL    HW125556   1.989   4.560   5.285  0.3734 -1.0476 -0.2962
 4640SOL    HW225557   1.963   4.419   5.342 -2.2315 -0.3122  0.4342
 4641SOL     OW25558   0.284   3.333   7.453 -0.2660 -0.1752  0.4281
 4641SOL    HW125559   0.277   3.428   7.462 -1.6516 -0.2007 -0.4249
 4641SOL    HW225560   0.341   3.316   7.528  0.7608 -0.7124 -0.4619
 4642SOL     OW25561   4.146   3.188   7.292  0.2415  0.0318 -0.2280
 4642SOL    HW125562   4.121   3.275   7.322 -0.7841  0.4277 -2.2326
 4642SOL    HW225563   4.076   3.133   7.258 -0.5374  2.1301 -2.0029
 4643SOL     OW25564   1.846   4.253   1.727  0.2420  0.3502 -0.2315
 4643SOL    HW125565   1.929   4.208   1.713  1.0986  1.3474  1.5486
 4643SOL    HW225566   1.820   4.208   1.808 -0.0546 -0.5826 -0.8456
 4644SOL     OW25567   1.933   2.578   9.532 -0.0373  0.5255 -0.3100
 4644SOL    HW125568   1.895   2.491   9.542  0.6172  0.1268 -1.2788
 4644SOL    HW225569   1.965   2.589   9.622  0.0318 -0.3735 -0.2306
 4645SOL     OW25570   3.086   0.896   1.649  0.2010 -0.0231 -0.3633
 4645SOL    HW125571   2.993   0.917   1.652  0.4373  1.4687 -3.8284
 4645SOL    HW225572   3.129   0.981   1.657  0.5958 -0.1411 -1.1585
 4646SOL     OW25573   2.643   2.873   7.762 -0.4287  0.5336  0.2911
 4646SOL    HW125574   2.717   2.909   7.811  0.2405  1.9329 -1.7421
 4646SOL    HW225575   2.617   2.802   7.820 -0.1683  0.0817 -0.1521
 4647SOL     OW25576   1.495   1.544  17.700  0.9596 -0.2562 -0.2519
 4647SOL    HW125577   1.471   1.507   0.034  0.3559 -0.1380 -0.3704
 4647SOL    HW225578   1.471   1.632  17.727 -0.3336 -0.6486 -0.1033
 4648SOL     OW25579   3.251   3.405   8.202  0.5936 -0.0928  0.4601
 4648SOL    HW125580   3.180   3.356   8.161 -0.9435  0.9777  1.8059
 4648SOL    HW225581   3.263   3.371   8.291  0.4651  2.4107  1.4392
 4649SOL     OW25582   4.522   4.388  12.038 -0.6504 -0.4045  0.0356
 4649SOL    HW125583   4.485   4.416  12.122  1.1891 -1.3454  1.1616
 4649SOL    HW225584   4.506   4.466  11.985 -0.9906 -1.7204 -1.8125
 4650SOL     OW25585   2.453   3.093  11.471 -0.1695  0.0115 -0.6557
 4650SOL    HW125586   2.401   3.103  11.391 -0.0068 -0.9658 -0.8781
 4650SOL    HW225587   2.467   3.186  11.491 -0.4129 -0.1617  0.3204
 4651SOL     OW25588   1.121   2.127   3.867  0.2877 -0.0667 -0.1581
 4651SOL    HW125589   1.198   2.152   3.817  0.5790 -0.3962  0.1200
 4651SOL    HW225590   1.051   2.153   3.808  0.9663  1.5202 -0.2676
 4652SOL     OW25591   4.045   0.535  12.834 -0.2509 -0.3701 -0.1170
 4652SOL    HW125592   4.101   0.524  12.758  0.8002 -0.3194  0.6431
 4652SOL    HW225593   3.956   0.510  12.810 -1.1465  1.7154  0.9788
 4653SOL     OW25594   2.094   1.648   0.482 -0.7300  0.5835  0.0238
 4653SOL    HW125595   2.044   1.579   0.439 -0.8137 -0.1133  1.2578
 4653SOL    HW225596   2.176   1.601   0.496  0.0985  2.4019  1.2766
 4654SOL     OW25597   3.934   2.629   2.792 -0.2418 -0.0266 -0.0373
 4654SOL    HW125598   3.859   2.667   2.839 -0.1792 -1.1420  0.9503
 4654SOL    HW225599   3.897   2.563   2.734 -0.5081 -0.8313  1.0599
 4655SOL     OW25600   3.078   3.912   5.077  0.0479  0.3573 -0.3636
 4655SOL    HW125601   2.994   3.900   5.120  0.6450  0.7402  0.9219
 4655SOL    HW225602   3.122   3.831   5.103  1.6622  1.0429 -0.9267
 4656SOL     OW25603   4.545   2.800  11.407  1.0285 -0.2543  0.3105
 4656SOL    HW125604   4.494   2.880  11.416  3.5450  1.3816  0.1975
 4656SOL    HW225605   4.524   2.757  11.490  0.0181 -0.0080  0.1780
 4657SOL     OW25606   3.147   4.204  17.281 -0.1985 -0.1429 -0.1901
 4657SOL    HW125607   3.144   4.164  17.194  1.9852 -1.6753  0.4401
 4657SOL    HW225608   3.241   4.219  17.292 -0.3270  1.2172 -0.9514
 4658SOL     OW25609   3.781   0.489   2.380  0.4335  0.0563  0.2765
 4658SOL    HW125610   3.788   0.414   2.439  0.8732 -0.3857 -0.3396
 4658SOL    HW225611   3.842   0.537   2.436  1.9118 -1.0734 -0.3753
 4659SOL     OW25612   0.733   2.735  12.126 -0.3629 -0.3058  0.0694
 4659SOL    HW125613   0.816   2.701  12.093 -0.3778  0.7012 -1.0137
 4659SOL    HW225614   0.698   2.773  12.046 -1.0036 -1.1124 -0.0399
 4660SOL     OW25615   0.723   4.620  16.506 -0.3063  0.1773  0.2555
 4660SOL    HW125616   0.681   4.683  16.564 -0.5075  1.0707 -0.8605
 4660SOL    HW225617   0.710   4.533  16.543  1.8407 -0.7963 -1.2848
 4661SOL     OW25618   4.734   3.388   7.994  0.0130 -0.8695 -0.1734
 4661SOL    HW125619   4.694   3.302   8.008  0.1186 -0.8931 -0.0118
 4661SOL    HW225620   0.013   3.399   7.901  0.3923  0.8245  0.0842
 4662SOL     OW25621   3.472   0.951  16.903 -0.1044  0.0845  0.4392
 4662SOL    HW125622   3.454   1.003  16.981 -1.0576  0.2714  0.0889
 4662SOL    HW225623   3.533   1.005  16.851 -1.3458  1.6268  0.5999
 4663SOL     OW25624   0.671   1.391  10.432  0.0597  0.2656  0.0273
 4663SOL    HW125625   0.637   1.405  10.344 -0.1600 -1.4047 -0.1621
 4663SOL    HW225626   0.670   1.480  10.468  0.6324  0.3457 -0.1591
 4664SOL     OW25627   1.719   4.380  15.615  0.1544 -0.3470 -0.3658
 4664SOL    HW125628   1.681   4.325  15.684  0.0548 -1.7951 -1.5770
 4664SOL    HW225629   1.777   4.438  15.665 -0.0333 -0.1305 -0.4033
 4665SOL     OW25630   4.348   3.005  10.982  0.1239  0.2473 -0.4262
 4665SOL    HW125631   4.323   2.994  10.890 -1.7486 -0.9504  0.2228
 4665SOL    HW225632   4.390   3.090  10.975  1.0048 -0.1404  0.2261
 4666SOL     OW25633   1.435   2.703   9.393  0.5392  0.3481 -0.3452
 4666SOL    HW125634   1.431   2.686   9.299 -3.4561 -2.2970  0.3313
 4666SOL    HW225635   1.360   2.656   9.427  0.6547  1.4304  1.4213
 4667SOL     OW25636   1.234   3.638   8.620  0.0759  0.4624 -0.0741
 4667SOL    HW125637   1.245   3.564   8.561 -0.7690  0.5130 -0.2912
 4667SOL    HW225638   1.163   3.602   8.674 -0.5956 -0.6776 -1.7261
 4668SOL     OW25639   0.077   1.576   2.986 -0.1837 -0.0542  0.0731
 4668SOL    HW125640   0.128   1.628   2.925  1.5013 -2.3654 -0.5033
 4668SOL    HW225641   0.034   1.650   3.028 -0.0687  1.1569 -1.9573
 4669SOL     OW25642   2.601   2.811   6.710 -0.3535  0.1986 -0.2969
 4669SOL    HW125643   2.646   2.750   6.652 -1.3901 -0.5925 -0.2692
 4669SOL    HW225644   2.637   2.782   6.794  1.4603 -1.7712 -1.7526
 4670SOL     OW25645   3.011   3.182   2.019 -0.1972  0.1895  0.6244
 4670SOL    HW125646   3.079   3.119   2.043 -1.5771 -2.2249 -1.8347
 4670SOL    HW225647   3.015   3.224   2.105  0.1461  1.7093 -0.1287
 4671SOL     OW25648   4.726   2.895   3.691  0.1298  0.6195  0.3568
 4671SOL    HW125649   4.716   2.869   3.599 -0.3662 -0.7274  0.7965
 4671SOL    HW225650   0.076   2.865   3.712 -0.3163 -0.4343  0.7128
 4672SOL     OW25651   4.093   2.674  10.792  0.1782  0.1433 -0.0885
 4672SOL    HW125652   4.052   2.696  10.708 -0.0833 -2.3125 -0.6187
 4672SOL    HW225653   4.185   2.656  10.772  0.1845 -0.7437  0.7228
 4673SOL     OW25654   3.292   4.617  14.527 -0.1768 -0.3332 -0.0556
 4673SOL    HW125655   3.348   4.540  14.531  1.7469  0.8932 -2.9111
 4673SOL    HW225656   3.356   4.685  14.507  0.3820 -0.0337  2.7480
 4674SOL     OW25657   2.235   4.670   3.818  0.0179  0.2696 -0.6813
 4674SOL    HW125658   2.266   4.675   3.728  1.6437  3.1642  0.0602
 4674SOL    HW225659   2.276   4.591   3.853  3.0460  1.3273 -1.8999
 4675SOL     OW25660   1.222   3.503  11.622  0.2939 -0.5190  0.2630
 4675SOL    HW125661   1.305   3.461  11.644  1.7052  1.8595 -0.5315
 4675SOL    HW225662   1.172   3.422  11.617 -1.3911  0.4701  1.1473
 4676SOL     OW25663   1.916   1.278   1.944 -0.2516 -0.1731 -0.5333
 4676SOL    HW125664   1.934   1.349   1.882  0.0552 -0.5981 -0.9345
 4676SOL    HW225665   1.947   1.318   2.025 -1.4252  0.2274 -0.2742
 4677SOL     OW25666   0.609   0.201   8.894 -0.2814  0.3201  0.1019
 4677SOL    HW125667   0.615   0.224   8.802  0.2939  0.3401  0.1443
 4677SOL    HW225668   0.587   0.109   8.882 -0.4530  0.5481 -1.3296
 4678SOL     OW25669   3.059   2.427  13.590  0.6509 -0.2771  0.2544
 4678SOL    HW125670   3.043   2.368  13.516  1.0416  0.2323 -0.2293
 4678SOL    HW225671   3.145   2.460  13.566  0.8846 -1.4485 -0.5244
 4679SOL     OW25672   4.626   2.756   8.499  0.0392  1.0129 -0.0974
 4679SOL    HW125673   4.659   2.834   8.543 -0.3660  1.3619 -0.4111
 4679SOL    HW225674   4.535   2.782   8.485  0.1204  0.8328 -0.9689
 4680SOL     OW25675   2.622   1.045  10.168 -0.1308  0.2141  0.1680
 4680SOL    HW125676   2.657   0.978  10.108 -2.1277  1.0603 -1.9582
 4680SOL    HW225677   2.591   1.107  10.103  0.0730 -1.6830 -1.7589
 4681SOL     OW25678   4.268   1.654   5.142  0.2472 -0.8986 -0.4083
 4681SOL    HW125679   4.201   1.660   5.211  0.1808  2.2108 -0.7151
 4681SOL    HW225680   4.228   1.583   5.092 -0.5315 -0.9342  0.2573
 4682SOL     OW25681   4.183   3.567   2.060  0.0660 -0.2961 -0.3576
 4682SOL    HW125682   4.217   3.607   1.980 -1.6292 -1.9205 -1.8971
 4682SOL    HW225683   4.242   3.588   2.132 -0.7963 -1.7236  0.7885
 4683SOL     OW25684   4.323   3.738   6.908 -0.3318 -0.5415 -0.5659
 4683SOL    HW125685   4.410   3.758   6.942  0.3058 -2.5331 -0.9824
 4683SOL    HW225686   4.345   3.727   6.816 -2.3072 -1.8734 -0.8821
 4684SOL     OW25687   0.507   2.600   7.281  0.1591  0.0929 -0.0863
 4684SOL    HW125688   0.524   2.524   7.336 -0.1226 -0.5892 -0.9273
 4684SOL    HW225689   0.490   2.564   7.193 -0.3234  2.3761 -0.9400
 4685SOL     OW25690   0.265   1.520   8.104 -0.1477 -0.1868 -0.0345
 4685SOL    HW125691   0.306   1.555   8.025  0.5769  0.1226  0.4771
 4685SOL    HW225692   0.174   1.550   8.095  0.0009  0.8087  1.7005
 4686SOL     OW25693   3.235   2.261  17.045 -0.7586  0.0845  0.3253
 4686SOL    HW125694   3.291   2.334  17.021  0.6272  0.0467  3.5004
 4686SOL    HW225695   3.178   2.296  17.113 -0.4571 -0.3567  0.8055
 4687SOL     OW25696   0.881   4.241   7.210 -0.2349  0.3180  0.1597
 4687SOL    HW125697   0.885   4.148   7.233 -1.0274  0.4498  0.8297
 4687SOL    HW225698   0.895   4.282   7.295  2.7080 -1.8457  0.7280
 4688SOL     OW25699   4.257   1.772   2.773  0.2523 -0.2785  0.0392
 4688SOL    HW125700   4.351   1.756   2.768  0.3774  1.2406 -2.1172
 4688SOL    HW225701   4.255   1.865   2.794  0.8566 -0.3665  0.4881
 4689SOL     OW25702   2.316   0.817   9.184 -0.1533 -0.3269  0.3146
 4689SOL    HW125703   2.228   0.855   9.187  0.3860  0.8287  1.7673
 4689SOL    HW225704   2.352   0.852   9.265 -1.2751 -0.6302  0.9453
 4690SOL     OW25705   3.418   4.050   1.884  0.4089 -0.7203  0.2854
 4690SOL    HW125706   3.410   3.965   1.928  3.1778 -1.0716  0.1505
 4690SOL    HW225707   3.357   4.097   1.940 -0.4287  0.8576 -1.9735
 4691SOL     OW25708   2.670   2.571   4.064  0.1455  0.7999 -0.8380
 4691SOL    HW125709   2.662   2.476   4.074 -2.1881  1.0441 -0.2560
 4691SOL    HW225710   2.583   2.594   4.032 -0.0744  2.8757  1.2675
 4692SOL     OW25711   4.541   1.878   5.171 -0.6692  0.0821 -0.1479
 4692SOL    HW125712   4.460   1.830   5.153  0.7155 -1.7461 -1.5225
 4692SOL    HW225713   4.571   1.909   5.085  0.0646 -1.3567 -0.4116
 4693SOL     OW25714   0.569   3.955  10.406 -0.0423 -0.0118  0.3298
 4693SOL    HW125715   0.576   3.978  10.313  0.2846 -1.7328 -0.0693
 4693SOL    HW225716   0.575   3.860  10.418 -1.8208 -0.4483 -2.4416
 4694SOL     OW25717   4.630   2.093  12.413  0.3386 -0.2494  0.2132
 4694SOL    HW125718   4.567   2.136  12.471  0.9249  1.8034 -0.6629
 4694SOL    HW225719   4.598   2.136  12.333 -0.6496  0.3624  0.9309
 4695SOL     OW25720   0.301   0.435   5.305 -0.2063  0.0821 -0.2989
 4695SOL    HW125721   0.366   0.386   5.356 -0.6666 -1.4270 -1.1735
 4695SOL    HW225722   0.306   0.395   5.218  0.3591  1.1842 -0.7828
 4696SOL     OW25723   3.887   0.602  14.904  0.4566  0.2263  0.0835
 4696SOL    HW125724   3.842   0.626  14.823 -2.4464 -1.5294  1.1801
 4696SOL    HW225725   3.876   0.683  14.954  0.7268  1.1038 -1.2742
 4697SOL     OW25726   3.022   2.253   4.997 -0.8537 -0.6609 -0.0316
 4697SOL    HW125727   3.038   2.344   5.019  1.8642 -1.0996 -0.1581
 4697SOL    HW225728   2.929   2.241   5.014 -1.6461  1.8025 -2.7411
 4698SOL     OW25729   2.173   1.875   5.099  0.4626  0.3079 -0.0365
 4698SOL    HW125730   2.188   1.786   5.130  2.2787  0.7453  0.3190
 4698SOL    HW225731   2.126   1.917   5.171  1.1452 -3.2504  2.4990
 4699SOL     OW25732   3.162   2.419   6.411 -0.6096 -0.3227  0.2470
 4699SOL    HW125733   3.091   2.463   6.365 -1.2547  2.2700  3.6396
 4699SOL    HW225734   3.233   2.423   6.347 -1.2247  0.2739 -0.3952
 4700SOL     OW25735   3.595   4.387   1.626 -0.1832  0.4607 -0.0780
 4700SOL    HW125736   3.615   4.297   1.597 -1.5071  0.2376 -0.2920
 4700SOL    HW225737   3.511   4.365   1.665  0.0619 -0.2882  0.0298
 4701SOL     OW25738   1.376   0.998   1.511 -0.3091 -0.1506 -0.0918
 4701SOL    HW125739   1.282   1.000   1.495 -0.3110  2.7546  0.2340
 4701SOL    HW225740   1.399   1.071   1.453 -1.3806 -1.7659 -2.5675
 4702SOL     OW25741   4.279   1.391   3.190  0.0551  0.5724  0.2208
 4702SOL    HW125742   4.225   1.329   3.240  0.2303  0.6022  0.4451
 4702SOL    HW225743   4.279   1.457   3.259  0.2615  0.3890  0.3988
 4703SOL     OW25744   3.272   2.983   7.160 -0.6545 -0.2661 -0.0101
 4703SOL    HW125745   3.286   2.992   7.065  1.0971  1.0410  0.3751
 4703SOL    HW225746   3.358   3.001   7.199 -0.6781 -0.0979 -0.0374
 4704SOL     OW25747   1.961   3.449  15.762 -0.0389  0.3577 -0.0495
 4704SOL    HW125748   1.968   3.466  15.668 -1.4662  0.4287 -0.1432
 4704SOL    HW225749   2.024   3.377  15.756  0.8712  1.0144  1.7359
 4705SOL     OW25750   3.683   0.868   5.205  0.2781  0.0224  0.1223
 4705SOL    HW125751   3.745   0.934   5.235 -1.4262  1.4632  0.4392
 4705SOL    HW225752   3.623   0.911   5.144 -0.7573 -0.1983  0.9854
 4706SOL     OW25753   3.436   1.368   6.155 -0.2142  0.0302  0.1684
 4706SOL    HW125754   3.506   1.303   6.165  0.3516  0.9872  2.4043
 4706SOL    HW225755   3.395   1.348   6.239  0.0050 -0.3230  0.1904
 4707SOL     OW25756   3.611   1.150   5.566 -0.2573  0.4449 -0.5306
 4707SOL    HW125757   3.657   1.066   5.561  0.0265  0.6910 -2.2520
 4707SOL    HW225758   3.540   1.149   5.502 -1.0613  1.1006  0.3424
 4708SOL     OW25759   0.179   4.058   2.559  0.1946 -0.6485 -0.1862
 4708SOL    HW125760   0.268   4.033   2.584  0.1443 -0.7521 -0.1093
 4708SOL    HW225761   0.127   3.977   2.566 -0.7460 -0.1831 -1.7911
 4709SOL     OW25762   2.894   3.705  17.120  0.4104  0.1183 -0.2690
 4709SOL    HW125763   2.893   3.762  17.043 -2.6356  1.7560  1.0163
 4709SOL    HW225764   2.965   3.738  17.174  0.3176  0.2850 -0.2512
 4710SOL     OW25765   2.712   3.814   6.716  0.5313  0.0743  0.3207
 4710SOL    HW125766   2.622   3.821   6.746  0.6426 -0.4308  0.7837
 4710SOL    HW225767   2.693   3.813   6.622  0.2390 -2.2254  0.3973
 4711SOL     OW25768   4.025   1.823   6.985 -0.0474 -0.1412 -0.0056
 4711SOL    HW125769   4.101   1.881   6.992  0.0474 -0.2318 -0.2854
 4711SOL    HW225770   4.016   1.823   6.890  2.1819  0.1214 -0.2200
 4712SOL     OW25771   1.106   1.047   1.410  0.3497 -0.3432 -0.2207
 4712SOL    HW125772   1.012   1.062   1.413 -0.0071 -2.4701 -0.3384
 4712SOL    HW225773   1.093   0.960   1.371 -0.3180  1.0188 -3.0549
 4713SOL     OW25774   0.446   1.145   2.302 -0.3133  0.1602 -0.0478
 4713SOL    HW125775   0.389   1.216   2.274 -1.2041 -1.0557 -1.2875
 4713SOL    HW225776   0.458   1.162   2.396 -1.5646 -0.0232  0.1439
 4714SOL     OW25777   0.857   0.428   2.344 -0.0735 -0.0262 -0.5407
 4714SOL    HW125778   0.886   0.518   2.331 -0.5558  0.0507 -1.0944
 4714SOL    HW225779   0.889   0.378   2.268 -2.1137 -2.1494 -0.0063
 4715SOL     OW25780   2.370   0.535   7.471  0.2334  0.1478 -0.4076
 4715SOL    HW125781   2.439   0.595   7.501 -1.1310  0.8275  1.3680
 4715SOL    HW225782   2.366   0.470   7.541 -1.9664 -0.4280 -1.0870
 4716SOL     OW25783   3.451   2.216   3.973  0.0021  0.0294  0.0493
 4716SOL    HW125784   3.508   2.257   4.038  0.2134 -0.0249 -0.1019
 4716SOL    HW225785   3.477   2.124   3.969  0.1775  0.1388 -1.7531
 4717SOL     OW25786   1.350   0.676   4.337  0.9969  0.1140  0.3887
 4717SOL    HW125787   1.437   0.670   4.298  1.2381 -0.0335  0.9523
 4717SOL    HW225788   1.350   0.749   4.399  0.5126  0.4363  0.0059
 4718SOL     OW25789   1.634   2.601   2.810 -0.4724 -0.1141 -0.3811
 4718SOL    HW125790   1.668   2.681   2.850  1.6185 -1.1319 -0.0769
 4718SOL    HW225791   1.564   2.576   2.870 -1.7534  0.5597 -1.5888
 4719SOL     OW25792   0.086   4.215   2.787  0.4720  0.0577 -0.1800
 4719SOL    HW125793   0.133   4.155   2.730 -1.2185 -0.8003 -0.6910
 4719SOL    HW225794   4.731   4.205   2.765  0.6064  0.5801 -0.9797
 4720SOL     OW25795   0.760   3.315  11.324  0.0322  0.3867  0.1241
 4720SOL    HW125796   0.720   3.236  11.358  0.2580  0.4009  0.4277
 4720SOL    HW225797   0.851   3.303  11.354  0.6008  0.0210 -1.7363
 4721SOL     OW25798   2.232   2.311   1.417  0.2189 -0.6160  0.5295
 4721SOL    HW125799   2.292   2.289   1.488  2.2853 -0.3397 -1.1015
 4721SOL    HW225800   2.164   2.357   1.465 -0.9524  0.1195 -1.8150
 4722SOL     OW25801   3.847   0.366   4.511 -1.0043  0.1478 -0.0542
 4722SOL    HW125802   3.775   0.305   4.526 -1.6372  0.7562 -0.6184
 4722SOL    HW225803   3.826   0.447   4.558 -0.0409  0.5211 -0.2644
 4723SOL     OW25804   3.720   3.112   1.202  0.0487 -0.4052  0.0574
 4723SOL    HW125805   3.663   3.189   1.199 -0.4778 -0.7858  0.3279
 4723SOL    HW225806   3.696   3.066   1.282  0.1000 -2.4520 -1.1033
 4724SOL     OW25807   4.421   2.869   4.621 -0.3084  1.1509  0.1943
 4724SOL    HW125808   4.354   2.869   4.553  1.4719 -0.1710 -1.5364
 4724SOL    HW225809   4.394   2.798   4.679  1.2438 -0.2290 -0.7790
 4725SOL     OW25810   2.055   0.975  14.337 -0.3130 -0.3017  0.7316
 4725SOL    HW125811   2.000   1.053  14.330 -1.9994 -1.5076  0.4402
 4725SOL    HW225812   1.994   0.905  14.313 -1.4021  0.9133 -0.0735
 4726SOL     OW25813   0.513   3.355  11.180  0.5284  0.2985 -0.1557
 4726SOL    HW125814   0.594   3.407  11.171  1.0686 -1.1113 -3.1458
 4726SOL    HW225815   0.508   3.341  11.275  0.1351  1.5525  0.0121
 4727SOL     OW25816   2.484   0.622   0.060  0.3219 -0.4314 -0.3920
 4727SOL    HW125817   2.484   0.712   0.029 -1.6943 -0.5853 -0.8283
 4727SOL    HW225818   2.562   0.579   0.024 -0.9861 -3.1508  0.0310
 4728SOL     OW25819   3.968   3.140   1.482  0.4553  0.6354  0.5154
 4728SOL    HW125820   4.060   3.138   1.507  1.1328 -2.2335 -2.1363
 4728SOL    HW225821   3.968   3.216   1.423 -2.7174 -0.7777 -1.3394
 4729SOL     OW25822   0.802   2.349   3.019  0.3409  0.0543 -0.3431
 4729SOL    HW125823   0.729   2.409   3.002 -0.4358 -0.4195  1.3069
 4729SOL    HW225824   0.845   2.357   2.934 -1.3164  1.0321 -1.0870
 4730SOL     OW25825   0.961   3.185   1.986  0.2687  0.0473  0.3977
 4730SOL    HW125826   1.055   3.181   2.003  0.5116  0.2731 -0.9021
 4730SOL    HW225827   0.943   3.099   1.948  0.9130 -0.2972  0.8680
 4731SOL     OW25828   4.730   3.663   2.358 -0.0094 -0.0088 -0.2791
 4731SOL    HW125829   0.034   3.687   2.275  2.1336  1.0986  1.1135
 4731SOL    HW225830   4.676   3.591   2.326  1.1380 -2.3160  2.9845
 4732SOL     OW25831   3.974   3.500   1.151  0.3998 -0.0884  0.1102
 4732SOL    HW125832   3.940   3.553   1.078  2.1405 -1.9732 -2.0929
 4732SOL    HW225833   3.902   3.492   1.213  0.4972  0.6226  0.3104
 4733SOL     OW25834   3.313   1.227  10.701 -0.3841  0.3213  0.3745
 4733SOL    HW125835   3.389   1.171  10.713  0.8604  1.8821 -0.2282
 4733SOL    HW225836   3.358   1.310  10.682 -1.2308  0.8382  0.6133
 4734SOL     OW25837   2.249   0.455  15.507 -0.0261  0.1532  0.1730
 4734SOL    HW125838   2.177   0.427  15.450 -0.4075 -0.0115  0.7413
 4734SOL    HW225839   2.210   0.516  15.569  0.1980 -0.0730  0.5351
 4735SOL     OW25840   4.523   3.619   8.614  0.2790  0.0208 -0.0299
 4735SOL    HW125841   4.438   3.636   8.574  0.1610  0.7964  0.5632
 4735SOL    HW225842   4.507   3.642   8.705 -1.4100  0.6046 -0.4715
 4736SOL     OW25843   1.114   2.551   0.458  0.2103  0.0033 -0.5989
 4736SOL    HW125844   1.084   2.470   0.418 -1.6300  1.0055 -1.2116
 4736SOL    HW225845   1.033   2.602   0.458  0.6585  0.6952 -2.6337
 4737SOL     OW25846   2.471   2.103   9.708  0.3174 -0.1992  0.6415
 4737SOL    HW125847   2.553   2.104   9.659 -0.1383 -0.3901 -0.1122
 4737SOL    HW225848   2.442   2.193   9.722 -1.0079 -0.1067 -2.8109
 4738SOL     OW25849   2.970   3.671   8.632  0.1267  0.3392  0.1461
 4738SOL    HW125850   2.886   3.676   8.679 -0.9177  1.5113 -1.8511
 4738SOL    HW225851   3.003   3.583   8.649  0.0768 -0.1654 -2.4410
 4739SOL     OW25852   3.904   1.026   3.858 -0.0918  0.2980  0.9137
 4739SOL    HW125853   3.876   0.959   3.796 -0.1716 -0.2364  1.5209
 4739SOL    HW225854   3.816   1.058   3.878 -1.3765 -1.3542 -2.2197
 4740SOL     OW25855   1.056   1.144   2.910 -0.2573  0.7897  0.0352
 4740SOL    HW125856   1.037   1.073   2.849 -0.6405  0.5438  0.4367
 4740SOL    HW225857   1.058   1.103   2.997  0.5445  0.6071 -0.0706
 4741SOL     OW25858   2.952   4.548   4.560  0.4193  0.0193 -0.2151
 4741SOL    HW125859   3.024   4.536   4.498  1.2459  1.0926  0.5342
 4741SOL    HW225860   2.952   4.464   4.606  1.5954  0.8663  1.3037
 4742SOL     OW25861   2.922   3.210   7.338  0.0073 -0.0843 -0.5190
 4742SOL    HW125862   2.948   3.126   7.375 -0.8303 -0.7127 -1.3688
 4742SOL    HW225863   2.998   3.256   7.301  1.3933 -0.6594  1.6375
 4743SOL     OW25864   0.226   3.090   3.499 -0.1123  0.5176  0.2550
 4743SOL    HW125865   0.199   3.180   3.483 -0.2057  0.1849 -1.4332
 4743SOL    HW225866   0.263   3.076   3.412  0.2844 -2.1445  0.8501
 4744SOL     OW25867   3.678   3.007   2.802 -0.2056 -0.1222 -0.2597
 4744SOL    HW125868   3.649   2.920   2.774  2.6556 -1.2809  0.3083
 4744SOL    HW225869   3.692   2.999   2.897 -2.5667 -1.4741 -0.0153
 4745SOL     OW25870   0.863   0.946   1.045 -0.0596  0.0045  0.4677
 4745SOL    HW125871   0.867   0.851   1.060  1.4438  0.0578  0.4166
 4745SOL    HW225872   0.847   0.956   0.951  0.9920  0.7414  0.3748
 4746SOL     OW25873   2.143   2.004   7.979 -0.3509  0.3292 -0.0797
 4746SOL    HW125874   2.237   2.012   7.966 -0.6636  0.9472 -1.8812
 4746SOL    HW225875   2.128   1.914   7.952 -2.3504  0.9241 -0.9692
 4747SOL     OW25876   1.580   1.456   4.177 -0.1474 -0.0952 -0.6147
 4747SOL    HW125877   1.593   1.362   4.190 -1.1646 -0.1883 -0.2297
 4747SOL    HW225878   1.519   1.472   4.248  1.4307 -0.9935  0.9439
 4748SOL     OW25879   4.634   0.609   4.143 -0.3454  0.0076 -0.1980
 4748SOL    HW125880   4.662   0.681   4.199  2.1545 -2.8978  2.2577
 4748SOL    HW225881   4.556   0.580   4.191  2.1912 -1.7560  2.8444
 4749SOL     OW25882   4.564   0.329   1.056 -0.3328 -0.1702  0.6923
 4749SOL    HW125883   4.610   0.386   1.117  0.0565  0.3804 -0.1232
 4749SOL    HW225884   4.576   0.245   1.100  3.1544 -0.2667 -0.4823
 4750SOL     OW25885   1.228   1.595   5.874 -0.2960  0.3295  0.0538
 4750SOL    HW125886   1.266   1.510   5.897  0.7500  1.6254  3.0557
 4750SOL    HW225887   1.206   1.586   5.781  2.0773  0.3591 -0.5043
 4751SOL     OW25888   4.319   0.786  10.698  0.2821  0.2787  0.3026
 4751SOL    HW125889   4.395   0.843  10.687  0.8276 -0.0895  2.2053
 4751SOL    HW225890   4.281   0.836  10.770  0.8260  2.2755 -0.7922
 4752SOL     OW25891   1.068   1.105   6.329  0.5039 -0.2073 -0.0678
 4752SOL    HW125892   1.089   1.016   6.359 -1.8946 -0.6387  0.3919
 4752SOL    HW225893   1.118   1.110   6.248 -0.8511  0.9765 -0.8196
 4753SOL     OW25894   2.805   3.239   6.522 -0.4363 -0.0360  0.6116
 4753SOL    HW125895   2.737   3.189   6.568 -0.5496 -0.9418 -0.5289
 4753SOL    HW225896   2.830   3.299   6.592 -0.3537 -0.7951  1.2387
 4754SOL     OW25897   1.046   1.640   0.700  0.4653 -0.5134 -0.0724
 4754SOL    HW125898   0.955   1.628   0.726  0.5296 -1.2678 -0.1848
 4754SOL    HW225899   1.024   1.673   0.613  2.1586  0.5361 -0.1027
 4755SOL     OW25900   3.749   0.857  15.005 -0.6251  0.6069  0.1785
 4755SOL    HW125901   3.768   0.937  14.955 -0.2417  0.7113  0.4833
 4755SOL    HW225902   3.668   0.828  14.963 -0.1943 -0.9583  0.4283
 4756SOL     OW25903   0.220   3.897   1.396 -0.1973  0.2377  0.1361
 4756SOL    HW125904   0.294   3.839   1.382 -0.6812 -0.0986 -1.0373
 4756SOL    HW225905   0.154   3.832   1.419 -2.0696  0.9917 -3.1391
 4757SOL     OW25906   0.257   1.331   3.979 -0.1507 -0.9900  0.8126
 4757SOL    HW125907   0.322   1.390   3.943 -4.7536  0.9983 -4.2438
 4757SOL    HW225908   0.313   1.253   3.988  2.5379  0.6555 -1.8975
 4758SOL     OW25909   1.084   3.412   8.754 -0.2062 -0.0803 -0.2135
 4758SOL    HW125910   1.030   3.361   8.694 -1.4957  1.9748 -0.7929
 4758SOL    HW225911   1.024   3.440   8.823 -0.8829 -0.3437 -0.7032
 4759SOL     OW25912   0.955   3.878  16.803 -0.5534  0.2083  0.0576
 4759SOL    HW125913   0.985   3.799  16.757  0.5871  0.5375  0.2427
 4759SOL    HW225914   1.040   3.918  16.818 -0.8153  1.4644 -1.8526
 4760SOL     OW25915   2.518   3.273  16.127  0.2834  0.0565  0.0760
 4760SOL    HW125916   2.498   3.349  16.182  0.8729 -0.0549  0.4456
 4760SOL    HW225917   2.504   3.208  16.196 -0.5304  0.5279  0.3524
 4761SOL     OW25918   4.337   1.060   3.479  0.1735  0.4794  0.0089
 4761SOL    HW125919   4.290   1.055   3.563 -3.3984  0.5210 -1.9861
 4761SOL    HW225920   4.263   1.059   3.419  0.4031  1.6769 -0.2923
 4762SOL     OW25921   4.497   0.026  12.745 -0.1677  0.3109  0.1511
 4762SOL    HW125922   4.480   4.692  12.806 -0.2892  0.4277  0.2575
 4762SOL    HW225923   4.428   0.013  12.680 -1.6689  1.5973  1.4857
 4763SOL     OW25924   4.420   0.531   4.576 -0.1603  0.2862  0.1493
 4763SOL    HW125925   4.439   0.583   4.655  3.2223 -0.5231 -0.1430
 4763SOL    HW225926   4.324   0.527   4.579 -0.2102  3.3144  3.0070
 4764SOL     OW25927   2.384   1.972  13.382  0.2619 -0.3803  0.1363
 4764SOL    HW125928   2.361   2.057  13.344 -0.5936 -1.3721 -1.5582
 4764SOL    HW225929   2.479   1.979  13.382  0.1282  1.4390 -2.0778
 4765SOL     OW25930   3.470   4.624   2.359  0.3843 -0.1458 -0.4119
 4765SOL    HW125931   3.463   4.703   2.306  0.3238  0.6027  0.6924
 4765SOL    HW225932   3.437   4.663   2.441 -1.6915 -0.9214 -0.8654
 4766SOL     OW25933   1.768   3.441   3.894 -0.1898  0.2774  0.1775
 4766SOL    HW125934   1.736   3.385   3.823  0.3577  0.2631 -0.0612
 4766SOL    HW225935   1.769   3.392   3.976  0.5056 -1.1953 -0.7085
 4767SOL     OW25936   3.622   1.130   6.059 -0.5352 -0.3768  0.1871
 4767SOL    HW125937   3.557   1.144   5.990  0.4275  3.7233  0.1012
 4767SOL    HW225938   3.602   1.038   6.076 -3.2926 -0.0819 -1.4943
 4768SOL     OW25939   2.849   1.166   4.880 -0.4792  0.0478 -0.2501
 4768SOL    HW125940   2.754   1.161   4.892 -0.4389  2.8497  1.3456
 4768SOL    HW225941   2.854   1.254   4.842 -0.2464  0.1944  0.1215
 4769SOL     OW25942   3.464   0.032  14.044  0.0803  0.1651  0.1910
 4769SOL    HW125943   3.508   0.116  14.052  1.8926 -0.6280 -1.5523
 4769SOL    HW225944   3.402   0.048  13.973 -0.2516  1.3165  0.7474
 4770SOL     OW25945   3.061   3.840  14.546  0.6694 -0.0295 -0.2752
 4770SOL    HW125946   3.127   3.811  14.483  1.7441  3.6196 -0.8591
 4770SOL    HW225947   2.985   3.805  14.498  0.7991  0.0464 -0.5372
 4771SOL     OW25948   2.831   3.283   3.063 -1.0493  0.2185  0.0039
 4771SOL    HW125949   2.837   3.237   3.146  0.3992  1.8334  0.7848
 4771SOL    HW225950   2.839   3.210   3.001 -2.6918  0.3666 -0.3838
 4772SOL     OW25951   0.054   3.840   7.215 -0.0842 -0.1059  0.0307
 4772SOL    HW125952   0.052   3.918   7.269  0.7426 -0.5505  0.7126
 4772SOL    HW225953   4.699   3.820   7.218 -0.4436  1.3712 -1.7866
 4773SOL     OW25954   2.616   1.110   4.387 -0.6890  0.3134 -0.1798
 4773SOL    HW125955   2.547   1.064   4.339 -1.6709  1.3828  0.2149
 4773SOL    HW225956   2.607   1.085   4.479  0.0795  1.5931  0.2418
 4774SOL     OW25957   1.204   3.174   4.147 -0.3127  0.4182  0.3917
 4774SOL    HW125958   1.164   3.158   4.062 -0.9949  2.1027  0.4054
 4774SOL    HW225959   1.133   3.147   4.205  0.5158 -0.1583  1.1392
 4775SOL     OW25960   0.460   0.196  14.206 -0.1886 -1.1470  0.2570
 4775SOL    HW125961   0.545   0.191  14.250 -0.7004 -0.4095  1.3234
 4775SOL    HW225962   0.426   0.113  14.239 -1.8431 -0.7558 -0.4912
 4776SOL     OW25963   4.117   1.096   2.195 -0.1853  0.2436  0.2850
 4776SOL    HW125964   4.196   1.112   2.143  0.1346  1.5595  1.1990
 4776SOL    HW225965   4.113   1.177   2.246  0.0336 -0.5655  1.5840
 4777SOL     OW25966   1.056   0.843  13.983  0.3539  0.2790 -0.1911
 4777SOL    HW125967   1.122   0.906  14.010 -0.6204  0.8880  0.7404
 4777SOL    HW225968   1.009   0.895  13.918 -1.6881 -0.4674  0.6714
 4778SOL     OW25969   0.399   0.513  11.575  0.3781 -1.1544 -0.5539
 4778SOL    HW125970   0.419   0.431  11.620  0.3739 -0.6812  0.3133
 4778SOL    HW225971   0.315   0.494  11.534  1.1681  1.1086 -3.1954
 4779SOL     OW25972   3.919   3.939   3.868  1.1883  0.5745 -0.0859
 4779SOL    HW125973   3.923   3.983   3.783  1.8426  1.7284  0.5385
 4779SOL    HW225974   4.012   3.919   3.883  0.8746 -0.3252  0.6748
 4780SOL     OW25975   1.464   4.014   2.488 -0.2460 -0.2075  0.3571
 4780SOL    HW125976   1.488   3.986   2.400 -0.9118  0.8862 -0.1617
 4780SOL    HW225977   1.370   4.029   2.479 -0.1862  0.6265  1.1264
 4781SOL     OW25978   3.060   1.388  16.956  0.2758 -0.2729 -0.1141
 4781SOL    HW125979   3.002   1.346  17.020  1.8003 -0.5922  1.0410
 4781SOL    HW225980   3.052   1.329  16.882  1.2200 -1.0230  0.3811
 4782SOL     OW25981   0.374   2.195  16.429 -0.6263  0.8815 -0.0503
 4782SOL    HW125982   0.393   2.234  16.344 -2.4475  1.1221 -0.3578
 4782SOL    HW225983   0.361   2.103  16.408  1.6323  0.6164 -0.1997
 4783SOL     OW25984   3.938   0.501   1.940 -0.0603 -0.1628 -0.2476
 4783SOL    HW125985   3.872   0.439   1.911 -1.0021  1.2432 -1.1247
 4783SOL    HW225986   3.916   0.573   1.881  1.1596 -0.1466 -0.6813
 4784SOL     OW25987   0.872   1.991   5.533 -0.4348 -0.0190  0.0604
 4784SOL    HW125988   0.809   2.063   5.542  1.3858  1.2732  2.2920
 4784SOL    HW225989   0.834   1.919   5.583 -0.7540 -1.3143 -2.0640
 4785SOL     OW25990   3.575   0.008  17.043 -0.1556  0.4335 -0.2301
 4785SOL    HW125991   3.500   0.030  16.987 -2.1650  0.8670  2.6158
 4785SOL    HW225992   3.626   0.088  17.036 -0.7319  0.8164 -0.0767
 4786SOL     OW25993   3.748   0.500   3.573  0.4206 -0.1291  0.1694
 4786SOL    HW125994   3.841   0.522   3.579 -0.1587  2.9405 -2.0165
 4786SOL    HW225995   3.749   0.492   3.478 -0.3765  1.4648  0.0335
 4787SOL     OW25996   1.450   4.644  13.095 -0.1071  0.1936 -0.1710
 4787SOL    HW125997   1.439   4.706  13.167 -0.7581  1.6606 -1.5532
 4787SOL    HW225998   1.364   4.603  13.091  0.2491 -0.6088  0.1959
 4788SOL     OW25999   1.441   0.912   6.808  0.0271 -0.1845 -0.6127
 4788SOL    HW126000   1.387   0.843   6.770  0.3810 -0.9858  0.3468
 4788SOL    HW226001   1.482   0.949   6.730  0.8296  0.0098 -0.0934
 4789SOL     OW26002   3.642   0.987   7.385 -0.1010 -0.8364  0.6222
 4789SOL    HW126003   3.580   1.000   7.457  0.2991  1.9284  0.4743
 4789SOL    HW226004   3.638   0.892   7.385 -0.0054 -0.8199 -2.1929
 4790SOL     OW26005   3.901   0.666   1.270  0.3492  0.0709  0.3278
 4790SOL    HW126006   3.894   0.649   1.176 -2.3515 -0.2519  0.5660
 4790SOL    HW226007   3.922   0.577   1.298  0.0315 -0.2510 -0.4577
 4791SOL     OW26008   2.929   4.319   0.296 -0.4759 -0.0522 -0.6523
 4791SOL    HW126009   2.889   4.331   0.382 -0.0692 -0.0229 -0.4689
 4791SOL    HW226010   2.905   4.405   0.261  1.8572  0.8382 -0.0799
 4792SOL     OW26011   0.421   0.738   3.591  0.1555 -0.0464  0.8587
 4792SOL    HW126012   0.377   0.731   3.675 -0.8121  1.4587  0.4824
 4792SOL    HW226013   0.347   0.778   3.545  1.8487  1.2211 -0.7783
 4793SOL     OW26014   4.012   1.407  15.546 -0.5672 -0.1782  0.0595
 4793SOL    HW126015   4.087   1.466  15.541  0.2602 -1.3919 -1.8135
 4793SOL    HW226016   4.040   1.333  15.491 -0.5980 -1.2784  1.5196
 4794SOL     OW26017   3.386   3.113  14.825 -0.1694  0.5386  0.1437
 4794SOL    HW126018   3.365   3.093  14.916 -4.5462  2.7510 -0.3924
 4794SOL    HW226019   3.390   3.028  14.781 -0.6037  1.2200 -1.2070
 4795SOL     OW26020   4.644   2.966  12.392  0.0778 -0.6495  0.4229
 4795SOL    HW126021   4.661   3.059  12.376 -2.6150 -0.7713 -3.0696
 4795SOL    HW226022   4.684   2.964  12.479 -0.6979 -0.3080  0.7800
 4796SOL     OW26023   3.938   4.659   9.531 -0.2789  0.9508  0.1178
 4796SOL    HW126024   3.854   4.627   9.563  0.4790 -1.4153 -0.2706
 4796SOL    HW226025   3.973   4.705   9.608  1.3294 -0.1031  0.0246
 4797SOL     OW26026   3.984   1.055  17.245 -0.3995 -0.4456 -0.0498
 4797SOL    HW126027   3.967   1.049  17.339  1.5253 -0.0725  0.3205
 4797SOL    HW226028   3.893   1.062  17.216 -1.4911 -2.5756  2.8390
 4798SOL     OW26029   1.997   2.433   4.245  0.0847  0.2257 -0.4479
 4798SOL    HW126030   2.027   2.484   4.170  0.6837 -0.5388 -0.7218
 4798SOL    HW226031   1.976   2.508   4.300 -2.2130 -0.4377 -0.3965
 4799SOL     OW26032   3.563   1.280  14.928 -0.0277 -0.2589 -0.2935
 4799SOL    HW126033   3.571   1.294  15.023  0.0472  0.9549 -0.4776
 4799SOL    HW226034   3.506   1.204  14.925  0.2999 -0.5777  1.6670
 4800SOL     OW26035   2.114   1.609   8.775 -0.6189  0.2535 -0.1860
 4800SOL    HW126036   2.034   1.624   8.826 -0.6998 -0.7879  0.0141
 4800SOL    HW226037   2.173   1.599   8.850 -0.4103  0.7513 -0.2848
 4801SOL     OW26038   4.097   2.310   1.778  0.8377 -0.1433 -0.2831
 4801SOL    HW126039   4.159   2.261   1.832  1.2157 -0.6627 -1.1907
 4801SOL    HW226040   4.145   2.322   1.696  1.3824  1.5856  0.2892
 4802SOL     OW26041   3.498   2.420   6.550 -0.3437 -0.5339 -0.0400
 4802SOL    HW126042   3.572   2.425   6.489 -1.2164  1.4888 -0.9273
 4802SOL    HW226043   3.431   2.483   6.526  1.7236 -0.0909 -4.7154
 4803SOL     OW26044   0.441   1.726   0.267 -0.1736  0.4433  0.3024
 4803SOL    HW126045   0.371   1.682   0.315 -0.4175 -0.0861 -0.5385
 4803SOL    HW226046   0.402   1.726   0.180  4.6690 -1.9843 -1.8546
 4804SOL     OW26047   0.484   1.844   0.756  0.6785 -0.3825  0.5035
 4804SOL    HW126048   0.520   1.798   0.680  0.5912  1.3495 -0.5863
 4804SOL    HW226049   0.559   1.835   0.815  1.7500 -1.2634 -1.0154
 4805SOL     OW26050   3.153   1.685   5.608  0.0694 -0.4598  0.1381
 4805SOL    HW126051   3.068   1.695   5.652  0.4012  1.3623  0.3982
 4805SOL    HW226052   3.147   1.598   5.571 -0.2112 -0.8026  0.9810
 4806SOL     OW26053   3.426   2.742   5.044 -0.0437  0.0267 -0.2686
 4806SOL    HW126054   3.417   2.688   5.122 -1.4292  0.8802  0.1671
 4806SOL    HW226055   3.521   2.736   5.031 -0.6211 -3.3256 -2.8152
 4807SOL     OW26056   2.204   1.766  16.888  0.3463 -0.2773 -0.1526
 4807SOL    HW126057   2.142   1.792  16.820  0.6300  3.4597  1.0337
 4807SOL    HW226058   2.165   1.802  16.967 -0.2527  1.7813 -1.4050
 4808SOL     OW26059   1.774   1.594   8.326 -1.0187 -0.2580 -0.6487
 4808SOL    HW126060   1.822   1.532   8.272  0.0244  0.2422 -0.3140
 4808SOL    HW226061   1.683   1.577   8.302 -1.9270 -0.1048  2.7009
 4809SOL     OW26062   1.392   1.402   1.658 -0.1257  0.0705  0.4185
 4809SOL    HW126063   1.474   1.352   1.652 -1.2194 -1.6745  0.1217
 4809SOL    HW226064   1.353   1.359   1.734 -0.2035  0.4551  0.5921
 4810SOL     OW26065   3.703   0.187   6.499  0.3301 -0.1490  0.2787
 4810SOL    HW126066   3.755   0.153   6.427 -0.0332  2.2264 -1.1255
 4810SOL    HW226067   3.662   0.252   6.442 -1.4340 -1.0826  0.5026
 4811SOL     OW26068   1.215   0.731  11.615 -0.1381 -0.0075 -0.0633
 4811SOL    HW126069   1.218   0.709  11.522  2.0604 -0.2870  0.0589
 4811SOL    HW226070   1.156   0.666  11.653 -0.4560  0.3596  0.0672
 4812SOL     OW26071   1.290   1.104   5.360 -0.4659 -0.5856 -0.2633
 4812SOL    HW126072   1.334   1.021   5.340  0.1718 -0.3179  0.0112
 4812SOL    HW226073   1.208   1.098   5.312 -0.0628  1.2127 -1.1943
 4813SOL     OW26074   1.530   4.010  17.381  0.3279  0.4524  0.1778
 4813SOL    HW126075   1.612   4.008  17.430 -0.3704 -0.1279  1.3045
 4813SOL    HW226076   1.473   4.063  17.437  0.1949  1.6593 -1.1057
 4814SOL     OW26077   3.809   0.338   5.348 -0.7679 -0.2028  0.6538
 4814SOL    HW126078   3.790   0.293   5.430 -0.5603 -2.7470 -0.6788
 4814SOL    HW226079   3.829   0.425   5.381  0.5638 -0.8273  1.4811
 4815SOL     OW26080   3.512   2.386   3.166 -0.3486  0.2498 -0.3520
 4815SOL    HW126081   3.522   2.436   3.085 -0.2653  1.5111  0.4492
 4815SOL    HW226082   3.602   2.361   3.188 -0.1898  1.3140  0.1841
 4816SOL     OW26083   3.094   0.131   8.137  0.3090 -0.4438 -0.2828
 4816SOL    HW126084   3.135   0.217   8.123  0.9291 -0.5309  0.9757
 4816SOL    HW226085   3.085   0.129   8.233  0.2931  1.0957 -0.2550
 4817SOL     OW26086   3.916   4.131   0.202  0.8624  0.2703  0.3239
 4817SOL    HW126087   3.974   4.110   0.275  1.7546  0.3860 -0.3468
 4817SOL    HW226088   3.833   4.152   0.245  1.5632  1.5235  1.0402
 4818SOL     OW26089   4.155   1.937   8.548 -0.4347  0.5211  0.6704
 4818SOL    HW126090   4.217   1.925   8.620  2.2148 -1.6560 -1.9658
 4818SOL    HW226091   4.208   1.990   8.489  0.9109 -1.6021 -0.0209
 4819SOL     OW26092   0.627   2.157   2.039  0.4019  0.1979 -0.2592
 4819SOL    HW126093   0.559   2.091   2.022 -0.0548  0.7014 -0.3589
 4819SOL    HW226094   0.690   2.105   2.089  0.8102  0.9469  0.0002
 4820SOL     OW26095   1.075   4.331  11.364  0.3894  0.3682  0.0855
 4820SOL    HW126096   1.023   4.325  11.444 -0.2755  1.4435 -0.2760
 4820SOL    HW226097   1.146   4.271  11.388  0.2205  0.2996  0.4150
 4821SOL     OW26098   4.432   0.839   1.477 -0.5872  0.1332  0.1814
 4821SOL    HW126099   4.371   0.900   1.518 -0.3243  0.1135  0.6048
 4821SOL    HW226100   4.504   0.850   1.539 -0.2225 -0.9983 -0.0426
 4822SOL     OW26101   2.346   2.625   2.022 -0.2827  0.3129 -0.1842
 4822SOL    HW126102   2.271   2.684   2.022  0.6255  1.4531 -3.4362
 4822SOL    HW226103   2.302   2.549   1.985  0.8334 -0.3920 -0.0812
 4823SOL     OW26104   4.016   1.075   4.543 -0.3220 -0.1572 -0.0939
 4823SOL    HW126105   3.945   1.112   4.596 -1.4581 -0.9463 -1.0318
 4823SOL    HW226106   3.972   0.991   4.529 -0.4577 -0.2243  0.7384
 4824SOL     OW26107   3.901   1.315   7.228 -0.3610  0.1311 -0.5429
 4824SOL    HW126108   3.954   1.392   7.207  0.9481 -0.9567 -1.2765
 4824SOL    HW226109   3.867   1.290   7.142 -2.2504  0.7947  0.0122
 4825SOL     OW26110   0.901   2.689   1.734 -0.6424  0.9216  0.3430
 4825SOL    HW126111   0.857   2.660   1.813  0.0926  1.0119  0.7888
 4825SOL    HW226112   0.835   2.684   1.665  0.3751 -1.2573 -0.4915
 4826SOL     OW26113   0.704   3.897  16.639  0.2143 -0.7967 -0.5746
 4826SOL    HW126114   0.793   3.899  16.675 -1.1086  2.1444  2.5208
 4826SOL    HW226115   0.688   3.991  16.634  0.6955 -0.8167 -2.2640
 4827SOL     OW26116   0.449   2.059   7.780  0.0176 -0.2172 -0.0137
 4827SOL    HW126117   0.378   2.077   7.719 -0.4023  1.3627  0.9280
 4827SOL    HW226118   0.410   1.986   7.828 -1.8643 -0.7645 -2.3856
 4828SOL     OW26119   2.089   1.533  15.525 -0.3740  0.4076 -0.2062
 4828SOL    HW126120   2.011   1.486  15.555  0.5132 -0.0763  1.3264
 4828SOL    HW226121   2.129   1.462  15.474  1.3144  0.5217  0.9815
 4829SOL     OW26122   1.358   2.348   6.331 -0.5444 -0.1647 -0.4044
 4829SOL    HW126123   1.327   2.273   6.382  2.2658 -1.1410 -0.1262
 4829SOL    HW226124   1.289   2.412   6.350 -0.1447 -0.1005  0.7687
 4830SOL     OW26125   3.241   4.188  11.849  0.1697 -0.0723 -0.1316
 4830SOL    HW126126   3.236   4.207  11.943 -2.4954  0.4710 -0.3777
 4830SOL    HW226127   3.289   4.260  11.808 -0.0178  0.5947  0.8097
 4831SOL     OW26128   0.910   1.912   6.097 -0.1720 -0.1940  0.3943
 4831SOL    HW126129   0.922   1.825   6.058 -2.1915  0.7273 -2.2516
 4831SOL    HW226130   0.988   1.911   6.153 -1.2779 -0.9726  1.9235
 4832SOL     OW26131   4.152   1.091  15.688  0.5769  0.1209 -0.1943
 4832SOL    HW126132   4.080   1.095  15.751 -0.6380 -1.6337 -1.4721
 4832SOL    HW226133   4.157   0.999  15.664 -0.5602  0.3711 -1.4139
 4833SOL     OW26134   0.547   1.214   0.566 -0.0572 -0.1286 -0.0890
 4833SOL    HW126135   0.642   1.221   0.577 -0.2615  2.1792  0.3623
 4833SOL    HW226136   0.524   1.153   0.636 -2.6651 -0.3469 -1.1246
 4834SOL     OW26137   2.184   2.798  16.608  0.4676  0.2225  0.3021
 4834SOL    HW126138   2.258   2.743  16.631 -0.4540 -1.9311 -1.7499
 4834SOL    HW226139   2.150   2.831  16.691 -0.6262 -0.6691  0.2203
 4835SOL     OW26140   4.451   0.751   6.048 -0.0445  0.2624 -0.0674
 4835SOL    HW126141   4.411   0.818   5.992  1.9792  2.1424  0.7664
 4835SOL    HW226142   4.477   0.686   5.983  0.5570  0.6918 -0.2521
 4836SOL     OW26143   2.910   2.129   7.558  0.1343  0.1230  0.3428
 4836SOL    HW126144   2.964   2.059   7.596 -0.3048  0.6899  2.0098
 4836SOL    HW226145   2.886   2.183   7.632 -0.0156 -0.4343  0.7018
 4837SOL     OW26146   3.208   4.733   1.381  0.5778 -0.0201 -0.5211
 4837SOL    HW126147   3.214   0.072   1.438  1.6000 -0.8505  0.4847
 4837SOL    HW226148   3.177   0.037   1.301 -1.5434 -1.2363 -0.3466
 4838SOL     OW26149   1.173   1.749  12.103  0.7035 -0.1975 -0.5103
 4838SOL    HW126150   1.238   1.741  12.033  1.1501  0.9899 -0.2377
 4838SOL    HW226151   1.153   1.842  12.090 -0.8498 -0.5354 -0.5051
 4839SOL     OW26152   4.155   3.501  15.393 -0.2375  0.4265  0.4627
 4839SOL    HW126153   4.169   3.415  15.352 -1.7183 -0.4403  1.7523
 4839SOL    HW226154   4.238   3.504  15.440 -0.5700 -1.9621  1.2377
 4840SOL     OW26155   1.108   4.254   0.681 -0.3810 -0.0223  0.2132
 4840SOL    HW126156   1.073   4.251   0.592 -1.2393  1.2952  0.5040
 4840SOL    HW226157   1.056   4.332   0.702  0.3085  0.6812 -0.6619
 4841SOL     OW26158   0.226   2.602   5.544 -0.4631  0.7402 -0.0195
 4841SOL    HW126159   0.319   2.582   5.549 -0.2269  1.6640 -0.6322
 4841SOL    HW226160   0.221   2.602   5.448 -1.1758 -0.6254  0.0204
 4842SOL     OW26161   0.644   2.641   1.263 -0.4183 -0.4208 -0.5957
 4842SOL    HW126162   0.622   2.729   1.292 -0.3935 -1.0229  1.2533
 4842SOL    HW226163   0.655   2.660   1.170  0.8669  3.1756  0.3084
 4843SOL     OW26164   1.030   2.114   6.805  0.2675 -0.2623 -0.4533
 4843SOL    HW126165   0.938   2.140   6.795 -0.0808 -1.4423 -0.4235
 4843SOL    HW226166   1.020   2.019   6.817  1.7087 -0.3103  0.2553
 4844SOL     OW26167   2.388   3.006   8.942 -0.2222  0.3510 -0.3808
 4844SOL    HW126168   2.410   3.089   8.985 -0.3053  0.0106  0.3220
 4844SOL    HW226169   2.321   3.027   8.877 -2.3275  1.4554  2.1266
 4845SOL     OW26170   2.837   2.372   6.584  0.3494 -0.2110  0.5786
 4845SOL    HW126171   2.885   2.340   6.660 -0.3972  0.4443  1.3218
 4845SOL    HW226172   2.881   2.319   6.518 -0.5638  0.1361 -0.3157
 4846SOL     OW26173   0.931   0.686   3.610  0.0388  0.0419  0.1759
 4846SOL    HW126174   0.897   0.597   3.601  3.3460 -1.2876  0.9135
 4846SOL    HW226175   0.987   0.697   3.533 -0.0004 -0.2055  0.1133
 4847SOL     OW26176   1.592   0.589   2.582  0.0066 -0.3311 -0.6743
 4847SOL    HW126177   1.648   0.512   2.567 -0.3509 -0.7818  0.2683
 4847SOL    HW226178   1.561   0.583   2.673 -0.9445  2.3422 -0.8354
 4848SOL     OW26179   0.528   2.096   9.196  0.2056 -0.2570 -0.2678
 4848SOL    HW126180   0.455   2.126   9.250  1.2646 -0.3104  1.1904
 4848SOL    HW226181   0.542   2.169   9.134 -2.1642 -0.1120 -0.6338
 4849SOL     OW26182   4.526   0.444   6.541  0.2741  0.4083  0.3375
 4849SOL    HW126183   4.475   0.516   6.503  1.9718  0.9153 -0.9852
 4849SOL    HW226184   4.557   0.484   6.623 -1.2885  0.6574  0.8030
 4850SOL     OW26185   0.127   4.204   7.040  0.0218  0.0127 -0.7905
 4850SOL    HW126186   0.147   4.265   6.969 -0.5469 -0.3686 -1.2851
 4850SOL    HW226187   0.122   4.128   6.982  0.5748 -0.2426 -0.5020
 4851SOL     OW26188   2.300   0.619   3.161  1.3878 -0.0152 -0.0427
 4851SOL    HW126189   2.240   0.550   3.133  0.5524 -1.4758  5.3234
 4851SOL    HW226190   2.318   0.655   3.074  1.1732 -1.2342 -0.6003
 4852SOL     OW26191   2.795   1.371   7.874  0.2717 -0.0243 -0.4312
 4852SOL    HW126192   2.766   1.316   7.801  0.1867 -0.2992 -0.1926
 4852SOL    HW226193   2.750   1.328   7.948 -1.0374  0.6081 -0.8619
 4853SOL     OW26194   4.247   2.988   4.994  0.0816 -0.0101 -0.4336
 4853SOL    HW126195   4.203   3.048   4.934 -1.6205  0.0906  0.9040
 4853SOL    HW226196   4.177   2.948   5.047  0.3280 -0.8112 -0.7241
 4854SOL     OW26197   2.846   3.404   8.701  0.0303  0.3363 -0.3422
 4854SOL    HW126198   2.789   3.328   8.688  0.5418 -0.2094  0.5833
 4854SOL    HW226199   2.901   3.357   8.764 -1.8253 -1.7016 -0.2319
 4855SOL     OW26200   3.964   0.984   5.394 -0.3395  0.0707 -0.4335
 4855SOL    HW126201   4.016   0.920   5.345 -1.5881 -0.6258 -0.8374
 4855SOL    HW226202   3.957   0.947   5.482 -1.3032 -1.3556 -1.1166
 4856SOL     OW26203   4.661   1.663   2.382  0.6731  0.2621  0.8619
 4856SOL    HW126204   4.620   1.577   2.392 -0.5210  0.6793 -0.4077
 4856SOL    HW226205   4.587   1.714   2.416  0.9182  0.7793  0.6193
 4857SOL     OW26206   2.195   4.355  16.722 -0.1894 -0.2837  0.0398
 4857SOL    HW126207   2.255   4.384  16.654 -1.0396  0.8936 -0.2127
 4857SOL    HW226208   2.250   4.289  16.764 -0.2324 -1.0542 -1.1156
 4858SOL     OW26209   0.158   0.633   5.452 -0.0274  0.6356 -0.2363
 4858SOL    HW126210   0.204   0.708   5.415  1.7306  0.1295  0.9392
 4858SOL    HW226211   0.206   0.563   5.408 -0.7388  0.9779 -1.5494
 4859SOL     OW26212   2.753   4.542   5.228 -0.4704  0.6161 -0.8126
 4859SOL    HW126213   2.817   4.486   5.184 -0.3631 -1.0666  1.4579
 4859SOL    HW226214   2.712   4.581   5.151 -1.8474  1.5683  0.4090
 4860SOL     OW26215   0.971   3.283  10.390  0.2385 -0.4730  0.1604
 4860SOL    HW126216   0.992   3.224  10.463  0.6251 -0.9479 -0.3330
 4860SOL    HW226217   0.910   3.238  10.332  0.2538  0.0682 -0.2723
 4861SOL     OW26218   4.119   1.313  12.941 -0.1246  0.2420  0.2256
 4861SOL    HW126219   4.063   1.246  12.981 -1.8623  1.8543  0.5122
 4861SOL    HW226220   4.097   1.295  12.849 -0.8800  0.5205  0.3507
 4862SOL     OW26221   1.979   2.095   6.630  0.2613  0.0801 -0.6783
 4862SOL    HW126222   1.892   2.126   6.654  0.2251 -0.8424  0.3982
 4862SOL    HW226223   2.024   2.178   6.645 -0.4320  1.0937 -4.2505
 4863SOL     OW26224   1.108   4.305   8.070  0.4515 -0.7481  0.1191
 4863SOL    HW126225   1.168   4.240   8.106 -0.2844 -1.8981 -0.7181
 4863SOL    HW226226   1.023   4.276   8.103 -0.7863  1.4132 -1.1287
 4864SOL     OW26227   4.636   0.190   0.291 -0.4550  0.6091 -0.2530
 4864SOL    HW126228   4.697   0.262   0.308  0.3888 -0.1967  0.1875
 4864SOL    HW226229   4.637   0.181   0.196 -2.2404  0.6654 -0.2702
 4865SOL     OW26230   3.945   2.994   6.260  0.3946 -0.3103 -0.0096
 4865SOL    HW126231   3.976   2.946   6.337  0.1864  2.2115  1.6501
 4865SOL    HW226232   4.017   3.057   6.258  0.4030 -0.3842 -1.8342
 4866SOL     OW26233   0.065   3.304   3.221 -0.1615 -0.0109  0.1159
 4866SOL    HW126234   0.028   3.216   3.231  0.6267 -0.2776  0.6837
 4866SOL    HW226235   0.084   3.330   3.311  1.7991 -0.1556 -0.2459
 4867SOL     OW26236   1.620   0.673   5.948 -0.1151  0.3426  0.0316
 4867SOL    HW126237   1.555   0.719   5.893 -2.2790 -0.9359  1.5082
 4867SOL    HW226238   1.693   0.666   5.887  0.8091  1.7169  0.9793
 4868SOL     OW26239   2.690   1.769   6.769 -0.2319  0.0864  0.2404
 4868SOL    HW126240   2.702   1.861   6.749 -0.3563 -0.5911 -2.8990
 4868SOL    HW226241   2.781   1.739   6.773 -0.2881 -0.0082  0.8607
 4869SOL     OW26242   1.139   3.650  17.711  0.0375  0.2121  0.8000
 4869SOL    HW126243   1.201   3.712  17.672 -0.5571 -1.2414 -2.4124
 4869SOL    HW226244   1.164   3.563  17.682 -0.3157  0.1311  0.7427
 4870SOL     OW26245   1.586   2.629   7.467 -0.1459 -0.1107 -0.4316
 4870SOL    HW126246   1.571   2.586   7.383  1.8166  0.5086 -1.1096
 4870SOL    HW226247   1.603   2.721   7.447  2.7497 -0.9561 -2.0271
 4871SOL     OW26248   2.977   0.023   6.980 -0.7633  0.2652  0.3204
 4871SOL    HW126249   2.962   4.694   7.046 -0.5222 -0.5564 -0.4569
 4871SOL    HW226250   2.956   0.101   7.032 -0.6346  0.2257  0.4300
 4872SOL     OW26251   1.481   0.791  12.858 -0.4260  0.6536 -0.5510
 4872SOL    HW126252   1.452   0.728  12.792  2.3055  1.0500 -2.1409
 4872SOL    HW226253   1.409   0.853  12.870  0.9651  2.1825 -0.0688
 4873SOL     OW26254   2.606   3.281   5.837  0.8205  0.1962 -0.6549
 4873SOL    HW126255   2.645   3.337   5.769  1.0997 -0.6127 -1.1609
 4873SOL    HW226256   2.625   3.201   5.788 -1.2288  0.6505 -2.1691
 4874SOL     OW26257   3.688   4.254   7.348 -0.5398 -0.3978  0.0236
 4874SOL    HW126258   3.706   4.252   7.254 -1.2220 -0.1096 -0.1139
 4874SOL    HW226259   3.722   4.337   7.382 -1.7734  0.0304  0.2151
 4875SOL     OW26260   4.578   4.271   4.629  0.0780  0.2666  0.0153
 4875SOL    HW126261   4.599   4.218   4.552 -0.2787 -0.9229  0.7385
 4875SOL    HW226262   4.655   4.252   4.682 -0.0350 -0.5181 -0.1060
 4876SOL     OW26263   2.888   1.509   2.241 -0.0612  0.7167 -0.4281
 4876SOL    HW126264   2.967   1.454   2.238 -0.8895 -0.4943 -0.2418
 4876SOL    HW226265   2.921   1.594   2.213  3.3473 -0.1982  0.8257
 4877SOL     OW26266   0.246   2.913   5.167 -0.0043  0.2581  0.2882
 4877SOL    HW126267   0.216   2.991   5.121 -0.6109 -0.5525 -0.7025
 4877SOL    HW226268   0.165   2.863   5.154 -1.5879  2.9623 -0.2661
 4878SOL     OW26269   2.681   2.253   8.218 -0.1384  0.3134  0.3749
 4878SOL    HW126270   2.595   2.215   8.197 -1.2263  3.1007 -0.2874
 4878SOL    HW226271   2.718   2.194   8.283  0.2671  0.4650  0.2833
 4879SOL     OW26272   4.643   4.237  15.778 -0.6643  0.0554  0.0694
 4879SOL    HW126273   4.606   4.257  15.692 -1.5723 -0.1774  0.3950
 4879SOL    HW226274   4.640   4.324  15.815  0.3640 -0.0014  0.2690
 4880SOL     OW26275   2.645   1.696  14.921 -0.0525 -0.2838  0.0061
 4880SOL    HW126276   2.631   1.729  15.010 -0.2724 -0.3912  0.0103
 4880SOL    HW226277   2.567   1.641  14.920 -0.1522 -0.1353 -0.2742
 4881SOL     OW26278   1.951   0.606   0.487 -0.4913 -0.1278 -0.0521
 4881SOL    HW126279   2.001   0.572   0.561  2.4287  2.8752 -0.6533
 4881SOL    HW226280   1.936   0.527   0.435  1.6489 -0.1003 -0.7006
 4882SOL     OW26281   0.940   2.179  17.670  0.2592 -0.4579 -0.0767
 4882SOL    HW126282   1.003   2.113  17.641  1.9144 -0.5487  3.7101
 4882SOL    HW226283   0.887   2.171  17.591 -0.8601  0.9793  0.5431
 4883SOL     OW26284   2.658   2.876  14.171  0.2143 -0.8365  0.5891
 4883SOL    HW126285   2.731   2.883  14.232  0.1369 -0.1001  0.5989
 4883SOL    HW226286   2.583   2.871  14.230  0.1337  1.8720  0.7184
 4884SOL     OW26287   4.058   0.118   5.782  0.2286 -0.4050 -0.3948
 4884SOL    HW126288   4.148   0.113   5.748  0.6655 -1.3868  0.9144
 4884SOL    HW226289   4.004   0.058   5.730  1.1641 -1.7264  0.1390
 4885SOL     OW26290   0.322   4.413   2.766 -0.3147 -0.2851  0.4581
 4885SOL    HW126291   0.325   4.405   2.861  1.5186  0.0438  0.4451
 4885SOL    HW226292   0.242   4.366   2.745  0.2780  0.1047 -2.6750
 4886SOL     OW26293   4.294   0.207  14.494  0.2894 -0.3675  0.7878
 4886SOL    HW126294   4.254   0.256  14.566  0.7108  3.0111 -1.2382
 4886SOL    HW226295   4.335   0.284  14.454 -2.3704  0.1772 -0.9649
 4887SOL     OW26296   1.500   2.345  13.236  0.2381  0.0180  0.3192
 4887SOL    HW126297   1.580   2.300  13.208 -0.3360 -0.2708 -0.8533
 4887SOL    HW226298   1.534   2.385  13.316 -0.4236  0.0605  0.5804
 4888SOL     OW26299   0.920   3.608   5.153 -0.2139 -0.2578  0.1204
 4888SOL    HW126300   0.979   3.682   5.167 -1.2800  0.2142  2.0110
 4888SOL    HW226301   0.875   3.639   5.074  1.1133  3.6523  0.8811
 4889SOL     OW26302   1.291   0.360   7.605 -0.0175  0.3698  0.4514
 4889SOL    HW126303   1.312   0.283   7.658 -0.9128 -1.6552 -2.1741
 4889SOL    HW226304   1.376   0.369   7.562 -1.2461  1.1815 -1.7777
 4890SOL     OW26305   3.473   3.390   3.137  0.0181  0.6824 -0.3908
 4890SOL    HW126306   3.383   3.356   3.139  0.6623 -0.9583  0.2490
 4890SOL    HW226307   3.516   3.313   3.174 -0.2618  0.9588  0.4975
 4891SOL     OW26308   0.478   4.586  10.808 -0.2059  0.0806  0.0144
 4891SOL    HW126309   0.514   4.669  10.778  0.6589  0.0844  1.1001
 4891SOL    HW226310   0.545   4.529  10.770 -1.9955  0.0694 -3.2002
 4892SOL     OW26311   0.695   2.216   5.542 -0.0541  0.1030 -0.1002
 4892SOL    HW126312   0.600   2.222   5.537 -0.1994 -0.5692  1.8771
 4892SOL    HW226313   0.714   2.308   5.561 -0.9161  0.3722 -0.5268
 4893SOL     OW26314   2.984   0.526   8.157 -0.5078  0.3370  0.0221
 4893SOL    HW126315   2.932   0.594   8.114  0.2195  0.8981  0.0353
 4893SOL    HW226316   2.927   0.491   8.225  0.0215 -0.9885 -0.2130
 4894SOL     OW26317   3.521   1.685  11.930 -0.0701 -0.0914  0.0457
 4894SOL    HW126318   3.540   1.779  11.934 -0.2218 -0.0804  0.5811
 4894SOL    HW226319   3.445   1.677  11.987  2.2293  0.7620  3.2718
 4895SOL     OW26320   3.851   3.859   2.602  0.1858  0.2532 -0.2513
 4895SOL    HW126321   3.879   3.825   2.687 -1.2795 -0.8166 -0.2043
 4895SOL    HW226322   3.781   3.917   2.632 -0.1758 -0.3406  0.0399
 4896SOL     OW26323   0.412   1.010   0.760  0.6534 -0.7242 -0.8078
 4896SOL    HW126324   0.370   0.944   0.704  1.8253 -2.5290  0.4166
 4896SOL    HW226325   0.455   0.949   0.820 -0.3129 -1.0887 -0.4805
 4897SOL     OW26326   2.637   3.731  17.198 -0.0287  0.6152  0.1401
 4897SOL    HW126327   2.652   3.735  17.293  2.3907 -0.8819 -0.1731
 4897SOL    HW226328   2.730   3.734  17.173  0.3107  0.7184  1.3640
 4898SOL     OW26329   0.677   3.799   6.597 -0.3757 -0.4414 -0.5465
 4898SOL    HW126330   0.670   3.761   6.509 -0.6820  0.2203 -0.8103
 4898SOL    HW226331   0.754   3.752   6.630 -0.2219  0.8850  0.9418
 4899SOL     OW26332   2.033   3.803   1.604 -0.0773  0.1537 -0.3397
 4899SOL    HW126333   2.099   3.772   1.541 -1.6337 -2.1898 -0.8088
 4899SOL    HW226334   1.953   3.752   1.591  0.7492 -0.7138 -2.0543
 4900SOL     OW26335   1.131   2.781   9.018 -0.3041 -0.4977  0.0942
 4900SOL    HW126336   1.091   2.831   9.088 -0.8634 -0.3128 -0.3585
 4900SOL    HW226337   1.192   2.847   8.985  0.8565 -2.0450 -0.8926
 4901SOL     OW26338   3.545   2.502   5.444 -0.1985 -0.5021 -0.2347
 4901SOL    HW126339   3.507   2.414   5.444 -0.5964 -0.3178 -1.4927
 4901SOL    HW226340   3.567   2.526   5.354  0.9329  0.6754  0.3495
 4902SOL     OW26341   2.859   4.627   6.355 -0.2071 -0.0273 -0.0068
 4902SOL    HW126342   2.886   4.628   6.263  0.1163 -1.6916  0.0793
 4902SOL    HW226343   2.937   4.667   6.395 -0.1663  1.2601 -1.3753
 4903SOL     OW26344   1.120   3.329   6.598 -0.3232 -0.2654 -0.1303
 4903SOL    HW126345   1.157   3.367   6.518  0.7232  0.5710  0.7550
 4903SOL    HW226346   1.089   3.409   6.641 -3.1357 -1.5688  0.2507
 4904SOL     OW26347   3.921   4.578   2.937  0.1006  0.5033  0.1315
 4904SOL    HW126348   3.858   4.649   2.933  1.4729  1.7573  0.6880
 4904SOL    HW226349   3.957   4.596   3.024  2.8997  3.8922 -1.7710
 4905SOL     OW26350   3.271   0.939   7.241 -0.4233 -0.3580  0.1406
 4905SOL    HW126351   3.311   0.858   7.210 -0.6862 -1.4289  2.6180
 4905SOL    HW226352   3.279   0.984   7.157 -0.4617 -1.7643 -0.6217
 4906SOL     OW26353   0.613   1.424   8.701  0.2378 -0.2940  0.3249
 4906SOL    HW126354   0.673   1.461   8.636  1.7569  0.1141  1.9548
 4906SOL    HW226355   0.669   1.393   8.771  0.4703  0.9633  0.7086
 4907SOL     OW26356   3.074   2.563   9.546  0.5616 -0.0101 -0.2679
 4907SOL    HW126357   3.109   2.517   9.623  1.8938  0.9004 -0.3369
 4907SOL    HW226358   3.133   2.637   9.560  0.5196 -0.2792  1.4119
 4908SOL     OW26359   4.716   1.015  14.637  0.9489 -0.1512 -0.2622
 4908SOL    HW126360   4.702   1.046  14.547  0.6716  1.6649  0.4133
 4908SOL    HW226361   0.072   1.034  14.643  0.9732 -0.1124 -0.7412
 4909SOL     OW26362   2.198   0.876   8.579  0.1345  0.2375  0.2607
 4909SOL    HW126363   2.113   0.842   8.608 -0.4473  0.0222 -1.7081
 4909SOL    HW226364   2.182   0.970   8.581  1.3527  0.4544 -0.3448
 4910SOL     OW26365   2.407   0.570  15.249  0.0898  0.4163  0.3565
 4910SOL    HW126366   2.465   0.506  15.207 -0.2016 -0.2982  1.0599
 4910SOL    HW226367   2.382   0.524  15.328 -0.7628 -2.1458 -1.4039
 4911SOL     OW26368   1.641   2.344   4.857  0.1571  0.1025  0.3224
 4911SOL    HW126369   1.574   2.278   4.841 -1.6667  2.4901 -1.9247
 4911SOL    HW226370   1.599   2.395   4.927  0.7125 -0.5473  1.1336
 4912SOL     OW26371   1.919   0.642   6.715  0.3661  0.2096 -0.0063
 4912SOL    HW126372   1.825   0.657   6.722  0.6600  2.4500 -0.6231
 4912SOL    HW226373   1.946   0.731   6.690  1.0756 -0.3645 -1.2644
 4913SOL     OW26374   1.264   1.304   3.752  0.0748  0.0632  0.0045
 4913SOL    HW126375   1.339   1.359   3.730 -1.4305  1.7775 -0.7379
 4913SOL    HW226376   1.300   1.215   3.754  1.0649  0.4963  1.5771
 4914SOL     OW26377   1.717   2.685   3.491  0.5195 -0.2820  0.0956
 4914SOL    HW126378   1.663   2.658   3.565  0.2106 -0.5732 -0.2327
 4914SOL    HW226379   1.724   2.778   3.509  0.8477 -0.3204  0.1562
 4915SOL     OW26380   1.016   0.506   2.703 -0.6491 -0.5061  0.2398
 4915SOL    HW126381   1.083   0.559   2.661  0.4548 -0.7822  1.6387
 4915SOL    HW226382   1.069   0.492   2.782  0.4303  0.4553 -0.3144
 4916SOL     OW26383   4.562   3.355   9.655 -0.4901  0.8299 -0.0241
 4916SOL    HW126384   4.569   3.318   9.567 -0.3792 -0.4476  0.5300
 4916SOL    HW226385   4.650   3.387   9.674  0.6830 -2.2470 -0.2775
 4917SOL     OW26386   0.183   0.863   2.401  0.9134 -0.4699  0.0594
 4917SOL    HW126387   0.155   0.952   2.381 -1.3835 -1.4568 -1.0451
 4917SOL    HW226388   0.269   0.851   2.361  0.4805 -0.7576 -0.7802
 4918SOL     OW26389   4.269   2.498   5.987 -0.4126 -0.6193 -0.2349
 4918SOL    HW126390   4.353   2.451   5.990  0.0027  0.2063  0.7087
 4918SOL    HW226391   4.294   2.584   6.020 -2.7116  1.0531 -2.8410
 4919SOL     OW26392   0.601   2.881   1.512 -0.0606 -0.0967 -0.5660
 4919SOL    HW126393   0.614   2.807   1.572  0.2561 -0.1135 -0.6528
 4919SOL    HW226394   0.692   2.895   1.486  0.0268 -1.9019 -1.2689
 4920SOL     OW26395   1.357   3.112   6.367  0.4914 -0.3420 -0.0798
 4920SOL    HW126396   1.397   3.188   6.409  0.7338 -2.0699  2.8243
 4920SOL    HW226397   1.286   3.151   6.316 -0.5127 -2.4780 -0.3264
 4921SOL     OW26398   4.697   2.317   8.882  0.0241 -0.1345 -0.5495
 4921SOL    HW126399   4.659   2.324   8.970 -0.8415 -0.0393 -0.9328
 4921SOL    HW226400   4.698   2.223   8.867 -1.0995 -0.4587  1.3700
 4922SOL     OW26401   4.386   3.168   5.135  0.1084 -0.2706 -0.4330
 4922SOL    HW126402   4.377   3.118   5.054  1.2739 -2.9680  1.0850
 4922SOL    HW226403   4.338   3.249   5.118 -0.9505 -0.3495  2.2573
 4923SOL     OW26404   1.221   0.095   1.317  0.0697  0.5734 -0.2701
 4923SOL    HW126405   1.151   0.035   1.342 -1.8584  2.5395 -0.9298
 4923SOL    HW226406   1.295   0.040   1.292  1.2945  0.2681  4.0964
 4924SOL     OW26407   2.270   4.435   7.514  0.3902  0.0596  0.0116
 4924SOL    HW126408   2.184   4.441   7.556  1.4277  0.6568  2.0783
 4924SOL    HW226409   2.320   4.474   7.586 -0.3468 -0.6128  0.8947
 4925SOL     OW26410   3.656   1.556  10.967 -0.4487 -0.4721  0.1366
 4925SOL    HW126411   3.572   1.523  11.000 -1.5520 -0.9718 -3.2064
 4925SOL    HW226412   3.710   1.477  10.964 -0.5877 -0.6530  1.9546
 4926SOL     OW26413   4.020   2.185   9.089 -0.1385 -0.2919 -0.4818
 4926SOL    HW126414   4.011   2.100   9.131 -4.4545  0.3075 -0.2677
 4926SOL    HW226415   3.934   2.220   9.113 -0.2995 -1.4794  0.6608
 4927SOL     OW26416   4.539   4.588   5.734  0.0249 -0.2608 -0.6971
 4927SOL    HW126417   4.483   4.663   5.717  0.1954 -0.1904 -0.9500
 4927SOL    HW226418   4.472   4.532   5.773  0.5017 -0.0276  0.4488
 4928SOL     OW26419   4.239   3.971   2.480  0.6879 -0.0741  0.1524
 4928SOL    HW126420   4.243   3.876   2.465  2.3368  0.0089  0.0646
 4928SOL    HW226421   4.326   4.002   2.453  0.2422  0.3427 -0.7751
 4929SOL     OW26422   0.689   1.554   1.857  0.4257  0.0222 -0.7087
 4929SOL    HW126423   0.778   1.577   1.832  0.6463 -0.3805 -0.2928
 4929SOL    HW226424   0.695   1.469   1.901 -0.0429 -0.2444 -1.1582
 4930SOL     OW26425   2.821   2.630   6.663 -0.1645  0.0936  0.1050
 4930SOL    HW126426   2.888   2.646   6.729  0.4763 -1.2344 -0.2168
 4930SOL    HW226427   2.851   2.549   6.622  0.2648  0.0414  0.5362
 4931SOL     OW26428   2.684   4.066   6.990  0.1030 -0.6890 -0.4213
 4931SOL    HW126429   2.635   4.129   7.042  2.5637  1.0698 -0.2202
 4931SOL    HW226430   2.634   4.062   6.908 -2.9937  2.6958  1.3104
 4932SOL     OW26431   2.206   0.163  11.447  0.1028 -0.8042  0.2074
 4932SOL    HW126432   2.239   0.114  11.523  0.3967  0.2260  0.7466
 4932SOL    HW226433   2.282   0.206  11.409 -0.5092  1.6172  1.7074
 4933SOL     OW26434   3.451   1.348   8.650 -0.4531  0.7795 -0.9513
 4933SOL    HW126435   3.396   1.271   8.634 -0.1150 -0.0507  2.0087
 4933SOL    HW226436   3.437   1.397   8.568  0.7261  1.6015 -0.6697
 4934SOL     OW26437   4.525   2.389   7.272  0.1810 -0.6003 -0.1650
 4934SOL    HW126438   4.621   2.393   7.280  0.2906 -1.4450 -1.0849
 4934SOL    HW226439   4.507   2.296   7.280 -1.4796 -0.1066  1.8322
 4935SOL     OW26440   2.104   1.201   7.001 -0.0952 -0.0474  0.0552
 4935SOL    HW126441   2.188   1.240   6.978 -0.0079  0.0034  0.4723
 4935SOL    HW226442   2.109   1.210   7.096  1.0731 -0.7315  0.0602
 4936SOL     OW26443   1.326   1.731   1.293 -0.1072 -0.6281 -0.4392
 4936SOL    HW126444   1.368   1.711   1.209 -1.5111  0.5676 -1.4245
 4936SOL    HW226445   1.323   1.645   1.334 -1.1332  0.4476  1.7033
 4937SOL     OW26446   2.963   1.724   3.905 -0.0372 -0.4954 -0.8974
 4937SOL    HW126447   2.952   1.793   3.840 -0.0117  1.7083  1.4389
 4937SOL    HW226448   3.057   1.712   3.898  0.2079  0.2795  1.0679
 4938SOL     OW26449   3.257   0.068  13.857  0.0607 -0.9826 -0.2462
 4938SOL    HW126450   3.167   0.036  13.849 -0.2912 -0.2849  0.9325
 4938SOL    HW226451   3.253   0.145  13.914  1.1359 -1.0411 -0.0920
 4939SOL     OW26452   2.069   2.611   5.137  0.3113  0.3921 -0.4042
 4939SOL    HW126453   2.096   2.671   5.067 -1.3759  0.3514 -1.0824
 4939SOL    HW226454   2.056   2.535   5.080  1.2671 -1.3721  1.7336
 4940SOL     OW26455   1.300   1.608   9.614 -0.6282  0.3016 -0.6059
 4940SOL    HW126456   1.347   1.592   9.696 -0.7378 -2.7730 -1.1426
 4940SOL    HW226457   1.365   1.658   9.565 -1.4133  1.4605 -0.4550
 4941SOL     OW26458   1.281   0.973   7.461 -0.3053 -0.1738 -0.4704
 4941SOL    HW126459   1.272   0.878   7.455  0.2694 -0.3200  0.8768
 4941SOL    HW226460   1.240   0.994   7.545  0.2481  0.8364 -0.4564
 4942SOL     OW26461   3.135   2.056   5.270 -0.3997  0.2296 -0.7443
 4942SOL    HW126462   3.118   2.127   5.208 -0.6676  2.0030  1.3634
 4942SOL    HW226463   3.049   2.023   5.295 -0.1593  1.5686  1.8564
 4943SOL     OW26464   2.478   4.699   3.383 -0.2043 -0.3254 -0.4726
 4943SOL    HW126465   2.441   4.705   3.295  2.3955  2.4320 -1.3570
 4943SOL    HW226466   2.504   4.607   3.388  0.3146 -0.1216  0.5460
 4944SOL     OW26467   2.122   0.415  10.331 -0.1491  0.0581  0.0455
 4944SOL    HW126468   2.049   0.477  10.334 -0.8915 -0.6656 -3.0285
 4944SOL    HW226469   2.081   0.329  10.343  0.3526 -0.0861  0.7180
 4945SOL     OW26470   0.977   2.406  14.830  0.1609 -0.6405 -0.1617
 4945SOL    HW126471   0.907   2.369  14.884 -0.7730  1.6655  0.2365
 4945SOL    HW226472   1.030   2.461  14.888  0.4351 -1.1141  0.0340
 4946SOL     OW26473   0.014   0.120   7.959 -0.0982 -0.1981 -0.0776
 4946SOL    HW126474   4.687   0.153   7.897 -0.1157  0.5403  0.3484
 4946SOL    HW226475   4.716   0.144   8.044  0.7139  2.6514 -0.5408
 4947SOL     OW26476   2.112   4.049   0.319 -0.8075 -0.2752 -0.5193
 4947SOL    HW126477   2.047   4.112   0.348  0.2923  0.7420 -0.2432
 4947SOL    HW226478   2.190   4.102   0.339  0.0351 -1.8625  0.4123
 4948SOL     OW26479   4.355   0.772  11.688  0.2139 -0.2333  0.5019
 4948SOL    HW126480   4.449   0.776  11.708  0.0498  1.0886  0.9921
 4948SOL    HW226481   4.323   0.685  11.713 -1.0024  0.3222  0.8497
 4949SOL     OW26482   1.174   1.714   1.603  0.8359  0.0246 -0.1230
 4949SOL    HW126483   1.199   1.686   1.691 -1.0299 -2.2132 -0.2951
 4949SOL    HW226484   1.244   1.773   1.575  0.5097  0.7059  0.4938
 4950SOL     OW26485   0.824   4.667   2.717  0.0239 -0.2420 -0.4723
 4950SOL    HW126486   0.752   4.607   2.698  1.3948 -2.4780  1.2865
 4950SOL    HW226487   0.788   0.004   2.764 -0.5899  0.4219 -2.0250
 4951SOL     OW26488   2.880   1.616   5.634 -0.3083  0.9177 -0.1297
 4951SOL    HW126489   2.845   1.540   5.680 -1.8489  1.2944 -0.6656
 4951SOL    HW226490   2.879   1.582   5.544 -0.5292  0.8847 -0.1154
 4952SOL     OW26491   1.354   2.743   6.773 -0.6788 -0.1472 -0.2882
 4952SOL    HW126492   1.358   2.701   6.687 -0.5590  1.3664 -1.0214
 4952SOL    HW226493   1.370   2.663   6.823 -2.1181 -1.1045 -1.3726
 4953SOL     OW26494   0.657   4.187   7.756  0.3008 -0.0069 -0.3507
 4953SOL    HW126495   0.674   4.270   7.714  1.0300 -1.1121 -2.2274
 4953SOL    HW226496   0.724   4.127   7.723  0.8304 -0.1770  1.0238
 4954SOL     OW26497   0.294   0.526   2.502 -0.1123  0.2014 -0.1984
 4954SOL    HW126498   0.361   0.575   2.549 -1.0777  0.9968  0.3656
 4954SOL    HW226499   0.332   0.439   2.493 -0.1205  0.2963 -1.1226
 4955SOL     OW26500   3.042   2.431   8.471 -0.9557 -0.4864  0.4284
 4955SOL    HW126501   3.084   2.350   8.444 -0.5658  0.2248 -1.0845
 4955SOL    HW226502   2.986   2.452   8.396  2.4554 -0.1212 -2.0254
 4956SOL     OW26503   3.560   4.358   3.301 -0.5456  0.2468  0.3164
 4956SOL    HW126504   3.601   4.283   3.258 -0.8285  0.6506 -0.6551
 4956SOL    HW226505   3.638   4.407   3.328 -0.7838  0.6883  0.1910
 4957SOL     OW26506   3.853   2.068   2.256  0.1584  0.1901  0.2540
 4957SOL    HW126507   3.890   2.024   2.179  0.5214  0.1324  0.4587
 4957SOL    HW226508   3.911   2.033   2.324  0.3652 -2.3106 -1.2116
 4958SOL     OW26509   2.400   3.637   0.719 -0.3232  0.0256  0.3706
 4958SOL    HW126510   2.354   3.701   0.773 -0.0467 -0.1310  0.7880
 4958SOL    HW226511   2.481   3.682   0.694 -0.4441  0.0217 -0.0295
 4959SOL     OW26512   1.123   1.066   9.582  0.2106  0.4592  0.3841
 4959SOL    HW126513   1.174   1.124   9.638 -1.3084  1.1031  1.1132
 4959SOL    HW226514   1.193   1.032   9.526  0.7659 -0.3101  1.5351
 4960SOL     OW26515   1.852   2.667  17.022  0.4350 -0.6212 -0.8904
 4960SOL    HW126516   1.812   2.751  17.045  0.3382 -0.8257 -0.3331
 4960SOL    HW226517   1.941   2.702  17.013  0.3458  0.0643  1.0315
 4961SOL     OW26518   3.728   3.920   4.677 -0.1911 -0.3543  0.7906
 4961SOL    HW126519   3.801   3.872   4.717  0.9835 -1.7164 -3.0791
 4961SOL    HW226520   3.685   3.964   4.751  0.1634 -0.6830  1.1962
 4962SOL     OW26521   1.316   2.002   0.952  0.3013  0.4438 -0.1069
 4962SOL    HW126522   1.383   1.940   0.979 -0.0924  0.4006  0.7825
 4962SOL    HW226523   1.343   2.013   0.861  0.3906 -2.4417 -0.4304
 4963SOL     OW26524   2.357   2.322   2.777  0.4393 -0.5477 -0.1740
 4963SOL    HW126525   2.356   2.230   2.806  0.2201  0.2543  2.3217
 4963SOL    HW226526   2.450   2.343   2.791  0.4320 -1.3756  1.1418
 4964SOL     OW26527   3.030   3.839   9.330  0.1374  0.0329  0.5438
 4964SOL    HW126528   2.979   3.830   9.411 -0.5831 -1.3477 -0.0543
 4964SOL    HW226529   3.079   3.918   9.352 -1.9837  1.5851 -0.3011
 4965SOL     OW26530   2.068   1.396  12.106 -0.1515  0.4816 -0.5824
 4965SOL    HW126531   2.096   1.317  12.153  1.0026  1.6118  0.6067
 4965SOL    HW226532   1.985   1.363  12.071 -1.3488  0.4889  2.2772
 4966SOL     OW26533   1.443   2.228  16.997  0.0807 -1.0699  0.3226
 4966SOL    HW126534   1.421   2.137  16.975 -1.2043 -0.0143 -2.7442
 4966SOL    HW226535   1.515   2.245  16.937 -0.7277 -1.1688 -0.6748
 4967SOL     OW26536   2.331   4.169   1.602  0.3871  0.2400 -0.2266
 4967SOL    HW126537   2.415   4.140   1.636 -1.2290 -3.9297  0.1913
 4967SOL    HW226538   2.357   4.249   1.556  0.6233  0.1771 -0.2003
 4968SOL     OW26539   0.759   3.863   2.517 -0.0320 -0.3958  0.5004
 4968SOL    HW126540   0.738   3.878   2.425  1.1570  1.9376  0.6092
 4968SOL    HW226541   0.691   3.801   2.543  0.3783 -1.5992 -1.2678
 4969SOL     OW26542   3.717   1.008   8.109 -0.0023 -0.4127 -0.3514
 4969SOL    HW126543   3.710   0.978   8.199  0.3999 -0.8361 -0.4642
 4969SOL    HW226544   3.703   1.103   8.117  0.5598 -0.1727 -2.0946
 4970SOL     OW26545   2.477   3.845   6.272  0.0333  0.4252 -0.3409
 4970SOL    HW126546   2.402   3.896   6.242 -0.4518  1.4525  2.6871
 4970SOL    HW226547   2.429   3.801   6.342  1.0472  2.5405  1.6968
 4971SOL     OW26548   4.017   2.983  12.805 -0.2823  1.0852 -0.3614
 4971SOL    HW126549   4.095   3.004  12.856 -0.5730  0.3631  0.3862
 4971SOL    HW226550   4.041   3.026  12.724  0.6734 -2.3293 -1.8857
 4972SOL     OW26551   2.430   0.353   8.395 -0.4641  0.3448 -0.2088
 4972SOL    HW126552   2.342   0.317   8.382 -0.2365 -0.2441 -0.1240
 4972SOL    HW226553   2.474   0.339   8.311  0.5729  0.3271  0.3404
 4973SOL     OW26554   2.592   3.232   1.287 -0.5248  0.0114 -0.7038
 4973SOL    HW126555   2.669   3.265   1.334 -0.5427 -0.2593 -0.4833
 4973SOL    HW226556   2.550   3.181   1.356 -0.7842  0.6274 -0.3996
 4974SOL     OW26557   4.376   0.687  11.056  0.3092  0.1002  0.1412
 4974SOL    HW126558   4.310   0.746  11.090  0.9063  0.5845  0.4509
 4974SOL    HW226559   4.323   0.642  10.990 -0.2237  0.4815  0.3131
 4975SOL     OW26560   1.068   3.258  12.455 -0.7917 -0.1010  0.3264
 4975SOL    HW126561   0.976   3.240  12.438 -0.4419 -2.5062  0.9376
 4975SOL    HW226562   1.095   3.265  12.364  2.5300 -1.4748  1.1849
 4976SOL     OW26563   2.970   0.638  11.975  0.0232  0.0416 -0.3840
 4976SOL    HW126564   3.004   0.583  12.045  1.6928 -0.8823 -1.9452
 4976SOL    HW226565   2.877   0.612  11.977 -0.2744  1.1018 -0.3200
 4977SOL     OW26566   2.849   0.031  15.129 -0.2741 -0.3433 -0.4441
 4977SOL    HW126567   2.928   0.006  15.177 -1.3463 -0.1121  1.4358
 4977SOL    HW226568   2.777   4.737  15.184 -1.1702 -0.1333 -1.4972
 4978SOL     OW26569   4.557   2.669   1.951  0.0365  0.0591 -0.4161
 4978SOL    HW126570   4.480   2.621   1.981  1.5699 -0.5454  2.6025
 4978SOL    HW226571   4.578   2.620   1.872  0.9933 -1.1573  0.5828
 4979SOL     OW26572   3.415   2.151   4.374 -0.1296  0.6560 -0.3050
 4979SOL    HW126573   3.404   2.057   4.379 -0.0744  0.5538 -2.1218
 4979SOL    HW226574   3.506   2.134   4.348 -0.2033  2.0766 -1.4654
 4980SOL     OW26575   2.733   0.309   4.454  0.1215  0.0272  0.4431
 4980SOL    HW126576   2.697   0.397   4.442 -0.1201 -0.4378 -2.1122
 4980SOL    HW226577   2.822   0.308   4.420  0.1046 -3.6028  0.5409
 4981SOL     OW26578   0.592   1.673   8.211  0.0555 -0.4935 -0.0199
 4981SOL    HW126579   0.609   1.630   8.127 -0.6288 -0.4032 -0.2044
 4981SOL    HW226580   0.597   1.763   8.181 -0.1703 -0.2106  0.7833
 4982SOL     OW26581   4.170   1.370   8.573 -0.8411  0.5692  0.0925
 4982SOL    HW126582   4.164   1.300   8.638 -0.8401  1.0551  0.6225
 4982SOL    HW226583   4.263   1.394   8.572 -0.7948  0.5809  2.5584
 4983SOL     OW26584   3.212   1.668   6.636 -0.8254  0.4257  0.7852
 4983SOL    HW126585   3.259   1.705   6.711 -0.4956  0.6399  0.4776
 4983SOL    HW226586   3.279   1.607   6.605 -0.6120 -0.2535  2.5564
 4984SOL     OW26587   1.706   4.670  12.974 -0.3851  0.4216  0.3909
 4984SOL    HW126588   1.621   4.638  13.004 -0.7725 -0.2334 -1.4202
 4984SOL    HW226589   1.728   4.619  12.896 -1.2183 -2.5996  2.0958
 4985SOL     OW26590   3.756   4.379   4.021  0.4154 -0.0371  0.2949
 4985SOL    HW126591   3.783   4.287   4.021  2.1701  0.4756 -2.1977
 4985SOL    HW226592   3.828   4.422   3.975  0.2737  0.8051  0.8488
 4986SOL     OW26593   2.570   1.838  15.811  0.1430 -0.2028 -0.0079
 4986SOL    HW126594   2.662   1.829  15.786  0.7439  0.1445  2.0863
 4986SOL    HW226595   2.571   1.913  15.871  2.8152 -1.8473  1.9880
 4987SOL     OW26596   0.360   0.262   2.484 -0.3081  0.2519 -0.2245
 4987SOL    HW126597   0.267   0.251   2.504 -0.3959 -1.1083 -1.3554
 4987SOL    HW226598   0.415   0.192   2.519 -0.2744  0.5793  0.3715
 4988SOL     OW26599   4.237   0.472   3.620 -0.4799 -0.5667  0.1569
 4988SOL    HW126600   4.298   0.399   3.619  0.6702  0.4001 -1.0798
 4988SOL    HW226601   4.281   0.548   3.581  0.4817 -2.1879 -1.9459
 4989SOL     OW26602   3.672   0.121   3.543  0.0411  0.1662  0.3979
 4989SOL    HW126603   3.691   0.142   3.452 -2.1656 -0.0011 -0.0849
 4989SOL    HW226604   3.605   0.186   3.566 -0.9233 -0.2773 -1.2204
 4990SOL     OW26605   0.767   1.023  14.515  0.1453  0.1803  0.1292
 4990SOL    HW126606   0.674   1.008  14.499  0.7003 -2.0473 -1.0837
 4990SOL    HW226607   0.798   1.053  14.429 -2.2777  3.0026  0.2570
 4991SOL     OW26608   0.932   1.332  10.437  0.4009 -0.1176 -0.0525
 4991SOL    HW126609   0.840   1.353  10.425  0.1540 -0.2881  1.5159
 4991SOL    HW226610   0.961   1.395  10.371  0.4366 -1.6983 -1.5586
 4992SOL     OW26611   4.033   3.996   4.489 -0.0465 -0.3990  0.6836
 4992SOL    HW126612   4.021   3.903   4.507  1.7507 -1.0510 -1.3679
 4992SOL    HW226613   4.022   4.008   4.395 -0.1999 -1.0377  0.6167
 4993SOL     OW26614   4.519   2.925   5.042 -0.0874  0.1837  0.3529
 4993SOL    HW126615   4.559   2.984   4.978  3.9811  0.7044  3.3939
 4993SOL    HW226616   4.428   2.953   5.046 -0.8725 -2.4554  0.3397
 4994SOL     OW26617   1.035   3.071   3.422 -0.4133  0.1950 -0.5482
 4994SOL    HW126618   1.007   2.999   3.366  0.4972 -1.2894  0.9201
 4994SOL    HW226619   0.987   3.148   3.390 -0.0896  0.1115 -1.2342
 4995SOL     OW26620   2.989   3.919   0.075  0.8825  0.0979  0.0691
 4995SOL    HW126621   3.053   3.989   0.083 -0.3851  1.1887  0.6896
 4995SOL    HW226622   2.910   3.972   0.068  0.4713 -0.3026  1.6214
 4996SOL     OW26623   1.602   1.335   6.596  0.0643  0.1742 -0.4145
 4996SOL    HW126624   1.659   1.295   6.661  1.4804  1.8732 -0.5817
 4996SOL    HW226625   1.644   1.421   6.586 -2.2523  1.3947  0.2619
 4997SOL     OW26626   2.314   1.218   5.265 -0.1597  0.0588  0.1041
 4997SOL    HW126627   2.264   1.245   5.342  1.2346  0.4967  0.8512
 4997SOL    HW226628   2.371   1.152   5.303 -1.4056 -0.3949  1.1808
 4998SOL     OW26629   0.171   4.158   7.633  0.0299  0.0996 -0.2932
 4998SOL    HW126630   0.208   4.245   7.623 -2.2497  0.9198 -1.7149
 4998SOL    HW226631   0.249   4.108   7.656 -1.6246 -1.7552  1.3958
 4999SOL     OW26632   0.323   0.967   6.099  0.1993  0.4344 -0.0687
 4999SOL    HW126633   0.295   0.876   6.087  1.9513 -0.1028 -0.0392
 4999SOL    HW226634   0.259   1.009   6.155  0.1793 -0.9686  0.9690
 5000SOL     OW26635   2.565   0.804   5.419 -0.2611 -0.3924  0.5305
 5000SOL    HW126636   2.539   0.738   5.354 -2.6651  2.5787 -1.5507
 5000SOL    HW226637   2.654   0.776   5.441  0.0546  0.7334  0.6704
 5001SOL     OW26638   1.537   2.101   2.747  0.3939 -0.3997  0.3427
 5001SOL    HW126639   1.559   2.171   2.808  2.2506 -1.6660  1.1119
 5001SOL    HW226640   1.560   2.019   2.789  1.7823 -0.6260 -0.8421
 5002SOL     OW26641   0.634   3.625   3.517  0.0855  0.2144  0.0954
 5002SOL    HW126642   0.600   3.548   3.471  0.0078 -0.3867  1.1524
 5002SOL    HW226643   0.553   3.662   3.553 -0.6711  0.2519 -1.6504
 5003SOL     OW26644   1.254   2.447   2.699 -0.0678 -0.5595 -0.3651
 5003SOL    HW126645   1.255   2.351   2.707  0.7376 -0.7376 -2.6383
 5003SOL    HW226646   1.236   2.460   2.607 -0.6164 -1.6913 -0.4222
 5004SOL     OW26647   0.690   1.104   1.729 -0.3391 -0.0342 -0.0449
 5004SOL    HW126648   0.608   1.055   1.734 -0.3062 -0.2345 -1.4358
 5004SOL    HW226649   0.658   1.176   1.784  0.6264 -0.1488  0.6791
 5005SOL     OW26650   4.687   3.409  10.595 -0.1407 -0.1695 -0.7265
 5005SOL    HW126651   4.641   3.493  10.592  0.5839  0.2728  0.5790
 5005SOL    HW226652   0.037   3.428  10.626 -0.5880  1.1322 -0.2395
 5006SOL     OW26653   2.400   3.096   6.463 -0.3673 -0.0370 -0.5529
 5006SOL    HW126654   2.398   3.157   6.389 -0.2351  0.5954 -0.0322
 5006SOL    HW226655   2.412   3.014   6.414 -0.1047 -0.9106  0.9536
 5007SOL     OW26656   1.892   4.596   3.022  0.2543  0.9465  0.7331
 5007SOL    HW126657   1.954   4.568   2.954 -2.1819  0.6738 -1.3483
 5007SOL    HW226658   1.895   4.523   3.083 -0.3555  1.9398  1.9323
 5008SOL     OW26659   3.485   3.053  12.805 -0.0775  0.3358 -0.7104
 5008SOL    HW126660   3.513   3.113  12.874 -2.7667  0.4534  0.2788
 5008SOL    HW226661   3.539   3.074  12.729  0.8565  0.9040  0.1062
 5009SOL     OW26662   0.675   3.850   3.151 -0.4314 -0.5990 -0.3069
 5009SOL    HW126663   0.744   3.855   3.085  0.6361  1.5108  0.9427
 5009SOL    HW226664   0.636   3.764   3.140  0.1693 -0.5261 -2.9091
 5010SOL     OW26665   4.451   2.062   1.839  0.5966 -0.4061 -0.2115
 5010SOL    HW126666   4.488   1.990   1.890  3.3171  2.1005  1.3868
 5010SOL    HW226667   4.527   2.120   1.846 -0.9512  1.5146  0.8800
 5011SOL     OW26668   4.401   4.119   2.341  0.6015  1.1158 -0.1478
 5011SOL    HW126669   4.497   4.117   2.346  0.5440  2.3219  1.3528
 5011SOL    HW226670   4.378   4.183   2.408  0.4983  0.5512  0.3623
 5012SOL     OW26671   3.822   1.681  11.457 -0.1568  0.2744  0.0178
 5012SOL    HW126672   3.788   1.765  11.487 -3.5886 -1.8144  1.9274
 5012SOL    HW226673   3.884   1.662  11.528 -1.3024 -1.2066  0.6360
 5013SOL     OW26674   2.299   1.243  14.104  0.1445  0.4588  0.6044
 5013SOL    HW126675   2.269   1.211  14.019 -0.7640  0.7183  0.8369
 5013SOL    HW226676   2.234   1.308  14.130 -0.8029  0.0862 -0.8111
 5014SOL     OW26677   2.952   1.286   1.864  0.0652 -0.1380 -0.4552
 5014SOL    HW126678   2.916   1.373   1.845 -3.2015 -1.3677  0.0726
 5014SOL    HW226679   2.977   1.286   1.957 -0.9531  2.8824 -0.1833
 5015SOL     OW26680   2.779   0.044   7.591  0.2825  0.0350 -0.1101
 5015SOL    HW126681   2.783   4.722   7.517 -1.5624  0.1814 -0.3350
 5015SOL    HW226682   2.697   0.091   7.571 -0.5913 -0.8644  1.3836
 5016SOL     OW26683   1.361   0.593  13.271 -0.3085  0.2278 -0.3179
 5016SOL    HW126684   1.342   0.663  13.209 -2.1546  0.8568  0.9715
 5016SOL    HW226685   1.376   0.640  13.353  4.0394  0.3218 -1.1848
 5017SOL     OW26686   1.599   2.436   9.641  0.6208  0.1151  0.0615
 5017SOL    HW126687   1.685   2.397   9.653  0.7468  0.8574  1.6743
 5017SOL    HW226688   1.604   2.518   9.691 -0.8835 -0.3018  0.9024
 5018SOL     OW26689   4.511   3.699   8.935 -0.0352  0.1802 -0.2190
 5018SOL    HW126690   4.533   3.785   8.899 -1.9993  0.4216 -0.8148
 5018SOL    HW226691   4.448   3.730   8.999  0.0902 -1.1910  0.5643
 5019SOL     OW26692   2.586   4.428   1.180  0.7785 -0.3969 -0.3397
 5019SOL    HW126693   2.516   4.493   1.185  0.1434 -1.0032 -1.3081
 5019SOL    HW226694   2.559   4.348   1.225  1.3670 -0.6856 -0.4952
 5020SOL     OW26695   0.897   4.173  16.345 -0.2542  0.0571  0.2393
 5020SOL    HW126696   0.953   4.176  16.423  1.1697 -0.7699 -0.7432
 5020SOL    HW226697   0.823   4.231  16.364 -0.2738  0.0622  0.1504
 5021SOL     OW26698   0.778   4.490  13.173 -0.4519 -1.0445 -0.1497
 5021SOL    HW126699   0.757   4.501  13.265  1.0891 -0.5220  0.1229
 5021SOL    HW226700   0.833   4.567  13.162 -3.1163  0.5439 -2.5407
 5022SOL     OW26701   0.211   1.522  13.573 -0.4426 -0.5316 -0.3697
 5022SOL    HW126702   0.244   1.515  13.662  0.7207  2.7973 -0.5493
 5022SOL    HW226703   0.291   1.494  13.529 -0.5711 -0.7241 -0.4820
 5023SOL     OW26704   4.418   1.111   4.798 -0.2050  0.1676 -0.0401
 5023SOL    HW126705   4.399   1.131   4.890 -1.1797  0.4520 -0.2997
 5023SOL    HW226706   4.504   1.149   4.783 -0.5471  1.6190  1.7211
 5024SOL     OW26707   1.059   2.581   2.044  0.1784 -0.0776 -0.0811
 5024SOL    HW126708   1.027   2.558   2.132 -0.1647 -0.3306 -0.2700
 5024SOL    HW226709   1.148   2.614   2.058  0.1675  0.0828 -0.4026
 5025SOL     OW26710   3.817   3.472  13.064  0.1237 -0.1270  0.3393
 5025SOL    HW126711   3.895   3.510  13.024 -0.2649  0.1177 -0.1940
 5025SOL    HW226712   3.752   3.519  13.012  1.2010 -0.1643 -1.0285
 5026SOL     OW26713   2.660   0.751  11.802 -0.4403  0.1120  0.0445
 5026SOL    HW126714   2.593   0.819  11.792 -0.9502 -0.4367 -0.3025
 5026SOL    HW226715   2.721   0.768  11.730 -0.6389 -0.0336 -0.1579
 5027SOL     OW26716   1.084   3.853   5.197 -0.2619 -0.3934 -0.6830
 5027SOL    HW126717   1.157   3.810   5.241  0.3285  1.7725  0.4627
 5027SOL    HW226718   1.107   3.848   5.104 -0.4926  0.8514 -0.8077
 5028SOL     OW26719   0.923   0.985   9.424 -0.0683 -0.5288 -0.1413
 5028SOL    HW126720   0.998   1.018   9.474  1.3449 -4.4966  0.2997
 5028SOL    HW226721   0.910   0.893   9.448  2.0880 -0.3575  1.7278
 5029SOL     OW26722   0.769   3.354  11.673 -0.5214  0.1998 -0.4256
 5029SOL    HW126723   0.723   3.328  11.753 -1.0327 -0.8289 -1.0552
 5029SOL    HW226724   0.797   3.270  11.637  1.0942  1.9039 -3.1191
 5030SOL     OW26725   1.633   4.469   8.513  0.1848  0.1427 -0.1979
 5030SOL    HW126726   1.592   4.527   8.578 -1.0000  0.1557 -0.9565
 5030SOL    HW226727   1.676   4.402   8.566 -0.1055  0.3479  0.3016
 5031SOL     OW26728   1.313   2.541  13.136 -0.5074 -0.0662 -0.0138
 5031SOL    HW126729   1.326   2.597  13.213  0.6624  1.1930 -1.1133
 5031SOL    HW226730   1.368   2.469  13.165 -0.6268  0.4555  1.5269
 5032SOL     OW26731   1.913   3.908   1.837  0.3650 -0.4440 -0.0937
 5032SOL    HW126732   1.969   3.837   1.868 -0.8569 -1.3303  0.0695
 5032SOL    HW226733   1.943   3.903   1.746 -1.0196 -1.7805 -0.4743
 5033SOL     OW26734   0.951   2.113   3.661 -0.3567 -0.4421  0.2888
 5033SOL    HW126735   0.900   2.194   3.651 -2.3133 -1.4771  1.9138
 5033SOL    HW226736   1.036   2.137   3.625 -0.7432  0.5227  0.0128
 5034SOL     OW26737   2.405   2.134   8.575 -0.0911  0.6167 -0.5529
 5034SOL    HW126738   2.464   2.209   8.569 -1.6363  1.8596  0.1086
 5034SOL    HW226739   2.376   2.127   8.666 -1.0934  3.0298 -0.6907
 5035SOL     OW26740   0.700   1.353   3.303 -0.1839  0.1904 -0.3546
 5035SOL    HW126741   0.720   1.443   3.275 -1.4588  0.8303  0.8009
 5035SOL    HW226742   0.770   1.307   3.256 -0.1369  0.0202 -0.1160
 5036SOL     OW26743   2.880   3.112   3.846  0.0390 -0.0416 -0.1268
 5036SOL    HW126744   2.840   3.173   3.783  2.4754  1.7976  0.0784
 5036SOL    HW226745   2.898   3.177   3.914 -0.3853  0.0724 -0.1204
 5037SOL     OW26746   0.718   0.846   4.703  0.0289 -0.3028  0.3849
 5037SOL    HW126747   0.735   0.917   4.765 -0.2182 -0.1431  0.2687
 5037SOL    HW226748   0.640   0.806   4.742 -0.0254  0.3042  0.9070
 5038SOL     OW26749   1.256   1.091  13.200  0.2442 -0.0811  0.2067
 5038SOL    HW126750   1.291   1.095  13.289  0.8728 -0.1304 -0.0363
 5038SOL    HW226751   1.338   1.064  13.159 -1.3358 -0.3570 -2.7897
 5039SOL     OW26752   3.745   1.224   4.431  0.3372 -0.1423 -0.7736
 5039SOL    HW126753   3.790   1.140   4.441  1.8974  0.6844 -0.8548
 5039SOL    HW226754   3.666   1.197   4.479  0.5916  1.6309  0.6324
 5040SOL     OW26755   4.423   1.071   7.020  0.3930 -0.1596  0.0476
 5040SOL    HW126756   4.479   1.043   6.948  0.4086 -1.6909  0.6528
 5040SOL    HW226757   4.472   1.150   7.045 -0.3127  0.4341 -0.4188
 5041SOL     OW26758   3.068   3.086   7.693 -0.2603  0.0299  0.0783
 5041SOL    HW126759   2.981   3.114   7.723 -0.2914  1.2467 -1.1469
 5041SOL    HW226760   3.093   3.155   7.632 -0.3651  0.1845  0.2116
 5042SOL     OW26761   4.181   0.851   9.379  0.2450 -0.0583 -0.0653
 5042SOL    HW126762   4.140   0.818   9.459 -1.7624 -1.8756 -1.8066
 5042SOL    HW226763   4.104   0.876   9.327  0.3241  0.5989  0.1352
 5043SOL     OW26764   2.694   2.453   0.291 -0.3900  0.5192  0.1580
 5043SOL    HW126765   2.674   2.433   0.382  0.5398 -1.3338 -0.0333
 5043SOL    HW226766   2.610   2.439   0.247 -0.1107 -1.4770  0.2482
 5044SOL     OW26767   0.606   4.556   5.844  0.0312 -0.2174  0.3321
 5044SOL    HW126768   0.655   4.567   5.763  0.9612 -2.0765  0.6488
 5044SOL    HW226769   0.676   4.520   5.898 -1.2872 -4.2076 -0.6148
 5045SOL     OW26770   2.498   3.670   3.448 -0.3282 -0.2686  0.1815
 5045SOL    HW126771   2.411   3.709   3.461  0.2931  1.4847 -0.8702
 5045SOL    HW226772   2.485   3.578   3.471  0.5961  0.3090  3.0242
 5046SOL     OW26773   3.286   1.375   3.261  0.6562 -0.1776 -0.2205
 5046SOL    HW126774   3.320   1.451   3.307  1.3822 -0.8528  0.3493
 5046SOL    HW226775   3.218   1.349   3.323 -1.4071  2.1128 -1.5127
 5047SOL     OW26776   4.162   0.621   4.334 -0.0236 -0.3955 -0.3573
 5047SOL    HW126777   4.236   0.561   4.340 -1.7415 -2.4290  0.6314
 5047SOL    HW226778   4.201   0.699   4.375 -0.5237  0.6555 -1.8882
 5048SOL     OW26779   0.544   0.952   6.966 -0.2859  0.3601 -0.5501
 5048SOL    HW126780   0.466   0.997   6.933 -0.2091  0.0362 -1.1556
 5048SOL    HW226781   0.595   0.924   6.890  1.3413  2.4892 -0.2657
 5049SOL     OW26782   1.566   4.015   1.599 -0.3449  0.2408 -0.1158
 5049SOL    HW126783   1.474   3.994   1.586 -0.0389 -1.7847  0.8510
 5049SOL    HW226784   1.576   3.959   1.676  0.4008  1.2300  0.5096
 5050SOL     OW26785   3.149   3.124  11.013  0.1412  0.0717  0.2630
 5050SOL    HW126786   3.091   3.197  11.034 -0.4997  0.2289 -2.0501
 5050SOL    HW226787   3.118   3.107  10.924 -0.9148 -0.8584  0.8208
 5051SOL     OW26788   4.422   3.602   7.142 -0.1717 -0.0267  0.5934
 5051SOL    HW126789   4.339   3.641   7.116  0.2637  0.7278  0.3013
 5051SOL    HW226790   4.482   3.677   7.137  0.1855 -0.2971  0.7577
 5052SOL     OW26791   0.107   3.199   4.460  0.6717  0.1773 -0.0723
 5052SOL    HW126792   0.013   3.184   4.450  0.7014 -0.3663  0.4320
 5052SOL    HW226793   0.121   3.190   4.554 -0.3469  0.7974  0.1411
 5053SOL     OW26794   0.527   3.614   6.390 -0.5336  0.0990  0.3647
 5053SOL    HW126795   0.521   3.530   6.346  2.3496 -0.5893  1.2547
 5053SOL    HW226796   0.574   3.667   6.325  1.7777  2.4706  3.9552
 5054SOL     OW26797   0.309   2.389   1.433 -0.1617 -0.3723  0.0103
 5054SOL    HW126798   0.324   2.315   1.493 -0.0250 -1.1186 -0.9484
 5054SOL    HW226799   0.380   2.378   1.371 -0.5905 -2.4063 -0.1512
 5055SOL     OW26800   4.430   2.602  14.456 -0.0931 -0.2562  0.6428
 5055SOL    HW126801   4.475   2.578  14.376 -0.2585 -1.9333  1.0374
 5055SOL    HW226802   4.490   2.601  14.531 -0.9410  1.4039  1.3328
 5056SOL     OW26803   2.120   4.247   3.947 -0.0097  0.4333 -0.1765
 5056SOL    HW126804   2.078   4.322   3.906  0.2300 -0.1898 -1.5805
 5056SOL    HW226805   2.193   4.216   3.893 -0.0044 -0.2326  0.2147
 5057SOL     OW26806   0.230   1.970   4.676 -0.4581 -0.9982 -0.4365
 5057SOL    HW126807   0.189   1.999   4.595 -1.6599 -2.2078 -0.2699
 5057SOL    HW226808   0.299   2.036   4.685  0.1870 -1.7133 -0.1146
 5058SOL     OW26809   0.838   2.015   2.151 -0.2737  0.6373  0.1389
 5058SOL    HW126810   0.863   2.048   2.237  2.2898  3.2745 -1.6379
 5058SOL    HW226811   0.835   1.920   2.167 -0.1330  0.3803 -1.3983
 5059SOL     OW26812   0.678   4.019   7.127 -0.4925  0.1731  0.4913
 5059SOL    HW126813   0.596   4.004   7.175 -0.3578 -1.0981  0.3225
 5059SOL    HW226814   0.744   4.014   7.197  2.5490  3.8838 -2.1422
 5060SOL     OW26815   4.302   2.286   4.711 -0.3316 -0.1078  0.0466
 5060SOL    HW126816   4.302   2.346   4.637  1.8073  1.9666  1.6968
 5060SOL    HW226817   4.392   2.255   4.707 -1.1671 -2.0807 -3.0462
 5061SOL     OW26818   2.160   0.257  10.015 -0.1310  0.3211  0.3510
 5061SOL    HW126819   2.194   0.335  10.059 -3.0370  1.0197  1.3659
 5061SOL    HW226820   2.096   0.229  10.080 -0.2156  1.1572  0.6251
 5062SOL     OW26821   3.545   0.651   4.520  0.6024  0.4112  0.2492
 5062SOL    HW126822   3.475   0.653   4.585  0.6357  1.0974  0.2668
 5062SOL    HW226823   3.613   0.611   4.574 -0.2931 -1.2428  0.1320
 5063SOL     OW26824   0.468   0.057   2.635  0.9841  0.6992 -0.2957
 5063SOL    HW126825   0.539   0.051   2.571 -0.7709  1.6232 -2.3335
 5063SOL    HW226826   0.515   0.047   2.718  1.2299  2.6339 -0.2043
 5064SOL     OW26827   0.702   2.105  16.708  0.2620  0.1156  0.0560
 5064SOL    HW126828   0.748   2.081  16.788  0.3253 -2.5181 -0.7988
 5064SOL    HW226829   0.775   2.128  16.651  0.1332 -1.9652 -0.9378
 5065SOL     OW26830   3.397   2.054  15.617 -0.2057  0.0859  0.0564
 5065SOL    HW126831   3.323   2.108  15.644  0.6638  1.9149 -1.2305
 5065SOL    HW226832   3.351   1.970  15.609  0.4107 -0.0310 -2.0528
 5066SOL     OW26833   0.754   1.758   6.444 -0.6343 -0.0191 -0.4109
 5066SOL    HW126834   0.740   1.843   6.486 -0.6338  0.0566 -0.5624
 5066SOL    HW226835   0.664   1.725   6.446 -0.4841 -0.3650  0.4447
 5067SOL     OW26836   0.846   0.253  17.499  0.3535  0.1806 -0.1042
 5067SOL    HW126837   0.922   0.211  17.458  0.6176 -0.0401  0.5997
 5067SOL    HW226838   0.889   0.262  17.584  1.7004  2.1729 -1.0175
 5068SOL     OW26839   1.612   1.632   9.535 -0.0764 -0.1515 -0.0862
 5068SOL    HW126840   1.633   1.725   9.542 -0.9804  0.2655 -2.6833
 5068SOL    HW226841   1.674   1.607   9.467  1.5863 -0.4089  1.5369
 5069SOL     OW26842   2.120   3.998   4.054  0.1820  0.7744  0.2820
 5069SOL    HW126843   2.128   3.970   3.963  2.2970 -0.3037  0.8071
 5069SOL    HW226844   2.115   4.093   4.041  3.0054  0.5677 -2.2883
 5070SOL     OW26845   0.229   1.399   4.593  0.3007 -0.0841  0.3870
 5070SOL    HW126846   0.301   1.338   4.580  1.5300  1.0110  1.9496
 5070SOL    HW226847   0.269   1.483   4.572  1.3702 -1.3572 -2.5556
 5071SOL     OW26848   3.576   3.176   3.796  0.2274 -0.0724  0.0504
 5071SOL    HW126849   3.483   3.194   3.784  0.1778 -0.3374  0.0383
 5071SOL    HW226850   3.574   3.084   3.820 -0.8644  0.0990  0.6091
 5072SOL     OW26851   2.312   0.324  13.410  0.4574 -0.1985  0.1191
 5072SOL    HW126852   2.283   0.338  13.500 -1.9244 -0.6002 -0.5870
 5072SOL    HW226853   2.379   0.257  13.424  0.0567 -0.6132  0.0332
 5073SOL     OW26854   0.930   2.092   9.183  0.3005  0.0888 -0.3544
 5073SOL    HW126855   1.024   2.086   9.201  0.5201 -0.9137 -1.8480
 5073SOL    HW226856   0.896   2.119   9.269 -1.7945 -3.4424 -0.1082
 5074SOL     OW26857   2.097   1.966   8.827  0.6778  0.1303  0.2335
 5074SOL    HW126858   2.013   1.931   8.796  0.1041  2.1612 -0.4865
 5074SOL    HW226859   2.090   1.945   8.920 -1.1582  1.2693  0.3504
 5075SOL     OW26860   0.956   3.483   7.123  0.3380  0.3311  0.6484
 5075SOL    HW126861   0.865   3.504   7.100 -0.7337 -2.2316  2.5729
 5075SOL    HW226862   0.958   3.454   7.214  1.7797  2.7285  1.3729
 5076SOL     OW26863   2.149   2.346   7.306  0.1184 -0.4651  0.5383
 5076SOL    HW126864   2.100   2.282   7.253 -3.0899  1.6399  0.9303
 5076SOL    HW226865   2.131   2.307   7.392 -1.8854  0.6769  0.6541
 5077SOL     OW26866   3.402   1.549   4.012  0.3226  0.0116 -0.2580
 5077SOL    HW126867   3.421   1.505   4.095  3.0593  1.0336 -0.3524
 5077SOL    HW226868   3.407   1.631   4.062 -0.3543 -0.9757  1.4398
 5078SOL     OW26869   3.382   3.262   0.396 -0.3333 -1.0365  0.4657
 5078SOL    HW126870   3.405   3.200   0.327  1.6499 -1.9055  1.8932
 5078SOL    HW226871   3.288   3.253   0.415 -0.9160  1.6101 -1.1930
 5079SOL     OW26872   4.167   0.473  13.065  0.4762 -0.5294  0.1581
 5079SOL    HW126873   4.116   0.495  12.986  0.8660  0.9553  0.3233
 5079SOL    HW226874   4.250   0.471  13.017  1.4934  3.1743  1.7651
 5080SOL     OW26875   2.926   2.012  11.273 -0.2540 -0.2901 -0.3120
 5080SOL    HW126876   2.875   2.057  11.340 -0.5203  0.9050 -1.3252
 5080SOL    HW226877   3.013   2.040  11.301  0.5858 -1.1660 -2.0190
 5081SOL     OW26878   1.169   1.286  17.096  0.3135  0.6632 -0.6321
 5081SOL    HW126879   1.161   1.365  17.150 -1.5712  1.5690 -2.2265
 5081SOL    HW226880   1.114   1.230  17.150 -1.0704  0.9739 -1.7238
 5082SOL     OW26881   2.559   0.820   6.440  0.7325  0.3543 -0.1198
 5082SOL    HW126882   2.602   0.906   6.443  1.8944 -0.2228 -0.2312
 5082SOL    HW226883   2.555   0.802   6.346  3.6456 -0.0343 -0.1622
 5083SOL     OW26884   3.921   1.928  16.513 -0.0271 -0.2409  0.0277
 5083SOL    HW126885   3.926   1.841  16.472 -1.3437 -1.2694  2.0212
 5083SOL    HW226886   3.878   1.907  16.596  0.9920  0.3035  0.6910
 5084SOL     OW26887   3.222   4.276  16.031  0.7642 -0.5168  0.1132
 5084SOL    HW126888   3.178   4.322  15.958 -0.9264 -1.7988  0.3181
 5084SOL    HW226889   3.237   4.188  15.996  2.1469 -0.2077 -0.0591
 5085SOL     OW26890   0.600   3.473   6.616  0.2800 -0.5959  0.3320
 5085SOL    HW126891   0.547   3.500   6.542  1.2743 -0.9858 -0.5222
 5085SOL    HW226892   0.533   3.477   6.685 -0.8644  0.3208 -0.8372
 5086SOL     OW26893   1.808   4.603   3.387  0.9714  0.2903 -0.5342
 5086SOL    HW126894   1.845   4.672   3.442 -0.5301 -1.9718  3.3136
 5086SOL    HW226895   1.754   4.650   3.324  0.6744 -1.9921 -1.9829
 5087SOL     OW26896   2.886   4.602   9.350  0.3070 -0.1564  0.4830
 5087SOL    HW126897   2.875   4.693   9.323 -0.0685 -1.1257 -2.7371
 5087SOL    HW226898   2.839   4.568   9.273 -0.0762  2.9543 -0.6585
 5088SOL     OW26899   3.894   2.433   3.551  0.1217 -0.0203  0.5532
 5088SOL    HW126900   3.921   2.523   3.530 -1.7854  0.5198  0.4305
 5088SOL    HW226901   3.814   2.438   3.498 -0.3383 -1.1457  1.1430
 5089SOL     OW26902   3.650   4.017   6.547  0.1905 -0.3619 -0.2903
 5089SOL    HW126903   3.638   4.013   6.642 -0.7274 -0.9755 -0.4288
 5089SOL    HW226904   3.623   3.927   6.527 -0.6030 -0.3675  0.7909
 5090SOL     OW26905   0.211   0.325   6.483 -0.6011 -0.3666  0.2997
 5090SOL    HW126906   0.184   0.235   6.499 -1.9459  0.5612  3.2582
 5090SOL    HW226907   0.251   0.348   6.566 -2.1826  0.2973  0.8793
 5091SOL     OW26908   1.266   1.053   3.569 -0.0982 -0.1647 -0.6549
 5091SOL    HW126909   1.272   1.011   3.484 -2.9383  1.6774 -1.7788
 5091SOL    HW226910   1.198   1.120   3.558 -0.3293 -0.1412  0.8951
 5092SOL     OW26911   0.533   1.627  12.206  0.4524  0.1759 -0.3503
 5092SOL    HW126912   0.477   1.629  12.284 -1.0950 -0.2797 -1.4602
 5092SOL    HW226913   0.584   1.551  12.232 -1.6214 -1.0613  0.0830
 5093SOL     OW26914   2.454   2.412   0.134 -0.4273 -0.0322  0.2645
 5093SOL    HW126915   2.397   2.352   0.087  0.1882  0.7352 -1.4314
 5093SOL    HW226916   2.490   2.458   0.059  0.2391 -0.4482  0.3323
 5094SOL     OW26917   2.047   0.325   8.065  0.1684  0.3146  0.0172
 5094SOL    HW126918   2.013   0.387   8.129 -2.5211 -0.9356 -0.2078
 5094SOL    HW226919   2.050   0.244   8.116 -0.3055 -0.5319 -1.3083
 5095SOL     OW26920   1.540   2.390   9.074 -0.2976 -0.2948 -0.7067
 5095SOL    HW126921   1.510   2.477   9.101  2.2158  1.0265 -2.1465
 5095SOL    HW226922   1.532   2.396   8.979 -3.1484  0.4010 -0.4050
 5096SOL     OW26923   3.759   4.507   7.420 -0.4831  0.6624  0.0042
 5096SOL    HW126924   3.854   4.518   7.431 -0.4586  0.0281  0.4155
 5096SOL    HW226925   3.720   4.545   7.498  0.1708 -0.2316  0.7739
 5097SOL     OW26926   3.625   2.536  13.651 -0.0840 -0.1304  0.1601
 5097SOL    HW126927   3.614   2.453  13.698 -1.8078  0.1272  0.2217
 5097SOL    HW226928   3.665   2.591  13.718  0.2744 -0.9804  0.6453
 5098SOL     OW26929   2.298   3.150  11.268  0.1541 -0.1162  0.3729
 5098SOL    HW126930   2.291   3.218  11.200  1.6736 -0.7402 -0.4144
 5098SOL    HW226931   2.278   3.070  11.219 -0.0061  0.2023 -0.0870
 5099SOL     OW26932   0.037   4.024   5.696 -0.2239 -0.0495  0.1175
 5099SOL    HW126933   0.012   3.955   5.757 -0.5460 -0.7268 -0.7818
 5099SOL    HW226934   0.078   4.086   5.757 -0.2975 -0.3206  0.4467
 5100SOL     OW26935   2.346   3.430   8.499  0.5365  0.1177  0.0314
 5100SOL    HW126936   2.371   3.523   8.502 -0.1295  0.2456  1.5895
 5100SOL    HW226937   2.426   3.388   8.529  1.8351  1.9252 -0.9016
 5101SOL     OW26938   1.383   4.426   7.089  0.0722  0.2467 -0.3578
 5101SOL    HW126939   1.418   4.360   7.030  2.0997  1.5996 -0.6621
 5101SOL    HW226940   1.434   4.410   7.168 -2.9480  0.6274  1.6607
 5102SOL     OW26941   3.900   2.331  16.214  0.4978 -0.3168 -0.7061
 5102SOL    HW126942   3.832   2.388  16.249  1.0878 -0.1059  0.0827
 5102SOL    HW226943   3.904   2.256  16.273 -0.2983 -0.0487 -0.3074
 5103SOL     OW26944   2.429   4.468   3.004 -0.6722 -0.0708  0.5514
 5103SOL    HW126945   2.345   4.425   3.020 -1.5916  1.7930  0.7738
 5103SOL    HW226946   2.487   4.392   3.011 -0.6928 -0.2941 -1.7509
 5104SOL     OW26947   0.181   4.596  15.757 -0.5521 -0.0962 -0.4169
 5104SOL    HW126948   0.250   4.612  15.693  0.7832 -1.5344  0.6689
 5104SOL    HW226949   0.132   4.678  15.750  0.2648  0.2944 -1.4893
 5105SOL     OW26950   2.265   0.875  16.679  0.3514  0.2279 -0.1221
 5105SOL    HW126951   2.207   0.947  16.704  2.4096  1.5615  0.8227
 5105SOL    HW226952   2.341   0.882  16.737  0.4055 -1.3336 -0.0145
 5106SOL     OW26953   1.161   4.116   4.286 -0.1213 -0.3336  0.0574
 5106SOL    HW126954   1.071   4.141   4.306 -0.1052 -0.0550 -0.2194
 5106SOL    HW226955   1.209   4.179   4.340 -0.3578  0.6144 -0.8599
 5107SOL     OW26956   3.057   3.304   5.478 -0.4600  0.0120 -0.5227
 5107SOL    HW126957   3.037   3.363   5.551 -0.0180 -0.7452  0.2054
 5107SOL    HW226958   2.966   3.287   5.453 -0.5584  1.0398 -0.8887
 5108SOL     OW26959   4.412   0.281   7.958  0.5553 -0.2184 -0.1626
 5108SOL    HW126960   4.399   0.355   8.018  1.1492 -0.5925  0.4274
 5108SOL    HW226961   4.396   0.206   8.015 -2.5726 -1.0614 -2.1497
 5109SOL     OW26962   0.335   3.457   3.813 -0.0709  0.2439 -0.0445
 5109SOL    HW126963   0.277   3.391   3.849 -0.3418  1.6633  2.0818
 5109SOL    HW226964   0.304   3.457   3.722 -1.2027 -0.1440  0.3405
 5110SOL     OW26965   0.516   2.803   2.126  0.1746 -0.8636 -0.5804
 5110SOL    HW126966   0.499   2.880   2.181 -1.9026 -1.6933 -0.0496
 5110SOL    HW226967   0.596   2.766   2.164 -0.3691 -0.8376  0.5749
 5111SOL     OW26968   0.576   3.781   9.097 -0.1250  0.2474  0.3151
 5111SOL    HW126969   0.508   3.728   9.057  0.1698  0.3115 -0.2726
 5111SOL    HW226970   0.615   3.826   9.022  0.5045 -1.6119 -0.4592
 5112SOL     OW26971   1.575   3.488   6.739  0.4610  0.8295 -0.4469
 5112SOL    HW126972   1.656   3.532   6.713  0.6846 -0.6491 -2.3596
 5112SOL    HW226973   1.615   3.417   6.789  2.0934  1.8872 -0.2615
 5113SOL     OW26974   1.444   2.456   6.603  0.5321  0.0174 -0.0363
 5113SOL    HW126975   1.428   2.455   6.509  0.5518  0.6315 -0.0487
 5113SOL    HW226976   1.524   2.508   6.612  0.7844 -0.3527 -0.1690
 5114SOL     OW26977   1.522   4.597   8.718 -0.2430 -0.3367  0.6547
 5114SOL    HW126978   1.552   4.629   8.803 -0.6291  0.8385  0.3547
 5114SOL    HW226979   1.434   4.563   8.732  0.0676 -0.9703  1.0246
 5115SOL     OW26980   1.961   1.819   9.086  0.5098 -0.0096  0.2559
 5115SOL    HW126981   1.966   1.724   9.076 -1.3223 -0.1259  0.4658
 5115SOL    HW226982   1.867   1.833   9.079  0.0841 -2.6149  0.9823
 5116SOL     OW26983   1.420   2.531  14.287 -0.0948 -0.0336  0.2244
 5116SOL    HW126984   1.350   2.492  14.338 -0.8431 -1.2314 -1.6902
 5116SOL    HW226985   1.375   2.513  14.204 -3.2729 -1.2273  2.2223
 5117SOL     OW26986   2.982   1.418   8.186  0.6178  0.1419  0.5822
 5117SOL    HW126987   2.976   1.387   8.277  2.1026 -2.3528 -0.1676
 5117SOL    HW226988   2.914   1.362   8.148 -0.8496  1.6290  0.9824
 5118SOL     OW26989   4.319   0.045   5.682  0.3839 -0.1544  0.0703
 5118SOL    HW126990   4.285   4.723   5.616  2.9884 -2.1924  0.5437
 5118SOL    HW226991   4.372   0.100   5.624 -0.2096 -0.1789 -0.4879
 5119SOL     OW26992   1.006   0.327  13.257 -0.0188  0.5619 -0.1943
 5119SOL    HW126993   1.065   0.380  13.309  2.4574 -1.7585 -0.6428
 5119SOL    HW226994   1.021   0.356  13.167  0.9943 -1.4305 -0.6799
 5120SOL     OW26995   4.210   1.533   2.550  0.0690 -0.1274  0.1030
 5120SOL    HW126996   4.281   1.481   2.588  1.0550  1.3222  0.2419
 5120SOL    HW226997   4.209   1.603   2.615  0.6071  1.1289 -1.2420
 5121SOL     OW26998   2.829   3.577   3.621  0.3344 -0.5845 -0.0248
 5121SOL    HW126999   2.860   3.640   3.685 -0.8785 -1.7193  1.6733
 5121SOL    HW227000   2.836   3.632   3.543 -0.5766  1.6717  1.5016
 5122SOL     OW27001   4.485   2.726   6.359  0.7070 -0.5860 -1.1517
 5122SOL    HW127002   4.528   2.795   6.309 -2.7148  1.4814 -1.2254
 5122SOL    HW227003   4.489   2.765   6.446 -0.5782 -1.7473 -0.5667
 5123SOL     OW27004   3.072   2.008  13.196  0.4700 -0.3807  0.0763
 5123SOL    HW127005   3.161   2.000  13.231 -0.1075 -1.5363  1.3152
 5123SOL    HW227006   3.030   2.068  13.257 -0.2017  0.3604 -1.1154
 5124SOL     OW27007   1.678   4.125   2.609 -0.4892 -0.2307 -0.3243
 5124SOL    HW127008   1.691   4.043   2.657  0.9708 -1.3225 -2.5738
 5124SOL    HW227009   1.604   4.092   2.557 -0.2398 -0.5706 -0.4685
 5125SOL     OW27010   1.015   1.456  17.292 -0.0328  0.0092 -0.2109
 5125SOL    HW127011   0.932   1.478  17.335  1.1296  2.9321  0.5248
 5125SOL    HW227012   1.061   1.446  17.376  0.5499  1.0667 -0.3975
 5126SOL     OW27013   2.991   4.665   4.972  0.0191 -0.0259 -0.8415
 5126SOL    HW127014   3.021   4.656   4.882  0.9414 -0.8149 -0.4529
 5126SOL    HW227015   2.994   4.579   5.014  2.2139 -0.4929 -1.9623
 5127SOL     OW27016   4.632   2.994   2.992 -0.4026  0.1961 -0.2729
 5127SOL    HW127017   4.692   2.949   2.932  0.6796  0.8975  0.2811
 5127SOL    HW227018   4.672   2.984   3.079 -0.3746 -0.3205 -0.3400
 5128SOL     OW27019   0.774   2.513   3.456 -0.1905  0.9965  0.2588
 5128SOL    HW127020   0.803   2.601   3.434  0.2392  0.1305 -2.7221
 5128SOL    HW227021   0.681   2.518   3.432 -0.3890  1.3166  1.1307
 5129SOL     OW27022   3.391   3.828  15.307  0.3428 -0.8242 -0.2688
 5129SOL    HW127023   3.405   3.808  15.214 -1.4701 -0.4517 -0.6209
 5129SOL    HW227024   3.302   3.794  15.319 -1.0473  2.0296 -2.4869
 5130SOL     OW27025   0.159   2.743   5.776 -0.5795 -0.0858 -0.0814
 5130SOL    HW127026   0.170   2.700   5.692 -3.3452 -0.1527 -0.4081
 5130SOL    HW227027   0.178   2.834   5.753 -1.8611 -0.2863 -1.8656
 5131SOL     OW27028   3.201   0.318   4.528 -0.3898 -0.3828 -0.1375
 5131SOL    HW127029   3.286   0.294   4.566  0.3184 -0.2788 -1.6765
 5131SOL    HW227030   3.151   0.237   4.535 -0.0906 -0.4264  1.5423
 5132SOL     OW27031   2.603   1.485  17.191 -0.0770  0.1697  0.5030
 5132SOL    HW127032   2.545   1.560  17.202 -1.1855 -0.2247 -2.4016
 5132SOL    HW227033   2.687   1.520  17.161  1.6257 -1.4581  3.4173
 5133SOL     OW27034   0.027   1.504   5.869 -0.1112  0.7179 -0.1938
 5133SOL    HW127035   4.725   1.444   5.806  0.0159 -1.1893  1.5871
 5133SOL    HW227036   4.724   1.480   5.952  2.6409 -1.2254  0.6124
 5134SOL     OW27037   2.240   2.934   8.084 -0.4805  0.1049  0.2177
 5134SOL    HW127038   2.226   2.949   7.990 -0.9704  1.5243  0.5220
 5134SOL    HW227039   2.290   3.011   8.111  1.1435 -1.1135  0.6702
 5135SOL     OW27040   0.036   2.964  14.786 -0.6145 -0.1982 -0.0462
 5135SOL    HW127041   4.734   2.932  14.705  0.3216  0.3698 -0.7311
 5135SOL    HW227042   4.723   2.926  14.858 -0.8714  1.0934  0.4544
 5136SOL     OW27043   1.392   4.480  15.609  0.0252 -0.2653  0.2181
 5136SOL    HW127044   1.319   4.481  15.546 -0.9815  0.6552  1.4160
 5136SOL    HW227045   1.459   4.467  15.541 -0.4267 -0.7474 -0.1434
 5137SOL     OW27046   3.709   2.422   5.763 -0.4966  0.3898  0.4089
 5137SOL    HW127047   3.800   2.415   5.733 -1.4745 -1.6473 -2.1326
 5137SOL    HW227048   3.671   2.490   5.708 -0.8298  0.8031  1.1447
 5138SOL     OW27049   3.923   1.583   1.549 -0.3045 -0.3401  0.2908
 5138SOL    HW127050   3.869   1.563   1.625  1.7336 -1.4477  1.4511
 5138SOL    HW227051   3.998   1.524   1.551  0.2334  0.2819 -1.6631
 5139SOL     OW27052   2.414   0.346  13.093  0.3698 -0.4801  0.3017
 5139SOL    HW127053   2.384   0.281  13.030 -0.6668 -1.1577  1.5101
 5139SOL    HW227054   2.399   0.299  13.175  1.5134  1.3856  1.5908
 5140SOL     OW27055   3.658   2.528   3.458 -0.4324 -0.3810  0.1514
 5140SOL    HW127056   3.645   2.605   3.403  0.2021 -2.0230 -2.3065
 5140SOL    HW227057   3.662   2.571   3.543 -0.4892  0.2072 -0.1437
 5141SOL     OW27058   2.050   3.648   3.279 -0.1757 -0.2448 -0.2433
 5141SOL    HW127059   2.008   3.568   3.248 -0.4745  0.0038 -0.4821
 5141SOL    HW227060   2.133   3.646   3.232 -0.9316 -1.6664 -1.5042
 5142SOL     OW27061   2.862   2.111   3.161  0.2482 -0.5665  0.7648
 5142SOL    HW127062   2.929   2.163   3.117 -0.7726  0.0853 -0.0082
 5142SOL    HW227063   2.800   2.181   3.182  2.5977  1.4981  0.8065
 5143SOL     OW27064   0.281   4.329  11.622  0.1242  0.0074  0.1777
 5143SOL    HW127065   0.311   4.404  11.572 -2.8553  0.8376 -0.3295
 5143SOL    HW227066   0.250   4.267  11.556  0.0724  1.2331 -0.9532
 5144SOL     OW27067   3.373   3.195  17.208  0.6484  0.3186 -0.3034
 5144SOL    HW127068   3.362   3.101  17.193  1.2185 -0.0414  1.4699
 5144SOL    HW227069   3.467   3.188  17.223  0.9564  1.8163 -1.6099
 5145SOL     OW27070   0.526   0.037  13.392  0.2969  0.3637 -0.0096
 5145SOL    HW127071   0.438   0.000  13.397 -0.6829  2.7120 -0.1273
 5145SOL    HW227072   0.497   0.127  13.376 -2.1927 -0.6541 -1.2503
 5146SOL     OW27073   0.086   3.660   1.518  0.1010 -0.2060  0.0667
 5146SOL    HW127074   0.168   3.654   1.567  0.4052 -0.2616 -0.4453
 5146SOL    HW227075   0.100   3.584   1.462  1.7404  0.5695 -0.5569
 5147SOL     OW27076   0.698   1.161   9.111  0.0957  0.9590 -0.0608
 5147SOL    HW127077   0.689   1.225   9.041  0.5194  0.8903 -0.1745
 5147SOL    HW227078   0.655   1.081   9.081 -0.4602  1.8023 -1.5476
 5148SOL     OW27079   3.526   0.126  15.887  0.4126  0.2623 -0.3558
 5148SOL    HW127080   3.556   0.217  15.891  0.6256  0.2689 -2.2956
 5148SOL    HW227081   3.472   0.122  15.967  0.4417  2.7092 -0.2255
 5149SOL     OW27082   1.645   3.625   2.683  0.2070 -0.1584  0.3394
 5149SOL    HW127083   1.657   3.642   2.590 -0.0001  1.4680  0.6184
 5149SOL    HW227084   1.710   3.555   2.690  0.6643  0.0365 -2.1007
 5150SOL     OW27085   0.692   0.807   5.066 -0.3979  0.4555 -0.0031
 5150SOL    HW127086   0.732   0.886   5.030  0.5824 -1.3982 -2.9177
 5150SOL    HW227087   0.763   0.763   5.112 -2.1540 -1.9125  0.4337
 5151SOL     OW27088   3.062   2.870   6.706 -0.1941  0.5264  0.6590
 5151SOL    HW127089   3.052   2.962   6.683 -0.7296  1.1646  3.4812
 5151SOL    HW227090   3.080   2.829   6.621 -0.2455 -1.1535  1.4577
 5152SOL     OW27091   3.668   4.622   1.500 -0.4507 -0.5326  0.1255
 5152SOL    HW127092   3.582   4.642   1.462  0.2830 -0.4162 -1.4874
 5152SOL    HW227093   3.658   4.530   1.525  2.0995 -0.7725  0.3319
 5153SOL     OW27094   2.367   1.909   5.466  0.2347  0.3229 -0.0607
 5153SOL    HW127095   2.417   1.832   5.495 -1.6202 -1.1658 -0.8367
 5153SOL    HW227096   2.294   1.861   5.429 -0.2240 -1.2140  2.7964
 5154SOL     OW27097   3.613   0.159   7.344  0.0984 -0.4958  0.1810
 5154SOL    HW127098   3.641   0.089   7.403 -3.4830 -1.9090  0.2040
 5154SOL    HW227099   3.679   0.225   7.366 -0.3721 -1.0778  3.2472
 5155SOL     OW27100   0.222   1.755   1.892  0.5522 -0.0202  0.0815
 5155SOL    HW127101   0.166   1.734   1.966 -0.0773 -1.8465 -0.9082
 5155SOL    HW227102   0.274   1.675   1.889  0.9526  0.2993 -1.7635
 5156SOL     OW27103   0.590   2.911   7.775  0.0203 -0.1460  0.0061
 5156SOL    HW127104   0.671   2.933   7.820  1.2959 -1.0526 -1.8399
 5156SOL    HW227105   0.588   2.817   7.757 -1.5470  0.3236 -2.3579
 5157SOL     OW27106   1.758   1.872   4.044  0.8663 -0.4952 -0.0836
 5157SOL    HW127107   1.680   1.877   4.098  0.3813  1.0744 -0.9399
 5157SOL    HW227108   1.782   1.781   4.059  2.7949  0.5782  3.3597
 5158SOL     OW27109   2.152   2.827  14.746  0.4562  0.2762 -0.2487
 5158SOL    HW127110   2.144   2.904  14.802  1.3265  0.4483 -0.3615
 5158SOL    HW227111   2.132   2.753  14.804  0.3838  2.2798  2.2706
 5159SOL     OW27112   0.583   4.003  10.117 -0.0559  0.3534  0.6668
 5159SOL    HW127113   0.637   3.991  10.040  1.8809  1.2128  1.8957
 5159SOL    HW227114   0.588   4.097  10.135  1.7426  0.7178 -1.8833
 5160SOL     OW27115   3.533   4.617  14.678 -0.0221  0.2069 -0.5069
 5160SOL    HW127116   3.531   4.691  14.618  0.5910  1.6237  1.2309
 5160SOL    HW227117   3.472   4.659  14.738 -1.8956 -0.3730 -2.0019
 5161SOL     OW27118   4.498   2.362   5.964  0.2780 -0.0098 -0.1866
 5161SOL    HW127119   4.569   2.382   5.903  0.1541  1.5942  0.1888
 5161SOL    HW227120   4.541   2.304   6.027 -0.1027 -0.6053 -0.4709
 5162SOL     OW27121   0.160   2.808  11.735  0.5690 -0.0789 -0.5910
 5162SOL    HW127122   0.249   2.774  11.739  0.8919  0.8206 -0.3538
 5162SOL    HW227123   0.129   2.790  11.646  0.3251 -2.0978 -0.1101
 5163SOL     OW27124   0.063   0.006   5.621  0.2037  0.2199 -0.3602
 5163SOL    HW127125   0.141   0.031   5.573  2.4961 -1.9969  2.2348
 5163SOL    HW227126   0.003   4.709   5.555  0.8055 -2.1539  0.3628
 5164SOL     OW27127   2.870   0.427  11.597 -0.7037 -0.4736  0.2286
 5164SOL    HW127128   2.938   0.421  11.530 -2.4152  1.8648 -1.7306
 5164SOL    HW227129   2.855   0.333  11.610 -1.2506 -0.6330 -1.4707
 5165SOL     OW27130   1.251   1.958   5.941 -0.1212  0.0415 -0.2344
 5165SOL    HW127131   1.189   1.934   5.872 -2.5717  0.6927  1.7457
 5165SOL    HW227132   1.289   2.030   5.891 -1.0643  0.7233  0.0357
 5166SOL     OW27133   2.366   1.728   3.027 -0.1827 -0.2238  0.2526
 5166SOL    HW127134   2.280   1.687   3.019  1.3658 -3.3769 -0.4695
 5166SOL    HW227135   2.427   1.662   2.994  0.0298  0.7403 -1.2788
 5167SOL     OW27136   1.347   4.360   8.464  0.6345  0.2734  0.3349
 5167SOL    HW127137   1.442   4.361   8.452  0.4505  1.0901 -0.9521
 5167SOL    HW227138   1.332   4.300   8.391 -2.8583  1.8259 -0.2505
 5168SOL     OW27139   4.311   0.765   0.875 -0.0039 -0.1042  0.4344
 5168SOL    HW127140   4.389   0.777   0.820 -0.2304 -2.9737 -0.5061
 5168SOL    HW227141   4.351   0.702   0.935  0.9812 -0.8067 -0.9527
 5169SOL     OW27142   4.504   3.862   5.732 -0.3530 -0.0874  0.2250
 5169SOL    HW127143   4.536   3.950   5.746  0.1361 -0.4178  1.1661
 5169SOL    HW227144   4.585   3.814   5.749 -1.1478 -2.1596 -1.7199
 5170SOL     OW27145   1.904   3.804  12.602  1.4789  0.3767 -0.6006
 5170SOL    HW127146   1.930   3.808  12.694 -0.4079  0.8371 -0.0974
 5170SOL    HW227147   1.901   3.708  12.596 -1.4645  0.6395 -2.7407
 5171SOL     OW27148   0.455   1.660   8.457 -1.0103  0.0676  0.0486
 5171SOL    HW127149   0.491   1.638   8.371  1.7064  2.5212  0.5583
 5171SOL    HW227150   0.389   1.590   8.458  1.2197 -2.0437  0.6020
 5172SOL     OW27151   4.224   3.753  12.105 -0.2645 -0.7045 -0.0510
 5172SOL    HW127152   4.178   3.707  12.176 -4.4863  0.2974 -2.1591
 5172SOL    HW227153   4.154   3.771  12.043 -0.0170 -1.6244 -0.5977
 5173SOL     OW27154   0.273   0.017   0.375 -0.7290 -0.1238 -0.0115
 5173SOL    HW127155   0.238   0.011   0.464 -0.9359  1.2192 -0.0083
 5173SOL    HW227156   0.333   0.091   0.374  0.3317 -1.0248 -2.4173
 5174SOL     OW27157   1.989   4.258   8.457 -0.4597 -0.0456  0.2779
 5174SOL    HW127158   1.946   4.187   8.505 -1.9897  1.5177  1.2130
 5174SOL    HW227159   2.069   4.269   8.508  0.0404  1.6496 -0.8432
 5175SOL     OW27160   3.790   0.922   4.471 -0.2134  0.0278  0.0093
 5175SOL    HW127161   3.809   0.834   4.504 -0.3863  0.9814  2.6248
 5175SOL    HW227162   3.732   0.886   4.403  0.1298 -0.1697 -0.1794
 5176SOL     OW27163   1.656   3.420  10.467 -0.5827 -0.2760 -0.4680
 5176SOL    HW127164   1.706   3.484  10.416 -2.4193  1.3504 -0.2342
 5176SOL    HW227165   1.638   3.469  10.547 -0.3145 -1.3581  0.2469
 5177SOL     OW27166   2.281   1.335   6.229  0.3301 -0.2678 -0.8558
 5177SOL    HW127167   2.194   1.358   6.259  0.8766 -0.4808  0.8571
 5177SOL    HW227168   2.319   1.316   6.314 -1.7280 -0.5773 -0.0145
 5178SOL     OW27169   1.729   3.377  16.499  0.0802 -0.6042  0.2572
 5178SOL    HW127170   1.790   3.311  16.466  0.3836  0.2588 -0.8826
 5178SOL    HW227171   1.730   3.428  16.418  1.6001 -0.6227  0.2535
 5179SOL     OW27172   1.903   0.587  10.325 -0.2587  0.3160  0.1286
 5179SOL    HW127173   1.890   0.679  10.347  2.1080  0.0534  2.5978
 5179SOL    HW227174   1.819   0.550  10.353  0.0502  0.1054  0.7779
 5180SOL     OW27175   0.685   1.874   6.900  0.2014 -0.4674  0.1709
 5180SOL    HW127176   0.615   1.811   6.920  0.3286 -0.4061  0.8056
 5180SOL    HW227177   0.695   1.905   6.990 -2.3781  0.0300  0.2959
 5181SOL     OW27178   3.501   4.533  13.772  0.1852 -0.4199  0.6460
 5181SOL    HW127179   3.469   4.475  13.840 -1.5268  0.4858  0.5911
 5181SOL    HW227180   3.538   4.467  13.713 -1.1011 -0.6305  0.0834
 5182SOL     OW27181   3.029   4.187   5.001 -0.0703 -0.4925 -0.2612
 5182SOL    HW127182   3.000   4.114   4.946  0.2774 -1.2235  0.5055
 5182SOL    HW227183   3.028   4.145   5.088  0.8732  1.4754  0.7007
 5183SOL     OW27184   0.212   0.722   0.216  0.2941  0.0253 -0.2840
 5183SOL    HW127185   0.293   0.768   0.197  0.8907 -1.2741 -0.8447
 5183SOL    HW227186   0.175   0.731   0.128  0.3308  0.1619 -0.2857
 5184SOL     OW27187   2.074   1.636   7.797 -0.1266  0.2690 -0.4567
 5184SOL    HW127188   2.149   1.691   7.819  0.3428  0.0955 -1.5976
 5184SOL    HW227189   2.010   1.673   7.857  1.7539 -0.4851  1.9865
 5185SOL     OW27190   2.667   3.128   4.334 -0.0342  0.1483  0.0091
 5185SOL    HW127191   2.636   3.038   4.343 -2.1755  1.0008  1.3553
 5185SOL    HW227192   2.718   3.134   4.414  0.3836  2.0352 -0.3913
 5186SOL     OW27193   3.794   2.961   1.922 -0.6149 -0.4185  0.2668
 5186SOL    HW127194   3.733   3.028   1.954 -0.0260  1.0306 -1.6536
 5186SOL    HW227195   3.862   3.019   1.888 -1.8523  1.0861  0.3544
 5187SOL     OW27196   0.030   3.988  15.673  0.0304 -0.5158 -0.1490
 5187SOL    HW127197   0.084   3.928  15.724 -0.0063 -0.5032 -0.0948
 5187SOL    HW227198   0.012   4.055  15.739  2.4763 -2.2061  2.2333
 5188SOL     OW27199   3.903   0.803  16.337 -0.3084 -0.2023 -0.0546
 5188SOL    HW127200   3.821   0.777  16.295 -0.2220  1.4691 -1.2633
 5188SOL    HW227201   3.950   0.723  16.359  0.1789 -0.3572 -1.7003
 5189SOL     OW27202   1.579   2.991   3.978 -0.4269 -0.0581  0.1292
 5189SOL    HW127203   1.645   2.922   3.964  0.4825  0.7291  0.5773
 5189SOL    HW227204   1.502   2.945   4.012  0.8466 -3.1302 -1.1454
 5190SOL     OW27205   1.192   2.376  14.644  0.6272  0.2774  0.3594
 5190SOL    HW127206   1.151   2.380  14.731 -0.1438 -1.9410  0.1175
 5190SOL    HW227207   1.277   2.415  14.660  1.6596 -1.8443  0.0297
 5191SOL     OW27208   4.106   2.070   3.664 -0.7060 -0.1268 -0.5387
 5191SOL    HW127209   4.096   2.063   3.569 -0.1591 -1.1824 -0.5141
 5191SOL    HW227210   4.156   1.992   3.689 -0.5549  0.3359  0.6174
 5192SOL     OW27211   4.414   2.898  10.489 -0.2962  0.7075  0.0298
 5192SOL    HW127212   4.370   2.976  10.455  1.6850  1.4757 -0.8371
 5192SOL    HW227213   4.505   2.916  10.463  0.6769 -2.4887  1.2168
 5193SOL     OW27214   2.547   2.913   3.603 -0.2543 -0.5182  0.0016
 5193SOL    HW127215   2.629   2.880   3.566 -1.5281 -1.8870 -1.6613
 5193SOL    HW227216   2.489   2.888   3.531 -0.0584 -0.5378 -0.1503
 5194SOL     OW27217   3.071   4.611   7.489 -0.0149 -0.2871 -0.4191
 5194SOL    HW127218   3.118   4.681   7.444 -1.2543  0.3893 -0.6591
 5194SOL    HW227219   2.989   4.610   7.440  0.5137 -0.7870 -1.2943
 5195SOL     OW27220   3.116   0.062   4.452  0.2226  0.5007  0.0277
 5195SOL    HW127221   3.115   4.721   4.399  2.8409 -0.0912  0.9171
 5195SOL    HW227222   3.131   0.122   4.378  0.6806  0.5302  0.1487
 5196SOL     OW27223   2.424   0.549   8.577 -0.3242 -0.1415 -0.3767
 5196SOL    HW127224   2.398   0.480   8.516 -1.5247  0.8221 -0.9459
 5196SOL    HW227225   2.393   0.506   8.658  0.8189 -1.4035 -0.6051
 5197SOL     OW27226   2.319   0.342   7.651  0.2161  0.1139 -0.0115
 5197SOL    HW127227   2.269   0.388   7.718  0.6134  0.6043 -0.0593
 5197SOL    HW227228   2.277   0.256   7.651  2.7099 -1.1203  2.6163
 5198SOL     OW27229   1.773   2.176   5.296  0.4048 -0.2184  0.0366
 5198SOL    HW127230   1.801   2.112   5.362 -2.1941 -1.8422 -0.4444
 5198SOL    HW227231   1.707   2.224   5.346 -2.6550 -3.3339 -0.9511
 5199SOL     OW27232   0.426   4.233   3.487 -0.0651 -0.5988 -0.0681
 5199SOL    HW127233   0.519   4.234   3.464  0.0541 -0.9401  0.3944
 5199SOL    HW227234   0.426   4.248   3.581  2.7411 -0.2189 -0.1432
 5200SOL     OW27235   1.895   3.169   0.625 -0.1943  0.2559 -0.4565
 5200SOL    HW127236   1.811   3.201   0.658 -0.6880 -0.1993 -1.2871
 5200SOL    HW227237   1.952   3.224   0.679 -0.1208 -0.6207  0.3553
 5201SOL     OW27238   1.266   0.566   2.376 -0.4999 -0.5908  0.4927
 5201SOL    HW127239   1.344   0.561   2.321 -2.3057 -0.1927 -2.1487
 5201SOL    HW227240   1.242   0.473   2.369  0.5931 -0.8691  0.5740
 5202SOL     OW27241   2.398   4.426   3.877  0.1731 -0.4030  0.1508
 5202SOL    HW127242   2.419   4.393   3.964 -0.3491 -2.2022 -0.3956
 5202SOL    HW227243   2.361   4.355   3.824 -1.0958  0.5178 -0.2076
 5203SOL     OW27244   2.010   0.786   8.343 -0.0486 -0.0363 -0.2463
 5203SOL    HW127245   2.089   0.838   8.351  0.1811 -0.1901 -1.5387
 5203SOL    HW227246   1.948   0.856   8.325  0.6035  0.7425  0.5234
 5204SOL     OW27247   4.691   0.505   1.205 -0.4926  0.0463  0.3147
 5204SOL    HW127248   4.717   0.564   1.276 -1.4812  0.4825  0.3188
 5204SOL    HW227249   0.039   0.484   1.170 -0.5426  1.9234 -0.9577
 5205SOL     OW27250   2.393   3.519   9.611 -0.1794 -0.8096 -0.0897
 5205SOL    HW127251   2.460   3.588   9.607 -0.3259 -0.7830 -2.4742
 5205SOL    HW227252   2.444   3.445   9.578  0.5945 -0.1792 -0.3138
 5206SOL     OW27253   0.523   2.328   0.785 -0.7292  0.0654 -0.0482
 5206SOL    HW127254   0.452   2.297   0.841 -1.9542 -0.5228 -1.9603
 5206SOL    HW227255   0.603   2.289   0.822  0.9086  1.7964 -1.7685
 5207SOL     OW27256   2.798   0.775   5.551 -0.1067  0.1506  0.4952
 5207SOL    HW127257   2.828   0.737   5.634  0.6002  1.5258  0.8609
 5207SOL    HW227258   2.860   0.728   5.495  0.1580 -0.9467  1.7129
 5208SOL     OW27259   3.605   1.217   2.880 -0.1541  0.7079 -0.2458
 5208SOL    HW127260   3.641   1.302   2.854  0.2484 -0.0515 -2.1138
 5208SOL    HW227261   3.534   1.247   2.937 -1.2776 -0.4916 -1.0162
 5209SOL     OW27262   4.716   1.150   7.404  0.3114 -1.0616 -0.4345
 5209SOL    HW127263   4.684   1.164   7.493  1.0149  0.7566 -0.4615
 5209SOL    HW227264   4.648   1.093   7.369 -1.1812  0.4484  0.0367
 5210SOL     OW27265   1.416   1.191   0.458 -0.3462  0.2940  0.1372
 5210SOL    HW127266   1.321   1.204   0.458 -0.2669  0.8952  1.0545
 5210SOL    HW227267   1.436   1.128   0.526  0.3261 -0.7577 -1.0353
 5211SOL     OW27268   2.019   3.834   5.443 -0.5523  0.2784  0.3926
 5211SOL    HW127269   2.098   3.784   5.420 -0.5720  0.1473  0.6114
 5211SOL    HW227270   1.969   3.763   5.483 -0.7784  0.2379  0.0366
 5212SOL     OW27271   1.530   3.395   8.662 -0.0825  0.2206  0.9036
 5212SOL    HW127272   1.616   3.353   8.663 -0.2865 -0.2378 -2.0542
 5212SOL    HW227273   1.467   3.324   8.670 -0.5212  0.3836 -1.2637
 5213SOL     OW27274   0.403   1.590  11.963  0.1945 -0.0468 -0.6378
 5213SOL    HW127275   0.389   1.496  11.953 -1.1049 -0.0004  0.7002
 5213SOL    HW227276   0.448   1.599  12.047  0.5636  1.0722 -0.9551
 5214SOL     OW27277   0.207   0.723   4.420  0.1886 -0.5636 -0.1746
 5214SOL    HW127278   0.237   0.770   4.498 -1.0506 -1.7673  1.0322
 5214SOL    HW227279   0.278   0.666   4.391 -0.1839 -0.5293 -1.1678
 5215SOL     OW27280   2.651   1.942   1.034  0.3766 -0.1168 -0.4625
 5215SOL    HW127281   2.557   1.956   1.019  0.5016 -0.4417 -1.5232
 5215SOL    HW227282   2.660   1.956   1.129 -0.8859  1.8361 -0.6196
 5216SOL     OW27283   0.563   3.338   5.947 -0.0794 -0.3532 -0.3635
 5216SOL    HW127284   0.540   3.425   5.978  0.1081 -0.0023 -1.1946
 5216SOL    HW227285   0.491   3.286   5.984  0.5268 -1.4550 -0.7048
 5217SOL     OW27286   4.497   0.836   9.892  0.2288 -0.3089 -0.1603
 5217SOL    HW127287   4.581   0.798   9.918 -0.4205  0.4984  3.1238
 5217SOL    HW227288   4.506   0.831   9.797  0.3929  0.2747 -0.1794
 5218SOL     OW27289   3.486   2.326   7.332  0.6537  0.2503  0.4697
 5218SOL    HW127290   3.545   2.391   7.295 -2.2309  2.0063 -0.9862
 5218SOL    HW227291   3.415   2.325   7.268  0.0943  0.7585  1.0824
 5219SOL     OW27292   4.201   1.613   8.239  0.0702 -0.0641  0.1285
 5219SOL    HW127293   4.266   1.575   8.181  0.2797 -0.1696  0.4321
 5219SOL    HW227294   4.250   1.642   8.316 -1.0004  3.4781 -0.5089
 5220SOL     OW27295   1.105   1.177   3.987 -0.2216 -0.3704  0.7912
 5220SOL    HW127296   1.192   1.218   3.981 -0.3453  0.1317  2.4285
 5220SOL    HW227297   1.134   1.115   3.920  1.3316  1.2910 -0.0799
 5221SOL     OW27298   3.171   4.122   0.040  0.4553  0.4213 -0.3799
 5221SOL    HW127299   3.255   4.076   0.041  0.9331  1.2866 -0.1826
 5221SOL    HW227300   3.155   4.113  17.697  1.4594  0.8975 -0.5985
 5222SOL     OW27301   0.130   2.177   8.565 -1.1351 -0.0851 -0.0626
 5222SOL    HW127302   0.197   2.212   8.624  1.6165 -2.4075 -1.7841
 5222SOL    HW227303   0.139   2.231   8.486 -0.9553 -0.4154 -0.2679
 5223SOL     OW27304   1.069   2.142  17.404  0.1364  0.7824  0.0762
 5223SOL    HW127305   1.145   2.150  17.461  0.2816 -1.2130  0.1528
 5223SOL    HW227306   1.117   2.102  17.331  1.9425  0.1565  1.6169
 5224SOL     OW27307   3.426   0.301   3.682  0.0265  0.0428 -0.1930
 5224SOL    HW127308   3.500   0.338   3.731 -1.3629 -1.7993  3.3115
 5224SOL    HW227309   3.391   0.242   3.749  0.6861  2.0422  1.8817
 5225SOL     OW27310   3.166   2.089   4.513  0.0084 -0.3474 -0.0557
 5225SOL    HW127311   3.204   2.158   4.458  1.4006 -0.0076  1.3270
 5225SOL    HW227312   3.220   2.073   4.590  0.8673  1.0137 -0.3691
 5226SOL     OW27313   0.340   3.018   7.078 -0.4399  0.1439 -0.8104
 5226SOL    HW127314   0.355   2.948   7.141 -3.3324  0.8931  0.7385
 5226SOL    HW227315   0.250   3.047   7.094 -0.5655 -1.0221  0.6248
 5227SOL     OW27316   0.211   4.646  11.289  0.0920  0.0567  0.2009
 5227SOL    HW127317   0.209   4.734  11.326 -0.0241 -0.2036  0.8106
 5227SOL    HW227318   0.274   4.665  11.219  0.5911 -1.4785  0.2383
 5228SOL     OW27319   3.036   1.450  10.569 -0.8079  0.0454  0.1016
 5228SOL    HW127320   3.082   1.377  10.527  1.0997  1.0880  0.3631
 5228SOL    HW227321   3.106   1.510  10.594 -2.2129  2.4833 -1.8681
 5229SOL     OW27322   0.712   4.408   8.346 -0.3953  0.4544 -0.4294
 5229SOL    HW127323   0.651   4.445   8.409 -0.2417 -0.3149  0.1786
 5229SOL    HW227324   0.770   4.478   8.316  0.2064  0.7262  1.4025
 5230SOL     OW27325   0.252   3.495   8.675 -0.3373  0.3512 -0.1299
 5230SOL    HW127326   0.218   3.479   8.763  0.7419 -0.1024  0.2014
 5230SOL    HW227327   0.193   3.564   8.645 -0.8326  0.3305  0.8024
 5231SOL     OW27328   2.238   3.748   3.543  0.5048 -0.2295 -0.0502
 5231SOL    HW127329   2.235   3.735   3.638 -1.8101  0.5682  0.0012
 5231SOL    HW227330   2.185   3.672   3.518  2.0359 -1.5775  0.8558
 5232SOL     OW27331   2.160   2.900   5.095  0.3383 -0.1971 -0.2793
 5232SOL    HW127332   2.083   2.951   5.071  0.5159  0.6437  0.9147
 5232SOL    HW227333   2.218   2.900   5.019  0.9862 -1.0455  0.2142
 5233SOL     OW27334   1.933   2.464  14.244 -0.3566 -0.1649 -0.2088
 5233SOL    HW127335   1.940   2.441  14.151  0.1648  3.6100 -1.0963
 5233SOL    HW227336   1.890   2.387  14.282  0.6405 -1.5508 -1.8842
 5234SOL     OW27337   0.448   1.002   1.680  0.0458  0.3971  0.8589
 5234SOL    HW127338   0.411   1.062   1.615 -2.8139 -1.9109  0.3508
 5234SOL    HW227339   0.363   0.970   1.711 -0.0668  1.1122  1.2809
 5235SOL     OW27340   0.715   2.632   9.061  0.2313 -0.1019  0.0769
 5235SOL    HW127341   0.810   2.634   9.045  0.3581 -1.1204  0.6838
 5235SOL    HW227342   0.716   2.635   9.157 -0.1232 -0.3077  0.0870
 5236SOL     OW27343   0.135   2.164   5.492 -0.0992  0.1105 -0.6897
 5236SOL    HW127344   0.087   2.089   5.458  1.5763 -0.9148 -0.8083
 5236SOL    HW227345   0.178   2.203   5.416 -2.2159  1.1279 -1.3485
 5237SOL     OW27346   3.977   4.717   4.622  0.1797 -0.0561  0.6792
 5237SOL    HW127347   4.002   4.685   4.709  0.4762  0.8592  0.9383
 5237SOL    HW227348   3.881   4.720   4.625  0.2203  0.8523  1.1789
 5238SOL     OW27349   2.825   3.079   5.212  0.5671  0.1611 -0.1648
 5238SOL    HW127350   2.763   3.098   5.142  0.0395 -0.2624  0.1925
 5238SOL    HW227351   2.850   2.990   5.187 -4.1226 -1.3726  0.6890
 5239SOL     OW27352   3.686   0.518   3.301  0.1291  0.7737  0.1290
 5239SOL    HW127353   3.633   0.597   3.297  1.6994  1.9048  1.9608
 5239SOL    HW227354   3.629   0.456   3.256 -0.4601  0.8775  0.7382
 5240SOL     OW27355   3.150   3.006   8.588 -0.1035 -0.1140 -0.3785
 5240SOL    HW127356   3.128   2.952   8.512 -1.5156 -1.4194  0.9676
 5240SOL    HW227357   3.119   2.953   8.661  0.8646  1.5730  1.2472
 5241SOL     OW27358   3.966   2.177   7.178  0.6279  0.1680  0.4879
 5241SOL    HW127359   3.966   2.187   7.083 -1.9268  0.6183  0.5259
 5241SOL    HW227360   4.044   2.122   7.188  0.4334 -0.3043 -0.5592
 5242SOL     OW27361   1.079   2.129  14.512 -0.0224 -0.1996 -0.4597
 5242SOL    HW127362   1.167   2.093  14.501  0.0901  0.1071 -0.5857
 5242SOL    HW227363   1.083   2.213  14.559 -1.1997  1.0553 -2.5771
 5243SOL     OW27364   4.011   2.035  10.114  0.5457 -0.4754  0.3844
 5243SOL    HW127365   3.971   2.056  10.030  0.3447 -1.4492  0.2315
 5243SOL    HW227366   4.085   2.095  10.104  0.9856 -0.7994  1.8151
 5244SOL     OW27367   1.514   1.540   2.508  0.0630 -0.6411  0.2696
 5244SOL    HW127368   1.509   1.585   2.592  2.0812 -0.8640  0.5311
 5244SOL    HW227369   1.494   1.449   2.530  0.7218 -0.1191  2.9913
 5245SOL     OW27370   4.202   1.790   4.266  0.1918  0.2658  0.1324
 5245SOL    HW127371   4.147   1.716   4.241 -0.2939  0.4163  0.7779
 5245SOL    HW227372   4.173   1.802   4.356 -2.7200 -2.4031 -0.4341
 5246SOL     OW27373   0.203   1.522   3.782  0.4256  0.7807  0.8917
 5246SOL    HW127374   0.151   1.539   3.860  0.4490  2.8237  0.4526
 5246SOL    HW227375   0.291   1.510   3.819  1.1725 -0.6757 -1.3214
 5247SOL     OW27376   3.642   0.789  12.156 -0.6788 -0.5235  0.0767
 5247SOL    HW127377   3.557   0.807  12.116  0.0462  0.3842 -1.0489
 5247SOL    HW227378   3.689   0.730  12.098 -0.1193  0.2522 -0.2606
 5248SOL     OW27379   2.120   4.730   4.295 -0.7231  0.6851  0.3752
 5248SOL    HW127380   2.203   4.700   4.257 -0.0698  0.5197  1.9370
 5248SOL    HW227381   2.081   0.055   4.234 -1.7342  0.3493  0.6698
 5249SOL     OW27382   1.526   4.738  14.077  0.1215 -0.2188 -0.1319
 5249SOL    HW127383   1.513   0.019  13.985  0.9116 -1.7284 -0.5652
 5249SOL    HW227384   1.452   4.682  14.100 -0.2628 -0.4355 -1.9273
 5250SOL     OW27385   3.982   1.899   1.709 -0.2997 -0.0688 -0.1722
 5250SOL    HW127386   4.020   1.812   1.699  0.9692  0.5355 -0.7062
 5250SOL    HW227387   4.025   1.945   1.636  1.8167 -1.5190  0.1568
 5251SOL     OW27388   2.177   3.627   8.675  0.1370 -0.1834  0.0953
 5251SOL    HW127389   2.146   3.670   8.595 -2.2070 -0.1280  1.0443
 5251SOL    HW227390   2.269   3.621   8.649  0.0478 -1.9958  0.2158
 5252SOL     OW27391   0.956   1.568   5.231 -0.3300  0.5259  0.8473
 5252SOL    HW127392   0.979   1.604   5.317  1.4601  1.3801  0.0173
 5252SOL    HW227393   0.977   1.477   5.249  1.4564  0.8321  0.3117
 5253SOL     OW27394   4.570   3.809   6.979  0.0456 -0.2133  0.4502
 5253SOL    HW127395   4.629   3.877   7.010 -0.7855  0.9407 -0.4826
 5253SOL    HW227396   4.611   3.776   6.899  2.2679 -0.6545  1.7760
 5254SOL     OW27397   2.542   0.149   2.985  1.1495 -0.3203 -0.3685
 5254SOL    HW127398   2.584   0.095   2.918  0.9726 -1.0970  0.1444
 5254SOL    HW227399   2.596   0.228   2.987  0.7408 -0.0387 -0.5689
 5255SOL     OW27400   0.791   0.496   4.447 -0.1558  0.7100  0.0413
 5255SOL    HW127401   0.713   0.552   4.448 -1.3629 -0.9836  1.1645
 5255SOL    HW227402   0.847   0.555   4.398 -1.1645  1.0877 -0.6735
 5256SOL     OW27403   0.850   2.516   8.790 -0.1321 -0.4517  0.2474
 5256SOL    HW127404   0.908   2.514   8.866 -2.7222 -0.9700  2.2194
 5256SOL    HW227405   0.853   2.609   8.771  0.6528 -0.2335  1.4745
 5257SOL     OW27406   0.568   2.603   8.674 -0.2681 -0.3087  0.5564
 5257SOL    HW127407   0.643   2.592   8.732  0.8546  0.0989 -0.8316
 5257SOL    HW227408   0.521   2.672   8.722 -2.5376 -0.9900 -0.6843
 5258SOL     OW27409   4.644   0.364   4.561  0.3129  0.9341 -0.0362
 5258SOL    HW127410   4.698   0.373   4.640 -1.5045 -2.4568  1.6056
 5258SOL    HW227411   4.571   0.424   4.578 -0.0463  1.0294 -2.0021
 5259SOL     OW27412   0.866   4.494   6.257  0.4000  0.1954  0.3011
 5259SOL    HW127413   0.893   4.555   6.188 -0.3369  0.8819  0.6242
 5259SOL    HW227414   0.896   4.538   6.337 -0.6029  1.6118 -0.0978
 5260SOL     OW27415   1.699   2.411   2.301  0.1024 -0.2160  0.0172
 5260SOL    HW127416   1.614   2.455   2.293 -0.3339 -0.7155  1.9359
 5260SOL    HW227417   1.682   2.345   2.368  0.1556  1.1922  1.3960
 5261SOL     OW27418   3.135   2.629   4.708 -0.2765  0.1695 -0.1020
 5261SOL    HW127419   3.083   2.707   4.688  0.9212  1.4407  1.8130
 5261SOL    HW227420   3.141   2.582   4.624  0.8566  2.8870 -1.5441
 5262SOL     OW27421   2.186   1.483   4.254  0.0975  0.5346 -0.2123
 5262SOL    HW127422   2.116   1.445   4.306  2.2405 -1.2049  1.4333
 5262SOL    HW227423   2.241   1.523   4.321 -0.6613 -2.3775  2.1511
 5263SOL     OW27424   3.124   0.828   8.058 -0.1189 -0.5979 -0.0943
 5263SOL    HW127425   3.030   0.826   8.074 -0.1131  0.4681  0.0505
 5263SOL    HW227426   3.137   0.923   8.062  2.6593 -0.9475 -0.5695
 5264SOL     OW27427   0.621   1.847  17.280  0.0479 -0.2728  0.2057
 5264SOL    HW127428   0.608   1.753  17.292 -0.8390 -0.2581 -0.7147
 5264SOL    HW227429   0.583   1.865  17.194 -2.1558 -1.5224  0.9356
 5265SOL     OW27430   3.055   4.339   2.149 -0.3265 -0.3046  0.5761
 5265SOL    HW127431   3.010   4.301   2.224  1.3326  0.2734  1.8492
 5265SOL    HW227432   2.975   4.363   2.102  0.6195  0.9466 -0.4036
 5266SOL     OW27433   4.435   4.050   3.813 -0.8151  0.4625  0.0038
 5266SOL    HW127434   4.414   4.134   3.854 -1.0121  1.0149 -1.2393
 5266SOL    HW227435   4.521   4.060   3.773 -1.1346  0.8947 -0.5828
 5267SOL     OW27436   0.596   1.843   1.780  0.1066  0.0733  0.1918
 5267SOL    HW127437   0.606   1.801   1.695  0.4385 -0.9576  0.7402
 5267SOL    HW227438   0.686   1.872   1.796  0.4989 -0.4157 -1.1722
 5268SOL     OW27439   1.501   0.235  14.678 -0.3866  0.1040  0.3362
 5268SOL    HW127440   1.474   0.248  14.769 -3.2087 -2.4978 -0.1300
 5268SOL    HW227441   1.487   0.140  14.676 -2.5483  0.4708 -3.3810
 5269SOL     OW27442   0.156   0.635  16.519 -0.8220  0.1228 -0.5474
 5269SOL    HW127443   0.140   0.546  16.549  2.3034 -0.1190  0.4217
 5269SOL    HW227444   0.098   0.644  16.444 -0.6455  0.2008 -0.6760
 5270SOL     OW27445   2.797   2.566   4.981  0.1030  0.3845 -0.4678
 5270SOL    HW127446   2.709   2.533   5.001  1.0270 -0.5620  2.0657
 5270SOL    HW227447   2.781   2.594   4.891  3.4900  3.7107 -0.0126
 5271SOL     OW27448   1.879   4.324  13.435 -0.4753  0.5511 -0.0563
 5271SOL    HW127449   1.855   4.377  13.511  1.2748  0.8477  0.2969
 5271SOL    HW227450   1.903   4.374  13.358  2.7021 -1.2455 -0.2383
 5272SOL     OW27451   1.750   2.356   2.739  0.7184  0.4042 -0.2623
 5272SOL    HW127452   1.684   2.425   2.737 -1.0534 -1.2502  1.4669
 5272SOL    HW227453   1.827   2.405   2.711  1.2821 -0.7540 -0.7605
 5273SOL     OW27454   1.404   0.296   4.345 -0.2207 -0.6053 -0.1489
 5273SOL    HW127455   1.378   0.204   4.345 -2.7192  0.0863  1.6806
 5273SOL    HW227456   1.485   0.283   4.395  0.1478 -0.2099 -0.6494
 5274SOL     OW27457   1.724   1.446   3.606  0.2872  0.1094 -0.3760
 5274SOL    HW127458   1.749   1.496   3.528 -0.6752  0.1060 -0.6888
 5274SOL    HW227459   1.629   1.456   3.596 -0.0968 -1.5138  1.8377
 5275SOL     OW27460   4.585   2.223  15.647 -0.0763  0.5131  0.0582
 5275SOL    HW127461   4.518   2.163  15.614  0.4556  0.7790 -1.4971
 5275SOL    HW227462   4.588   2.185  15.734  0.6978  0.2481 -0.0801
 5276SOL     OW27463   0.952   1.396  10.144 -0.8447  0.0138  0.0239
 5276SOL    HW127464   1.040   1.365  10.164 -0.0119  1.8034 -0.9644
 5276SOL    HW227465   0.973   1.488  10.158  1.4710 -0.3303 -1.2905
 5277SOL     OW27466   4.186   0.786  13.485 -0.1795 -0.5759  0.4623
 5277SOL    HW127467   4.169   0.729  13.561  1.5543 -1.3319  0.2866
 5277SOL    HW227468   4.130   0.860  13.507  3.0306  2.3794 -1.3721
 5278SOL     OW27469   2.240   1.147   5.912  0.2668  0.1131  0.1004
 5278SOL    HW127470   2.288   1.068   5.939  0.4190 -0.0540 -0.6724
 5278SOL    HW227471   2.306   1.183   5.854 -0.5028  0.0326 -0.8138
 5279SOL     OW27472   4.395   0.029  11.755 -0.7570  0.0308 -0.5405
 5279SOL    HW127473   4.441   0.090  11.697  0.5763  0.3855  0.8961
 5279SOL    HW227474   4.448   4.690  11.735 -1.1252 -0.1865 -0.6837
 5280SOL     OW27475   0.450   4.326   4.240  0.3392  0.3932  0.2062
 5280SOL    HW127476   0.539   4.294   4.258 -0.1437  0.6500  3.1463
 5280SOL    HW227477   0.414   4.330   4.329 -1.4237 -0.9363 -0.4612
 5281SOL     OW27478   1.868   3.806   0.494 -0.3409 -0.3584 -0.1417
 5281SOL    HW127479   1.814   3.747   0.547 -0.5877  0.2734  0.2952
 5281SOL    HW227480   1.947   3.751   0.486 -0.4141 -0.4456 -0.2685
 5282SOL     OW27481   1.273   3.765   7.349 -0.0799  0.2441 -0.2244
 5282SOL    HW127482   1.205   3.781   7.282 -2.3631  0.1547  2.0567
 5282SOL    HW227483   1.275   3.852   7.389 -0.7965 -0.4122  1.2337
 5283SOL     OW27484   1.063   3.949   6.950  0.5030  0.4058  1.1564
 5283SOL    HW127485   1.093   3.868   6.992 -0.4481  0.0791  1.2232
 5283SOL    HW227486   0.975   3.919   6.927  1.7890 -0.5092 -2.4559
 5284SOL     OW27487   2.207   4.140   5.194  0.1668 -0.4623 -0.2019
 5284SOL    HW127488   2.196   4.103   5.106  1.0524 -0.5001 -0.2921
 5284SOL    HW227489   2.294   4.123   5.227  0.4593  0.2530 -0.5873
 5285SOL     OW27490   3.738   2.687   3.204 -0.3172  0.5619 -0.3531
 5285SOL    HW127491   3.743   2.775   3.241  2.2313 -0.6931  2.3275
 5285SOL    HW227492   3.663   2.699   3.146 -1.0872  0.5109  0.6345
 5286SOL     OW27493   4.318   4.636   8.026  0.6574 -0.0680 -0.1007
 5286SOL    HW127494   4.250   4.588   7.978 -0.3997 -0.9501  2.3181
 5286SOL    HW227495   4.363   4.681   7.953 -0.6262 -0.3498 -1.0695
 5287SOL     OW27496   0.637   2.211   7.635  0.1388 -0.0624 -0.7385
 5287SOL    HW127497   0.693   2.134   7.640 -0.5740 -0.4854  0.6064
 5287SOL    HW227498   0.563   2.193   7.692  0.1077 -0.9708 -1.0781
 5288SOL     OW27499   3.417   0.771   5.567 -0.3092 -0.0672 -0.1485
 5288SOL    HW127500   3.384   0.774   5.477  1.7200 -0.9509 -0.9115
 5288SOL    HW227501   3.354   0.800   5.633 -1.2186 -1.5516 -0.3769
 5289SOL     OW27502   3.747   3.932  16.899  0.0861  0.6744 -0.3705
 5289SOL    HW127503   3.783   3.885  16.824  1.9813 -1.9857  2.1944
 5289SOL    HW227504   3.745   3.865  16.967 -0.5676 -1.2775 -2.3061
 5290SOL     OW27505   0.716   3.934   4.753  0.2575  0.5503  0.1654
 5290SOL    HW127506   0.625   3.957   4.735 -0.1020 -0.0089  1.3506
 5290SOL    HW227507   0.757   4.001   4.697 -0.9937  0.6223 -0.6634
 5291SOL     OW27508   4.208   4.155  12.446  0.1804 -0.6711  0.0132
 5291SOL    HW127509   4.257   4.216  12.391 -1.3504  0.8223  0.2968
 5291SOL    HW227510   4.132   4.207  12.471  1.4426  1.6115 -0.8416
 5292SOL     OW27511   0.446   3.110   7.872 -0.4387 -0.6797 -0.6322
 5292SOL    HW127512   0.383   3.062   7.926 -1.5605  0.0844 -1.2609
 5292SOL    HW227513   0.497   3.034   7.842 -0.9130 -2.2100  2.4411
 5293SOL     OW27514   2.731   0.658   7.940 -0.0308 -0.1981 -0.1694
 5293SOL    HW127515   2.730   0.706   7.857 -0.8845  2.4121  1.3492
 5293SOL    HW227516   2.782   0.581   7.915  1.7264  0.7756  0.4303
 5294SOL     OW27517   1.587   3.536  16.302  0.3109 -0.6256 -0.1200
 5294SOL    HW127518   1.578   3.471  16.232  0.2609  0.7164 -1.3580
 5294SOL    HW227519   1.563   3.617  16.258 -1.2206 -0.1945  1.5329
 5295SOL     OW27520   1.871   2.468  16.829  0.3397  0.6060  0.6031
 5295SOL    HW127521   1.862   2.546  16.884 -0.2413  1.3891 -0.6012
 5295SOL    HW227522   1.905   2.513  16.751  0.5521  4.0453  2.6839
 5296SOL     OW27523   4.223   1.370   4.396  0.2369  0.3662 -0.6372
 5296SOL    HW127524   4.181   1.299   4.446  2.9909 -0.9833 -0.2576
 5296SOL    HW227525   4.265   1.321   4.325 -1.4464 -0.2151 -1.2442
 5297SOL     OW27526   3.142   0.145   3.444  0.3816  0.3911  0.2579
 5297SOL    HW127527   3.093   0.097   3.377  0.5378 -0.8434  1.0267
 5297SOL    HW227528   3.072   0.171   3.504  0.3408  0.0731  0.3496
 5298SOL     OW27529   3.155   4.555   0.333 -0.2447  0.1468  0.5143
 5298SOL    HW127530   3.178   4.630   0.278 -0.7534 -1.5032 -1.9709
 5298SOL    HW227531   3.232   4.546   0.388 -0.6646 -2.0695  0.7333
 5299SOL     OW27532   4.007   2.503   1.956  0.1404  0.4443  0.4198
 5299SOL    HW127533   4.048   2.435   1.902  0.2712  0.3963  0.5794
 5299SOL    HW227534   3.990   2.561   1.882  0.0767  1.9961  1.6627
 5300SOL     OW27535   2.572   2.134   3.258  0.0108  0.0678  0.1977
 5300SOL    HW127536   2.557   2.043   3.232  1.6881 -0.2116  0.2072
 5300SOL    HW227537   2.613   2.124   3.344  2.3493 -3.0815 -1.2787
 5301SOL     OW27538   1.075   1.001  10.250  0.1180  0.6526  0.5962
 5301SOL    HW127539   1.098   0.935  10.184 -1.0499  1.1189 -0.2819
 5301SOL    HW227540   1.090   1.084  10.204  0.0190  0.8357  0.8999
 5302SOL     OW27541   3.760   2.494   4.276  0.6027  0.4328  0.2475
 5302SOL    HW127542   3.774   2.462   4.365  2.9450  0.8595  0.0284
 5302SOL    HW227543   3.847   2.477   4.240  0.0130 -0.8326 -0.5701
 5303SOL     OW27544   2.014   2.737  15.210 -0.0299  0.0417  0.4663
 5303SOL    HW127545   2.024   2.828  15.241  0.0667  0.2115 -0.0701
 5303SOL    HW227546   1.922   2.746  15.185 -0.1639 -1.5872  0.3863
 5304SOL     OW27547   0.031   0.073  16.219 -0.2083  0.3729  0.1433
 5304SOL    HW127548   0.040   0.025  16.137 -0.8566  0.3807  0.0633
 5304SOL    HW227549   0.104   0.038  16.270  1.7371  1.1239 -2.1750
 5305SOL     OW27550   1.761   2.290   1.641  0.1017  0.1835  0.3011
 5305SOL    HW127551   1.775   2.205   1.683 -0.9616  0.4815  1.2618
 5305SOL    HW227552   1.717   2.331   1.716 -0.8787  0.4644 -0.4347
 5306SOL     OW27553   4.548   1.391   4.789  0.4613 -0.1286  0.0055
 5306SOL    HW127554   4.595   1.364   4.710 -0.0279  1.6169 -0.8719
 5306SOL    HW227555   4.529   1.481   4.762 -1.1280 -0.8009 -1.1684
 5307SOL     OW27556   0.227   2.176   3.097  0.4545  0.8518 -0.4312
 5307SOL    HW127557   0.149   2.197   3.148  0.1404 -1.0708 -0.1227
 5307SOL    HW227558   0.191   2.103   3.047  0.5336 -0.5417  1.5810
 5308SOL     OW27559   4.111   1.445   5.490 -0.4726  0.4545 -0.2810
 5308SOL    HW127560   4.042   1.407   5.544  0.0192  1.6530  1.2017
 5308SOL    HW227561   4.187   1.460   5.547 -2.8106  1.5141  2.5362
 5309SOL     OW27562   3.379   0.362  10.442  0.4274  0.1632 -0.5282
 5309SOL    HW127563   3.307   0.300  10.430 -1.2820  2.1040 -0.2687
 5309SOL    HW227564   3.431   0.298  10.490 -0.5471 -1.4847 -1.6725
 5310SOL     OW27565   4.107   2.578   4.925 -0.1044  0.3193 -0.0194
 5310SOL    HW127566   4.116   2.525   5.004  1.9260  0.5568 -0.1042
 5310SOL    HW227567   4.121   2.668   4.955  1.3419  0.0971 -0.0494
 5311SOL     OW27568   0.392   3.326   4.161 -0.2547  1.0332  0.6134
 5311SOL    HW127569   0.351   3.361   4.240 -1.1115  1.4474 -0.0104
 5311SOL    HW227570   0.420   3.408   4.120 -0.5416  1.6332  1.6113
 5312SOL     OW27571   1.575   0.710  14.682 -0.5471  0.0053 -0.0460
 5312SOL    HW127572   1.647   0.691  14.742  1.6323  0.1618 -2.6413
 5312SOL    HW227573   1.570   0.627  14.635 -1.2921 -0.3688  0.6841
 5313SOL     OW27574   2.465   1.273   3.501  0.6052  0.3338 -0.2677
 5313SOL    HW127575   2.391   1.258   3.559  2.3047 -0.1203  1.7786
 5313SOL    HW227576   2.498   1.187   3.475 -1.7187 -0.6613  0.0531
 5314SOL     OW27577   4.330   0.203   9.572 -0.2703  0.2591 -0.2614
 5314SOL    HW127578   4.330   0.266   9.644 -1.3147  1.1561 -1.0538
 5314SOL    HW227579   4.414   0.159   9.587 -0.4246 -0.2867 -0.9962
 5315SOL     OW27580   1.543   4.728  15.091  0.4266 -0.0319  0.0219
 5315SOL    HW127581   1.564   4.686  15.008 -1.7495 -0.9927 -0.0397
 5315SOL    HW227582   1.507   0.076  15.070 -0.3044 -0.1912  0.6008
 5316SOL     OW27583   4.520   1.330   7.106  0.1897  0.1255  0.1364
 5316SOL    HW127584   4.596   1.387   7.122 -0.1039  0.9436 -1.3765
 5316SOL    HW227585   4.464   1.367   7.174  3.4428  0.3250  2.7640
 5317SOL     OW27586   4.528   1.137  13.254 -0.1823  0.2257  0.3826
 5317SOL    HW127587   4.608   1.141  13.202 -1.3257  1.5729 -1.2970
 5317SOL    HW227588   4.549   1.171  13.341  1.3110 -0.0192  0.1182
 5318SOL     OW27589   0.975   2.024   2.952  0.8404 -0.7042 -0.4000
 5318SOL    HW127590   0.881   2.004   2.943  0.7911 -0.8048  0.2552
 5318SOL    HW227591   0.964   2.093   3.018  0.8665 -2.6798  1.6918
 5319SOL     OW27592   0.465   3.537   6.944 -0.2407  0.3370 -0.4434
 5319SOL    HW127593   0.422   3.457   6.976 -0.6500  0.9283  0.4991
 5319SOL    HW227594   0.390   3.573   6.896  0.8236  1.7054 -1.0551
 5320SOL     OW27595   1.445   0.666   8.631 -0.1131 -0.7833  0.1846
 5320SOL    HW127596   1.375   0.703   8.578 -0.3145 -3.8627 -1.7251
 5320SOL    HW227597   1.395   0.672   8.712 -1.8059 -0.0513 -0.8988
 5321SOL     OW27598   4.574   0.522   1.630  0.0923  0.1263 -0.1107
 5321SOL    HW127599   4.639   0.573   1.581 -0.5547 -0.7701 -1.9130
 5321SOL    HW227600   4.540   0.459   1.566  0.1455  1.5751 -1.5658
 5322SOL     OW27601   1.134   2.944   0.881  0.1352  0.0362 -0.1713
 5322SOL    HW127602   1.126   2.910   0.792 -0.3643 -1.5760  0.4988
 5322SOL    HW227603   1.040   2.952   0.895  0.4333 -1.3229  2.6647
 5323SOL     OW27604   4.301   1.824   3.674 -0.2081  0.5391 -0.1693
 5323SOL    HW127605   4.342   1.848   3.591 -1.9688 -2.5849 -1.9569
 5323SOL    HW227606   4.241   1.751   3.655  0.0108  0.6893 -1.3749
 5324SOL     OW27607   3.718   4.600  12.003  0.3000  0.2987 -0.2036
 5324SOL    HW127608   3.657   4.671  11.985 -0.9747 -0.8381 -0.3280
 5324SOL    HW227609   3.789   4.619  11.941  0.1140  0.5443 -0.3419
 5325SOL     OW27610   1.474   1.124   2.934 -0.8499  0.3827 -0.2210
 5325SOL    HW127611   1.454   1.153   2.845 -0.0567  1.3827 -0.0617
 5325SOL    HW227612   1.439   1.197   2.985 -0.9853  0.0414  0.1817
 5326SOL     OW27613   4.634   1.915   9.085  0.0500  0.1450 -0.0778
 5326SOL    HW127614   4.690   1.983   9.048 -0.3150  0.4559 -0.0535
 5326SOL    HW227615   4.562   1.970   9.116 -1.4005  0.0529 -3.2865
 5327SOL     OW27616   1.266   4.344   7.828  0.3461  1.1470 -0.0105
 5327SOL    HW127617   1.333   4.287   7.866 -2.2456 -1.5575  0.5601
 5327SOL    HW227618   1.204   4.353   7.901  0.0831 -0.3865 -0.0391
 5328SOL     OW27619   4.568   1.280   4.333 -0.3256 -1.1455 -0.2641
 5328SOL    HW127620   4.534   1.359   4.291 -1.2296 -2.1253 -1.3948
 5328SOL    HW227621   4.621   1.238   4.265  0.7560  1.7130 -1.1731
 5329SOL     OW27622   4.375   2.139   7.270 -0.0240 -0.5838 -0.6234
 5329SOL    HW127623   4.412   2.056   7.302  1.1008  0.0947 -0.1776
 5329SOL    HW227624   4.302   2.154   7.330 -2.0632 -2.6112 -2.5566
 5330SOL     OW27625   4.339   0.631   1.312  0.4738 -0.2985  0.3607
 5330SOL    HW127626   4.408   0.675   1.361  0.1970  1.2477 -0.6159
 5330SOL    HW227627   4.271   0.698   1.323  1.4913  0.7776  0.0581
 5331SOL     OW27628   4.618   3.469   3.193  0.1065 -0.7557 -0.5162
 5331SOL    HW127629   4.626   3.553   3.239 -1.2138 -1.0907  0.3057
 5331SOL    HW227630   4.704   3.428   3.200  0.7178  0.8749  1.5292
 5332SOL     OW27631   3.724   0.235  13.761 -0.0826 -0.0796  0.0503
 5332SOL    HW127632   3.655   0.169  13.761  0.3326 -0.5139 -0.7751
 5332SOL    HW227633   3.779   0.199  13.830 -3.1771  0.0919  2.6138
 5333SOL     OW27634   3.333   4.390  11.650  0.4047  0.4761 -0.1134
 5333SOL    HW127635   3.273   4.350  11.587  0.8454 -2.5306  1.3828
 5333SOL    HW227636   3.329   4.482  11.626 -0.5308  0.9766  2.0071
 5334SOL     OW27637   1.215   4.472  15.426  0.1488 -0.3519 -0.7265
 5334SOL    HW127638   1.194   4.411  15.356 -1.4687 -0.2750 -0.2872
 5334SOL    HW227639   1.134   4.523  15.430  1.7035  1.9470  1.6070
 5335SOL     OW27640   3.525   2.232   6.155  0.0003  0.8243 -0.3821
 5335SOL    HW127641   3.548   2.213   6.065  2.1200 -0.0072  0.3267
 5335SOL    HW227642   3.593   2.297   6.171 -0.9195  1.1135  2.3781
 5336SOL     OW27643   2.937   4.275   8.897 -0.3944  0.2740 -0.0826
 5336SOL    HW127644   2.981   4.327   8.964  0.9030 -0.2165 -0.5638
 5336SOL    HW227645   2.993   4.198   8.902 -0.0777  0.4961 -0.2455
 5337SOL     OW27646   4.539   3.970   6.219  0.6164 -0.1085  0.1204
 5337SOL    HW127647   4.540   3.879   6.189  1.8802  0.0462 -0.3155
 5337SOL    HW227648   4.631   3.982   6.242 -0.0983 -1.6922  3.7515
 5338SOL     OW27649   0.549   4.071   4.006  0.3132  0.6203  0.0457
 5338SOL    HW127650   0.584   4.046   3.921  0.3620  1.4079 -0.1664
 5338SOL    HW227651   0.522   3.988   4.044  1.0335  0.6417  0.6057
 5339SOL     OW27652   2.836   2.860   8.601 -0.6915 -0.1089 -0.1703
 5339SOL    HW127653   2.823   2.765   8.606 -2.0018  0.0718 -0.1569
 5339SOL    HW227654   2.789   2.904   8.672  1.1674 -1.7438  2.0789
 5340SOL     OW27655   2.498   4.648   2.054 -0.2088  0.1977  0.0858
 5340SOL    HW127656   2.588   4.679   2.065 -0.6950  2.0283 -1.0435
 5340SOL    HW227657   2.467   4.679   1.969  1.2734 -0.0908 -0.5700
 5341SOL     OW27658   0.966   0.695   2.327 -0.6724  0.2418  0.3218
 5341SOL    HW127659   0.948   0.760   2.260 -1.1142  0.3127  0.5092
 5341SOL    HW227660   0.957   0.758   2.399  0.9543 -1.0578  1.6903
 5342SOL     OW27661   1.229   2.313  14.242  0.1569 -0.2465  0.4351
 5342SOL    HW127662   1.230   2.360  14.159 -3.1337  0.9840  1.0750
 5342SOL    HW227663   1.152   2.261  14.219 -0.3637  0.9504 -0.5356
 5343SOL     OW27664   1.119   4.463  16.447  0.4482 -0.0499 -0.0882
 5343SOL    HW127665   1.126   4.532  16.513 -2.0736  1.0792 -0.9955
 5343SOL    HW227666   1.075   4.398  16.502 -0.4748 -1.1057 -2.0674
 5344SOL     OW27667   2.415   2.226   7.716  0.4997  0.3495  0.3508
 5344SOL    HW127668   2.469   2.207   7.639 -1.5309 -0.7724 -0.8145
 5344SOL    HW227669   2.341   2.281   7.688 -2.1840 -2.6365  1.4750
 5345SOL     OW27670   2.421   3.570   6.565 -0.3492  0.1025  0.1251
 5345SOL    HW127671   2.394   3.485   6.601 -2.1885  0.3355 -0.7384
 5345SOL    HW227672   2.461   3.530   6.488  2.7384  0.9654  1.2874
 5346SOL     OW27673   0.526   1.994   6.046 -0.3094  0.3207  0.1149
 5346SOL    HW127674   0.563   1.976   6.133  2.3654 -2.4770 -1.6376
 5346SOL    HW227675   0.450   1.937   6.048 -0.0223 -0.1194 -2.2252
 5347SOL     OW27676   3.641   1.171  16.785  0.2625 -0.1400 -0.0976
 5347SOL    HW127677   3.732   1.200  16.790  0.0419  0.7063 -1.0162
 5347SOL    HW227678   3.620   1.194  16.695 -1.2948  1.4902  0.6948
 5348SOL     OW27679   2.515   4.229   2.547  0.1733 -0.4097  0.4183
 5348SOL    HW127680   2.422   4.242   2.563  0.3132 -0.3842  1.2286
 5348SOL    HW227681   2.508   4.144   2.504  1.4625  0.0177 -0.6320
 5349SOL     OW27682   0.497   3.016   7.533  0.3548 -0.7014 -0.6837
 5349SOL    HW127683   0.555   3.090   7.552 -0.0645 -0.3976 -0.5871
 5349SOL    HW227684   0.502   2.975   7.619 -1.0117 -0.9475 -0.7214
 5350SOL     OW27685   1.588   2.469  13.474  0.2995 -0.7533 -0.1968
 5350SOL    HW127686   1.668   2.420  13.490  0.7582  0.0840  0.0651
 5350SOL    HW227687   1.544   2.443  13.555 -2.4507 -2.2484 -2.1821
 5351SOL     OW27688   2.224   0.867   3.272  0.3191 -0.2371  0.1386
 5351SOL    HW127689   2.151   0.819   3.310  0.0660  0.4586  0.5387
 5351SOL    HW227690   2.272   0.796   3.229 -0.9885 -0.4582 -0.9408
 5352SOL     OW27691   1.759   3.074   6.424 -0.1634 -0.1589 -0.4405
 5352SOL    HW127692   1.742   3.168   6.420 -1.4517 -0.4217 -0.9319
 5352SOL    HW227693   1.855   3.075   6.434 -0.1157  0.8347 -0.9869
 5353SOL     OW27694   0.819   3.410  15.442  0.5302  0.3729  0.0546
 5353SOL    HW127695   0.724   3.410  15.451  0.6740  2.5682  1.5284
 5353SOL    HW227696   0.855   3.490  15.481  0.5121  0.9301 -1.0743
 5354SOL     OW27697   4.694   4.698   5.375  0.1374 -0.0462 -0.1413
 5354SOL    HW127698   4.664   0.003   5.295 -1.0564  0.2283  0.4691
 5354SOL    HW227699   0.019   4.637   5.336  0.2532 -0.1376  0.1920
 5355SOL     OW27700   3.910   4.025  11.578  0.0679 -0.1784 -0.0060
 5355SOL    HW127701   3.867   4.044  11.662 -2.6698 -0.7260 -1.2878
 5355SOL    HW227702   3.966   3.951  11.603 -0.9404 -1.1940 -0.7735
 5356SOL     OW27703   2.330   0.836   2.964 -0.1078  0.3101  0.1784
 5356SOL    HW127704   2.281   0.902   2.915  0.8025  1.8529  1.3620
 5356SOL    HW227705   2.361   0.787   2.888  0.9015  0.0770  0.7451
 5357SOL     OW27706   3.323   0.987   9.671 -0.6097 -0.6959  0.4446
 5357SOL    HW127707   3.305   1.001   9.764  0.2471 -0.1837  0.5302
 5357SOL    HW227708   3.371   0.904   9.678 -2.3954 -1.7411  0.5984
 5358SOL     OW27709   3.839   2.937  13.071  0.3011  0.3745 -0.0321
 5358SOL    HW127710   3.881   2.901  12.992  1.7948  0.8360  0.5557
 5358SOL    HW227711   3.831   3.024  13.032 -1.6962  0.0560 -0.3504
 5359SOL     OW27712   0.421   3.863   5.870 -0.0456 -0.1705 -0.0567
 5359SOL    HW127713   0.353   3.810   5.827  0.3139  0.2044 -1.0868
 5359SOL    HW227714   0.370   3.900   5.941 -0.8764 -2.2865  0.4451
 5360SOL     OW27715   0.424   2.650   1.882 -0.6318 -0.2717 -0.7017
 5360SOL    HW127716   0.444   2.710   1.954 -1.7634  2.5508 -2.7577
 5360SOL    HW227717   0.452   2.572   1.930 -4.2213 -0.5758  0.8529
 5361SOL     OW27718   0.342   2.521   0.666 -0.1727 -0.0969 -0.5295
 5361SOL    HW127719   0.389   2.451   0.711 -3.1506 -0.1125  2.6079
 5361SOL    HW227720   0.362   2.594   0.723 -3.2114  0.6667 -0.4362
 5362SOL     OW27721   3.064   1.246   6.126 -0.2860  0.0699  0.0889
 5362SOL    HW127722   3.024   1.329   6.154  2.5420  2.0852 -1.8408
 5362SOL    HW227723   3.066   1.201   6.211  0.0406 -0.9092 -0.4484
 5363SOL     OW27724   3.217   4.159   9.654  0.0024 -0.6032 -0.7272
 5363SOL    HW127725   3.307   4.162   9.686 -0.4696 -0.8414  0.6481
 5363SOL    HW227726   3.163   4.163   9.734 -1.0479 -0.2482 -1.4568
 5364SOL     OW27727   1.056   1.158   8.484  0.3568  0.0937 -0.1652
 5364SOL    HW127728   0.962   1.158   8.467  0.1968 -0.5130  0.7340
 5364SOL    HW227729   1.058   1.254   8.491 -2.0949  0.1487 -0.2340
 5365SOL     OW27730   0.554   0.991   3.866 -0.0811  0.0111  0.1531
 5365SOL    HW127731   0.539   1.009   3.773  1.8802  1.4010  0.1222
 5365SOL    HW227732   0.560   0.896   3.857 -1.7919  0.2228 -3.3103
 5366SOL     OW27733   0.824   2.142   4.488 -0.4961  0.1969  0.2242
 5366SOL    HW127734   0.765   2.081   4.442 -0.3907  0.6508 -0.5144
 5366SOL    HW227735   0.774   2.220   4.465 -0.4689 -0.2022 -1.1966
 5367SOL     OW27736   0.982   1.375   6.096 -0.1612 -0.5462 -0.3372
 5367SOL    HW127737   1.057   1.398   6.150 -0.5697 -0.0487  0.0065
 5367SOL    HW227738   0.982   1.279   6.107  0.5834 -0.6230 -1.0041
 5368SOL     OW27739   2.828   2.813   5.600 -0.1553 -0.2161  0.5809
 5368SOL    HW127740   2.915   2.793   5.633 -0.3459 -1.4193  0.3663
 5368SOL    HW227741   2.837   2.776   5.512  0.1827 -1.5776  1.1804
 5369SOL     OW27742   0.280   3.911  10.462  0.3900  0.2596  0.2084
 5369SOL    HW127743   0.320   3.825  10.476 -1.4563 -0.1878  2.6534
 5369SOL    HW227744   0.346   3.952  10.519 -1.3784  0.7049  1.9118
 5370SOL     OW27745   0.012   1.408   6.608 -0.1478  0.1176 -0.1665
 5370SOL    HW127746   4.690   1.415   6.682 -0.9364  0.6485 -0.8573
 5370SOL    HW227747   4.737   1.315   6.589 -0.5351  0.1304  0.0239
 5371SOL     OW27748   1.163   2.822  12.011  0.3874 -0.2700  0.0969
 5371SOL    HW127749   1.114   2.740  12.022 -0.6919  0.3267 -0.2762
 5371SOL    HW227750   1.099   2.880  12.051 -0.2180 -0.7536 -0.1787
 5372SOL     OW27751   3.109   2.291   8.256  0.6721  0.2947 -0.2984
 5372SOL    HW127752   3.066   2.351   8.196  2.0693  1.3576 -0.2508
 5372SOL    HW227753   3.115   2.213   8.200 -1.8813 -0.4861  0.5361
 5373SOL     OW27754   3.678   2.874  16.811  0.1764 -0.3758  0.2499
 5373SOL    HW127755   3.654   2.933  16.882  1.4039  0.9277 -0.4165
 5373SOL    HW227756   3.597   2.845  16.769 -0.4149  1.0644  0.4006
 5374SOL     OW27757   3.407   4.633  10.594  0.2351 -1.1552  0.2559
 5374SOL    HW127758   3.382   4.603  10.506  3.9032 -3.1975 -0.0966
 5374SOL    HW227759   3.349   4.570  10.637 -0.6685  0.5736  1.5520
 5375SOL     OW27760   1.734   2.346  12.360  0.4096 -0.0899  0.1742
 5375SOL    HW127761   1.784   2.418  12.321  1.4770 -0.6911  0.4213
 5375SOL    HW227762   1.776   2.351  12.446 -0.3905  1.3831  0.4669
 5376SOL     OW27763   3.708   0.892   5.575 -0.1236  0.1341 -0.3040
 5376SOL    HW127764   3.631   0.855   5.619  0.5204 -0.8770 -0.0379
 5376SOL    HW227765   3.742   0.819   5.524  1.3308  0.3206  0.3988
 5377SOL     OW27766   3.672   2.471   1.909  0.0293 -0.7764  0.3010
 5377SOL    HW127767   3.681   2.548   1.852  1.9098 -2.8501 -2.2285
 5377SOL    HW227768   3.743   2.487   1.971 -3.2151  2.6415  3.1103
 5378SOL     OW27769   4.097   0.736  17.231 -0.9404  0.6566  0.7134
 5378SOL    HW127770   4.132   0.707  17.316  0.3406 -1.0651 -0.4108
 5378SOL    HW227771   4.050   0.817  17.249  0.3305  1.5667 -0.0464
 5379SOL     OW27772   1.216   4.442   2.293  0.4304 -0.2350 -0.1245
 5379SOL    HW127773   1.228   4.380   2.222  0.7161 -1.4025  0.9546
 5379SOL    HW227774   1.230   4.394   2.374  2.2383  2.9217  1.4232
 5380SOL     OW27775   3.114   3.989  17.076 -0.1749  0.1291 -0.0503
 5380SOL    HW127776   3.138   4.051  17.008  1.5922 -2.9779 -2.2492
 5380SOL    HW227777   3.069   3.937  17.010  1.5189 -1.0881 -0.2334
 5381SOL     OW27778   1.747   2.742   3.984 -0.1295 -0.3897  0.2307
 5381SOL    HW127779   1.706   2.667   4.027 -0.4438 -0.2790  0.1281
 5381SOL    HW227780   1.830   2.758   4.029  0.4139 -0.4172 -0.7636
 5382SOL     OW27781   3.178   0.002   5.871 -0.1165  0.1050 -0.0358
 5382SOL    HW127782   3.098   4.709   5.912 -0.0254  0.2119  0.2258
 5382SOL    HW227783   3.207   0.064   5.938 -0.4723  0.8637 -0.5754
 5383SOL     OW27784   3.119   1.723   5.171 -0.3289  0.6544 -0.4177
 5383SOL    HW127785   3.191   1.710   5.233 -0.2845  0.3927 -0.5268
 5383SOL    HW227786   3.170   1.758   5.099  2.2148  0.2261  1.1779
 5384SOL     OW27787   4.170   2.692   1.532  0.3636 -0.2152  0.6150
 5384SOL    HW127788   4.202   2.604   1.514  0.3403 -0.2101  0.5484
 5384SOL    HW227789   4.249   2.742   1.554  0.5038 -0.7825  1.3948
 5385SOL     OW27790   1.763   1.585   6.919  0.0185  0.1675  0.3463
 5385SOL    HW127791   1.814   1.516   6.961 -0.2595 -0.0327  0.3529
 5385SOL    HW227792   1.673   1.555   6.909  0.4589 -0.6597 -1.1146
 5386SOL     OW27793   3.705   0.927   3.655  0.1564 -0.0516 -0.2363
 5386SOL    HW127794   3.631   0.872   3.679  0.9787 -0.9036  0.3387
 5386SOL    HW227795   3.733   0.882   3.575 -0.5757  0.5651 -0.8400
 5387SOL     OW27796   1.536   1.302   8.966  0.0948  0.1803  0.0595
 5387SOL    HW127797   1.499   1.272   9.049  0.7054 -0.6858  0.0147
 5387SOL    HW227798   1.626   1.269   8.969 -0.3976 -1.0562  1.0444
 5388SOL     OW27799   4.427   3.241   5.760 -0.6290  0.3109 -0.2493
 5388SOL    HW127800   4.454   3.311   5.820 -0.1565  0.8782 -1.1253
 5388SOL    HW227801   4.333   3.258   5.750 -0.6883  0.0321 -0.1715
 5389SOL     OW27802   0.343   1.564   2.742 -0.0862  0.3932  0.4688
 5389SOL    HW127803   0.258   1.557   2.698 -0.4561  0.9261  1.0912
 5389SOL    HW227804   0.335   1.498   2.811  1.7013 -1.4223 -1.0687
 5390SOL     OW27805   3.217   1.857  15.653  0.4781  0.0042 -0.2445
 5390SOL    HW127806   3.229   1.764  15.634  2.9229  0.4721 -0.9685
 5390SOL    HW227807   3.156   1.879  15.582 -0.1458  0.7228  0.5067
 5391SOL     OW27808   1.489   1.005   0.649  0.0856  0.4096  0.3324
 5391SOL    HW127809   1.505   1.026   0.741  0.1197 -0.1385  0.4504
 5391SOL    HW227810   1.504   0.910   0.650  1.6264  0.6685  1.5335
 5392SOL     OW27811   1.749   2.542  12.852 -0.1328  0.3684  0.2779
 5392SOL    HW127812   1.666   2.552  12.899 -0.1119 -1.5884  0.7102
 5392SOL    HW227813   1.821   2.579  12.904  0.7234 -1.2422  0.2279
 5393SOL     OW27814   3.841   4.406  11.471  0.1273 -0.2378 -0.1070
 5393SOL    HW127815   3.897   4.483  11.469 -0.9281  0.5660  0.6639
 5393SOL    HW227816   3.754   4.446  11.462 -0.9532 -2.2247  1.4313
 5394SOL     OW27817   3.196   0.381   3.254 -1.2655  0.4432  0.0667
 5394SOL    HW127818   3.192   0.299   3.302 -1.5096 -0.2777 -1.1855
 5394SOL    HW227819   3.122   0.430   3.290 -1.7450  0.4422 -0.9275
 5395SOL     OW27820   2.708   1.686   6.002  0.8212 -0.3278  0.0487
 5395SOL    HW127821   2.630   1.739   6.017  2.5813  2.2771 -0.0066
 5395SOL    HW227822   2.752   1.701   6.086 -0.0415  1.8107  0.1133
 5396SOL     OW27823   1.475   2.820   0.355  0.2449  0.2207 -0.2051
 5396SOL    HW127824   1.381   2.835   0.366  0.2335 -0.4426  0.5727
 5396SOL    HW227825   1.512   2.837   0.442 -0.7049 -0.0035  0.2400
 5397SOL     OW27826   0.367   1.531   1.934 -0.6216 -0.4431 -0.9332
 5397SOL    HW127827   0.415   1.469   1.879  1.6186 -0.8771  1.4961
 5397SOL    HW227828   0.405   1.528   2.022 -0.9490  2.6982 -0.6593
 5398SOL     OW27829   3.910   4.201   1.369  0.0538 -0.1455 -0.3282
 5398SOL    HW127830   3.871   4.244   1.293 -1.3150 -0.2795  0.2915
 5398SOL    HW227831   3.928   4.280   1.420  0.1303 -1.2937  1.4031
 5399SOL     OW27832   1.476   4.692  14.689  0.8795  0.5754 -0.1299
 5399SOL    HW127833   1.524   4.619  14.729 -0.5305 -0.3290 -0.1106
 5399SOL    HW227834   1.511   4.698  14.600 -0.5142 -0.0998 -0.7134
 5400SOL     OW27835   1.070   2.431   4.694  0.9855 -0.2246 -0.2382
 5400SOL    HW127836   1.132   2.392   4.632  0.6442 -1.9899  0.5338
 5400SOL    HW227837   1.010   2.356   4.701  1.2630 -0.3275  0.9348
 5401SOL     OW27838   4.194   0.192   7.681 -0.2343  0.2400 -0.2183
 5401SOL    HW127839   4.254   0.120   7.701  0.8112  1.4286  0.9438
 5401SOL    HW227840   4.243   0.258   7.730  0.7744 -0.3188 -0.4587
 5402SOL     OW27841   4.294   4.313   1.362  0.0278 -0.3182 -0.2587
 5402SOL    HW127842   4.295   4.257   1.284  1.9700 -1.7119  0.7708
 5402SOL    HW227843   4.308   4.401   1.327  0.8881 -0.3103  0.1272
 5403SOL     OW27844   2.195   1.583   2.744 -0.0047 -0.0033  0.4944
 5403SOL    HW127845   2.177   1.668   2.704  1.1606 -0.7524 -1.5915
 5403SOL    HW227846   2.192   1.520   2.672 -0.9189  0.5203  0.0742
 5404SOL     OW27847   0.546   1.234   3.969 -0.0360  0.2133 -0.0288
 5404SOL    HW127848   0.540   1.151   3.923 -1.9978 -0.4113  1.3565
 5404SOL    HW227849   0.641   1.229   3.982  0.0865  2.7185  0.0985
 5405SOL     OW27850   2.313   3.727   0.301  0.1287  0.3244 -0.4739
 5405SOL    HW127851   2.219   3.736   0.284  0.7343  0.7011 -3.6330
 5405SOL    HW227852   2.338   3.635   0.313  0.8887  0.5540 -0.2931
 5406SOL     OW27853   3.400   0.864   6.473 -0.2854 -0.3806 -0.1457
 5406SOL    HW127854   3.443   0.824   6.397 -0.0992  0.2640 -0.3784
 5406SOL    HW227855   3.374   0.951   6.444 -1.5074 -0.5352  0.5219
 5407SOL     OW27856   3.336   0.058   7.432  0.0544  0.7784 -0.6223
 5407SOL    HW127857   3.385   0.077   7.512  1.0339 -0.9129 -0.8187
 5407SOL    HW227858   3.400   0.079   7.364  1.7706  1.6253  1.2453
 5408SOL     OW27859   2.058   2.358  14.954 -0.0884  0.1235 -0.2595
 5408SOL    HW127860   2.095   2.440  14.922  2.1994 -0.4091  1.0767
 5408SOL    HW227861   1.983   2.390  15.004  1.7200  0.9930  1.8961
 5409SOL     OW27862   0.619   0.065   2.849 -0.1457  0.1689 -0.7050
 5409SOL    HW127863   0.545   0.031   2.900  1.0704 -0.0980  0.9098
 5409SOL    HW227864   0.634   0.135   2.913  1.6757 -1.5392  0.7162
 5410SOL     OW27865   0.769   1.600  11.989  0.1021  0.2443 -0.9069
 5410SOL    HW127866   0.678   1.624  12.003  0.4006  0.1014  1.2508
 5410SOL    HW227867   0.805   1.675  11.942 -1.8764  1.4782 -0.4160
 5411SOL     OW27868   4.720   4.396   8.750 -0.3383 -0.3459  0.0093
 5411SOL    HW127869   0.055   4.340   8.726 -0.9119 -1.4790  0.8917
 5411SOL    HW227870   4.686   4.422   8.665 -2.0659 -0.2308  0.7356
 5412SOL     OW27871   0.083   0.724   7.799 -0.2284 -0.3509  0.0198
 5412SOL    HW127872   0.092   0.748   7.707 -0.1831 -0.2391  0.0542
 5412SOL    HW227873   0.157   0.665   7.816 -0.2182 -1.2219 -3.1725
 5413SOL     OW27874   2.392   4.601   6.349 -0.8977 -0.2279  0.5037
 5413SOL    HW127875   2.340   4.557   6.283 -0.6813  0.0319  0.1606
 5413SOL    HW227876   2.403   4.687   6.308 -0.3850  0.0576  1.2268
 5414SOL     OW27877   4.570   1.220  13.501  0.1588 -0.0201  0.2781
 5414SOL    HW127878   4.661   1.205  13.529 -0.3113  0.1145  1.8611
 5414SOL    HW227879   4.569   1.315  13.498  0.0600 -0.0355 -0.2649
 5415SOL     OW27880   4.003   1.618   6.012 -0.0919  0.2585  0.3473
 5415SOL    HW127881   4.042   1.667   5.940 -2.0101 -0.1026 -0.9596
 5415SOL    HW227882   4.076   1.625   6.073  1.2938  0.5456 -1.3205
 5416SOL     OW27883   0.572   1.640   0.606  0.2746  0.5332 -0.4244
 5416SOL    HW127884   0.633   1.615   0.537  1.2725  2.8012 -0.3744
 5416SOL    HW227885   0.510   1.567   0.611 -0.8990  1.6191  0.8417
 5417SOL     OW27886   3.032   2.026   6.874 -0.4280 -0.0289  0.0546
 5417SOL    HW127887   3.008   2.029   6.967  0.7857 -0.0643  0.3742
 5417SOL    HW227888   3.127   2.031   6.887 -0.8771  2.5785  2.3154
 5418SOL     OW27889   2.988   2.242   2.442  0.8098  0.5002  0.3385
 5418SOL    HW127890   2.972   2.335   2.426  0.5678 -0.2781 -3.9854
 5418SOL    HW227891   2.900   2.203   2.445  0.1318  2.1746  1.6280
 5419SOL     OW27892   1.727   3.144   3.468 -0.0442 -0.1929  0.2567
 5419SOL    HW127893   1.649   3.099   3.502  0.1727  0.3018  1.4076
 5419SOL    HW227894   1.732   3.100   3.383  0.8048 -0.4137  0.4265
 5420SOL     OW27895   3.434   0.276   1.279 -0.4912 -0.1803  0.0247
 5420SOL    HW127896   3.491   0.345   1.311 -0.1151 -0.3403 -0.3000
 5420SOL    HW227897   3.357   0.276   1.337  1.1005 -1.2666  2.1110
 5421SOL     OW27898   1.263   2.062  17.213  0.0416 -0.3698  0.1227
 5421SOL    HW127899   1.349   2.099  17.231  0.1926 -0.0412 -1.2201
 5421SOL    HW227900   1.277   2.016  17.130 -1.3184 -1.5564  0.5555
 5422SOL     OW27901   4.230   0.152   1.059 -0.4119  0.0602  0.5896
 5422SOL    HW127902   4.179   0.099   1.121  0.3057  0.8770  1.8834
 5422SOL    HW227903   4.291   0.087   1.024  0.2366  0.3716  1.1433
 5423SOL     OW27904   1.285   2.749   5.781  0.2392 -0.1421 -0.4020
 5423SOL    HW127905   1.278   2.654   5.776 -0.6943 -0.1042  0.1441
 5423SOL    HW227906   1.370   2.761   5.739  0.0862 -0.6280 -0.8422
 5424SOL     OW27907   4.507   0.675   4.770  0.0906  0.2450  0.4685
 5424SOL    HW127908   4.565   0.687   4.695 -0.2795 -0.2701  0.0944
 5424SOL    HW227909   4.556   0.720   4.838 -0.2635 -0.3894  1.1453
 5425SOL     OW27910   4.399   4.257   8.358  0.0158  0.3323 -0.2871
 5425SOL    HW127911   4.443   4.272   8.274  0.1375  0.0541 -0.2743
 5425SOL    HW227912   4.323   4.315   8.367 -1.0555 -0.8209 -2.0032
 5426SOL     OW27913   0.004   1.274   3.911  0.2752 -0.0182 -0.3888
 5426SOL    HW127914   0.015   1.220   3.833  0.0445 -0.6468  0.0198
 5426SOL    HW227915   0.092   1.290   3.947 -0.4482  0.2072  1.2840
 5427SOL     OW27916   4.620   2.696   8.031  0.1180 -0.5621 -1.0354
 5427SOL    HW127917   4.620   2.758   7.958  0.8560  0.9334  0.2522
 5427SOL    HW227918   4.709   2.707   8.066 -0.8041 -0.4370  1.2304
 5428SOL     OW27919   3.276   2.663   1.033 -0.3648 -0.2017 -0.3329
 5428SOL    HW127920   3.330   2.720   1.087  0.8250 -1.4712 -0.1731
 5428SOL    HW227921   3.340   2.626   0.972  2.0847  0.4340  1.8313
 5429SOL     OW27922   1.141   0.323  12.248 -0.0371 -0.3274  0.1545
 5429SOL    HW127923   1.058   0.310  12.294  2.0070  0.3747  4.0205
 5429SOL    HW227924   1.160   0.415  12.268  1.4608 -0.5144 -0.4127
 5430SOL     OW27925   1.014   0.042   5.567 -0.7501  0.1939 -0.1565
 5430SOL    HW127926   0.972   0.124   5.593  2.5622  1.1222  2.2626
 5430SOL    HW227927   1.088   0.039   5.628 -0.1007 -2.9752 -1.0691
 5431SOL     OW27928   0.362   4.056  12.319 -1.0465 -0.7159 -0.1497
 5431SOL    HW127929   0.304   4.082  12.390 -1.1291  1.4667 -1.0170
 5431SOL    HW227930   0.394   3.976  12.359 -1.3547 -0.1449  1.2433
 5432SOL     OW27931   0.934   0.621   3.033 -0.7273 -0.0894 -0.1055
 5432SOL    HW127932   1.003   0.557   3.046  0.2402  1.2344  1.2451
 5432SOL    HW227933   0.882   0.625   3.114  1.3019  1.8554  1.1061
 5433SOL     OW27934   1.510   3.288   9.668 -0.6818  0.1334 -0.4026
 5433SOL    HW127935   1.601   3.267   9.688 -0.8317  0.3999  0.5381
 5433SOL    HW227936   1.493   3.215   9.608  2.5790  0.2083 -1.3881
 5434SOL     OW27937   3.675   3.635   4.476  0.8882  0.6888  0.3259
 5434SOL    HW127938   3.675   3.589   4.560  1.1362 -0.2617 -0.2036
 5434SOL    HW227939   3.769   3.631   4.461  0.5788 -0.2632 -1.3225
 5435SOL     OW27940   2.010   1.925   3.387  0.2052 -0.1069 -0.0337
 5435SOL    HW127941   2.020   1.837   3.424 -1.0958 -1.1782 -2.2009
 5435SOL    HW227942   2.099   1.951   3.364 -0.3808  1.2129 -0.7861
 5436SOL     OW27943   1.043   1.459   0.409  0.0328 -0.3455 -0.7849
 5436SOL    HW127944   1.010   1.546   0.432  0.7201 -0.5875  1.0858
 5436SOL    HW227945   1.039   1.415   0.493 -1.3519  0.5581 -0.3764
 5437SOL     OW27946   2.875   3.963   3.447  0.1985 -0.2096 -0.0403
 5437SOL    HW127947   2.964   3.961   3.480  0.4618  1.5232 -0.6710
 5437SOL    HW227948   2.854   4.054   3.429  2.3249  0.4441  0.7766
 5438SOL     OW27949   2.947   2.528  12.352  0.5214 -0.0581  0.2969
 5438SOL    HW127950   2.910   2.553  12.267 -1.7506  0.2466  1.3628
 5438SOL    HW227951   3.040   2.513  12.339  0.6140  0.1030  0.7858
 5439SOL     OW27952   2.774   2.270   7.943  0.0181  0.2817 -0.1391
 5439SOL    HW127953   2.760   2.242   8.033 -1.3720  1.2875 -0.0438
 5439SOL    HW227954   2.854   2.223   7.920  0.1315 -0.4680  1.8020
 5440SOL     OW27955   0.454   1.245   3.377 -0.4247  0.0515  0.0650
 5440SOL    HW127956   0.382   1.229   3.316  0.5135 -1.3105 -0.6868
 5440SOL    HW227957   0.522   1.290   3.327 -0.5832  0.6611  0.4019
 5441SOL     OW27958   2.368   0.680  10.326  0.2239  0.2766 -0.1405
 5441SOL    HW127959   2.401   0.614  10.387  2.4534  1.2261 -0.3449
 5441SOL    HW227960   2.401   0.761  10.365 -0.8851  1.0084 -0.7329
 5442SOL     OW27961   3.733   3.039   7.183  0.6172  0.0943 -0.2276
 5442SOL    HW127962   3.643   3.064   7.162  0.0586 -0.8901  0.9976
 5442SOL    HW227963   3.762   2.999   7.101 -0.4521  3.0067 -2.0204
 5443SOL     OW27964   1.786   2.920   8.198 -0.2180  0.0037  0.5489
 5443SOL    HW127965   1.805   2.842   8.250 -1.7182 -0.6942  0.0432
 5443SOL    HW227966   1.770   2.980   8.270 -5.3206  0.1644 -0.7636
 5444SOL     OW27967   0.903   2.871   1.121  0.5165 -0.2976 -0.5208
 5444SOL    HW127968   0.880   2.828   1.038  0.5221 -0.3957 -0.4719
 5444SOL    HW227969   0.886   2.962   1.097 -0.0439 -0.4552 -0.7154
 5445SOL     OW27970   1.395   2.870  14.450 -0.1901 -0.1091  0.0776
 5445SOL    HW127971   1.304   2.857  14.474  0.1310  0.4277  1.5616
 5445SOL    HW227972   1.439   2.794  14.486  1.7528  1.2146  0.5052
 5446SOL     OW27973   3.114   3.691   8.384 -0.1874  0.2913  0.5243
 5446SOL    HW127974   3.037   3.681   8.441  1.2338  0.8243  2.5220
 5446SOL    HW227975   3.077   3.733   8.306  3.0508 -0.9449 -1.6419
 5447SOL     OW27976   1.866   0.057   5.821  0.1141  0.0358  0.3095
 5447SOL    HW127977   1.869   4.714   5.872 -1.0625 -0.6382 -0.6862
 5447SOL    HW227978   1.913   0.124   5.869  1.6680  0.3485 -1.6270
 5448SOL     OW27979   2.782   3.900  15.570 -0.0464 -0.4947 -0.0297
 5448SOL    HW127980   2.693   3.918  15.541 -0.4612 -2.3415  0.1280
 5448SOL    HW227981   2.837   3.921  15.495 -1.6400 -1.1537 -1.3792
 5449SOL     OW27982   2.938   1.020   5.957  0.7256  0.0187  0.3271
 5449SOL    HW127983   3.018   1.014   5.905  0.9253  0.1528  0.6162
 5449SOL    HW227984   2.971   1.088   6.017  3.8852 -0.4181 -0.9674
 5450SOL     OW27985   0.050   4.443  11.375 -0.1095  0.6559 -0.4721
 5450SOL    HW127986   0.112   4.373  11.354  0.5370  1.1181 -0.0968
 5450SOL    HW227987   0.100   4.515  11.338  0.3791  1.0245  0.9144
 5451SOL     OW27988   1.993   1.083  14.836  0.3169 -0.0782  0.1922
 5451SOL    HW127989   2.015   1.168  14.796 -1.8100  0.7318  0.7383
 5451SOL    HW227990   2.064   1.030  14.801  0.5414 -0.2990  0.9702
 5452SOL     OW27991   1.516   1.562   8.599  0.3202 -0.3592  0.4461
 5452SOL    HW127992   1.603   1.596   8.577  0.8840 -1.1263  1.4782
 5452SOL    HW227993   1.460   1.631   8.633 -0.2230 -0.4730 -0.2287
 5453SOL     OW27994   0.960   4.301  16.611 -0.0482  0.3402  0.1329
 5453SOL    HW127995   0.984   4.282  16.702  2.4980 -2.0688 -1.0717
 5453SOL    HW227996   0.865   4.314  16.615 -0.0967  0.1443 -0.3682
 5454SOL     OW27997   1.243   4.291   9.961 -0.0842  0.1517  0.3836
 5454SOL    HW127998   1.299   4.221   9.994 -1.4344 -1.3683 -0.5832
 5454SOL    HW227999   1.243   4.342  10.042 -2.0223 -1.4399  1.3585
 5455SOL     OW28000   1.096   3.867   4.275  0.4201 -0.0663  0.2242
 5455SOL    HW128001   1.136   3.950   4.302  3.4944 -1.9361  1.3442
 5455SOL    HW228002   1.174   3.813   4.281 -0.9471 -1.8708  1.7488
 5456SOL     OW28003   0.442   2.452   4.948 -0.2614 -0.5886  0.1943
 5456SOL    HW128004   0.483   2.382   4.998  2.0561  0.4623 -0.2282
 5456SOL    HW228005   0.519   2.506   4.933 -1.9734  1.7531 -0.2292
 5457SOL     OW28006   2.517   4.173  16.063 -0.1920  0.0348 -0.1740
 5457SOL    HW128007   2.540   4.177  16.156  2.2063  0.0002 -0.7560
 5457SOL    HW228008   2.453   4.101  16.065 -0.5512  0.3413 -0.9993
 5458SOL     OW28009   1.704   3.980  12.524  0.0305 -0.5613 -0.5236
 5458SOL    HW128010   1.661   3.919  12.465 -0.0182 -0.3788 -0.6747
 5458SOL    HW228011   1.787   3.935  12.542 -0.7661 -1.0472  2.0285
 5459SOL     OW28012   1.901   2.573  10.592 -0.1442 -0.2189 -0.2256
 5459SOL    HW128013   1.869   2.639  10.654  1.2548 -0.0377  0.3072
 5459SOL    HW228014   1.933   2.501  10.647 -0.7302  1.7264  2.7012
 5460SOL     OW28015   4.492   0.175  16.120 -0.0059  0.3118  0.4741
 5460SOL    HW128016   4.419   0.182  16.182  0.3531 -2.0140  1.1716
 5460SOL    HW228017   4.565   0.170  16.181  1.2999  0.7831 -1.0680
 5461SOL     OW28018   3.225   1.851   7.136  0.3698  0.0992 -0.6718
 5461SOL    HW128019   3.154   1.814   7.188  2.4328 -1.0883  1.3083
 5461SOL    HW228020   3.235   1.931   7.188 -0.4664  0.4338 -1.0334
 5462SOL     OW28021   2.751   4.594  13.812  0.4711  0.6946 -0.2095
 5462SOL    HW128022   2.758   4.506  13.773 -2.3055 -0.5290  2.0258
 5462SOL    HW228023   2.663   4.618  13.782 -0.1811 -1.7398 -0.2594
 5463SOL     OW28024   0.506   2.818   8.189  0.2124 -0.3183 -0.1395
 5463SOL    HW128025   0.540   2.775   8.110  0.9577 -3.9048  2.1191
 5463SOL    HW228026   0.451   2.885   8.149  2.0239  0.0136 -2.1192
 5464SOL     OW28027   1.392   2.680   6.225 -0.0315 -0.3409 -0.3926
 5464SOL    HW128028   1.419   2.752   6.283 -2.2671 -0.3683  0.6808
 5464SOL    HW228029   1.479   2.658   6.192  1.3596  1.3540  2.0933
 5465SOL     OW28030   1.657   4.428   3.934  0.0449 -0.2652 -0.1610
 5465SOL    HW128031   1.610   4.357   3.890 -1.6105  0.5049  0.3679
 5465SOL    HW228032   1.700   4.466   3.857 -0.8230  0.4151 -0.3070
 5466SOL     OW28033   0.591   3.893  15.704 -0.3844  0.1766  0.6236
 5466SOL    HW128034   0.654   3.948  15.657 -0.6151  0.9767  1.2352
 5466SOL    HW228035   0.528   3.959  15.734 -1.7959 -0.3800 -1.1439
 5467SOL     OW28036   2.001   0.422   2.153  0.2743 -0.2259  0.6871
 5467SOL    HW128037   1.969   0.445   2.240 -2.7657 -3.1897  0.3431
 5467SOL    HW228038   2.085   0.381   2.173 -0.2710 -1.4349  0.4879
 5468SOL     OW28039   2.415   4.274   9.265 -0.5575  0.1605  0.5138
 5468SOL    HW128040   2.490   4.290   9.207 -0.3682 -0.7358  0.5118
 5468SOL    HW228041   2.408   4.354   9.317 -0.0029  1.1240 -0.8874
 5469SOL     OW28042   4.486   2.723   3.801 -0.1631 -0.6097 -0.1601
 5469SOL    HW128043   4.409   2.778   3.813 -0.3810 -1.2458  1.3083
 5469SOL    HW228044   4.489   2.716   3.705  2.4729 -0.3707 -0.1054
 5470SOL     OW28045   0.322   0.066   1.474 -0.2437 -0.0669  0.2619
 5470SOL    HW128046   0.309   0.101   1.386 -2.8273 -1.6765 -0.0019
 5470SOL    HW228047   0.233   0.056   1.507 -0.2803  0.4534  0.3244
 5471SOL     OW28048   4.579   3.579   0.190 -0.0175 -0.4460 -0.7581
 5471SOL    HW128049   4.491   3.592   0.226  1.0797  0.0250  1.7133
 5471SOL    HW228050   4.571   3.499   0.137 -1.0384 -0.9648  0.1785
 5472SOL     OW28051   4.275   4.481   8.445 -0.4383  0.2507 -0.3579
 5472SOL    HW128052   4.205   4.531   8.402 -0.5871  0.6332  0.3453
 5472SOL    HW228053   4.355   4.516   8.406 -0.4930  1.0357  0.2529
 5473SOL     OW28054   3.377   1.244   5.917 -0.6875  0.4727  0.2027
 5473SOL    HW128055   3.385   1.289   6.001 -1.0605 -2.2501  1.6976
 5473SOL    HW228056   3.386   1.323   5.864 -3.1516 -0.4070 -1.5198
 5474SOL     OW28057   1.139   1.469  17.513 -0.4405 -0.5733  0.1438
 5474SOL    HW128058   1.193   1.548  17.520 -2.0635  0.4585  1.0328
 5474SOL    HW228059   1.206   1.409  17.544 -0.0909  0.1874  0.8555
 5475SOL     OW28060   0.839   1.743   9.244 -0.8460 -0.2410  0.4456
 5475SOL    HW128061   0.837   1.654   9.209 -0.7270 -1.0236  2.4445
 5475SOL    HW228062   0.880   1.721   9.327 -0.1310  1.1857  0.4778
 5476SOL     OW28063   2.724   0.340  16.517 -0.0240 -0.1890  0.5768
 5476SOL    HW128064   2.632   0.334  16.542  0.7572 -1.4036  3.2379
 5476SOL    HW228065   2.716   0.375  16.429  0.0901  2.1177  1.4872
 5477SOL     OW28066   4.440   0.632   3.536 -0.6613 -0.0889 -0.0657
 5477SOL    HW128067   4.501   0.590   3.475  2.2576  2.7379  0.9236
 5477SOL    HW228068   4.509   0.663   3.594  0.0742 -0.6269 -0.6572
 5478SOL     OW28069   1.545   2.674  10.129  0.0771 -0.3101  0.3741
 5478SOL    HW128070   1.622   2.644  10.081  0.0205  1.4852 -0.8340
 5478SOL    HW228071   1.566   2.651  10.220 -0.6565 -2.9171 -0.1246
 5479SOL     OW28072   4.473   4.016  10.564  0.0682  0.6791 -0.1864
 5479SOL    HW128073   4.527   4.068  10.622 -1.1182  2.5031 -0.7105
 5479SOL    HW228074   4.472   3.952  10.635  1.2227 -1.1910 -1.8478
 5480SOL     OW28075   0.098   0.424   4.078 -0.4194 -0.2185 -0.1113
 5480SOL    HW128076   0.080   0.364   4.150  2.6348 -1.3049 -0.2369
 5480SOL    HW228077   0.033   0.487   4.107  0.7032  0.9524 -0.1302
 5481SOL     OW28078   2.329   2.833   6.826  0.8008  0.6219  0.2370
 5481SOL    HW128079   2.313   2.769   6.756  2.6033  1.4527 -0.9262
 5481SOL    HW228080   2.412   2.868   6.793  0.1895  0.7629 -1.1362
 5482SOL     OW28081   4.323   0.032  16.684 -0.1341 -0.1725 -0.0136
 5482SOL    HW128082   4.361   0.091  16.619  0.1699  1.3494  1.5466
 5482SOL    HW228083   4.351   4.682  16.659 -1.8552 -0.8314  0.3813
 5483SOL     OW28084   0.354   1.025   2.052 -0.4359  0.3110 -0.0150
 5483SOL    HW128085   0.399   1.029   2.136  0.0725  0.3909 -0.2914
 5483SOL    HW228086   0.347   0.930   2.044 -0.6388  0.2966  0.3535
 5484SOL     OW28087   4.157   1.444   7.117  0.1001 -0.2362  0.4331
 5484SOL    HW128088   4.222   1.514   7.124  0.6248 -0.7055  0.2462
 5484SOL    HW228089   4.077   1.493   7.103  0.7511  0.8102  0.3600
 5485SOL     OW28090   3.439   1.897   4.346  0.2229  0.0370 -0.7419
 5485SOL    HW128091   3.391   1.855   4.418  0.4312 -0.6567 -1.0025
 5485SOL    HW228092   3.523   1.850   4.350  0.3243  0.1637 -1.4001
 5486SOL     OW28093   4.125   1.794   3.231  0.5638 -0.1678 -0.1286
 5486SOL    HW128094   4.091   1.729   3.170  0.6923 -0.9183  0.5892
 5486SOL    HW228095   4.112   1.882   3.197 -1.0823 -0.6477 -0.7420
 5487SOL     OW28096   2.481   1.496   7.923 -0.5324 -0.2524  0.2241
 5487SOL    HW128097   2.440   1.418   7.885  1.2622 -0.7125 -0.7620
 5487SOL    HW228098   2.494   1.552   7.846 -0.3399 -2.0344 -1.0408
 5488SOL     OW28099   1.557   4.157  14.971 -0.0406  0.1894  0.5369
 5488SOL    HW128100   1.563   4.237  15.022  2.1584  0.6064 -0.3751
 5488SOL    HW228101   1.514   4.190  14.892 -0.0423 -2.7772 -0.7093
 5489SOL     OW28102   1.820   1.971   8.712 -0.0515  0.0943  0.0013
 5489SOL    HW128103   1.783   1.883   8.707  1.4124 -0.4447 -1.4531
 5489SOL    HW228104   1.812   2.003   8.622  3.1867  2.8301  0.6624
 5490SOL     OW28105   0.831   4.154   8.320  0.0811 -0.3934 -0.2787
 5490SOL    HW128106   0.746   4.114   8.301  0.7798 -1.0215 -2.1022
 5490SOL    HW228107   0.797   4.235   8.358 -0.8035 -0.7680 -0.2666
 5491SOL     OW28108   2.832   3.726   4.873  0.6377 -0.1483 -0.1237
 5491SOL    HW128109   2.880   3.758   4.950  0.3872  0.5483 -0.2611
 5491SOL    HW228110   2.829   3.631   4.889  0.3137  0.1469  1.6004
 5492SOL     OW28111   0.593   1.966   0.244  0.3361  0.2645 -0.1697
 5492SOL    HW128112   0.586   1.931   0.156  3.8060  0.0846 -0.3658
 5492SOL    HW228113   0.621   1.889   0.293  0.2393 -0.6435 -1.5679
 5493SOL     OW28114   4.543   1.423   3.160  0.6738  0.2124 -0.1577
 5493SOL    HW128115   4.454   1.386   3.160  1.3451 -1.4017  0.5581
 5493SOL    HW228116   4.557   1.414   3.254 -0.0842 -1.0266 -0.1640
 5494SOL     OW28117   1.642   1.520  11.068 -0.1027  0.1760 -0.4044
 5494SOL    HW128118   1.639   1.558  11.156  0.4372 -0.6446 -0.0167
 5494SOL    HW228119   1.557   1.554  11.042 -0.0651  1.0338  0.6067
 5495SOL     OW28120   1.027   3.960   0.803  0.2550  0.3303  0.6502
 5495SOL    HW128121   0.966   3.992   0.869  1.5987  0.8504  1.6388
 5495SOL    HW228122   0.970   3.977   0.728 -0.1630  0.1210  0.9193
 5496SOL     OW28123   3.813   1.381   5.525  0.6490 -0.8122  0.4248
 5496SOL    HW128124   3.758   1.308   5.551 -1.3519  0.5940  0.1111
 5496SOL    HW228125   3.821   1.351   5.435  1.6591 -0.6074  0.4434
 5497SOL     OW28126   3.673   2.547   5.178 -0.2746 -0.3360 -0.3857
 5497SOL    HW128127   3.704   2.519   5.092  0.3389  0.0154 -0.2753
 5497SOL    HW228128   3.757   2.557   5.222 -1.4569  1.4512  1.4618
 5498SOL     OW28129   2.546   0.746   2.799 -0.3943 -0.0202 -0.3050
 5498SOL    HW128130   2.631   0.716   2.766 -0.9301 -4.0032  1.9375
 5498SOL    HW228131   2.529   0.802   2.723 -0.6751  0.4571  0.1133
 5499SOL     OW28132   4.462   4.310   3.589  0.0434  0.4082 -0.1952
 5499SOL    HW128133   4.555   4.314   3.614  0.6016 -2.9705 -1.8014
 5499SOL    HW228134   4.451   4.392   3.542  0.6758 -0.0854 -1.1948
 5500SOL     OW28135   2.189   0.681   2.073 -0.0441  0.0894  0.3437
 5500SOL    HW128136   2.214   0.597   2.035 -3.1414 -0.8816  0.5336
 5500SOL    HW228137   2.272   0.727   2.059  0.1540 -0.5593 -0.5766
 5501SOL     OW28138   2.941   2.239   6.141  0.3131  0.3540  0.2967
 5501SOL    HW128139   2.964   2.330   6.155  3.7589 -0.4078 -0.5090
 5501SOL    HW228140   3.020   2.192   6.114  0.9178  1.1895  0.6318
 5502SOL     OW28141   1.858   3.264   9.498 -0.0607 -0.1349 -0.5813
 5502SOL    HW128142   1.863   3.169   9.492 -3.2433 -0.2493 -1.5722
 5502SOL    HW228143   1.855   3.283   9.592  0.2419 -0.4531 -0.5079
 5503SOL     OW28144   0.861   2.265   2.445 -0.1216 -0.4738 -0.0578
 5503SOL    HW128145   0.862   2.271   2.540  2.0240 -1.1292 -0.0386
 5503SOL    HW228146   0.847   2.171   2.433 -3.3933  0.0311  0.0267
 5504SOL     OW28147   2.004   1.943   0.329 -0.2830  0.2721 -0.2720
 5504SOL    HW128148   1.978   1.930   0.420  0.0157  0.8695 -0.0965
 5504SOL    HW228149   1.965   1.862   0.298 -0.6626  0.6279 -0.7375
 5505SOL     OW28150   3.472   2.153   7.565  0.2350  0.5953 -0.0819
 5505SOL    HW128151   3.386   2.177   7.600  0.6783  1.3340  0.4942
 5505SOL    HW228152   3.495   2.213   7.493  0.8877  1.5756  0.9507
 5506SOL     OW28153   0.864   1.955  17.245  0.4380 -0.3448  0.0593
 5506SOL    HW128154   0.812   1.899  17.303 -1.6127  1.6484  0.1832
 5506SOL    HW228155   0.956   1.932  17.258  1.1842  3.2418  1.3245
 5507SOL     OW28156   0.410   3.468   5.036 -0.7752 -0.0423  0.2787
 5507SOL    HW128157   0.391   3.556   5.068  1.1594  0.7286 -0.6742
 5507SOL    HW228158   0.452   3.428   5.112 -1.5375 -0.8886  0.2628
 5508SOL     OW28159   1.270   4.461  11.694 -0.0875 -0.1524 -0.4188
 5508SOL    HW128160   1.299   4.547  11.662 -3.0384  0.6024 -1.0445
 5508SOL    HW228161   1.179   4.477  11.717 -0.0790 -0.0243 -0.4713
 5509SOL     OW28162   2.458   0.847   2.301 -0.7113  0.0808 -0.1247
 5509SOL    HW128163   2.435   0.790   2.374 -1.1673 -0.3173 -0.5815
 5509SOL    HW228164   2.382   0.905   2.298 -2.6635 -2.4800 -0.9465
 5510SOL     OW28165   4.351   2.321   3.483 -0.7880  0.1960  0.4044
 5510SOL    HW128166   4.318   2.404   3.450  0.3996  0.9705  1.1690
 5510SOL    HW228167   4.272   2.270   3.464  0.5726 -1.9729  0.6327
 5511SOL     OW28168   0.408   0.940  14.047 -0.0341  0.0585  0.3881
 5511SOL    HW128169   0.345   0.977  14.109 -1.2072  0.3516 -0.9785
 5511SOL    HW228170   0.353   0.905  13.976  1.4209 -1.1555 -0.1357
 5512SOL     OW28171   1.586   4.405  13.987 -0.2461  0.0007 -0.0438
 5512SOL    HW128172   1.574   4.320  14.030  1.0859 -0.1116  0.1055
 5512SOL    HW228173   1.521   4.463  14.026 -1.4206 -0.2913 -1.6030
 5513SOL     OW28174   1.806   0.389   2.659  0.0461 -0.3133 -0.1164
 5513SOL    HW128175   1.800   0.312   2.603  0.0405 -1.3389  1.2921
 5513SOL    HW228176   1.804   0.366   2.752 -2.3502 -0.3983 -0.1998
 5514SOL     OW28177   2.639   1.138   7.015 -0.3509  0.0981  0.2587
 5514SOL    HW128178   2.573   1.182   7.068 -0.4842  0.8851 -0.5447
 5514SOL    HW228179   2.584   1.108   6.942  0.6648 -1.8325  0.2870
 5515SOL     OW28180   1.254   3.211  11.906  0.4048  0.2134 -0.1705
 5515SOL    HW128181   1.244   3.166  11.990  0.5100  0.6342  0.0693
 5515SOL    HW228182   1.193   3.284  11.917  1.2275  0.9551 -0.5733
 5516SOL     OW28183   0.702   1.746   1.523  0.2081 -0.0174  0.3850
 5516SOL    HW128184   0.687   1.790   1.439 -1.3953 -1.0730  0.1145
 5516SOL    HW228185   0.792   1.718   1.510  0.3157  0.4957  0.0578
 5517SOL     OW28186   1.071   0.845   5.061 -0.2297 -0.3136  0.0163
 5517SOL    HW128187   1.019   0.843   4.981  0.9603  0.6722 -0.7687
 5517SOL    HW228188   1.109   0.759   5.079 -1.5403 -1.2359 -1.6059
 5518SOL     OW28189   2.557   4.082   6.749  0.5990  0.2355  0.7811
 5518SOL    HW128190   2.483   4.131   6.713  0.9442 -0.1036 -0.3745
 5518SOL    HW228191   2.619   4.106   6.680 -1.0165 -1.1206 -1.1389
 5519SOL     OW28192   3.731   2.704   1.795 -0.5540 -0.3487 -0.2216
 5519SOL    HW128193   3.810   2.696   1.741 -1.2659 -0.7289 -1.2095
 5519SOL    HW228194   3.724   2.798   1.809  1.3143  0.1058 -2.3629
 5520SOL     OW28195   0.942   3.927   7.907 -0.4694  0.0805 -0.1465
 5520SOL    HW128196   0.883   3.862   7.945  0.4661 -0.7893 -0.1978
 5520SOL    HW228197   0.915   4.009   7.949  1.5517  0.7778 -0.2022
 5521SOL     OW28198   0.138   1.955   4.386  0.6159  0.1569  0.5173
 5521SOL    HW128199   0.102   2.021   4.327 -2.4759 -1.5747  0.5009
 5521SOL    HW228200   0.232   1.967   4.370  0.7905 -0.0753  1.3918
 5522SOL     OW28201   0.934   3.398   6.061  0.2946 -0.2209  0.1117
 5522SOL    HW128202   0.935   3.338   6.136  0.6445 -0.0909  0.2071
 5522SOL    HW228203   0.933   3.332   5.991  1.9213  1.6480 -1.6775
 5523SOL     OW28204   0.712   3.704  15.856 -0.3546 -0.0642  0.4685
 5523SOL    HW128205   0.668   3.715  15.940  0.2283 -0.3312  0.8091
 5523SOL    HW228206   0.660   3.760  15.798 -0.2133 -2.4890 -1.9992
 5524SOL     OW28207   1.400   3.351   0.065 -0.5359 -0.8791  0.1022
 5524SOL    HW128208   1.414   3.411  17.743  0.3036  1.9213  2.5935
 5524SOL    HW228209   1.402   3.407   0.142  2.1709  0.7196 -1.1198
 5525SOL     OW28210   1.046   0.828  12.845  0.6895  0.2255  0.1312
 5525SOL    HW128211   1.097   0.748  12.853 -0.4205 -0.3477  1.5701
 5525SOL    HW228212   1.035   0.853  12.937 -0.8181 -1.7922  0.4971
 5526SOL     OW28213   3.434   1.153   4.095  0.1959  0.2931 -0.2131
 5526SOL    HW128214   3.371   1.169   4.025  0.8553 -0.0596 -0.8887
 5526SOL    HW228215   3.440   1.057   4.092 -2.5043  0.1324 -0.4719
 5527SOL     OW28216   1.997   4.206   7.781  1.0899 -0.2960  0.1238
 5527SOL    HW128217   2.090   4.190   7.799  1.7120  1.2877 -1.7034
 5527SOL    HW228218   1.976   4.257   7.859  1.3108  1.5254 -1.0248
 5528SOL     OW28219   1.142   0.117   8.740 -0.7163 -0.0949  0.3507
 5528SOL    HW128220   1.054   0.145   8.767 -1.0348  0.6477 -1.4768
 5528SOL    HW228221   1.200   0.179   8.784 -1.3421  0.9155 -0.2492
 5529SOL     OW28222   3.913   0.763   6.187  0.5851 -0.3135  0.3540
 5529SOL    HW128223   3.850   0.727   6.126 -1.1264  0.0592  1.8868
 5529SOL    HW228224   3.874   0.837   6.234  1.6916  1.6773 -1.8362
 5530SOL     OW28225   0.054   1.666   1.597 -0.1054  0.3324 -0.1838
 5530SOL    HW128226   0.049   1.574   1.622 -0.6843  0.3142 -0.3589
 5530SOL    HW228227   0.146   1.676   1.573 -0.0833 -0.2865 -0.3526
 5531SOL     OW28228   3.158   2.795  11.092 -0.7094 -0.1611  0.3252
 5531SOL    HW128229   3.216   2.790  11.016 -0.3950  0.5164  0.5163
 5531SOL    HW228230   3.165   2.701  11.112 -0.8270  0.0400  1.3146
 5532SOL     OW28231   4.600   1.406   2.093  0.2883  0.1114 -0.5747
 5532SOL    HW128232   4.614   1.499   2.078 -0.4627  0.2501 -0.3803
 5532SOL    HW228233   4.683   1.369   2.062  1.0723  0.9002  0.6049
 5533SOL     OW28234   0.601   2.433   4.516 -0.3394  0.2004  0.7939
 5533SOL    HW128235   0.659   2.418   4.442  0.4102  0.2421  1.3819
 5533SOL    HW228236   0.528   2.465   4.462 -0.6391 -1.4786  0.1638
 5534SOL     OW28237   3.151   3.723   1.998  0.0453  0.6191 -0.0268
 5534SOL    HW128238   3.134   3.641   1.951  2.1758  0.4936 -0.5925
 5534SOL    HW228239   3.139   3.692   2.088  1.7710  1.3605  0.4658
 5535SOL     OW28240   2.921   2.357   4.284 -0.2586  0.3040  0.7176
 5535SOL    HW128241   2.929   2.374   4.191 -1.3921  2.2543  0.9780
 5535SOL    HW228242   2.924   2.261   4.278 -0.5071  0.1014  3.7675
 5536SOL     OW28243   4.222   2.396   9.251  0.0363 -0.6299  0.2898
 5536SOL    HW128244   4.305   2.418   9.292  0.0413 -1.6571  0.8180
 5536SOL    HW228245   4.216   2.305   9.280  0.7951 -0.7399  0.1089
 5537SOL     OW28246   3.289   3.009   4.020 -0.4442  0.0653 -0.3369
 5537SOL    HW128247   3.196   3.015   4.044 -0.3877  0.5198 -0.2325
 5537SOL    HW228248   3.306   3.103   4.021 -3.0657  0.5415  1.4259
 5538SOL     OW28249   2.390   1.263  12.707  0.0162  0.0619  0.3110
 5538SOL    HW128250   2.342   1.197  12.656  1.9220 -1.6862  0.8012
 5538SOL    HW228251   2.438   1.202  12.762 -0.9212  0.2834  1.3709
 5539SOL     OW28252   0.931   0.911  16.207 -0.4110 -0.2620  0.0988
 5539SOL    HW128253   0.869   0.841  16.186 -1.1623  1.0122 -1.9837
 5539SOL    HW228254   0.916   0.978  16.140  1.1881  0.4731  0.4988
 5540SOL     OW28255   0.034   4.121  17.037  0.3494  0.1298  0.1793
 5540SOL    HW128256   0.043   4.171  17.119  2.8116 -2.2160  1.3744
 5540SOL    HW228257   0.081   4.174  16.973 -0.0312 -0.6135 -0.7127
 5541SOL     OW28258   0.709   3.678   3.910  0.4665  0.2832  0.0169
 5541SOL    HW128259   0.773   3.681   3.981  0.6887 -1.9289 -0.0689
 5541SOL    HW228260   0.740   3.605   3.856  3.4056  1.7107 -0.2154
 5542SOL     OW28261   2.244   2.150  16.557 -0.0206  0.3404  0.3479
 5542SOL    HW128262   2.198   2.069  16.535  0.3907  0.4756 -1.0188
 5542SOL    HW228263   2.334   2.120  16.544 -0.2546  0.4902 -1.5754
 5543SOL     OW28264   1.962   0.548   4.150  0.6311  0.0462  0.7541
 5543SOL    HW128265   1.906   0.507   4.084 -0.8964 -1.8708  3.2748
 5543SOL    HW228266   1.981   0.629   4.102  1.1167 -0.6195 -0.1970
 5544SOL     OW28267   1.531   0.462  10.748 -0.1234 -0.1673 -0.2482
 5544SOL    HW128268   1.461   0.462  10.683  0.7098  0.5818 -1.1357
 5544SOL    HW228269   1.592   0.530  10.719 -2.3304  2.8152  2.1545
 5545SOL     OW28270   3.414   4.445  10.105 -0.0902  0.1450  0.3134
 5545SOL    HW128271   3.390   4.379  10.039  0.8637 -0.3289  0.4476
 5545SOL    HW228272   3.418   4.533  10.067 -1.0883 -0.0170 -0.1692
 5546SOL     OW28273   4.276   4.387  11.311 -1.0397  0.1521  0.3013
 5546SOL    HW128274   4.240   4.299  11.319  1.7066 -1.0362 -0.2105
 5546SOL    HW228275   4.291   4.412  11.403 -2.1622  0.9305  0.2642
 5547SOL     OW28276   0.853   1.051   4.376  0.0706 -0.1194  0.3272
 5547SOL    HW128277   0.921   1.037   4.310  0.9754  2.4474  0.7233
 5547SOL    HW228278   0.889   1.120   4.432 -0.0123  0.8019 -0.7531
 5548SOL     OW28279   3.937   3.946   6.809  0.1342 -0.0865 -0.5022
 5548SOL    HW128280   3.870   3.878   6.799  0.5853 -0.9027  1.9515
 5548SOL    HW228281   4.002   3.920   6.874 -1.7402  0.6835  1.6819
 5549SOL     OW28282   4.401   0.739  13.312  0.1989  0.3990 -0.2517
 5549SOL    HW128283   4.382   0.774  13.225  2.3965 -0.0027 -0.8958
 5549SOL    HW228284   4.321   0.763  13.359 -0.1244 -0.2999 -0.4445
 5550SOL     OW28285   1.932   1.835   6.408  0.2400 -0.1698  0.5838
 5550SOL    HW128286   1.839   1.853   6.397  0.4676  1.2104  0.9398
 5550SOL    HW228287   1.953   1.897   6.478  1.5018 -1.8125  1.6540
 5551SOL     OW28288   4.426   1.955   5.519  0.2097 -0.9687 -0.2080
 5551SOL    HW128289   4.515   1.935   5.491  0.2371 -0.5968 -0.3828
 5551SOL    HW228290   4.390   1.999   5.442 -1.2122 -1.1139  0.3578
 5552SOL     OW28291   2.927   4.568   6.106 -0.0774  0.1814 -0.3324
 5552SOL    HW128292   2.881   4.491   6.140  0.5290  1.0146  2.3832
 5552SOL    HW228293   2.938   4.546   6.013  0.5240 -1.1482  0.0455
 5553SOL     OW28294   2.246   1.419   6.948 -0.1769  1.5453 -0.4051
 5553SOL    HW128295   2.223   1.506   6.916 -2.0574  0.4475 -2.0123
 5553SOL    HW228296   2.299   1.384   6.877 -1.5275  0.4363 -0.8584
 5554SOL     OW28297   3.061   1.217   2.112 -0.5019 -0.1118  0.2788
 5554SOL    HW128298   3.012   1.187   2.189  1.0102 -1.1540  0.8273
 5554SOL    HW228299   3.132   1.154   2.097  0.0033  0.8689 -1.4359
 5555SOL     OW28300   1.474   3.945   8.201 -0.0379 -0.1004  0.0154
 5555SOL    HW128301   1.563   3.914   8.222 -0.6483 -2.1072 -0.3225
 5555SOL    HW228302   1.419   3.886   8.253  1.1190 -0.9156  0.3117
 5556SOL     OW28303   4.138   1.145   9.151 -0.7346 -0.3629 -0.0853
 5556SOL    HW128304   4.203   1.209   9.121  0.2899 -2.3400 -2.0981
 5556SOL    HW228305   4.068   1.165   9.089  0.2783 -0.0115 -1.1204
 5557SOL     OW28306   1.416   0.429   5.049 -0.5595  0.3072 -0.5761
 5557SOL    HW128307   1.490   0.444   4.990 -0.4581 -2.7763 -1.2505
 5557SOL    HW228308   1.446   0.357   5.104  0.5161  0.1072 -1.4113
 5558SOL     OW28309   1.480   2.823   2.220  0.1919 -0.0094 -0.0028
 5558SOL    HW128310   1.401   2.857   2.180  0.8351 -0.3660 -1.5746
 5558SOL    HW228311   1.548   2.852   2.159 -0.0849  0.6243 -0.0057
 5559SOL     OW28312   0.139   3.742  14.754 -0.4223 -0.1167  0.4517
 5559SOL    HW128313   0.054   3.787  14.758  0.0448  0.9227 -1.1810
 5559SOL    HW228314   0.193   3.819  14.731  1.9598 -2.1587 -0.8024
 5560SOL     OW28315   3.302   0.265   4.269 -0.3801 -0.2708  1.2197
 5560SOL    HW128316   3.335   0.190   4.319 -0.4575 -0.4255  1.0362
 5560SOL    HW228317   3.302   0.330   4.340 -2.0138  0.5175  0.5010
 5561SOL     OW28318   2.578   4.582  10.506 -0.0654  0.4940  0.0033
 5561SOL    HW128319   2.526   4.540  10.574 -0.0915 -0.6758 -0.7379
 5561SOL    HW228320   2.571   4.521  10.433 -1.0968  0.1582  0.3770
 5562SOL     OW28321   4.208   3.909  16.802 -0.1536  0.4278  0.2595
 5562SOL    HW128322   4.160   3.867  16.873  2.3449 -1.7542  0.6358
 5562SOL    HW228323   4.206   3.836  16.740 -2.9789  0.9138 -0.2291
 5563SOL     OW28324   2.519   3.313   4.177 -0.4146  0.1176  0.0805
 5563SOL    HW128325   2.540   3.371   4.250  1.1359 -1.1516  0.6549
 5563SOL    HW228326   2.549   3.228   4.209 -3.8653  0.0723  3.1378
 5564SOL     OW28327   4.281   1.193   2.487 -0.0777 -0.0875  0.0592
 5564SOL    HW128328   4.296   1.238   2.570 -1.2658  0.6909 -0.1469
 5564SOL    HW228329   4.349   1.127   2.499  0.0356  0.3846  1.9465
 5565SOL     OW28330   4.524   3.771  13.619  0.2292 -0.0341 -0.5736
 5565SOL    HW128331   4.440   3.751  13.660 -0.7594  0.6239 -2.2601
 5565SOL    HW228332   4.580   3.735  13.688 -0.2552  1.7156  0.7301
 5566SOL     OW28333   0.331   2.651   3.124 -0.2514 -0.2897  0.0260
 5566SOL    HW128334   0.236   2.635   3.120 -0.3762  0.9401 -2.0900
 5566SOL    HW228335   0.354   2.559   3.139 -3.3936 -1.2349 -0.7500
 5567SOL     OW28336   1.895   1.226  14.446 -0.8626  0.0083 -0.3999
 5567SOL    HW128337   1.824   1.205  14.507 -1.4315  0.9434 -0.7399
 5567SOL    HW228338   1.868   1.313  14.417 -0.0533 -0.7414 -3.3334
 5568SOL     OW28339   0.238   4.255   5.257 -0.1557  0.5207 -0.4818
 5568SOL    HW128340   0.212   4.186   5.318  0.5246 -0.2739 -1.0940
 5568SOL    HW228341   0.197   4.221   5.178 -2.8098 -0.1240  1.1846
 5569SOL     OW28342   1.723   2.766  10.719  0.0239 -0.0354 -0.0026
 5569SOL    HW128343   1.671   2.687  10.735 -1.4552  0.4584 -2.3316
 5569SOL    HW228344   1.671   2.816  10.657  0.1298 -0.2462 -0.2614
 5570SOL     OW28345   1.838   2.460   3.028 -0.6000 -0.2282  0.6225
 5570SOL    HW128346   1.788   2.470   2.947  2.3873 -0.7468 -1.2694
 5570SOL    HW228347   1.772   2.421   3.085 -0.9625  1.1035  1.1146
 5571SOL     OW28348   2.356   1.531   2.218  0.1179  0.6012  0.3938
 5571SOL    HW128349   2.430   1.533   2.158 -0.8807  0.3998 -0.8481
 5571SOL    HW228350   2.376   1.601   2.280 -2.1755 -0.0074  1.8233
 5572SOL     OW28351   1.801   3.264   7.109  0.3152 -0.0068 -0.9897
 5572SOL    HW128352   1.760   3.252   7.024  2.7744  2.3127 -2.5112
 5572SOL    HW228353   1.841   3.351   7.099  2.4808 -0.7470  1.1357
 5573SOL     OW28354   2.365   4.719   3.128  0.0580  0.4133  0.4209
 5573SOL    HW128355   2.384   4.646   3.069 -1.6721  0.9650 -0.8262
 5573SOL    HW228356   2.418   0.050   3.089  2.7844 -1.6462  0.4642
 5574SOL     OW28357   0.338   0.505   3.443 -0.2814  0.2669 -0.1891
 5574SOL    HW128358   0.329   0.539   3.353 -2.6366  1.5503  0.5358
 5574SOL    HW228359   0.395   0.575   3.474 -0.6293  1.0782 -1.3559
 5575SOL     OW28360   1.500   0.090   5.014  0.6434  0.7869  0.5081
 5575SOL    HW128361   1.595   0.093   4.999  0.3182 -0.4087 -1.8353
 5575SOL    HW228362   1.496   0.155   5.085  1.9410  2.0072 -0.5187
 5576SOL     OW28363   4.547   1.625  16.968 -0.1284 -0.3142 -0.6898
 5576SOL    HW128364   4.630   1.588  16.938 -1.2924 -2.9622 -0.5617
 5576SOL    HW228365   4.493   1.622  16.889  0.2086 -0.1894 -0.9270
 5577SOL     OW28366   0.571   3.762  12.095  0.1707  0.1859 -0.0519
 5577SOL    HW128367   0.534   3.698  12.155 -1.6438 -0.4748 -1.8671
 5577SOL    HW228368   0.666   3.748  12.104 -0.4030 -3.2234  0.7578
 5578SOL     OW28369   4.591   1.107   2.137  0.2190  0.0515  0.1574
 5578SOL    HW128370   4.506   1.063   2.136 -0.3388  1.1701 -0.4918
 5578SOL    HW228371   4.576   1.193   2.099  0.2642  0.0522  0.1417
 5579SOL     OW28372   3.104   0.823   4.500 -0.6699 -0.2451 -0.0896
 5579SOL    HW128373   3.128   0.867   4.581 -1.9692 -0.7950  0.5983
 5579SOL    HW228374   3.190   0.794   4.469 -0.8049 -0.3510 -0.3589
 5580SOL     OW28375   2.914   4.543   3.617  0.0059 -0.0343  0.2033
 5580SOL    HW128376   3.007   4.527   3.601 -0.2722 -0.7566 -0.6896
 5580SOL    HW228377   2.911   4.487   3.694 -0.9972 -0.0584  0.1431
 5581SOL     OW28378   0.524   2.343  17.390  0.0222 -0.1330 -0.1674
 5581SOL    HW128379   0.455   2.276  17.386  1.2476 -1.4839  0.9802
 5581SOL    HW228380   0.579   2.303  17.458  0.9641  0.8678 -0.3482
 5582SOL     OW28381   3.710   3.837   0.566  0.5150  0.0808  0.1081
 5582SOL    HW128382   3.632   3.874   0.606  0.7517  0.5374  0.1422
 5582SOL    HW228383   3.725   3.886   0.485  2.8385 -2.4345 -0.9834
 5583SOL     OW28384   0.571   0.702   3.856 -0.1942 -0.3822 -0.0030
 5583SOL    HW128385   0.535   0.630   3.803 -1.0166  0.0423 -0.0239
 5583SOL    HW228386   0.636   0.650   3.902  1.5712  0.5877 -1.3811
 5584SOL     OW28387   4.555   4.457   6.745  0.4676  0.3302 -0.3248
 5584SOL    HW128388   4.541   4.485   6.836  0.9802  2.7873 -1.0124
 5584SOL    HW228389   4.482   4.395   6.744  2.6085 -2.2149 -1.3164
 5585SOL     OW28390   0.166   2.038   0.486 -0.2856 -0.0641  0.4530
 5585SOL    HW128391   0.210   2.073   0.408  0.3430  0.1070  0.8788
 5585SOL    HW228392   0.233   2.064   0.549  0.0005 -1.5797  0.7717
 5586SOL     OW28393   3.333   4.307   8.758 -0.2624  0.2340 -0.1447
 5586SOL    HW128394   3.267   4.238   8.769  1.0855 -0.9360  0.7201
 5586SOL    HW228395   3.362   4.286   8.670  0.0693  1.7251 -0.3891
 5587SOL     OW28396   2.977   2.284   6.809 -0.1087  0.0748 -0.2373
 5587SOL    HW128397   2.998   2.194   6.831 -0.6156  0.2967  1.1846
 5587SOL    HW228398   3.056   2.311   6.762 -0.8269  2.7710  0.1167
 5588SOL     OW28399   1.503   4.328   3.713 -0.3042  0.0764  0.0513
 5588SOL    HW128400   1.432   4.371   3.666  0.4936  2.6225  1.1631
 5588SOL    HW228401   1.461   4.306   3.796 -0.9771  1.1351 -0.0048
 5589SOL     OW28402   3.459   2.548  16.677 -0.6808  0.3853  0.6134
 5589SOL    HW128403   3.479   2.640  16.660  0.3572  0.0523  0.0211
 5589SOL    HW228404   3.424   2.559  16.765 -2.0126  0.3192  0.0951
 5590SOL     OW28405   2.330   3.249  12.456  0.4759  0.0072 -0.6652
 5590SOL    HW128406   2.237   3.234  12.469  0.8607 -1.3082  0.6081
 5590SOL    HW228407   2.331   3.194  12.378  1.5470 -0.0481 -0.6244
 5591SOL     OW28408   0.959   1.822   7.098 -0.2726 -0.2553 -0.3506
 5591SOL    HW128409   1.054   1.816   7.084 -0.1518  0.8284  0.0085
 5591SOL    HW228410   0.943   1.733   7.129 -0.7886  0.2266  0.7468
 5592SOL     OW28411   3.365   4.053   7.098 -0.4142  0.3199 -0.5222
 5592SOL    HW128412   3.282   4.030   7.139  1.2871 -1.9811  1.6386
 5592SOL    HW228413   3.424   4.000   7.152  0.9105  2.4851  0.1561
 5593SOL     OW28414   0.323   3.815   6.141  0.3893  0.6156 -0.1458
 5593SOL    HW128415   0.308   3.843   6.231 -1.6981 -0.3076 -0.2140
 5593SOL    HW228416   0.273   3.734   6.144 -1.1963  1.6908  2.6155
 5594SOL     OW28417   4.134   1.982   1.014 -0.0744  0.2435 -0.9989
 5594SOL    HW128418   4.195   2.042   1.056  1.1907 -0.6398 -1.5862
 5594SOL    HW228419   4.201   1.919   0.987 -0.7211 -1.7350  1.9930
 5595SOL     OW28420   4.331   2.396   4.470 -0.2179 -0.2017  0.0465
 5595SOL    HW128421   4.242   2.361   4.462 -0.8287  0.8600  2.1476
 5595SOL    HW228422   4.325   2.483   4.431 -0.5864 -0.7477 -1.1184
 5596SOL     OW28423   2.268   4.723   3.564 -0.3109  0.0245  0.2205
 5596SOL    HW128424   2.355   4.726   3.525  1.4138  1.5435  4.2060
 5596SOL    HW228425   2.212   0.006   3.489  1.3886 -0.6620 -1.2390
 5597SOL     OW28426   2.339   1.714  14.970 -0.3204  0.2030  0.6564
 5597SOL    HW128427   2.371   1.686  15.056  0.0070  0.1908  0.5317
 5597SOL    HW228428   2.377   1.802  14.968 -1.0597  0.4593 -2.1768
 5598SOL     OW28429   3.240   0.239   6.014 -0.1971 -0.2187  0.2196
 5598SOL    HW128430   3.168   0.299   5.994  0.1345  0.3444  0.7325
 5598SOL    HW228431   3.306   0.299   6.048 -1.3489 -0.4483  2.8309
 5599SOL     OW28432   0.943   2.416  14.334 -0.1367 -0.5215 -0.1710
 5599SOL    HW128433   0.918   2.410  14.426  1.9372 -0.8927  0.3639
 5599SOL    HW228434   1.025   2.465  14.341 -0.3452  0.0538 -1.6132
 5600SOL     OW28435   4.286   2.512   6.422  0.0276 -0.0688  0.2279
 5600SOL    HW128436   4.341   2.460   6.481  1.6117  1.3984  0.0254
 5600SOL    HW228437   4.344   2.579   6.385  1.4496 -1.2397  0.3337
 5601SOL     OW28438   0.801   0.395   5.001  0.8493  0.5731 -0.1279
 5601SOL    HW128439   0.825   0.304   4.984  0.2176 -0.1400  2.8588
 5601SOL    HW228440   0.734   0.407   4.934  2.0753 -0.6473 -1.5795
 5602SOL     OW28441   3.574   4.639   9.976  0.0826  0.0072 -0.9269
 5602SOL    HW128442   3.562   4.731   9.951 -2.4840  0.2394  1.1453
 5602SOL    HW228443   3.558   4.588   9.896 -0.4682  3.1143 -2.8362
 5603SOL     OW28444   3.620   2.186   7.007 -0.4932 -0.6474 -0.1467
 5603SOL    HW128445   3.682   2.119   6.979  2.2116  1.2231  1.2828
 5603SOL    HW228446   3.578   2.215   6.926 -4.4952 -4.2420  0.6474
 5604SOL     OW28447   4.482   0.678   1.077 -0.3317 -0.4108  0.1909
 5604SOL    HW128448   4.551   0.616   1.098 -0.3014 -0.1504  0.8464
 5604SOL    HW228449   4.425   0.669   1.154  1.0026  0.5778  1.2890
 5605SOL     OW28450   1.997   3.979   8.581 -0.0675 -0.7337 -0.5747
 5605SOL    HW128451   1.903   3.993   8.576  0.1474 -0.0458 -3.0734
 5605SOL    HW228452   2.005   3.936   8.666 -0.0734  0.7380  0.1730
 5606SOL     OW28453   4.640   3.578  13.793  0.0662 -0.1223  0.7500
 5606SOL    HW128454   4.608   3.514  13.729  0.8131  0.5246 -0.2645
 5606SOL    HW228455   4.610   3.545  13.877 -2.1785 -0.5482 -0.2252
 5607SOL     OW28456   2.273   4.401   0.345 -0.0257  0.4608  0.5070
 5607SOL    HW128457   2.186   4.362   0.358  0.3115 -0.1942  0.7746
 5607SOL    HW228458   2.326   4.339   0.394  1.4448  0.9231 -0.5001
 5608SOL     OW28459   2.504   0.684   0.308  0.1551  0.4721  0.3104
 5608SOL    HW128460   2.598   0.693   0.322  0.3255 -2.0050  0.5968
 5608SOL    HW228461   2.502   0.664   0.214 -0.1630  1.3254  0.1245
 5609SOL     OW28462   2.270   2.037  12.801  0.5649  0.5238  0.3058
 5609SOL    HW128463   2.176   2.045  12.818  0.5092 -0.3702  0.4064
 5609SOL    HW228464   2.280   1.943  12.789 -0.8712  0.5316 -1.1562
 5610SOL     OW28465   4.674   2.427   4.753  0.3669  0.0680 -0.7319
 5610SOL    HW128466   0.007   2.476   4.795 -1.8891  3.1442 -0.4949
 5610SOL    HW228467   4.660   2.469   4.669 -0.3888  0.4482 -0.4125
 5611SOL     OW28468   0.009   2.627   3.804 -0.2118 -0.0654 -0.5968
 5611SOL    HW128469   0.070   2.701   3.814  0.5411 -0.7681 -0.0308
 5611SOL    HW228470   4.660   2.663   3.820 -0.9268 -1.8083 -0.5946
 5612SOL     OW28471   2.485   1.926   5.859  0.7410 -0.2174 -0.3981
 5612SOL    HW128472   2.401   1.971   5.868 -0.8977 -3.0581 -1.3723
 5612SOL    HW228473   2.483   1.872   5.938 -0.7997 -1.5608 -1.3534
 5613SOL     OW28474   3.254   4.284   4.867  0.2830 -0.2736  0.0503
 5613SOL    HW128475   3.203   4.232   4.930  1.5162 -0.9284  0.5050
 5613SOL    HW228476   3.330   4.302   4.922 -1.2335  2.4214  1.2876
 5614SOL     OW28477   1.472   2.485   8.806 -0.0619 -0.4567 -0.2204
 5614SOL    HW128478   1.422   2.522   8.879  1.2717  0.9095  0.0165
 5614SOL    HW228479   1.410   2.489   8.733  1.7775  3.1107 -1.6170
 5615SOL     OW28480   3.105   2.665  10.847  0.0742 -0.1392  0.4905
 5615SOL    HW128481   3.147   2.589  10.888  0.0726  0.5814  1.8194
 5615SOL    HW228482   3.171   2.697  10.786 -1.5934 -0.3214 -1.4067
 5616SOL     OW28483   3.556   4.422   8.974  0.0427 -0.0855 -0.8693
 5616SOL    HW128484   3.520   4.392   8.890 -1.1404 -0.0714 -0.3723
 5616SOL    HW228485   3.607   4.493   8.935 -1.2938  1.4304  0.1384
 5617SOL     OW28486   0.094   1.792   0.477 -0.1427 -0.1428 -0.4256
 5617SOL    HW128487   0.001   1.814   0.471 -0.5427 -1.4552  0.9638
 5617SOL    HW228488   0.139   1.877   0.483  1.3703 -0.9587 -0.0599
 5618SOL     OW28489   2.698   1.462  12.120  0.2801 -0.5816 -0.0873
 5618SOL    HW128490   2.696   1.554  12.093 -1.1562 -0.8920 -1.0610
 5618SOL    HW228491   2.650   1.415  12.053 -2.6162  2.6174 -0.2736
 5619SOL     OW28492   4.266   2.807   5.379  0.1168  0.2148  0.2492
 5619SOL    HW128493   4.210   2.813   5.302  2.3774  0.1627 -1.4216
 5619SOL    HW228494   4.346   2.768   5.343 -0.4508 -1.5854  0.9811
 5620SOL     OW28495   2.251   0.205   9.571  0.4019  0.2899 -0.5564
 5620SOL    HW128496   2.289   0.291   9.588  1.4692 -0.4991  1.0031
 5620SOL    HW228497   2.181   0.202   9.636  0.5646 -0.5353 -0.4270
 5621SOL     OW28498   1.629   1.968   5.674 -0.1819  0.3027 -0.5147
 5621SOL    HW128499   1.658   1.961   5.765 -0.6101  0.7753 -0.3420
 5621SOL    HW228500   1.561   1.901   5.673  0.8571 -0.7440 -1.4961
 5622SOL     OW28501   1.869   1.257   7.897 -0.1407  0.3834 -0.1581
 5622SOL    HW128502   1.846   1.196   7.827 -2.3398 -0.9218  1.6861
 5622SOL    HW228503   1.953   1.230   7.934 -1.0089 -1.0804  0.7618
 5623SOL     OW28504   1.558   1.682  15.224  0.1635 -0.5149  0.9010
 5623SOL    HW128505   1.643   1.726  15.215 -0.4442  0.4086 -0.3892
 5623SOL    HW228506   1.504   1.756  15.198  0.8653  0.3178  1.8257
 5624SOL     OW28507   2.110   0.965   4.678  0.1085 -0.8338 -0.1528
 5624SOL    HW128508   2.099   0.993   4.588  0.0159  1.5875  0.6025
 5624SOL    HW228509   2.202   0.937   4.678 -0.6258 -3.2685  2.0431
 5625SOL     OW28510   1.306   0.141  12.154 -0.0939 -0.1857 -0.0236
 5625SOL    HW128511   1.250   0.133  12.076  1.7565 -0.8628 -1.2789
 5625SOL    HW228512   1.261   0.212  12.200 -0.4660 -2.1941  2.6911
 5626SOL     OW28513   1.994   0.624   3.500  0.2557 -0.0497  0.3541
 5626SOL    HW128514   2.028   0.546   3.455 -0.3782  0.6974 -1.4264
 5626SOL    HW228515   1.903   0.621   3.470 -0.4360  2.4424  2.1970
 5627SOL     OW28516   0.892   3.182   2.252 -0.1489 -0.3205  0.0410
 5627SOL    HW128517   0.909   3.190   2.158  1.2028 -1.7329  0.1574
 5627SOL    HW228518   0.911   3.273   2.273 -1.3932 -0.5030  1.9763
 5628SOL     OW28519   2.476   0.812  14.345 -0.4936 -0.5068 -0.0751
 5628SOL    HW128520   2.422   0.876  14.298 -0.7918 -3.0871 -3.2462
 5628SOL    HW228521   2.542   0.872  14.380  0.8477 -1.5074 -0.8869
 5629SOL     OW28522   4.329   1.190  10.932 -0.4703 -1.0127 -0.1294
 5629SOL    HW128523   4.396   1.222  10.872  0.1373  1.8199  2.0891
 5629SOL    HW228524   4.367   1.204  11.019  0.5131 -3.4834 -0.1631
 5630SOL     OW28525   0.880   0.437   0.825  0.0207 -0.6429  0.0632
 5630SOL    HW128526   0.821   0.428   0.900 -1.1163 -0.6891 -0.8520
 5630SOL    HW228527   0.964   0.453   0.868 -0.4611 -0.0300  0.7840
 5631SOL     OW28528   1.048   1.620  16.902 -0.0457 -0.0161 -0.2827
 5631SOL    HW128529   1.045   1.652  16.992  0.9856  1.8526 -0.9110
 5631SOL    HW228530   0.958   1.640  16.875 -0.6423  0.7448  2.2664
 5632SOL     OW28531   1.486   3.785   5.482  0.2615 -0.2746 -0.3333
 5632SOL    HW128532   1.530   3.700   5.469 -2.4675 -1.7829  0.3450
 5632SOL    HW228533   1.552   3.851   5.462  0.1832  0.5672  2.1982
 5633SOL     OW28534   1.449   1.128   5.748 -0.6926  0.3088  0.5333
 5633SOL    HW128535   1.542   1.142   5.731 -0.8059  0.4912  0.0636
 5633SOL    HW228536   1.417   1.073   5.676  2.8870 -3.2885  1.6914
 5634SOL     OW28537   3.792   4.652   3.690 -0.0914  0.0560  0.1419
 5634SOL    HW128538   3.702   4.619   3.697  0.3117 -0.9408  0.6481
 5634SOL    HW228539   3.766   4.724   3.633  0.5767  0.6359  0.5764
 5635SOL     OW28540   1.881   0.109   3.152 -0.4051 -0.3539  0.2134
 5635SOL    HW128541   1.889   0.021   3.115  1.4918 -0.3658  0.6527
 5635SOL    HW228542   1.800   0.108   3.202 -1.4242  0.1400 -1.4329
 5636SOL     OW28543   2.346   4.605   5.104 -0.3236  0.4925  0.3296
 5636SOL    HW128544   2.318   4.616   5.013  1.2868 -0.6897 -0.2959
 5636SOL    HW228545   2.284   4.534   5.121  1.6291 -1.6975 -1.7753
 5637SOL     OW28546   0.385   4.383   5.581 -0.8383 -0.0141  0.3248
 5637SOL    HW128547   0.439   4.309   5.555  0.5440  0.2041  2.6916
 5637SOL    HW228548   0.321   4.341   5.639 -0.7669 -1.3107 -0.5320
 5638SOL     OW28549   4.167   2.251  16.608  0.8137  0.1117  0.1625
 5638SOL    HW128550   4.091   2.309  16.615 -0.2028 -1.3868  1.7010
 5638SOL    HW228551   4.230   2.311  16.569  0.4684  1.2988  1.4179
 5639SOL     OW28552   3.872   3.717   4.213  0.3533 -0.4992 -0.4907
 5639SOL    HW128553   3.850   3.630   4.246 -1.0130  0.0144 -0.0467
 5639SOL    HW228554   3.800   3.739   4.153 -0.8297  2.9124  2.1974
 5640SOL     OW28555   1.646   1.312  13.611  0.2859 -0.3452 -0.2109
 5640SOL    HW128556   1.589   1.341  13.682  2.7628  2.5101  0.5961
 5640SOL    HW228557   1.671   1.398  13.577  1.4833 -0.5973  0.0499
 5641SOL     OW28558   1.213   2.875   0.446  0.6031 -0.2518  0.2383
 5641SOL    HW128559   1.141   2.884   0.383 -0.3989  1.4177  1.6323
 5641SOL    HW228560   1.230   2.967   0.462 -3.2833  0.5233 -0.0097
 5642SOL     OW28561   1.073   1.348   3.395 -0.0618  0.7706  0.4022
 5642SOL    HW128562   1.044   1.426   3.443  1.0395  0.7949  1.0120
 5642SOL    HW228563   1.062   1.284   3.466 -0.1911 -1.3465 -1.5155
 5643SOL     OW28564   0.527   4.494   7.213  0.2363  0.1991  0.0516
 5643SOL    HW128565   0.498   4.463   7.127 -1.8227  1.3996  0.3308
 5643SOL    HW228566   0.450   4.546   7.234 -0.4758 -0.8079 -0.0797
 5644SOL     OW28567   3.875   1.593  16.596 -0.5902  0.1539  0.4646
 5644SOL    HW128568   3.959   1.558  16.626  0.2865  2.3827  0.5843
 5644SOL    HW228569   3.839   1.510  16.565  1.4649 -0.5494 -0.0627
 5645SOL     OW28570   3.608   3.302  11.216 -0.3208 -0.6024  0.6187
 5645SOL    HW128571   3.553   3.377  11.238  0.7988  0.3148  0.3000
 5645SOL    HW228572   3.665   3.345  11.151  1.0553 -0.8877  1.6478
 5646SOL     OW28573   2.729   4.334   7.929  0.1367 -0.1221 -0.6611
 5646SOL    HW128574   2.801   4.371   7.878  0.6039  2.8892  2.1911
 5646SOL    HW228575   2.750   4.242   7.911 -1.1264 -0.4356 -0.5508
 5647SOL     OW28576   1.040   0.136   6.593  0.1661 -0.1548 -0.4748
 5647SOL    HW128577   1.050   0.109   6.684 -1.5385  1.9553  0.3558
 5647SOL    HW228578   1.128   0.162   6.566  0.1516  1.5615  1.1380
 5648SOL     OW28579   2.442   1.808   2.618 -0.6590 -0.0034  0.4227
 5648SOL    HW128580   2.451   1.714   2.631  3.5922 -0.0156 -2.3301
 5648SOL    HW228581   2.421   1.821   2.525 -1.5737 -0.9162  0.5124
 5649SOL     OW28582   2.438   2.221   8.891 -0.2175 -0.0135 -0.0423
 5649SOL    HW128583   2.421   2.210   8.984  0.3835  0.5803  0.1365
 5649SOL    HW228584   2.503   2.291   8.894  2.1813 -2.2479 -0.1236
 5650SOL     OW28585   4.664   2.475   3.582 -0.1173 -0.0021 -0.0650
 5650SOL    HW128586   4.649   2.565   3.552  0.4351  0.7764  1.9891
 5650SOL    HW228587   4.732   2.498   3.646 -1.3022  1.7128  0.5980
 5651SOL     OW28588   2.613   0.506   6.812  0.3641 -0.4216  0.7203
 5651SOL    HW128589   2.527   0.465   6.823  0.2762  0.1855  2.3581
 5651SOL    HW228590   2.669   0.437   6.847 -0.3158 -1.1960  0.2758
 5652SOL     OW28591   4.301   3.470   6.617 -0.5187 -0.0379 -0.4324
 5652SOL    HW128592   4.297   3.386   6.572  0.8995 -0.1315 -0.3587
 5652SOL    HW228593   4.296   3.448   6.710 -0.1674  2.3214  0.1487
 5653SOL     OW28594   0.537   0.921   4.501 -0.7991  0.0964 -0.0250
 5653SOL    HW128595   0.618   0.961   4.533 -2.5377  3.1410  0.5720
 5653SOL    HW228596   0.546   0.930   4.406 -1.0516 -3.7999 -0.3937
 5654SOL     OW28597   3.733   2.371  15.913 -0.0129 -0.0492 -0.2779
 5654SOL    HW128598   3.791   2.296  15.901  1.6098  1.3555 -1.4081
 5654SOL    HW228599   3.695   2.342  15.995  0.2972  0.1645 -0.0563
 5655SOL     OW28600   3.887   1.460   4.523  0.3524  0.7353 -0.1692
 5655SOL    HW128601   3.868   1.406   4.447  2.1449 -2.0592  1.3724
 5655SOL    HW228602   3.818   1.448   4.588  0.4512 -0.1109 -0.2223
 5656SOL     OW28603   0.688   3.604   7.076 -0.0635  0.3228  0.3258
 5656SOL    HW128604   0.644   3.619   7.161 -1.6894  1.3237 -0.6852
 5656SOL    HW228605   0.609   3.577   7.029 -0.9236 -0.4560  2.1926
 5657SOL     OW28606   1.303   2.255   7.740 -0.4005 -0.2428 -0.0043
 5657SOL    HW128607   1.280   2.346   7.722  0.8478 -0.3206 -1.9623
 5657SOL    HW228608   1.369   2.271   7.807 -0.5000  0.0500  0.0235
 5658SOL     OW28609   0.501   2.292   2.369 -0.3115 -0.3701  0.3148
 5658SOL    HW128610   0.525   2.292   2.462  0.7793 -0.4965  0.0282
 5658SOL    HW228611   0.436   2.362   2.369  0.2714  0.1690  0.7224
 5659SOL     OW28612   4.307   3.636   5.325  0.1273 -0.4014  0.3470
 5659SOL    HW128613   4.282   3.578   5.397  0.1404 -0.7628  0.0568
 5659SOL    HW228614   4.223   3.681   5.316 -0.4028 -0.8879  2.7129
 5660SOL     OW28615   2.480   3.902   0.432  0.3141 -0.4529 -0.1485
 5660SOL    HW128616   2.477   3.869   0.521 -0.0492 -0.2683 -0.0913
 5660SOL    HW228617   2.412   3.853   0.385 -2.1795  1.6519  1.2181
 5661SOL     OW28618   1.775   3.978   0.723 -0.3910  0.0226  0.1795
 5661SOL    HW128619   1.689   3.998   0.686 -1.5936 -0.3517  2.8319
 5661SOL    HW228620   1.800   3.920   0.651  1.2917  1.0567 -0.0935
 5662SOL     OW28621   1.236   0.376   0.811 -0.0567 -0.3227 -0.0099
 5662SOL    HW128622   1.222   0.289   0.848  2.0040 -0.1538  1.1768
 5662SOL    HW228623   1.328   0.363   0.789 -0.2600 -0.0961 -0.9776
 5663SOL     OW28624   2.715   3.956   0.320 -0.5149 -0.4081  0.8102
 5663SOL    HW128625   2.626   3.935   0.350 -1.0973 -0.0592 -0.6780
 5663SOL    HW228626   2.700   4.011   0.244  3.1671 -2.1571 -1.1468
 5664SOL     OW28627   3.580   3.984   5.945  0.0544 -0.5398 -0.1786
 5664SOL    HW128628   3.488   3.965   5.961 -0.3063  0.8621 -0.5293
 5664SOL    HW228629   3.603   4.047   6.013 -2.4557 -0.1807  0.3331
 5665SOL     OW28630   1.430   4.471   1.552  0.3257 -0.9356 -0.3142
 5665SOL    HW128631   1.349   4.460   1.504 -1.0013 -0.7964  1.8975
 5665SOL    HW228632   1.490   4.430   1.490  2.3037  0.9361  0.3386
 5666SOL     OW28633   2.767   2.130   3.478 -0.2110 -0.2936 -0.4290
 5666SOL    HW128634   2.746   2.038   3.457 -1.7274  0.5081 -2.4371
 5666SOL    HW228635   2.847   2.146   3.429  0.6589  1.0575  1.4680
 5667SOL     OW28636   3.587   4.111  11.841 -0.4219 -0.2416 -0.6028
 5667SOL    HW128637   3.505   4.064  11.822 -0.2691  0.8375 -3.9370
 5667SOL    HW228638   3.588   4.172  11.768 -1.5742  1.8061  1.1200
 5668SOL     OW28639   3.085   2.140   3.692  0.4632  0.4686 -0.4242
 5668SOL    HW128640   3.086   2.232   3.664  0.9835  0.3102 -0.9365
 5668SOL    HW228641   3.152   2.112   3.629  0.7804  0.4342 -0.0762
 5669SOL     OW28642   0.303   2.156   3.406  0.0142 -0.1264 -0.0996
 5669SOL    HW128643   0.218   2.198   3.420  0.5231  1.2098 -1.0574
 5669SOL    HW228644   0.277   2.074   3.364 -2.0499  0.5065 -0.0484
 5670SOL     OW28645   1.757   0.983   5.434  0.4738 -0.4162 -0.2982
 5670SOL    HW128646   1.808   1.064   5.439  0.3537 -0.3947  0.6130
 5670SOL    HW228647   1.716   1.003   5.350 -0.5570  1.0498  0.5405
 5671SOL     OW28648   3.789   0.861  12.395  0.0337  0.0821 -0.7746
 5671SOL    HW128649   3.867   0.900  12.355  1.1673 -2.4029 -0.9921
 5671SOL    HW228650   3.741   0.843  12.314  0.7977  0.6468 -1.3576
 5672SOL     OW28651   4.344   1.603  14.769  0.0739 -0.4368  0.5056
 5672SOL    HW128652   4.391   1.677  14.807 -1.6878  1.3374 -0.7687
 5672SOL    HW228653   4.377   1.526  14.815  0.5895 -0.4510  0.1012
 5673SOL     OW28654   1.005   3.771   8.796  0.0208 -0.2801 -0.2083
 5673SOL    HW128655   0.931   3.723   8.758 -1.2309  1.2424  0.2800
 5673SOL    HW228656   1.076   3.753   8.735 -0.2272 -2.1416  0.0560
 5674SOL     OW28657   1.287   3.343  17.063 -0.0695  0.1943 -0.0821
 5674SOL    HW128658   1.300   3.384  16.978 -1.4418  0.1928 -0.2875
 5674SOL    HW228659   1.196   3.313  17.070 -0.2753  1.0166  0.7372
 5675SOL     OW28660   1.131   0.611  14.793 -0.2530  0.6877  0.2079
 5675SOL    HW128661   1.084   0.661  14.860 -0.8654  1.8689 -1.1180
 5675SOL    HW228662   1.089   0.529  14.821 -2.4602  1.8704  0.3407
 5676SOL     OW28663   2.962   3.599   7.694  0.2046 -0.4337 -0.6633
 5676SOL    HW128664   3.053   3.620   7.672  0.0311 -0.8751 -1.8129
 5676SOL    HW228665   2.937   3.548   7.617 -0.0598 -2.9348  1.1009
 5677SOL     OW28666   4.665   2.921   7.310 -0.4424 -0.1912 -1.1633
 5677SOL    HW128667   4.657   2.938   7.404  0.1822  0.8556 -1.2988
 5677SOL    HW228668   4.574   2.913   7.282 -0.2611 -1.1630 -1.4755
 5678SOL     OW28669   1.405   1.219   7.410 -0.3383 -0.3234  0.0818
 5678SOL    HW128670   1.374   1.135   7.442 -0.0433 -0.5445 -0.2167
 5678SOL    HW228671   1.498   1.197   7.401  0.2555  0.5740  3.7165
 5679SOL     OW28672   1.916   4.403   3.225  0.1628 -0.2443  0.5655
 5679SOL    HW128673   1.867   4.445   3.296 -0.9639 -1.0667  0.2744
 5679SOL    HW228674   1.876   4.317   3.216  0.8351 -0.4138 -0.6918
 5680SOL     OW28675   2.214   1.883  16.433  0.3369 -0.4067 -0.2771
 5680SOL    HW128676   2.194   1.805  16.381  0.2515 -0.5701 -0.0048
 5680SOL    HW228677   2.306   1.894  16.408  0.6661  1.7100  1.9400
 5681SOL     OW28678   1.388   2.577   3.927 -0.6576 -0.2373  0.2167
 5681SOL    HW128679   1.356   2.651   3.978  0.6005  0.8715 -0.6102
 5681SOL    HW228680   1.458   2.552   3.987 -1.1348 -0.4664  0.6795
 5682SOL     OW28681   0.725   0.079   7.760  0.5271  0.1741 -0.1902
 5682SOL    HW128682   0.674   0.158   7.779  1.4208  0.6175  0.3281
 5682SOL    HW228683   0.657   0.020   7.727 -1.6862  2.3006  0.5241
 5683SOL     OW28684   1.576   1.291  14.096  0.3601 -0.0316  0.5382
 5683SOL    HW128685   1.513   1.237  14.143  0.3339 -0.5442 -0.0835
 5683SOL    HW228686   1.656   1.276  14.147  0.9723  1.4226 -0.0205
 5684SOL     OW28687   0.706   1.846   5.743 -0.6656 -0.1656 -0.5314
 5684SOL    HW128688   0.624   1.807   5.712 -0.2066  0.8563 -3.0437
 5684SOL    HW228689   0.685   1.934   5.777  1.8038  0.6353 -1.0568
 5685SOL     OW28690   4.589   0.366  16.347 -0.5441  0.5697  0.3128
 5685SOL    HW128691   4.553   0.440  16.298  1.9232  1.8782  0.4774
 5685SOL    HW228692   4.683   0.380  16.333 -0.7657  1.0969 -0.6734
 5686SOL     OW28693   4.429   0.555  16.492 -0.3167 -0.3783 -0.5293
 5686SOL    HW128694   4.416   0.576  16.585 -0.7783 -0.7397 -0.5158
 5686SOL    HW228695   4.406   0.463  16.483 -2.0689  0.0574 -0.4560
 5687SOL     OW28696   2.607   4.296   7.219  0.5896 -0.2657  0.4639
 5687SOL    HW128697   2.552   4.250   7.282  1.1999 -4.3085 -1.9398
 5687SOL    HW228698   2.550   4.371   7.201  0.7311  0.3186  2.4860
 5688SOL     OW28699   1.289   3.158   3.357 -0.2133  0.0638  0.0206
 5688SOL    HW128700   1.340   3.077   3.343  1.0793  0.5782  1.7914
 5688SOL    HW228701   1.203   3.120   3.372 -0.3882  0.6020  0.3671
 5689SOL     OW28702   4.234   1.875  12.174 -0.0651 -0.2129  0.0979
 5689SOL    HW128703   4.172   1.919  12.116  1.5758  1.9238 -0.0338
 5689SOL    HW228704   4.312   1.927  12.153 -0.2743  0.1304  0.1838
 5690SOL     OW28705   1.226   0.686   2.619 -0.5058 -0.6195  0.1202
 5690SOL    HW128706   1.253   0.630   2.546  0.1519  0.0626 -0.1672
 5690SOL    HW228707   1.146   0.726   2.585  0.0519 -2.6056 -3.5444
 5691SOL     OW28708   0.810   3.351  12.109  0.1479 -0.7234 -0.1100
 5691SOL    HW128709   0.875   3.283  12.126  0.8344 -0.2964 -1.0177
 5691SOL    HW228710   0.732   3.304  12.138 -0.4774  0.7985  0.6957
 5692SOL     OW28711   2.118   1.951  10.327  0.2996  0.0932 -0.0198
 5692SOL    HW128712   2.033   1.933  10.289 -0.3927 -0.6136  1.8471
 5692SOL    HW228713   2.155   1.871  10.289  0.4055 -0.0086  0.2959
 5693SOL     OW28714   3.606   1.133  12.965  0.2658  0.1696  0.0608
 5693SOL    HW128715   3.643   1.216  12.994  0.9944 -0.0346 -0.2761
 5693SOL    HW228716   3.683   1.076  12.953  1.6190  1.7346  1.3179
 5694SOL     OW28717   3.981   3.044   3.915 -0.0469 -0.2397  0.3942
 5694SOL    HW128718   3.912   2.990   3.952 -0.8070  1.1658  1.0370
 5694SOL    HW228719   4.059   3.008   3.957 -0.1970 -2.0465 -0.8502
 5695SOL     OW28720   0.123   1.261  17.738 -0.4023 -0.1149 -0.1503
 5695SOL    HW128721   0.117   1.289  17.646 -1.7251  1.1970  0.3350
 5695SOL    HW228722   0.212   1.276   0.019 -0.3721 -1.6838  0.5020
 5696SOL     OW28723   3.777   1.808  16.719 -0.1024 -0.3897 -0.1189
 5696SOL    HW128724   3.804   1.742  16.656  1.1788  0.2991 -0.3003
 5696SOL    HW228725   3.721   1.748  16.769 -0.6346  0.2876  0.1019
 5697SOL     OW28726   1.689   2.088   2.278 -0.6298 -0.2827  0.4089
 5697SOL    HW128727   1.770   2.112   2.322 -0.6910 -1.5236  1.2214
 5697SOL    HW228728   1.649   2.017   2.330 -2.3117  0.1969 -0.2139
 5698SOL     OW28729   0.527   0.647   6.602 -0.1080 -0.2735  0.9361
 5698SOL    HW128730   0.504   0.574   6.545  0.1909 -2.0777  3.1577
 5698SOL    HW228731   0.533   0.721   6.541 -1.0571 -0.6466  0.3839
 5699SOL     OW28732   1.743   4.032   0.403 -0.1110  0.0140 -0.0276
 5699SOL    HW128733   1.667   4.011   0.456  0.2061 -0.8516  0.0873
 5699SOL    HW228734   1.810   3.969   0.428 -1.9030 -0.9565  2.3283
 5700SOL     OW28735   4.657   2.727  11.128  0.4760 -0.0549  0.0009
 5700SOL    HW128736   4.652   2.816  11.095  0.5462 -0.0112  0.1115
 5700SOL    HW228737   4.612   2.747  11.210 -0.1283  2.1843 -0.8825
 5701SOL     OW28738   1.484   1.317  10.976  0.2930 -0.5222  0.0742
 5701SOL    HW128739   1.536   1.385  10.931 -0.1230 -0.7940 -0.8251
 5701SOL    HW228740   1.428   1.300  10.900 -0.5290 -0.5434  0.6988
 5702SOL     OW28741   4.630   4.301   3.065 -0.4868 -0.2092 -0.0354
 5702SOL    HW128742   4.581   4.383   3.068 -0.1562  0.0311 -1.0180
 5702SOL    HW228743   4.562   4.233   3.068  0.0360 -0.7351 -0.0405
 5703SOL     OW28744   3.195   2.661   0.456  0.0049  0.3571  0.2554
 5703SOL    HW128745   3.116   2.714   0.465 -0.5070 -0.3422 -0.1208
 5703SOL    HW228746   3.157   2.580   0.421 -1.0875  1.4950 -1.2157
 5704SOL     OW28747   1.287   2.730  13.965  0.0141  0.1436 -0.3415
 5704SOL    HW128748   1.351   2.760  14.029 -0.0972  0.1518 -0.2322
 5704SOL    HW228749   1.255   2.813  13.931 -2.5977 -1.1928 -1.1750
 5705SOL     OW28750   1.834   3.732   2.269  0.0634  1.0455 -0.1476
 5705SOL    HW128751   1.816   3.666   2.203 -2.1390  0.8456  0.6388
 5705SOL    HW228752   1.923   3.757   2.247 -0.1152  0.6760 -1.2769
 5706SOL     OW28753   3.070   2.106  12.818  0.3446  0.2952  0.0862
 5706SOL    HW128754   3.157   2.070  12.836  0.6509  1.4351  0.8461
 5706SOL    HW228755   3.014   2.083  12.892  2.7477  0.9294  2.0888
 5707SOL     OW28756   3.964   4.530   3.885 -0.6446  1.1302 -0.2125
 5707SOL    HW128757   3.983   4.606   3.939  0.0756 -0.4024  1.6859
 5707SOL    HW228758   3.917   4.567   3.810 -2.1511  0.7556  0.5445
 5708SOL     OW28759   3.073   2.958   7.328 -0.1167  0.5056 -0.6632
 5708SOL    HW128760   3.130   2.983   7.255 -0.3655 -1.1308 -1.4101
 5708SOL    HW228761   3.049   2.867   7.309 -1.9703  1.0221 -0.7941
 5709SOL     OW28762   3.693   4.028  11.171 -0.5756  0.3816  0.6420
 5709SOL    HW128763   3.751   3.960  11.207  0.3630  0.3640 -0.9240
 5709SOL    HW228764   3.659   4.065  11.253  0.1661  0.0325  1.1075
 5710SOL     OW28765   4.385   3.109   7.424 -0.0963 -0.0771  0.2456
 5710SOL    HW128766   4.380   3.017   7.398 -0.1270  0.7421 -2.5993
 5710SOL    HW228767   4.295   3.140   7.413  0.2257  0.1669 -1.6229
 5711SOL     OW28768   4.149   1.950   7.245  0.7807 -0.3465 -0.4870
 5711SOL    HW128769   4.223   1.899   7.279  3.2767  0.9685 -3.8467
 5711SOL    HW228770   4.076   1.922   7.300  0.7912  0.7993  0.1127
 5712SOL     OW28771   4.055   0.203   5.425 -0.2390  0.1030  0.6112
 5712SOL    HW128772   4.083   0.294   5.433 -2.2189  0.8083 -0.5887
 5712SOL    HW228773   4.025   0.208   5.334 -1.8693  0.8244  1.2043
 5713SOL     OW28774   2.447   3.020   6.042 -0.4724  0.1987 -0.0898
 5713SOL    HW128775   2.526   2.990   5.995  0.8540  2.5484  0.6419
 5713SOL    HW228776   2.478   3.085   6.105 -0.4225 -1.6569  1.7991
 5714SOL     OW28777   2.596   3.116   9.815  0.2825  0.5845  0.2399
 5714SOL    HW128778   2.538   3.153   9.882 -0.7535  0.2426 -0.4530
 5714SOL    HW228779   2.576   3.174   9.742 -0.8759 -0.3620 -0.2079
 5715SOL     OW28780   3.583   4.171   7.762 -0.1944 -0.4187  0.2004
 5715SOL    HW128781   3.644   4.129   7.702 -0.4472  1.4220 -1.3254
 5715SOL    HW228782   3.554   4.104   7.825 -0.3768  1.6555  2.3280
 5716SOL     OW28783   3.680   3.675   6.189  0.3519 -0.2303 -0.3985
 5716SOL    HW128784   3.704   3.765   6.166  0.8983 -0.9264 -2.5411
 5716SOL    HW228785   3.692   3.680   6.284  1.5417  0.3416 -0.5830
 5717SOL     OW28786   2.622   1.255   2.735 -0.0469  0.1422  0.3386
 5717SOL    HW128787   2.554   1.242   2.801 -1.6163 -1.0136 -1.4784
 5717SOL    HW228788   2.588   1.326   2.681 -0.6583 -1.2008 -1.0574
 5718SOL     OW28789   0.933   0.076   3.402  0.5274  0.2011  0.2418
 5718SOL    HW128790   0.874   0.143   3.437  2.0463  1.2582  0.7998
 5718SOL    HW228791   0.909   0.067   3.310 -1.1641  0.6337  0.6383
 5719SOL     OW28792   1.072   2.574   6.068 -0.0238  0.5208  0.1401
 5719SOL    HW128793   0.983   2.546   6.086 -0.1860  0.1506 -1.2064
 5719SOL    HW228794   1.131   2.499   6.072 -1.3461 -0.4795  0.3831
 5720SOL     OW28795   1.528   3.359   7.735 -0.2589 -0.8023  0.2267
 5720SOL    HW128796   1.459   3.405   7.687 -0.1497 -1.8465 -0.9341
 5720SOL    HW228797   1.541   3.423   7.806  0.6943 -1.0435  0.2703
 5721SOL     OW28798   1.303   4.019   6.489 -0.0640  0.4517 -0.2235
 5721SOL    HW128799   1.273   3.974   6.410  1.1801 -0.9669  0.1227
 5721SOL    HW228800   1.279   3.945   6.544 -0.1631  0.4991 -0.2037
 5722SOL     OW28801   3.711   0.414   5.018 -0.4014 -0.5016  0.0559
 5722SOL    HW128802   3.729   0.462   5.099  0.8040 -1.6788  0.4616
 5722SOL    HW228803   3.777   0.446   4.957 -0.4872  0.9938  0.7218
 5723SOL     OW28804   2.062   0.380   3.409 -0.1692  0.8901 -0.3156
 5723SOL    HW128805   2.071   0.324   3.486 -0.1544  1.8227  0.3655
 5723SOL    HW228806   2.105   0.327   3.342  1.6920  0.8282  0.9293
 5724SOL     OW28807   2.351   4.596  12.938 -0.5980 -0.3095  0.0788
 5724SOL    HW128808   2.407   4.672  12.948 -1.2272  0.1472  0.1526
 5724SOL    HW228809   2.345   4.598  12.843 -1.6569  0.3195  0.1554
 5725SOL     OW28810   1.824   1.934   9.756  0.5612 -0.0480 -0.9194
 5725SOL    HW128811   1.813   1.993   9.681 -1.8212 -1.2333 -1.5146
 5725SOL    HW228812   1.744   1.962   9.800  0.7734  1.0291 -1.2294
 5726SOL     OW28813   4.190   0.147   4.725  0.2089  0.2978  0.2532
 5726SOL    HW128814   4.243   0.180   4.652 -0.9673  2.7606  0.5191
 5726SOL    HW228815   4.110   0.136   4.674 -0.9082  1.8299  1.6848
 5727SOL     OW28816   1.649   3.591   5.454 -0.3191  0.5376 -0.1211
 5727SOL    HW128817   1.734   3.634   5.453  1.5868 -3.2032  1.5519
 5727SOL    HW228818   1.665   3.543   5.536 -4.0869  0.2165  0.4704
 5728SOL     OW28819   2.509   4.476   8.386 -0.0256 -0.4241 -0.1501
 5728SOL    HW128820   2.584   4.451   8.331 -1.3962 -0.2573 -2.1022
 5728SOL    HW228821   2.543   4.551   8.433  1.1778 -0.4722 -0.9323
 5729SOL     OW28822   4.445   3.762   3.550 -0.6548  0.6089  0.2585
 5729SOL    HW128823   4.486   3.768   3.636 -1.1553  2.0556  0.3970
 5729SOL    HW228824   4.359   3.802   3.563 -0.8685  0.3412 -0.3305
 5730SOL     OW28825   2.342   2.707  15.736  0.1667 -0.1781 -0.1042
 5730SOL    HW128826   2.382   2.793  15.722 -0.3683  0.1513  0.4062
 5730SOL    HW228827   2.376   2.672  15.653 -0.8449  1.3113 -1.1399
 5731SOL     OW28828   3.136   3.894   3.900  0.1381 -0.0398 -0.0096
 5731SOL    HW128829   3.205   3.855   3.847 -0.2669 -1.1577  0.2745
 5731SOL    HW228830   3.190   3.937   3.966  0.6234 -0.7435  0.0545
 5732SOL     OW28831   0.108   1.359   7.268  0.3528  0.1293  0.2231
 5732SOL    HW128832   0.068   1.286   7.315 -0.0557 -0.2260 -0.6714
 5732SOL    HW228833   0.188   1.366   7.320  0.0526  0.0786  0.6924
 5733SOL     OW28834   2.695   0.143   6.666 -0.0437 -0.3487  0.3148
 5733SOL    HW128835   2.609   0.172   6.636  0.6268  0.8745 -0.4287
 5733SOL    HW228836   2.696   0.175   6.756 -0.4885  0.5439  0.0043
 5734SOL     OW28837   1.815   3.454  14.331  0.1796 -0.1271  0.8505
 5734SOL    HW128838   1.800   3.543  14.299  1.0926  0.4764  2.0881
 5734SOL    HW228839   1.869   3.418  14.260  1.5909 -0.9474  2.3361
 5735SOL     OW28840   0.706   2.879   4.905 -0.2400 -0.0527 -0.6518
 5735SOL    HW128841   0.717   2.948   4.970 -0.5055 -1.3100  0.7197
 5735SOL    HW228842   0.784   2.885   4.850  0.2499 -0.4405  0.0034
 5736SOL     OW28843   3.046   4.523  14.247 -0.3771  0.5119  0.2313
 5736SOL    HW128844   3.133   4.519  14.209 -0.2950  3.6911  0.1163
 5736SOL    HW228845   2.987   4.527  14.171  1.4568  0.1230 -1.2283
 5737SOL     OW28846   3.011   1.255   4.066  0.0121  0.3282 -0.1769
 5737SOL    HW128847   2.925   1.220   4.087 -0.1003 -0.3429 -1.7727
 5737SOL    HW228848   3.047   1.172   4.035  0.5843 -0.1615  1.7927
 5738SOL     OW28849   2.562   3.050   1.097 -0.0304  0.1847  0.4777
 5738SOL    HW128850   2.584   2.999   1.175  0.2722  0.3753  0.5194
 5738SOL    HW228851   2.555   3.136   1.140 -1.2626  0.1305  0.3712
 5739SOL     OW28852   1.496   4.491  15.855 -0.6525 -0.3631  0.0943
 5739SOL    HW128853   1.535   4.578  15.859 -0.7925 -0.2976 -0.0029
 5739SOL    HW228854   1.449   4.486  15.772 -0.4374  1.3865 -0.1374
 5740SOL     OW28855   4.005   3.834  17.641 -0.4516  0.2357 -0.1277
 5740SOL    HW128856   4.011   3.912  17.586 -0.6735  0.7018  0.5076
 5740SOL    HW228857   4.049   3.853  17.723  0.0666 -2.8223  0.2862
 5741SOL     OW28858   3.530   1.855   6.092 -0.1975 -0.7298  0.0262
 5741SOL    HW128859   3.576   1.883   6.013 -0.5510 -0.6101 -0.1379
 5741SOL    HW228860   3.501   1.767   6.068 -1.0743  0.2199 -2.3443
 5742SOL     OW28861   3.271   1.412   8.013 -0.8382  0.1519 -0.2734
 5742SOL    HW128862   3.208   1.386   7.946 -0.4556 -0.2709 -0.4741
 5742SOL    HW228863   3.237   1.497   8.041  1.4726  1.1327 -0.4918
 5743SOL     OW28864   2.528   0.034  11.466 -0.7841 -0.5163  0.2267
 5743SOL    HW128865   2.535   0.129  11.463 -1.7782 -0.4779 -1.2179
 5743SOL    HW228866   2.451   0.017  11.521 -2.2378 -0.7919 -1.8692
 5744SOL     OW28867   1.366   3.745  13.688 -0.3020 -0.0212  0.0261
 5744SOL    HW128868   1.350   3.651  13.689 -3.7673  0.5726  0.3158
 5744SOL    HW228869   1.296   3.783  13.635 -1.1030  0.1361  1.1840
 5745SOL     OW28870   4.099   1.783  17.194 -0.2065  0.0469  0.0963
 5745SOL    HW128871   4.153   1.861  17.188 -0.1623  0.0433  0.4267
 5745SOL    HW228872   4.082   1.760  17.103  0.4419 -0.5781  0.1314
 5746SOL     OW28873   4.347   3.063   3.891  0.8264 -0.3905 -0.2350
 5746SOL    HW128874   4.298   2.990   3.853  0.1593  0.5035 -1.1013
 5746SOL    HW228875   4.313   3.067   3.980 -2.7674  1.1881 -1.6853
 5747SOL     OW28876   4.052   3.576   6.524 -0.0548 -0.0864  0.0860
 5747SOL    HW128877   4.145   3.560   6.538 -0.3460 -0.7362  1.2169
 5747SOL    HW228878   4.054   3.672   6.523 -3.3961 -0.0393  0.8849
 5748SOL     OW28879   3.940   2.669   7.911 -0.7063 -0.0137 -0.1905
 5748SOL    HW128880   3.935   2.720   7.992  0.7581  0.1979 -0.2287
 5748SOL    HW228881   4.014   2.611   7.929 -0.9136 -0.1882  0.1084
 5749SOL     OW28882   2.523   0.355   2.111  0.1603 -0.0768 -0.2464
 5749SOL    HW128883   2.525   0.445   2.078 -0.4416 -0.0972 -0.3475
 5749SOL    HW228884   2.434   0.358   2.147  0.4916 -0.4594  0.5932
 5750SOL     OW28885   2.152   2.865   3.603 -0.6747  0.6410 -0.0245
 5750SOL    HW128886   2.175   2.946   3.558 -0.1192  0.1460 -0.6235
 5750SOL    HW228887   2.169   2.803   3.532 -1.3338  0.7359 -0.2688
 5751SOL     OW28888   2.195   3.441   6.058  0.2286 -0.7788 -0.0836
 5751SOL    HW128889   2.229   3.500   5.991  0.3715 -0.7512  0.0128
 5751SOL    HW228890   2.101   3.449   6.042  0.2241  2.0324  1.4554
 5752SOL     OW28891   4.117   3.253  11.538  0.3565  0.1850  0.0441
 5752SOL    HW128892   4.203   3.225  11.568 -0.3036 -0.6767  1.1489
 5752SOL    HW228893   4.112   3.334  11.589  0.0606  0.9450 -1.1919
 5753SOL     OW28894   3.019   1.730   6.443 -0.5809  0.3853 -0.4981
 5753SOL    HW128895   3.056   1.731   6.531  0.7805  0.5255 -1.0783
 5753SOL    HW228896   3.094   1.748   6.387  0.4391  1.2042  1.1405
 5754SOL     OW28897   1.305   4.040   1.604 -0.3106 -0.4792  0.4347
 5754SOL    HW128898   1.295   4.119   1.657  1.5503  0.5797 -0.7949
 5754SOL    HW228899   1.240   4.069   1.540 -0.9239 -0.3112  1.1313
 5755SOL     OW28900   0.816   3.273   6.487 -0.5069  0.0968  0.1046
 5755SOL    HW128901   0.854   3.360   6.479  0.3165 -0.3635 -0.9744
 5755SOL    HW228902   0.788   3.270   6.579  0.9410  0.7799  0.5643
 5756SOL     OW28903   3.951   0.993   7.402 -0.2002 -0.7469 -0.1288
 5756SOL    HW128904   3.984   0.974   7.314  0.2495 -2.1464  0.3529
 5756SOL    HW228905   3.858   1.014   7.391 -0.6619 -1.3729  2.6597
 5757SOL     OW28906   4.105   3.322   2.250  0.4063  0.1014  0.2255
 5757SOL    HW128907   4.112   3.387   2.180  2.6529 -0.0697  0.2928
 5757SOL    HW228908   4.025   3.353   2.294  1.1624 -1.2249  2.5654
 5758SOL     OW28909   2.274   1.626  10.699  0.3306  0.5765  0.0361
 5758SOL    HW128910   2.348   1.612  10.639 -0.0576 -0.4219 -0.2088
 5758SOL    HW228911   2.318   1.670  10.771  0.6815 -0.4009  0.4130
 5759SOL     OW28912   4.085   2.960  15.056 -0.0610 -0.0623  0.2164
 5759SOL    HW128913   4.095   2.912  15.138 -0.6370  0.4850  0.6140
 5759SOL    HW228914   4.022   3.030  15.073  1.7654  1.3903  1.0568
 5760SOL     OW28915   2.409   2.840   3.207 -0.1506  0.5111  0.0349
 5760SOL    HW128916   2.350   2.822   3.134  2.1113 -1.8015 -1.2315
 5760SOL    HW228917   2.374   2.927   3.223 -3.6684 -0.2661 -3.2981
 5761SOL     OW28918   3.923   0.101   6.345  0.1812  0.2894  0.4714
 5761SOL    HW128919   3.985   0.076   6.414 -0.3451  0.3632  0.9674
 5761SOL    HW228920   3.989   0.139   6.287 -0.9062  1.0340 -0.2518
 5762SOL     OW28921   2.495   3.254   7.404  0.6097 -0.9374  0.4491
 5762SOL    HW128922   2.400   3.253   7.410  0.6081 -0.4080  0.5088
 5762SOL    HW228923   2.507   3.322   7.471 -2.5118 -0.2686  0.3223
 5763SOL     OW28924   2.853   4.627   5.464  0.1125 -0.3355  0.0176
 5763SOL    HW128925   2.807   4.588   5.390  0.3519  0.5436 -0.5957
 5763SOL    HW228926   2.926   4.683   5.437  1.3513 -1.5512  0.8243
 5764SOL     OW28927   1.695   4.514   9.313  0.0980  0.3781  0.6968
 5764SOL    HW128928   1.643   4.581   9.357  0.3860  0.4270  0.9591
 5764SOL    HW228929   1.638   4.466   9.253  0.7634  0.2611  0.1598
 5765SOL     OW28930   2.847   3.186   9.683  0.3796 -0.0436  0.2193
 5765SOL    HW128931   2.855   3.183   9.588  2.1102  1.4045  0.3148
 5765SOL    HW228932   2.762   3.143   9.696  0.1779  0.7295  1.5260
 5766SOL     OW28933   1.449   1.704   3.380  0.2239 -0.7473  0.1119
 5766SOL    HW128934   1.428   1.625   3.331  1.3541 -0.1081 -1.4146
 5766SOL    HW228935   1.378   1.761   3.351  0.3474 -0.8180 -0.3266
 5767SOL     OW28936   3.224   4.388   0.043  0.1420 -0.1973  0.0489
 5767SOL    HW128937   3.306   4.388   0.093  0.3468  2.1295 -0.2864
 5767SOL    HW228938   3.199   4.296   0.040  0.4291 -0.2070 -2.1661
 5768SOL     OW28939   4.681   4.193   2.421 -0.3111  0.2146 -0.4414
 5768SOL    HW128940   4.667   4.282   2.454 -2.0857 -0.7194  1.3481
 5768SOL    HW228941   0.033   4.170   2.443 -0.7837 -0.2233  1.0825
 5769SOL     OW28942   0.569   3.424  14.597  0.2436 -0.0614 -0.2586
 5769SOL    HW128943   0.505   3.404  14.665  1.8817  0.4676  1.4695
 5769SOL    HW228944   0.520   3.487  14.545  0.8097 -0.9608 -1.8722
 5770SOL     OW28945   1.206   3.631   4.067  0.2686 -0.3267 -0.1907
 5770SOL    HW128946   1.279   3.621   4.005  0.3687 -0.1832 -0.0974
 5770SOL    HW228947   1.205   3.723   4.094  1.5155 -0.5603  0.6845
 5771SOL     OW28948   1.544   1.205   7.061 -0.2662  0.2342 -0.0098
 5771SOL    HW128949   1.538   1.173   6.971 -0.9185 -0.0984  0.1472
 5771SOL    HW228950   1.500   1.129   7.099 -0.1678 -0.7064 -1.7855
 5772SOL     OW28951   2.804   2.896   9.832 -0.1840 -0.3717 -0.0660
 5772SOL    HW128952   2.730   2.940   9.788  0.7552  1.0129 -0.2664
 5772SOL    HW228953   2.774   2.806   9.819 -0.2172 -0.1492 -1.5735
 5773SOL     OW28954   2.286   0.737   6.484 -0.2510  0.0613  0.9270
 5773SOL    HW128955   2.261   0.829   6.473 -0.3490 -0.0944 -0.1718
 5773SOL    HW228956   2.376   0.748   6.515 -0.0133  1.8190 -0.4044
 5774SOL     OW28957   4.413   1.123  15.422  0.6325  0.0671  0.4140
 5774SOL    HW128958   4.471   1.113  15.346 -1.2355 -1.4010 -0.8198
 5774SOL    HW228959   4.469   1.074  15.482  0.3624 -2.3524 -1.3274
 5775SOL     OW28960   1.438   0.823   9.224 -0.1346 -0.6706 -0.3894
 5775SOL    HW128961   1.378   0.867   9.165 -0.1741  0.4742  0.5039
 5775SOL    HW228962   1.490   0.775   9.160 -1.7980  1.6646 -3.4577
 5776SOL     OW28963   2.867   0.080   5.917 -0.1766 -0.1750  0.5450
 5776SOL    HW128964   2.802   0.053   5.852  0.9936 -0.1018 -0.6455
 5776SOL    HW228965   2.903   0.151   5.864 -1.0795  0.7258  1.1496
 5777SOL     OW28966   4.118   0.229  17.687  0.2158 -0.5654 -0.3925
 5777SOL    HW128967   4.096   0.288  17.616 -0.4679 -2.0165 -1.3972
 5777SOL    HW228968   4.187   0.180  17.643  2.3744  0.3649  1.9455
 5778SOL     OW28969   4.293   1.092   7.676 -0.0820 -0.5543 -0.3508
 5778SOL    HW128970   4.354   1.126   7.742  1.1572  1.5781 -2.5736
 5778SOL    HW228971   4.247   1.172   7.650  0.5048  0.1969  0.9041
 5779SOL     OW28972   3.398   4.467   7.186  0.6490  0.1941 -0.0192
 5779SOL    HW128973   3.474   4.524   7.180  0.1841  1.0570  2.3676
 5779SOL    HW228974   3.325   4.512   7.143  0.1080 -0.1253  0.5642
 5780SOL     OW28975   4.034   0.528   8.031 -0.0678  0.6187 -0.3367
 5780SOL    HW128976   4.129   0.527   8.042 -0.2284 -0.4157  0.8769
 5780SOL    HW228977   4.029   0.510   7.937  1.8786 -0.7078 -0.1867
 5781SOL     OW28978   2.066   3.894   2.805  0.4038 -0.0659  0.0286
 5781SOL    HW128979   2.138   3.928   2.858  1.0648  1.4402 -1.8754
 5781SOL    HW228980   2.058   3.808   2.847  1.9948 -0.0006  0.4489
 5782SOL     OW28981   1.032   2.615   4.869 -0.0974  0.2312  0.0161
 5782SOL    HW128982   1.053   2.694   4.820  0.7150  0.0882  0.1406
 5782SOL    HW228983   1.057   2.554   4.800  2.4714  0.0655  1.0733
 5783SOL     OW28984   2.238   3.250   3.042  0.3140  0.4205 -0.0014
 5783SOL    HW128985   2.199   3.309   2.977  2.4236  1.3233 -0.4561
 5783SOL    HW228986   2.240   3.319   3.109 -0.4537  0.2027  0.2378
 5784SOL     OW28987   2.369   0.634   6.030  0.1930  0.3627  0.1670
 5784SOL    HW128988   2.299   0.689   6.065  0.9927  2.4811 -1.5768
 5784SOL    HW228989   2.441   0.693   6.056  0.7907 -0.5888  0.6756
 5785SOL     OW28990   4.395   3.981   7.860 -0.2800  0.5417  0.1722
 5785SOL    HW128991   4.362   4.037   7.791  0.2676  0.4266 -0.1866
 5785SOL    HW228992   4.360   4.014   7.943 -3.3113 -1.9299 -0.1312
 5786SOL     OW28993   4.527   4.445   9.048 -0.0087 -0.2104  0.2116
 5786SOL    HW128994   4.472   4.489   9.112  2.1414 -0.6545  2.3926
 5786SOL    HW228995   4.613   4.482   9.068 -1.2586  3.1175 -0.6075
 5787SOL     OW28996   0.259   0.663   8.482  0.4283 -0.0715 -0.4300
 5787SOL    HW128997   0.170   0.633   8.502 -0.1108  1.1944 -0.8799
 5787SOL    HW228998   0.233   0.746   8.442  0.4667 -0.0389 -0.3868
 5788SOL     OW28999   1.730   4.011   7.448 -0.0896  0.0845  0.8562
 5788SOL    HW129000   1.793   3.944   7.421 -0.8094 -0.0942 -0.4002
 5788SOL    HW229001   1.646   3.968   7.464  0.0816 -0.5655  0.0008
 5789SOL     OW29002   2.994   4.460  17.490 -0.6112  0.1090 -0.3227
 5789SOL    HW129003   2.980   4.507  17.572  1.3406 -0.8089  0.5351
 5789SOL    HW229004   2.946   4.378  17.498  1.1310 -0.7014  1.5565
 5790SOL     OW29005   2.056   3.447   6.728 -0.7638  0.8012  0.0157
 5790SOL    HW129006   2.132   3.503   6.744  0.0718 -0.2854 -0.1262
 5790SOL    HW229007   2.082   3.364   6.768  0.1497  0.7458 -0.7035
 5791SOL     OW29008   0.153   3.885   5.289  0.2586  0.1153 -0.1477
 5791SOL    HW129009   0.074   3.837   5.312  0.3892  0.5047  1.0981
 5791SOL    HW229010   0.170   3.924   5.375 -0.4642 -1.1729  0.5721
 5792SOL     OW29011   3.933   0.845   8.001  0.2343  0.2219 -0.3061
 5792SOL    HW129012   3.880   0.914   8.041 -2.1076 -2.8873  1.9017
 5792SOL    HW229013   3.985   0.893   7.937  0.2017  2.0690  1.0252
 5793SOL     OW29014   2.253   3.763  17.573  0.1468  0.0572 -0.2544
 5793SOL    HW129015   2.178   3.788  17.518  0.3669 -1.3924 -1.2014
 5793SOL    HW229016   2.300   3.695  17.526 -0.4416 -3.2282  3.9448
 5794SOL     OW29017   1.111   0.809   4.133  0.5249  0.1965 -0.7746
 5794SOL    HW129018   1.080   0.764   4.055  1.0483  0.9202 -1.4076
 5794SOL    HW229019   1.204   0.789   4.125  0.4360 -0.7455  0.5669
 5795SOL     OW29020   3.985   3.274   0.912  0.2881 -0.1530 -0.1271
 5795SOL    HW129021   3.943   3.359   0.928  1.6164  0.3573  0.6259
 5795SOL    HW229022   4.044   3.295   0.840 -0.4769 -0.4846 -0.8421
 5796SOL     OW29023   2.127   3.724   2.217 -0.2723 -0.7186 -0.2398
 5796SOL    HW129024   2.192   3.704   2.285 -0.9888  0.8412  0.9047
 5796SOL    HW229025   2.177   3.795   2.177 -0.2781 -1.3879 -1.4465
 5797SOL     OW29026   1.816   3.065   1.436  0.3585 -0.0169 -0.6844
 5797SOL    HW129027   1.732   3.054   1.391 -0.5036  0.1709  0.8846
 5797SOL    HW229028   1.837   2.972   1.444 -0.6481 -0.0613  1.3575
 5798SOL     OW29029   3.763   1.815   0.996  0.2356 -0.2245 -0.0267
 5798SOL    HW129030   3.681   1.772   1.021 -0.9263  1.4397 -0.9576
 5798SOL    HW229031   3.742   1.904   1.027  1.3937 -0.7225  2.1716
 5799SOL     OW29032   1.586   0.217  14.232 -0.1690  0.6019 -0.9115
 5799SOL    HW129033   1.583   0.141  14.174 -0.4002  0.4965 -0.7610
 5799SOL    HW229034   1.494   0.244  14.239 -0.9268 -1.8958 -0.9391
 5800SOL     OW29035   3.166   4.282   9.286  0.1877 -0.3809  0.5258
 5800SOL    HW129036   3.228   4.293   9.214  0.8650  0.2390  1.1982
 5800SOL    HW229037   3.100   4.345   9.257  0.9532  0.1849  0.0191
 5801SOL     OW29038   4.594   0.434   7.197 -0.1239  0.5254  0.1230
 5801SOL    HW129039   4.630   0.358   7.151 -1.3524 -1.9909  3.2674
 5801SOL    HW229040   4.671   0.489   7.207 -0.1614  0.7711 -1.0174
 5802SOL     OW29041   2.876   3.186   4.890  0.2801 -0.2306 -0.4234
 5802SOL    HW129042   2.843   3.097   4.872 -1.1097  0.3470 -0.7595
 5802SOL    HW229043   2.957   3.179   4.940  0.5807 -0.4509 -0.9452
 5803SOL     OW29044   1.251   3.057   9.357  0.5578 -0.2661  0.1919
 5803SOL    HW129045   1.175   3.046   9.300 -1.0496  2.4944  1.8366
 5803SOL    HW229046   1.221   3.010   9.435 -1.4535  0.2061 -0.3058
 5804SOL     OW29047   0.015   1.496   4.965 -0.4922  0.2340 -0.6718
 5804SOL    HW129048   4.685   1.474   4.901 -0.2401 -2.0909 -0.1605
 5804SOL    HW229049   4.699   1.484   5.042 -0.8978 -0.6785 -1.0939
 5805SOL     OW29050   0.715   1.306  16.463  0.5015 -0.4325  0.2523
 5805SOL    HW129051   0.797   1.320  16.512 -0.9384 -0.0630  2.5823
 5805SOL    HW229052   0.746   1.272  16.379  0.4188 -2.5394  1.0698
 5806SOL     OW29053   2.837   4.647  17.323 -0.1999  0.3182 -0.2516
 5806SOL    HW129054   2.900   4.584  17.359  0.8316  1.7126  0.3949
 5806SOL    HW229055   2.895   4.705  17.274 -0.3746  1.7313  1.1991
 5807SOL     OW29056   2.915   4.077   2.243  0.3198 -0.6061 -0.3999
 5807SOL    HW129057   2.927   4.078   2.149  0.0931  1.2959 -0.3943
 5807SOL    HW229058   2.988   4.027   2.280  0.5212 -1.1111 -1.4765
 5808SOL     OW29059   2.070   1.362   5.981  0.0511  0.8668  0.1020
 5808SOL    HW129060   1.978   1.342   5.968  0.1401 -0.2816  1.2407
 5808SOL    HW229061   2.105   1.285   5.936  0.5433  2.0345 -1.5419
 5809SOL     OW29062   2.162   1.559   3.009 -0.2420  0.1150  0.3907
 5809SOL    HW129063   2.172   1.543   2.915 -1.1079  3.5084 -0.2988
 5809SOL    HW229064   2.086   1.617   3.009 -0.0870  0.3224 -2.1146
 5810SOL     OW29065   4.023   0.088   3.824  0.2672  0.0163  0.2726
 5810SOL    HW129066   4.084   0.110   3.894  1.6792  0.0148 -0.9444
 5810SOL    HW229067   4.018   0.181   3.800  2.0002  0.5504  1.9761
 5811SOL     OW29068   2.036   0.853  12.454 -0.1037 -0.3385 -0.2123
 5811SOL    HW129069   2.054   0.863  12.360 -0.8576  2.0572 -0.0976
 5811SOL    HW229070   1.949   0.894  12.448  1.3177  2.5352 -1.0954
 5812SOL     OW29071   3.716   4.472   4.279 -0.3598  0.0772  0.2046
 5812SOL    HW129072   3.712   4.437   4.190  0.2626  0.5185  0.0071
 5812SOL    HW229073   3.646   4.424   4.324  0.3119 -1.9150 -0.8725
 5813SOL     OW29074   3.839   2.901   6.960 -0.3074 -0.3786 -0.0679
 5813SOL    HW129075   3.899   2.918   6.887 -0.9097  1.6422 -0.1147
 5813SOL    HW229076   3.762   2.877   6.909 -0.9301  0.8717  0.2760
 5814SOL     OW29077   3.222   2.107   3.463  0.2552  0.2516 -0.0934
 5814SOL    HW129078   3.175   2.028   3.435  2.0152 -0.3395 -1.3613
 5814SOL    HW229079   3.291   2.111   3.397  0.4123 -0.1719  0.0462
 5815SOL     OW29080   3.156   1.676   0.254 -0.2070  0.7696  0.2309
 5815SOL    HW129081   3.121   1.640   0.335  0.7997  0.1144  0.3851
 5815SOL    HW229082   3.196   1.753   0.294 -0.1723  1.0360 -0.3112
 5816SOL     OW29083   1.526   1.500   5.636  0.3311 -0.1471  0.1849
 5816SOL    HW129084   1.507   1.444   5.711  1.6450 -0.8438  0.0008
 5816SOL    HW229085   1.510   1.437   5.566 -0.6462 -0.8218  1.0154
 5817SOL     OW29086   1.717   2.243  13.090 -0.3650  0.6389 -0.0788
 5817SOL    HW129087   1.752   2.158  13.062 -1.1686  0.3936 -0.3473
 5817SOL    HW229088   1.660   2.246  13.012 -0.4788 -1.6833 -0.0805
 5818SOL     OW29089   2.290   3.418   9.846  0.0255 -0.5181  0.6873
 5818SOL    HW129090   2.363   3.385   9.898  0.7600 -1.5694 -1.0169
 5818SOL    HW229091   2.328   3.442   9.762 -0.2414 -0.4391  0.5890
 5819SOL     OW29092   2.838   2.016   6.005 -0.2483 -0.3769 -0.0680
 5819SOL    HW129093   2.898   1.995   6.077 -2.5660  0.9427  2.2509
 5819SOL    HW229094   2.889   1.976   5.935  1.1883  2.4227 -0.5984
 5820SOL     OW29095   3.257   4.137   6.480  0.6737 -0.0937  0.4823
 5820SOL    HW129096   3.255   4.134   6.575 -0.6434  0.4357  0.4759
 5820SOL    HW229097   3.162   4.142   6.470  0.6170  2.0817  2.1283
 5821SOL     OW29098   0.422   1.801   3.783 -0.2119  0.4279  0.2589
 5821SOL    HW129099   0.497   1.814   3.840 -0.3934 -0.8361  0.7765
 5821SOL    HW229100   0.350   1.823   3.843  1.1917  0.3182  1.9688
 5822SOL     OW29101   2.055   2.487   6.266  0.1978  0.0154  0.1510
 5822SOL    HW129102   2.149   2.494   6.248  0.0664 -1.6691 -1.1426
 5822SOL    HW229103   2.042   2.404   6.221  2.9746  0.2352 -1.0888
 5823SOL     OW29104   3.177   4.120   8.857  0.0122 -0.3473 -0.6780
 5823SOL    HW129105   3.149   4.089   8.943 -0.3526 -0.0387 -0.6831
 5823SOL    HW229106   3.132   4.055   8.802  1.6940 -0.8814 -1.4089
 5824SOL     OW29107   0.742   4.567   5.332  0.1734 -0.6178 -0.3559
 5824SOL    HW129108   0.677   4.499   5.315 -0.1735 -0.1492 -0.9036
 5824SOL    HW229109   0.813   4.514   5.369  0.6635  0.9530  0.9714
 5825SOL     OW29110   2.655   4.421   3.528  0.5374 -0.3756 -0.0052
 5825SOL    HW129111   2.627   4.466   3.608  3.2347  1.2021  0.0492
 5825SOL    HW229112   2.723   4.484   3.503 -0.5660  1.2574  1.1153
 5826SOL     OW29113   4.279   1.072   1.735  0.3017  0.4465 -0.3312
 5826SOL    HW129114   4.187   1.062   1.709  0.2077  0.7839 -0.1159
 5826SOL    HW229115   4.268   1.144   1.797 -0.6199 -0.2706  0.3429
 5827SOL     OW29116   1.527   3.528  16.615  0.4376 -0.2810  0.1041
 5827SOL    HW129117   1.491   3.555  16.530 -1.1005 -0.6546  0.6332
 5827SOL    HW229118   1.605   3.484  16.581 -0.5106 -1.8170 -0.1149
 5828SOL     OW29119   3.025   2.629  13.780 -0.2691 -0.5091 -0.4125
 5828SOL    HW129120   3.079   2.563  13.737 -0.1357 -0.2411 -0.6515
 5828SOL    HW229121   3.085   2.698  13.807 -0.6163  0.1615 -1.3329
 5829SOL     OW29122   3.978   3.928   2.372 -0.2665 -0.0451 -0.2641
 5829SOL    HW129123   4.071   3.927   2.395 -0.6680 -3.0311  1.1879
 5829SOL    HW229124   3.940   3.915   2.459  1.9661 -1.4850  0.5102
 5830SOL     OW29125   4.507   3.441  14.775 -0.5761  0.6839 -0.3973
 5830SOL    HW129126   4.527   3.357  14.734  1.1159  1.9540 -2.1665
 5830SOL    HW229127   4.434   3.418  14.833 -0.7096 -1.4201 -1.3898
 5831SOL     OW29128   3.699   4.045  12.337  0.7756 -0.5710 -0.1540
 5831SOL    HW129129   3.782   4.008  12.308  1.4901  1.0808 -0.2043
 5831SOL    HW229130   3.666   4.081  12.255 -1.0336 -0.0542  0.7879
 5832SOL     OW29131   4.364   0.041   2.331  0.4605 -0.1794  0.2352
 5832SOL    HW129132   4.302   0.112   2.349 -0.1413 -0.6609  0.0591
 5832SOL    HW229133   4.320   4.703   2.368 -1.2453  0.5929 -0.2078
 5833SOL     OW29134   2.462   0.296  16.520 -0.1407  0.4657 -0.3453
 5833SOL    HW129135   2.368   0.304  16.532 -0.3346  0.5943 -1.9468
 5833SOL    HW229136   2.476   0.297  16.425  0.1799 -1.9215 -0.3221
 5834SOL     OW29137   3.907   1.734   2.709 -0.4973 -0.2182 -0.3724
 5834SOL    HW129138   3.887   1.686   2.629  3.1052 -0.6684 -1.0222
 5834SOL    HW229139   3.990   1.698   2.742 -0.1255 -0.2680 -1.3399
 5835SOL     OW29140   4.669   1.473   7.675  0.0675 -0.0150  0.0625
 5835SOL    HW129141   4.637   1.383   7.679  1.5917 -0.4509  2.3748
 5835SOL    HW229142   4.637   1.481   7.586  0.3087 -1.9889 -0.2010
 5836SOL     OW29143   0.736   0.141   1.195 -0.0003 -0.0445 -0.5718
 5836SOL    HW129144   0.738   0.227   1.237 -0.0382 -0.6443  0.6502
 5836SOL    HW229145   0.728   0.088   1.274  0.7362  1.0922  0.2681
 5837SOL     OW29146   2.014   0.927   4.941  0.0266  0.3927 -0.6498
 5837SOL    HW129147   2.038   0.933   4.849 -1.9319 -3.4009 -1.4090
 5837SOL    HW229148   2.093   0.959   4.985 -1.1950  0.6670  1.3276
 5838SOL     OW29149   2.169   2.224   4.263  0.5592  0.2832  0.3100
 5838SOL    HW129150   2.234   2.283   4.225  0.9149 -1.8684 -2.3261
 5838SOL    HW229151   2.094   2.283   4.256  0.0526 -0.7371 -2.5570
 5839SOL     OW29152   1.354   4.023   3.331 -0.4270 -0.0288  0.0436
 5839SOL    HW129153   1.422   3.967   3.368 -1.3393  0.1501  1.9439
 5839SOL    HW229154   1.330   3.971   3.254  0.1055  1.2714 -1.0213
 5840SOL     OW29155   2.742   3.576   9.066 -0.4609  0.4845 -0.4080
 5840SOL    HW129156   2.706   3.508   9.123  0.3030  0.6848  0.3185
 5840SOL    HW229157   2.711   3.654   9.112 -0.2517 -0.1488  0.8150
 5841SOL     OW29158   3.174   1.534  10.926  0.1267  0.1660  0.1109
 5841SOL    HW129159   3.086   1.572  10.921  0.4541  0.9638  0.2964
 5841SOL    HW229160   3.199   1.570  11.012 -2.2982  0.9535  0.4902
 5842SOL     OW29161   2.583   3.637   5.447  0.0195 -0.3593 -0.0015
 5842SOL    HW129162   2.590   3.700   5.375 -1.2066 -0.4598 -0.1990
 5842SOL    HW229163   2.549   3.563   5.397  4.9590 -2.3750 -0.3785
 5843SOL     OW29164   3.118   2.467   7.835  0.0213  0.2423  0.5156
 5843SOL    HW129165   3.136   2.561   7.841 -0.0724  0.1624  2.2678
 5843SOL    HW229166   3.197   2.450   7.784  0.3718 -2.2645  1.8726
 5844SOL     OW29167   0.383   4.159   8.427 -0.9248 -0.1086  0.5203
 5844SOL    HW129168   0.445   4.147   8.355  0.2308 -1.4219  1.7515
 5844SOL    HW229169   0.416   4.243   8.460 -0.1895  0.1803 -0.9399
 5845SOL     OW29170   3.981   3.103   0.359 -0.1378  0.1778  0.8778
 5845SOL    HW129171   3.890   3.132   0.360  0.2416  1.3736  0.8363
 5845SOL    HW229172   4.005   3.130   0.447  2.7409  0.9849 -0.1299
 5846SOL     OW29173   0.549   0.214  10.345  0.1562 -0.2591 -0.3569
 5846SOL    HW129174   0.593   0.130  10.330  0.1585 -0.3642  0.2421
 5846SOL    HW229175   0.476   0.198  10.286  0.6656 -1.5212 -0.6395
 5847SOL     OW29176   4.327   0.816   7.573 -0.0811 -0.1977  0.2924
 5847SOL    HW129177   4.408   0.786   7.615 -0.3935 -3.1035 -1.1639
 5847SOL    HW229178   4.315   0.895   7.625 -0.9116  0.1313 -0.4053
 5848SOL     OW29179   2.678   3.768   9.296  0.0330  0.1882  0.4609
 5848SOL    HW129180   2.606   3.831   9.289  1.3484  1.8347  1.6376
 5848SOL    HW229181   2.750   3.822   9.327 -0.0909  1.1434 -0.9491
 5849SOL     OW29182   0.312   2.482  11.421 -0.2492 -0.2735  0.0256
 5849SOL    HW129183   0.338   2.470  11.512 -2.3775  2.2449  0.9604
 5849SOL    HW229184   0.377   2.424  11.381 -0.1118  0.1226 -0.3266
 5850SOL     OW29185   0.744   0.290   8.268 -0.3495 -0.5405  0.5026
 5850SOL    HW129186   0.782   0.270   8.354 -0.2590 -1.4057  0.2662
 5850SOL    HW229187   0.656   0.254   8.272 -0.8631  0.8846  2.0566
 5851SOL     OW29188   0.864   3.280   9.823  0.2003 -0.3534 -0.2707
 5851SOL    HW129189   0.860   3.357   9.880 -0.4187  0.0983 -0.9113
 5851SOL    HW229190   0.951   3.248   9.845  1.2200  1.5929 -1.4915
 5852SOL     OW29191   4.366   0.012   8.933  0.1755  0.7048  0.4558
 5852SOL    HW129192   4.339   0.093   8.975 -0.1860  1.1169 -0.5724
 5852SOL    HW229193   4.305   0.015   8.859 -0.5803 -0.0648  1.0614
 5853SOL     OW29194   3.763   3.631   8.478 -0.3022  0.4615 -0.0824
 5853SOL    HW129195   3.769   3.691   8.552  2.3775 -0.5149  0.5080
 5853SOL    HW229196   3.679   3.587   8.489  0.3526 -0.0265  2.7554
 5854SOL     OW29197   3.090   3.825   4.558 -0.0523  0.1963 -0.2205
 5854SOL    HW129198   3.060   3.738   4.531 -0.2312  0.4194 -0.7377
 5854SOL    HW229199   3.011   3.878   4.556 -1.1317 -1.2897  1.7617
 5855SOL     OW29200   0.346   2.790   2.500 -0.3294  0.2151  0.8589
 5855SOL    HW129201   0.305   2.876   2.503 -5.0123 -1.8266 -2.4459
 5855SOL    HW229202   0.436   2.816   2.485  0.2245 -2.6311 -0.7492
 5856SOL     OW29203   0.828   1.541   7.084  0.8949 -0.3780  0.0296
 5856SOL    HW129204   0.902   1.532   7.024  0.9750  0.3210  0.0253
 5856SOL    HW229205   0.856   1.489   7.159 -1.4609 -0.1359  1.0632
 5857SOL     OW29206   0.708   0.775   1.543  0.3464  0.5939  0.0522
 5857SOL    HW129207   0.746   0.790   1.630  0.7796 -1.8227  0.2936
 5857SOL    HW229208   0.760   0.832   1.486  1.0055  0.2621  0.3093
 5858SOL     OW29209   2.668   2.006   5.307 -0.2629  0.3244  0.1202
 5858SOL    HW129210   2.645   2.003   5.400 -0.6598  0.2713  0.0211
 5858SOL    HW229211   2.762   1.993   5.321 -0.4878 -1.7390 -0.3298
 5859SOL     OW29212   3.090   4.667   7.728 -0.0050  0.1325 -0.1075
 5859SOL    HW129213   3.184   4.654   7.737 -0.0502 -1.3167 -1.7186
 5859SOL    HW229214   3.073   4.647   7.635  0.3299 -1.5826  0.2080
 5860SOL     OW29215   2.731   0.322   1.913 -0.6768  0.0305  0.0460
 5860SOL    HW129216   2.678   0.332   1.991 -1.7519  2.4875 -1.0011
 5860SOL    HW229217   2.699   0.237   1.880  0.5403 -0.5098  0.2418
 5861SOL     OW29218   0.096   2.801   2.905 -0.0582  0.5378  0.9161
 5861SOL    HW129219   0.079   2.737   2.974  1.0420  0.7822  1.4223
 5861SOL    HW229220   0.091   2.751   2.823  0.7584 -1.7812  2.2595
 5862SOL     OW29221   4.560   0.342  11.756  0.1642  0.1473  0.3173
 5862SOL    HW129222   4.549   0.275  11.689  1.1497  0.4022 -0.0991
 5862SOL    HW229223   4.593   0.291  11.830 -0.7529  0.1820  0.7501
 5863SOL     OW29224   1.194   0.519   4.170  0.5623  0.6179 -0.2397
 5863SOL    HW129225   1.260   0.570   4.217 -0.4907 -1.6154  3.6356
 5863SOL    HW229226   1.240   0.453   4.118  0.0462 -0.1458  0.2778
 5864SOL     OW29227   1.687   0.397   6.011 -0.3346  0.2149 -0.1050
 5864SOL    HW129228   1.673   0.489   5.992  2.2753  0.3831 -1.2207
 5864SOL    HW229229   1.629   0.391   6.087  1.0366  0.5671  0.9657
 5865SOL     OW29230   2.504   1.782   7.251 -0.0908  0.0670 -0.0352
 5865SOL    HW129231   2.518   1.850   7.316  1.5574 -0.8638  0.5814
 5865SOL    HW229232   2.595   1.780   7.221  0.1123  2.1538  0.4917
 5866SOL     OW29233   4.074   2.330  12.934 -0.2409 -0.5127 -0.2187
 5866SOL    HW129234   4.049   2.423  12.941 -1.9009 -1.1585  2.3882
 5866SOL    HW229235   4.125   2.321  13.014  1.1115  0.7332 -0.9485
 5867SOL     OW29236   4.441   0.747   9.059 -0.2568 -0.5700 -0.8312
 5867SOL    HW129237   4.500   0.804   9.010 -1.7939 -1.0186 -3.2117
 5867SOL    HW229238   4.355   0.789   9.056  0.3682  0.7742  0.1669
 5868SOL     OW29239   4.222   0.674   8.330  0.2367  0.1466 -0.3584
 5868SOL    HW129240   4.181   0.736   8.270  0.7328  0.5808 -0.2534
 5868SOL    HW229241   4.278   0.737   8.374  0.5029  0.7305 -1.5434
 5869SOL     OW29242   3.818   1.528   5.745 -0.0667  0.0473  0.2702
 5869SOL    HW129243   3.891   1.494   5.796  2.3031  2.2956 -1.6474
 5869SOL    HW229244   3.819   1.474   5.666 -3.2960  0.9122 -0.3666
 5870SOL     OW29245   0.262   2.308   7.391 -0.2327  0.1663 -0.1240
 5870SOL    HW129246   0.204   2.385   7.391 -0.7964 -0.2616  1.2509
 5870SOL    HW229247   0.220   2.274   7.312 -1.5075 -0.2914  0.7515
 5871SOL     OW29248   0.366   1.250  10.824  0.8468  0.1363  0.2709
 5871SOL    HW129249   0.431   1.245  10.755 -0.0421 -2.1722 -0.3999
 5871SOL    HW229250   0.363   1.163  10.866  0.8355  0.6358  1.3127
 5872SOL     OW29251   0.553   1.876   5.390  0.1017 -0.4661  0.0487
 5872SOL    HW129252   0.510   1.922   5.462  1.9406 -0.2470  1.0221
 5872SOL    HW229253   0.599   1.802   5.432 -1.5132 -0.0641  2.5269
 5873SOL     OW29254   3.768   2.630   9.966 -0.1744 -0.1013  0.5365
 5873SOL    HW129255   3.814   2.688   9.906  0.7699 -2.0863 -0.6597
 5873SOL    HW229256   3.746   2.691  10.036  1.4889  1.1519 -0.0365
 5874SOL     OW29257   3.862   2.992   0.091  0.3905 -0.2029  0.1172
 5874SOL    HW129258   3.945   3.028   0.121 -0.2266  0.5813  0.8727
 5874SOL    HW229259   3.837   2.928   0.157  0.2552 -0.1810  0.0866
 5875SOL     OW29260   0.717   2.501   0.253 -0.5777 -0.2193 -0.9486
 5875SOL    HW129261   0.636   2.551   0.271  0.0512  0.2755  0.4983
 5875SOL    HW229262   0.690   2.409   0.254 -0.2747 -0.2874  0.9385
 5876SOL     OW29263   2.072   2.356   2.710  0.0577  0.2106  0.0069
 5876SOL    HW129264   2.163   2.346   2.682 -0.2246 -1.8792 -0.1221
 5876SOL    HW229265   2.034   2.288   2.654 -1.2131  0.9919 -0.0709
 5877SOL     OW29266   2.218   1.049  13.452  0.9294 -0.0526 -0.0015
 5877SOL    HW129267   2.298   0.999  13.466  0.9919 -0.3213 -1.3485
 5877SOL    HW229268   2.186   1.022  13.366 -0.3313 -0.8507  0.7168
 5878SOL     OW29269   2.516   3.949  16.329  0.1619 -0.2448  0.0727
 5878SOL    HW129270   2.476   3.941  16.242 -0.9598  0.9890  0.4770
 5878SOL    HW229271   2.541   4.040  16.339  1.8078 -0.5672 -1.0957
 5879SOL     OW29272   2.517   3.517   2.804  0.4798  0.5601  0.2507
 5879SOL    HW129273   2.430   3.502   2.841 -0.1883 -0.3195 -1.6761
 5879SOL    HW229274   2.574   3.484   2.873  1.4100 -1.7478 -1.6243
 5880SOL     OW29275   0.222   0.106   6.780 -0.0386 -0.4730  0.3587
 5880SOL    HW129276   0.223   0.201   6.771  0.4214 -0.5989 -0.8220
 5880SOL    HW229277   0.277   0.091   6.857 -0.3291  0.5227  0.7651
 5881SOL     OW29278   1.289   2.901  17.428 -0.0628 -0.0700  0.1075
 5881SOL    HW129279   1.259   2.946  17.507 -0.0721  2.2095 -1.2072
 5881SOL    HW229280   1.210   2.907  17.374  0.2423 -1.9438 -0.5730
 5882SOL     OW29281   2.516   0.648  10.723 -0.2439  0.6152  0.5282
 5882SOL    HW129282   2.609   0.648  10.746  0.1374 -1.3097 -0.9480
 5882SOL    HW229283   2.519   0.609  10.635 -0.1731 -0.8597  1.1825
 5883SOL     OW29284   2.704   2.322   1.052  0.0703  0.3632  0.3476
 5883SOL    HW129285   2.721   2.255   1.119 -1.4294  1.0131  1.3779
 5883SOL    HW229286   2.616   2.302   1.019  0.2904 -1.0364  0.5948
 5884SOL     OW29287   2.726   1.944   7.334 -0.1334  0.1272  0.1016
 5884SOL    HW129288   2.748   2.007   7.266  0.1229  0.6050  0.6313
 5884SOL    HW229289   2.780   1.969   7.409  2.0405  1.8011 -2.0147
 5885SOL     OW29290   1.007   4.402   2.562 -0.2713 -0.1010 -0.2912
 5885SOL    HW129291   0.976   4.488   2.533 -1.0003 -0.3138 -0.1407
 5885SOL    HW229292   1.101   4.407   2.546  0.3101 -1.7250  2.5278
 5886SOL     OW29293   2.331   2.703   5.922  0.2080 -0.1278 -0.0440
 5886SOL    HW129294   2.298   2.740   5.840 -0.8664  0.5644  0.7092
 5886SOL    HW229295   2.413   2.657   5.905  0.9923  1.1678  0.2136
 5887SOL     OW29296   2.747   1.933   2.696 -0.0089 -0.1648  0.0076
 5887SOL    HW129297   2.826   1.879   2.699 -0.8151 -1.4620 -2.5965
 5887SOL    HW229298   2.700   1.896   2.621  0.1450 -2.4299  1.0273
 5888SOL     OW29299   3.916   3.006   7.995 -0.2473  0.1333 -0.1605
 5888SOL    HW129300   3.913   2.982   7.902  0.5172 -0.1675 -0.1076
 5888SOL    HW229301   3.931   3.101   7.994  0.7369 -0.0053  1.2575
 5889SOL     OW29302   4.292   4.286  13.299  0.1832  0.4687 -0.4347
 5889SOL    HW129303   4.210   4.334  13.285 -1.2021 -1.4836  0.9178
 5889SOL    HW229304   4.257   4.207  13.256 -1.0090  1.4268 -1.2453
 5890SOL     OW29305   4.353   3.826   0.059 -0.2251 -0.6073 -0.1807
 5890SOL    HW129306   4.382   3.798   0.146 -1.0016 -0.2020  0.2075
 5890SOL    HW229307   4.264   3.848   0.087  0.3195  0.3726  0.8143
 5891SOL     OW29308   1.924   2.645  14.433 -0.3282  0.3199  0.4647
 5891SOL    HW129309   1.932   2.582  14.361  1.9154 -1.7002  2.4655
 5891SOL    HW229310   1.898   2.596  14.511 -1.2620  0.5109  0.2629
 5892SOL     OW29311   4.507   0.885   0.450  0.0493 -0.3057  0.4550
 5892SOL    HW129312   4.530   0.857   0.539  0.4091 -0.0495  0.4435
 5892SOL    HW229313   4.414   0.905   0.458  0.2105  1.4539 -2.1726
 5893SOL     OW29314   2.713   3.288   2.581 -0.2195  0.2149 -0.1838
 5893SOL    HW129315   2.745   3.240   2.657 -1.2731 -1.3869 -0.7376
 5893SOL    HW229316   2.780   3.354   2.568 -0.7174  1.6171  4.3247
 5894SOL     OW29317   4.112   4.248   9.045 -0.1448 -0.1146  0.1565
 5894SOL    HW129318   4.185   4.219   8.990 -0.0772  1.5796 -0.6638
 5894SOL    HW229319   4.048   4.261   8.975  0.7633  1.4451 -0.4008
 5895SOL     OW29320   3.372   0.094   8.607  0.0661 -0.3197 -0.2630
 5895SOL    HW129321   3.288   0.089   8.563  0.1874  1.0595 -0.6348
 5895SOL    HW229322   3.383   0.003   8.636  1.9071 -0.3358 -1.0391
 5896SOL     OW29323   0.664   2.309   9.858 -0.5406  0.1522  0.8846
 5896SOL    HW129324   0.680   2.397   9.893 -1.7111  0.1836  1.3434
 5896SOL    HW229325   0.599   2.286   9.923 -0.2953  3.3881  2.2924
 5897SOL     OW29326   4.478   2.015   1.303 -0.5535  0.3339 -0.0988
 5897SOL    HW129327   4.431   2.027   1.385  0.7162  0.6644  0.5837
 5897SOL    HW229328   4.440   2.081   1.246  1.7940  0.5409 -1.4354
 5898SOL     OW29329   1.667   0.511   3.477  0.7040  0.5710 -0.5552
 5898SOL    HW129330   1.658   0.596   3.520  0.0141 -0.4759  1.3725
 5898SOL    HW229331   1.631   0.515   3.388  0.1485 -1.2687 -0.4034
 5899SOL     OW29332   4.734   0.312   3.192  0.1122 -0.2104  0.1577
 5899SOL    HW129333   4.712   0.220   3.179 -1.0917  0.2084 -0.8220
 5899SOL    HW229334   0.082   0.307   3.234 -0.9255 -0.7305  2.2179
 5900SOL     OW29335   1.403   4.483   8.158 -0.9868  0.1226  0.6614
 5900SOL    HW129336   1.373   4.537   8.231 -1.2837 -2.6696  2.5762
 5900SOL    HW229337   1.317   4.473   8.117 -0.2414  0.6866 -1.0532
 5901SOL     OW29338   2.836   4.046  13.000 -0.1084  0.1095  0.7166
 5901SOL    HW129339   2.906   3.990  12.963  0.1473  1.0133 -0.1685
 5901SOL    HW229340   2.768   4.046  12.932  1.3423 -1.2677 -0.7690
 5902SOL     OW29341   2.905   0.120   0.360  0.7755 -0.5956  0.0865
 5902SOL    HW129342   2.849   0.181   0.408  0.7681 -0.7755  0.3111
 5902SOL    HW229343   2.992   0.160   0.353 -0.3409  1.6831 -0.5648
 5903SOL     OW29344   2.753   0.396   2.771  0.8921 -0.9676  0.5886
 5903SOL    HW129345   2.721   0.366   2.856 -2.1545 -0.9625 -0.5562
 5903SOL    HW229346   2.673   0.435   2.736  1.8754 -0.5142 -1.1577
 5904SOL     OW29347   1.605   1.110   4.776  0.2142  0.4345  0.4113
 5904SOL    HW129348   1.538   1.149   4.832  2.0617  2.5024  1.1485
 5904SOL    HW229349   1.548   1.072   4.709  2.7356 -0.7650 -1.0643
 5905SOL     OW29350   2.856   1.848   3.103  0.4254  0.7184 -0.1728
 5905SOL    HW129351   2.874   1.938   3.130 -0.7980 -0.2891  4.0874
 5905SOL    HW229352   2.775   1.854   3.052 -0.3641  2.7111  1.2957
 5906SOL     OW29353   0.351   3.713   5.167  0.3553 -0.7294 -0.1374
 5906SOL    HW129354   0.269   3.730   5.121  0.8347  1.1560 -0.2885
 5906SOL    HW229355   0.328   3.754   5.250 -1.4968 -0.9144 -0.5626
 5907SOL     OW29356   2.046   3.176   2.129 -0.0369  0.4595  0.4154
 5907SOL    HW129357   2.024   3.266   2.150 -0.9778 -0.0853  1.7999
 5907SOL    HW229358   2.015   3.179   2.039  1.2132 -0.9672 -0.0700
 5908SOL     OW29359   3.128   4.376   0.571 -0.3638 -0.4749 -0.1274
 5908SOL    HW129360   3.043   4.337   0.551 -1.4849  0.9288  1.9179
 5908SOL    HW229361   3.180   4.360   0.492 -0.1329 -2.4888  0.4071
 5909SOL     OW29362   0.019   4.357   0.969  0.0365 -0.2736 -0.0391
 5909SOL    HW129363   4.725   4.447   0.973 -1.6666 -0.8456 -1.1921
 5909SOL    HW229364   0.025   4.333   1.062 -2.2405  0.7826  0.3881
 5910SOL     OW29365   2.531   0.366   2.586  0.2428 -0.0760  0.2482
 5910SOL    HW129366   2.442   0.400   2.599  1.0821  1.9590  0.5359
 5910SOL    HW229367   2.501   0.275   2.581 -2.0122  0.6564  0.3265
 5911SOL     OW29368   2.467   1.735  17.532 -0.0435  0.3120  0.0116
 5911SOL    HW129369   2.382   1.780  17.534  1.1951  2.5958  1.0322
 5911SOL    HW229370   2.532   1.805  17.534  0.3528 -0.0756  0.5005
 5912SOL     OW29371   3.964   1.863   4.934 -0.3545 -0.5471 -0.1718
 5912SOL    HW129372   3.943   1.900   5.020 -0.7474 -0.7091 -0.1976
 5912SOL    HW229373   4.059   1.856   4.927 -0.4266 -1.1095 -0.5784
 5913SOL     OW29374   4.256   1.186   4.186 -0.0948 -0.0893  0.4050
 5913SOL    HW129375   4.320   1.163   4.119 -0.8319 -0.3817 -0.1963
 5913SOL    HW229376   4.185   1.127   4.162 -0.8755  1.3445 -0.8446
 5914SOL     OW29377   1.441   3.994   8.829 -0.1410 -0.0955 -0.3714
 5914SOL    HW129378   1.410   3.904   8.840 -0.8946  0.0671 -1.1306
 5914SOL    HW229379   1.529   3.977   8.795 -0.3534 -2.2942  0.1834
 5915SOL     OW29380   0.683   4.736  10.218  0.2738  0.2864  0.8866
 5915SOL    HW129381   0.755   4.681  10.187 -1.0204 -0.9189 -0.0007
 5915SOL    HW229382   0.606   4.682  10.201  0.3553  0.3228  0.4042
 5916SOL     OW29383   2.091   3.124   8.627  0.1119 -0.0534  0.1683
 5916SOL    HW129384   2.087   3.147   8.534 -2.9474 -0.2412  0.2751
 5916SOL    HW229385   2.184   3.100   8.630  1.0879  3.8858  1.1743
 5917SOL     OW29386   1.876   1.428   2.834 -0.5202  0.1238 -0.2478
 5917SOL    HW129387   1.962   1.387   2.844 -1.1535 -0.8109  1.3417
 5917SOL    HW229388   1.882   1.481   2.754  2.4866  0.2644  0.0698
 5918SOL     OW29389   0.578   3.986   7.466  0.5143  0.0432 -0.4667
 5918SOL    HW129390   0.527   3.942   7.398 -1.1955  0.0326  0.8208
 5918SOL    HW229391   0.562   4.077   7.444  0.7064 -0.2623 -1.9083
 5919SOL     OW29392   3.991   2.452  16.724  0.1150 -0.1428  0.1972
 5919SOL    HW129393   3.953   2.539  16.735 -0.1103 -0.2082 -0.0704
 5919SOL    HW229394   4.025   2.439  16.813  0.3632  0.1334  0.1396
 5920SOL     OW29395   4.538   2.303   5.355 -0.1421  0.3622  0.3703
 5920SOL    HW129396   4.476   2.273   5.289  0.8318  2.6324 -1.5742
 5920SOL    HW229397   4.610   2.333   5.299 -1.4222  2.4240 -0.1780
 5921SOL     OW29398   3.125   3.702   8.941 -0.0284 -0.0240 -0.3620
 5921SOL    HW129399   3.199   3.751   8.977 -0.7258  1.2705 -0.7061
 5921SOL    HW229400   3.068   3.775   8.918  0.9341  0.7832 -0.2083
 5922SOL     OW29401   2.845   2.993   1.629  0.0951 -0.1616 -0.7479
 5922SOL    HW129402   2.866   2.997   1.723  0.7979  1.8097 -1.0145
 5922SOL    HW229403   2.826   2.899   1.633  1.0292 -0.4031 -2.2543
 5923SOL     OW29404   3.661   3.233   4.169  0.6318 -1.1100  0.3653
 5923SOL    HW129405   3.623   3.145   4.161  0.5656 -1.1294  0.8631
 5923SOL    HW229406   3.593   3.282   4.123 -0.6897 -3.8832 -0.6692
 5924SOL     OW29407   1.963   0.050  13.506  0.5911  0.0651  0.3590
 5924SOL    HW129408   1.996   4.708  13.547 -0.2426  0.1280  1.1341
 5924SOL    HW229409   1.900   0.013  13.444 -1.2192  0.4862  1.9653
 5925SOL     OW29410   4.454   1.162   5.649  0.1512  0.4801 -0.3185
 5925SOL    HW129411   4.497   1.076   5.656 -0.5558  0.2581  1.3557
 5925SOL    HW229412   4.362   1.135   5.648  0.0873  0.8172 -2.6817
 5926SOL     OW29413   2.820   3.177   4.568 -0.2041 -0.1708  0.0565
 5926SOL    HW129414   2.869   3.176   4.650 -2.4024 -0.8845  1.3712
 5926SOL    HW229415   2.883   3.194   4.498  0.4263  1.5794  1.0572
 5927SOL     OW29416   0.676   0.914  13.923  0.3754 -0.0138  0.2952
 5927SOL    HW129417   0.666   0.824  13.953  0.2197 -0.5170 -1.2564
 5927SOL    HW229418   0.601   0.954  13.967 -0.4301 -2.4210  1.1332
 5928SOL     OW29419   3.626   3.039   8.057  0.3858  0.0098 -0.2778
 5928SOL    HW129420   3.585   3.018   7.973 -1.1927 -3.8080  1.4836
 5928SOL    HW229421   3.718   3.015   8.046  0.1364 -0.3004 -1.6947
 5929SOL     OW29422   0.177   2.890   2.130  0.0305  0.6808 -0.0888
 5929SOL    HW129423   0.251   2.943   2.160  1.1390 -2.0199  1.9141
 5929SOL    HW229424   0.191   2.886   2.036 -2.1775 -1.8437 -0.3012
 5930SOL     OW29425   0.057   3.290   7.327 -0.5401 -0.3114  0.6935
 5930SOL    HW129426   0.147   3.296   7.359  0.3170 -1.5091 -1.5444
 5930SOL    HW229427   0.050   3.378   7.291  0.9355  0.1210  1.4534
 5931SOL     OW29428   2.398   0.146  14.931 -0.0964 -0.3592 -0.4505
 5931SOL    HW129429   2.309   0.127  14.901  0.3199 -0.2680 -1.7178
 5931SOL    HW229430   2.428   0.207  14.863  0.3461 -0.5437 -0.4163
 5932SOL     OW29431   0.146   1.245  17.458  0.3099 -0.0861  0.1929
 5932SOL    HW129432   0.172   1.156  17.484  0.6024  0.4289  1.6476
 5932SOL    HW229433   0.125   1.241  17.365  1.3448 -0.7290 -0.0275
 5933SOL     OW29434   1.382   1.129   2.027  0.4794 -0.1398 -0.1121
 5933SOL    HW129435   1.355   1.197   1.966 -1.2313  1.6742  2.6716
 5933SOL    HW229436   1.359   1.053   1.974  0.5862 -0.1913 -0.0865
 5934SOL     OW29437   0.665   1.686   5.121 -0.2054 -0.2643  1.0824
 5934SOL    HW129438   0.634   1.652   5.205  1.7167 -0.0848  1.8589
 5934SOL    HW229439   0.754   1.715   5.142 -0.5446  0.3345  1.7004
 5935SOL     OW29440   1.565   1.219   9.484 -0.0843 -0.2859 -0.0676
 5935SOL    HW129441   1.614   1.138   9.503 -1.0451 -1.0797 -0.9811
 5935SOL    HW229442   1.600   1.254   9.402 -0.4181 -2.5756 -1.1997
 5936SOL     OW29443   2.821   1.603   4.648 -0.3358  0.2547  0.0850
 5936SOL    HW129444   2.784   1.582   4.563  0.5832 -0.8802 -0.0385
 5936SOL    HW229445   2.901   1.650   4.624  1.0534 -1.2641  1.7516
 5937SOL     OW29446   2.093   1.855   2.010  0.4061 -0.4908  0.0127
 5937SOL    HW129447   2.129   1.769   1.991  1.8029  0.1781 -0.3159
 5937SOL    HW229448   2.003   1.847   1.978  0.1103 -1.3288  1.0662
 5938SOL     OW29449   0.098   3.215  13.020  0.3825  0.4600  0.0825
 5938SOL    HW129450   0.132   3.292  13.065  0.2053  1.3301 -1.2770
 5938SOL    HW229451   0.181   3.169  13.016  0.0366 -0.0991 -0.6839
 5939SOL     OW29452   4.558   1.747   0.161 -0.0517  0.0458 -0.4075
 5939SOL    HW129453   4.473   1.787   0.144  0.1094 -0.6762 -2.8881
 5939SOL    HW229454   4.584   1.792   0.242 -0.3723 -0.0020 -0.2785
 5940SOL     OW29455   2.617   3.594   3.208  0.5629  0.1685  0.0590
 5940SOL    HW129456   2.695   3.647   3.218 -0.5657  2.1788 -1.8879
 5940SOL    HW229457   2.568   3.626   3.283  0.5685  0.7294 -0.1747
 5941SOL     OW29458   3.953   1.420   7.652  0.3965 -0.1618 -0.1729
 5941SOL    HW129459   3.982   1.441   7.740 -0.6409 -0.9465  0.3588
 5941SOL    HW229460   3.965   1.325   7.650 -0.8912 -0.3553  1.3082
 5942SOL     OW29461   2.311   3.485   4.535  0.1530  0.2404 -0.2224
 5942SOL    HW129462   2.267   3.570   4.547 -2.0595 -0.9608  0.2997
 5942SOL    HW229463   2.376   3.513   4.472 -0.3386 -2.5047 -1.9476
 5943SOL     OW29464   3.677   1.901  16.030  0.2288  0.4012 -0.1442
 5943SOL    HW129465   3.584   1.922  16.032  0.3477  0.6199  2.7075
 5943SOL    HW229466   3.684   1.851  16.111  1.2892  1.4749  0.4246
 5944SOL     OW29467   1.859   0.811  16.110 -0.5904 -0.1803 -0.2717
 5944SOL    HW129468   1.791   0.810  16.176  0.8530 -2.1139  1.1869
 5944SOL    HW229469   1.845   0.729  16.062 -3.6157  0.3859 -0.3192
 5945SOL     OW29470   1.742   2.241   0.082  0.7864 -0.4499  0.1206
 5945SOL    HW129471   1.831   2.271   0.100 -0.3284  2.1616  1.3173
 5945SOL    HW229472   1.693   2.316   0.116 -1.2028 -1.4167 -0.5555
 5946SOL     OW29473   3.814   0.579   7.484  0.5023 -0.1644  0.1668
 5946SOL    HW129474   3.775   0.566   7.571 -0.7386  2.0828 -0.0527
 5946SOL    HW229475   3.898   0.621   7.503 -0.1351 -0.6521  4.0634
 5947SOL     OW29476   3.288   1.832   8.204  0.1423 -0.0754 -0.0574
 5947SOL    HW129477   3.324   1.778   8.133  0.4836  1.0504 -0.7340
 5947SOL    HW229478   3.202   1.792   8.218 -0.3498  0.5942 -1.1764
 5948SOL     OW29479   0.091   0.569   7.191 -0.3922 -0.1938 -0.4352
 5948SOL    HW129480   0.167   0.512   7.195 -1.7887 -2.0199  0.4835
 5948SOL    HW229481   0.099   0.618   7.273  1.2211  0.5339 -1.0400
 5949SOL     OW29482   0.027   3.872   2.121  0.1392  0.2468  0.0065
 5949SOL    HW129483   0.002   3.964   2.120  0.6675  0.3763 -1.9195
 5949SOL    HW229484   4.693   3.826   2.078  0.9268 -1.6283  0.7167
 5950SOL     OW29485   0.715   4.356   3.540 -0.4195 -0.4311 -0.2456
 5950SOL    HW129486   0.683   4.438   3.502  1.4181  1.0386  1.3651
 5950SOL    HW229487   0.807   4.383   3.539 -0.2175 -1.2482 -3.7384
 5951SOL     OW29488   4.240   2.407   5.738  0.0685  0.5655 -0.2433
 5951SOL    HW129489   4.319   2.354   5.730 -0.5435 -0.3489 -0.2398
 5951SOL    HW229490   4.237   2.424   5.833 -0.6306 -0.3996 -0.0831
 5952SOL     OW29491   0.150   2.760  17.389  0.6446 -0.2821  0.1682
 5952SOL    HW129492   0.243   2.772  17.373  0.4832 -0.9157 -1.3057
 5952SOL    HW229493   0.139   2.701  17.314 -1.6372  0.9872 -0.5280
 5953SOL     OW29494   4.018   1.712   4.501 -0.0403 -0.0481  0.8188
 5953SOL    HW129495   3.947   1.670   4.549  0.4809  0.1839  1.8027
 5953SOL    HW229496   4.090   1.651   4.520  0.7082  0.8092  0.7712
 5954SOL     OW29497   0.608   4.702   4.567 -0.1099  0.1011  0.2247
 5954SOL    HW129498   0.671   4.695   4.495  1.6673  1.2721  1.6574
 5954SOL    HW229499   0.529   4.706   4.514  0.5686 -0.5877 -0.8402
 5955SOL     OW29500   2.028   3.918   4.644 -0.6395  0.3493 -0.6602
 5955SOL    HW129501   1.996   3.950   4.560  1.7183 -2.6764 -2.6838
 5955SOL    HW229502   2.102   3.977   4.653 -0.2826 -0.5303  2.5466
 5956SOL     OW29503   0.876   0.331   3.632  0.3450 -0.4334  0.1276
 5956SOL    HW129504   0.963   0.292   3.635 -0.7029 -2.5345  3.0417
 5956SOL    HW229505   0.879   0.360   3.723 -4.2045 -0.9064  0.4644
 5957SOL     OW29506   3.003   0.003   8.654 -0.2637  0.7117 -0.0321
 5957SOL    HW129507   3.037   4.657   8.622  0.2150  0.4396  1.1971
 5957SOL    HW229508   3.003   4.724   8.748 -2.1048 -0.2050 -0.2052
 5958SOL     OW29509   4.097   2.959  10.546  0.5945 -0.2201  0.2879
 5958SOL    HW129510   4.048   2.878  10.558 -0.8732  0.8695  1.5428
 5958SOL    HW229511   4.032   3.018  10.508  0.9172  0.4271  0.7523
 5959SOL     OW29512   0.747   3.164   5.074 -0.4771  0.4935  0.2065
 5959SOL    HW129513   0.680   3.226   5.105 -2.0043 -0.6043 -0.8931
 5959SOL    HW229514   0.823   3.222   5.071 -0.0378 -0.1974 -1.8643
 5960SOL     OW29515   2.331   0.980   4.374  0.7473 -1.0649  0.0683
 5960SOL    HW129516   2.353   1.029   4.294 -1.4843  1.5932  1.0958
 5960SOL    HW229517   2.255   0.930   4.343 -0.6589  3.0117 -3.1377
 5961SOL     OW29518   4.107   3.877   0.146  0.4233  0.3572 -0.1060
 5961SOL    HW129519   4.133   3.959   0.189 -0.7649  0.6911 -0.0251
 5961SOL    HW229520   4.059   3.831   0.214  0.9421 -1.8428 -1.2337
 5962SOL     OW29521   1.083   1.567   3.201 -0.3432  0.4670 -0.3785
 5962SOL    HW129522   1.055   1.483   3.165  0.6479 -0.5534  1.2726
 5962SOL    HW229523   1.021   1.590   3.271 -2.3993 -0.1301 -1.9866
 5963SOL     OW29524   2.058   2.535   5.938  0.2687  0.1221 -0.3113
 5963SOL    HW129525   2.035   2.591   6.012  0.7844 -0.1172  0.0231
 5963SOL    HW229526   2.153   2.537   5.927  0.3699  0.3788  0.6244
 5964SOL     OW29527   3.123   1.677   4.841 -0.0700  0.2591 -0.6872
 5964SOL    HW129528   3.175   1.736   4.896  1.1923  0.6820 -2.3256
 5964SOL    HW229529   3.080   1.740   4.784 -0.3868  2.4291  1.9524
 5965SOL     OW29530   0.337   0.315   5.077 -0.2960 -0.5294  0.0933
 5965SOL    HW129531   0.373   0.228   5.092 -0.1606 -0.6750 -1.0660
 5965SOL    HW229532   0.249   0.289   5.051 -0.1311  0.1397 -1.1505
 5966SOL     OW29533   0.323   4.019   3.685  0.3759  0.0567 -0.4787
 5966SOL    HW129534   0.371   4.096   3.717  0.4299 -1.2211  2.5376
 5966SOL    HW229535   0.299   3.986   3.772 -2.0371 -0.4915 -1.3637
 5967SOL     OW29536   0.564   1.515   6.911 -0.6106 -0.4665  0.1021
 5967SOL    HW129537   0.531   1.478   6.992  4.0408  0.0649  2.2487
 5967SOL    HW229538   0.624   1.446   6.883 -1.6336 -0.9812 -0.8272
 5968SOL     OW29539   0.050   3.607   4.667 -0.1921 -0.1704  0.2583
 5968SOL    HW129540   4.700   3.616   4.702  0.3851 -0.5252  1.8012
 5968SOL    HW229541   0.023   3.560   4.588 -1.5526  0.3374  0.4237
 5969SOL     OW29542   0.329   0.129  13.711  0.3603  0.0224 -0.0773
 5969SOL    HW129543   0.367   0.151  13.796  2.8199 -1.3541 -0.8234
 5969SOL    HW229544   0.401   0.157  13.655  0.4570 -0.6671 -0.2928
 5970SOL     OW29545   2.319   0.474   4.250  0.0331 -0.3499 -0.2915
 5970SOL    HW129546   2.278   0.491   4.335  1.4856 -1.8985  0.6962
 5970SOL    HW229547   2.382   0.546   4.246  1.0090 -1.2349 -0.8905
 5971SOL     OW29548   1.184   1.291   4.625  0.3973 -0.3465 -0.1849
 5971SOL    HW129549   1.186   1.199   4.651 -0.5520 -0.5247 -0.7471
 5971SOL    HW229550   1.103   1.311   4.578  0.1170  2.2768  1.4639
 5972SOL     OW29551   0.249   0.957  12.919  0.2872  0.0700  0.3465
 5972SOL    HW129552   0.308   0.923  12.987 -1.9523 -1.0224  1.7636
 5972SOL    HW229553   0.225   0.880  12.867 -0.5010 -0.6130  1.7031
 5973SOL     OW29554   3.510   3.799  12.573  0.1420  0.0606  0.2102
 5973SOL    HW129555   3.585   3.846  12.608  1.2730 -0.3672 -1.6495
 5973SOL    HW229556   3.439   3.843  12.619 -2.1176 -2.7128 -0.5912
 5974SOL     OW29557   3.843   3.543   5.254 -0.3583 -0.0269  0.3985
 5974SOL    HW129558   3.764   3.535   5.307 -0.7737 -0.2191 -0.2443
 5974SOL    HW229559   3.855   3.449   5.237 -1.3258 -0.6659  3.3328
 5975SOL     OW29560   0.521   2.989   8.764 -0.1795 -0.0183  0.2790
 5975SOL    HW129561   0.614   2.987   8.742 -0.5339 -2.8426 -0.9872
 5975SOL    HW229562   0.512   2.901   8.799  1.3316 -0.6418 -0.9168
 5976SOL     OW29563   2.177   0.741   1.206 -0.0431  0.1325  0.2055
 5976SOL    HW129564   2.131   0.822   1.183  2.2512  0.9194 -1.5239
 5976SOL    HW229565   2.114   0.707   1.269 -0.8605 -1.8771 -1.6916
 5977SOL     OW29566   0.351   3.401   3.126 -0.2901 -0.3955  0.3201
 5977SOL    HW129567   0.369   3.327   3.068 -0.1656  0.6660 -0.9895
 5977SOL    HW229568   0.259   3.416   3.107 -0.1032  1.6391  1.0246
 5978SOL     OW29569   4.264   1.229   1.973  0.1936 -0.0270  0.3392
 5978SOL    HW129570   4.178   1.269   1.958 -0.4771 -2.1467 -1.4798
 5978SOL    HW229571   4.296   1.276   2.051 -0.4738 -0.5278  0.9175
 5979SOL     OW29572   4.301   4.620   5.241  0.5347  0.3258 -0.0944
 5979SOL    HW129573   4.372   4.575   5.287 -0.4983  0.3087  1.4922
 5979SOL    HW229574   4.261   4.664   5.315 -0.8309 -2.9717  1.1592
 5980SOL     OW29575   4.044   0.143   1.998  0.4029  0.3067 -0.4048
 5980SOL    HW129576   4.081   0.184   2.076 -0.7532 -0.8877  0.7747
 5980SOL    HW229577   4.075   0.053   2.009 -0.3113  0.0630 -0.3452
 5981SOL     OW29578   1.187   3.075   5.938  0.0574 -0.2528 -0.1422
 5981SOL    HW129579   1.165   2.988   5.973 -2.2342  0.0649 -0.8018
 5981SOL    HW229580   1.282   3.064   5.933 -0.0582 -0.5398 -1.5486
 5982SOL     OW29581   0.953   1.409   2.873  0.5267 -0.2934 -0.6202
 5982SOL    HW129582   0.989   1.323   2.892  1.7281  0.3068 -0.1744
 5982SOL    HW229583   1.019   1.463   2.917  2.1895 -3.0066  0.2103
 5983SOL     OW29584   2.042   3.979   7.115  0.1427 -0.1935  0.7235
 5983SOL    HW129585   2.013   4.011   7.200 -2.0667  1.0777 -0.4915
 5983SOL    HW229586   2.090   4.058   7.090 -2.4708  1.6618  1.6228
 5984SOL     OW29587   0.605   4.238   9.492 -0.5503  0.0160  0.6833
 5984SOL    HW129588   0.676   4.302   9.484 -1.1576  0.6242  0.1914
 5984SOL    HW229589   0.653   4.168   9.535 -1.5239 -1.0793 -0.0387
 5985SOL     OW29590   4.576   0.025   2.488 -0.4073  0.7112 -0.0255
 5985SOL    HW129591   4.500   0.047   2.434 -0.4425  0.0753 -0.2380
 5985SOL    HW229592   4.581   0.105   2.540  0.3185  1.0242 -0.5756
 5986SOL     OW29593   0.578   2.102   5.822 -0.4142  0.7915 -0.1593
 5986SOL    HW129594   0.649   2.154   5.861 -1.6048  1.2795  1.3540
 5986SOL    HW229595   0.564   2.049   5.900  0.5379 -0.4597 -0.8461
 5987SOL     OW29596   4.433   3.432   1.836 -0.2008  0.2963 -0.3465
 5987SOL    HW129597   4.482   3.465   1.911  0.1639 -1.0833  0.0029
 5987SOL    HW229598   4.354   3.484   1.851 -0.6801 -0.3769 -0.5452
 5988SOL     OW29599   1.304   0.076  14.423  0.3607 -0.0428  0.1101
 5988SOL    HW129600   1.382   0.022  14.408 -0.1311 -0.8047  0.2751
 5988SOL    HW229601   1.298   0.137  14.349 -3.8667 -0.3623  0.1979
 5989SOL     OW29602   4.618   2.493   6.253  0.0178 -0.1741 -0.0176
 5989SOL    HW129603   4.602   2.425   6.187 -0.8866 -0.1524  0.1813
 5989SOL    HW229604   4.534   2.533   6.272 -0.9040 -0.8558 -2.6251
 5990SOL     OW29605   2.511   2.948   1.594  0.5742  0.1082  0.1958
 5990SOL    HW129606   2.444   2.997   1.548  0.9089  0.6223  0.2444
 5990SOL    HW229607   2.569   3.023   1.609 -0.9234  0.9406  1.9134
 5991SOL     OW29608   1.585   2.838   1.495 -0.0538 -0.0719 -0.4775
 5991SOL    HW129609   1.584   2.889   1.414  1.5870 -1.1027 -1.1425
 5991SOL    HW229610   1.556   2.894   1.567  0.6926  0.5961 -0.7071
 5992SOL     OW29611   1.060   3.981   4.672  0.0577 -0.1276 -0.0095
 5992SOL    HW129612   1.001   4.033   4.726  0.9309  0.3130  0.5192
 5992SOL    HW229613   0.998   3.991   4.600 -0.2234  2.6011  0.5913
 5993SOL     OW29614   1.183   4.112   2.130 -0.2175  0.6166  0.2191
 5993SOL    HW129615   1.230   4.029   2.120 -1.3287  0.0030  0.0999
 5993SOL    HW229616   1.207   4.151   2.046 -0.7844  1.4643  0.4524
 5994SOL     OW29617   2.509   2.216   1.298 -0.0286 -0.6107  0.0828
 5994SOL    HW129618   2.527   2.248   1.386 -2.8752  0.5399  0.2231
 5994SOL    HW229619   2.594   2.175   1.280  1.0825  2.5935 -1.9295
 5995SOL     OW29620   4.410   1.989  14.166  0.1359 -0.1399  0.0620
 5995SOL    HW129621   4.367   1.928  14.106 -0.3527  1.5655 -1.3203
 5995SOL    HW229622   4.439   1.932  14.237 -1.6557 -0.6955  0.3480
 5996SOL     OW29623   3.629   4.593   7.195 -0.4101 -0.0350  0.1929
 5996SOL    HW129624   3.649   4.575   7.287 -2.0266  2.9191  1.1293
 5996SOL    HW229625   3.713   4.587   7.149  0.2550  0.2747  1.3750
 5997SOL     OW29626   4.584   3.162  15.049 -0.7420 -0.0862  0.0905
 5997SOL    HW129627   4.665   3.154  14.997 -0.7975  0.5524 -0.0965
 5997SOL    HW229628   4.532   3.231  15.008 -0.0757  0.0460 -0.5417
 5998SOL     OW29629   1.384   4.320  11.247 -0.4941  0.4546  0.4436
 5998SOL    HW129630   1.361   4.238  11.204 -0.4065  1.4521 -1.5267
 5998SOL    HW229631   1.364   4.299  11.338  1.4221 -3.8161 -0.1568
 5999SOL     OW29632   0.332   3.521   7.870  0.3907  0.9316 -0.1167
 5999SOL    HW129633   0.296   3.610   7.870  0.8209  1.0988 -1.2965
 5999SOL    HW229634   0.328   3.501   7.963  0.0576  1.2449 -0.0610
 6000SOL     OW29635   0.094   3.034   7.962  0.1147 -0.0003  0.1257
 6000SOL    HW129636   4.737   3.049   7.961  0.4764  2.3115  1.0357
 6000SOL    HW229637   0.104   3.016   7.869 -1.5877 -1.5527  0.2301
 6001SOL     OW29638   2.537   0.885   8.841 -0.3302 -0.1772  0.2918
 6001SOL    HW129639   2.550   0.795   8.872  0.8166 -0.1482 -0.0766
 6001SOL    HW229640   2.533   0.880   8.746 -0.7919  1.3943  0.2366
 6002SOL     OW29641   0.829   2.382   4.325 -0.4538  0.1434  0.4728
 6002SOL    HW129642   0.781   2.438   4.264 -0.7525 -0.2054  0.3814
 6002SOL    HW229643   0.896   2.363   4.260 -1.6760 -0.7556 -0.5254
 6003SOL     OW29644   1.933   0.244   5.212  0.2808  0.7922  0.3220
 6003SOL    HW129645   1.956   0.179   5.278  0.5343  0.7137  0.1553
 6003SOL    HW229646   1.856   0.285   5.253 -2.0707 -1.7604 -1.5451
 6004SOL     OW29647   4.570   2.367   2.737 -0.0030 -0.0481 -0.5301
 6004SOL    HW129648   4.491   2.358   2.791  0.3847 -0.1277  0.0208
 6004SOL    HW229649   4.537   2.393   2.650 -2.5635  2.5998  1.2254
 6005SOL     OW29650   2.520   2.469   5.494 -0.2903 -0.9090 -0.2253
 6005SOL    HW129651   2.595   2.414   5.514  0.5009  0.2331 -0.0611
 6005SOL    HW229652   2.478   2.398   5.445 -1.7144  1.0792 -1.8736
 6006SOL     OW29653   0.265   0.998   4.556 -0.0034 -0.0783  0.0182
 6006SOL    HW129654   0.267   0.978   4.650  1.6436 -0.0347 -0.0071
 6006SOL    HW229655   0.356   0.973   4.542  0.2666  1.4831 -0.9788
 6007SOL     OW29656   0.397   0.776   5.402  0.6959  0.5261  0.4157
 6007SOL    HW129657   0.414   0.817   5.317 -0.5209  1.2136  0.4925
 6007SOL    HW229658   0.478   0.729   5.423  0.0704 -1.5466 -1.7614
 6008SOL     OW29659   0.552   2.223   6.440  0.3644 -0.1445  0.0962
 6008SOL    HW129660   0.461   2.226   6.413  0.2518  0.8309  0.6136
 6008SOL    HW229661   0.583   2.145   6.393  1.2520  0.6731 -0.6708
 6009SOL     OW29662   1.238   4.248  15.215 -0.4657 -0.1211  0.1609
 6009SOL    HW129663   1.291   4.273  15.140 -0.7298 -0.4077 -0.1240
 6009SOL    HW229664   1.149   4.260  15.180 -0.5066 -1.5374 -0.2223
 6010SOL     OW29665   0.426   3.127  11.959  0.3341  0.1454 -0.0373
 6010SOL    HW129666   0.345   3.143  11.910  0.3708 -1.1151 -0.4904
 6010SOL    HW229667   0.418   3.034  11.977  0.0159  0.1849  0.0413
 6011SOL     OW29668   4.589   4.044   8.086 -0.0610 -0.5282  0.1981
 6011SOL    HW129669   4.561   4.021   7.997 -0.0239 -0.5896  0.2022
 6011SOL    HW229670   4.570   3.963   8.133 -2.1115  1.0521  2.0975
 6012SOL     OW29671   3.301   0.521   4.708 -0.1140  0.4294  0.2755
 6012SOL    HW129672   3.286   0.478   4.624 -2.2370 -1.9192  1.8608
 6012SOL    HW229673   3.353   0.460   4.761  1.3700 -1.1497 -2.9972
 6013SOL     OW29674   0.844   0.919  12.655 -0.0261  0.1206  0.3657
 6013SOL    HW129675   0.808   0.967  12.729  0.0939  1.6504 -0.5741
 6013SOL    HW229676   0.915   0.879  12.705  1.9306  1.7150 -1.1942
 6014SOL     OW29677   3.227   0.865   8.590 -0.4057  0.6221  0.5463
 6014SOL    HW129678   3.212   0.791   8.650  1.2286 -0.9936 -1.0396
 6014SOL    HW229679   3.277   0.824   8.520  1.3048  0.4690  1.8627
 6015SOL     OW29680   1.542   4.393  15.415 -0.2603 -0.1482  0.1935
 6015SOL    HW129681   1.611   4.400  15.480  0.0850 -0.5374 -0.1311
 6015SOL    HW229682   1.545   4.298  15.399 -1.6525 -0.1755  0.0392
 6016SOL     OW29683   3.883   1.777   7.892  0.0364  0.0341  0.6819
 6016SOL    HW129684   3.852   1.835   7.962 -1.3773  1.3855 -1.0892
 6016SOL    HW229685   3.851   1.689   7.915  2.8011 -1.5861 -1.6549
 6017SOL     OW29686   3.448   3.956   2.608 -0.2174  0.6454  0.0002
 6017SOL    HW129687   3.494   3.982   2.528 -0.3353  2.3614  0.5007
 6017SOL    HW229688   3.497   3.999   2.678 -1.3961  0.7995  0.7175
 6018SOL     OW29689   0.870   0.438   5.386  0.2211 -0.3748 -0.3844
 6018SOL    HW129690   0.938   0.481   5.333  0.7068 -0.8040 -0.1063
 6018SOL    HW229691   0.924   0.391   5.450  1.4747 -0.5599 -1.5730
 6019SOL     OW29692   3.779   3.201   2.625  0.1941 -0.2035 -0.2188
 6019SOL    HW129693   3.867   3.187   2.589 -1.0738 -2.0511 -2.6130
 6019SOL    HW229694   3.783   3.139   2.698  2.6567 -1.4795 -1.4341
 6020SOL     OW29695   2.668   0.803   7.204 -0.3720  0.1853 -0.0752
 6020SOL    HW129696   2.735   0.870   7.220  0.7724 -0.4635 -2.1816
 6020SOL    HW229697   2.586   0.846   7.228 -1.0782 -3.1009  3.4515
 6021SOL     OW29698   2.417   0.910   9.429 -0.1269  0.0930  0.1408
 6021SOL    HW129699   2.497   0.917   9.481 -0.5273 -2.0512  1.0350
 6021SOL    HW229700   2.349   0.943   9.487  0.9051  0.8875  0.8897
 6022SOL     OW29701   0.203   4.563  11.770 -0.2155 -0.3691  0.8096
 6022SOL    HW129702   0.176   4.491  11.713  0.2006  0.3606 -0.3022
 6022SOL    HW229703   0.185   4.524  11.855  0.2105  0.7117  1.3875
 6023SOL     OW29704   4.722   0.934   3.596  0.4635 -0.2665  0.2862
 6023SOL    HW129705   0.041   0.991   3.545  0.4295 -0.0222  0.5199
 6023SOL    HW229706   4.689   0.991   3.666 -0.4880  0.4948 -0.7878
 6024SOL     OW29707   0.056   1.423  16.851  0.4448  0.0469  0.0231
 6024SOL    HW129708   0.053   1.508  16.809 -1.2444  0.4145  0.8781
 6024SOL    HW229709   0.078   1.447  16.941  1.6048  1.8072 -0.7347
 6025SOL     OW29710   3.558   0.049   7.647 -0.2714  0.1642 -0.2879
 6025SOL    HW129711   3.509   0.071   7.727  2.0564  1.3030  0.8180
 6025SOL    HW229712   3.574   0.137   7.613  1.8157 -0.6030 -1.2816
 6026SOL     OW29713   2.385   2.988  16.527 -0.3722  0.1305 -0.4263
 6026SOL    HW129714   2.455   2.964  16.589 -1.1499  0.4731  0.5873
 6026SOL    HW229715   2.306   2.939  16.551 -0.2295  0.4029  0.5919
 6027SOL     OW29716   4.694   0.581  11.059 -0.0779  0.2809 -0.2113
 6027SOL    HW129717   0.046   0.608  11.074 -0.1467  1.2613 -1.5024
 6027SOL    HW229718   4.651   0.659  11.023  3.0952  1.0323 -2.4036
 6028SOL     OW29719   2.653   4.037  13.193 -0.0369  0.3607 -0.4772
 6028SOL    HW129720   2.590   3.979  13.149  1.0602 -1.2434  0.0599
 6028SOL    HW229721   2.719   4.042  13.124 -0.7545 -1.3787 -1.2996
 6029SOL     OW29722   3.979   2.151   2.673 -0.0875 -0.1311 -0.0263
 6029SOL    HW129723   3.920   2.114   2.740 -0.2624  0.2809  0.0447
 6029SOL    HW229724   3.918   2.215   2.637  1.2424  0.9649 -0.3270
 6030SOL     OW29725   1.341   1.322   5.893 -0.2408 -0.0606 -0.1693
 6030SOL    HW129726   1.375   1.246   5.844  0.6390 -1.7162  3.0157
 6030SOL    HW229727   1.422   1.366   5.919  0.2326 -0.1507 -1.4597
 6031SOL     OW29728   0.773   0.620   6.769 -0.1686  0.0782  0.4189
 6031SOL    HW129729   0.692   0.588   6.729  1.1154  0.9724 -2.8982
 6031SOL    HW229730   0.754   0.711   6.787  0.3850  0.6417 -1.7921
 6032SOL     OW29731   4.664   2.110   6.681  0.3729 -0.2241 -0.0683
 6032SOL    HW129732   4.709   2.194   6.669  1.2951 -1.0489 -2.2162
 6032SOL    HW229733   4.597   2.153   6.734  0.4714 -0.2190  0.0543
 6033SOL     OW29734   0.480   2.012   3.043  0.0623 -0.1641 -0.3219
 6033SOL    HW129735   0.439   1.931   3.075 -2.4005  0.6192 -1.5332
 6033SOL    HW229736   0.416   2.070   3.084  0.4859  0.1270 -0.0686
 6034SOL     OW29737   2.442   1.638  15.193  0.0014  0.3298  0.0702
 6034SOL    HW129738   2.527   1.600  15.214  0.1239  1.0150  0.8570
 6034SOL    HW229739   2.414   1.630  15.285  2.8443 -1.2262  0.7953
 6035SOL     OW29740   1.675   1.633  11.784  0.5041  0.3285 -1.0782
 6035SOL    HW129741   1.726   1.555  11.763 -0.4334 -0.7449  0.6577
 6035SOL    HW229742   1.682   1.687  11.705 -1.6568  1.5237 -0.4460
 6036SOL     OW29743   0.221   1.533   8.416  0.4921 -0.4135  0.2217
 6036SOL    HW129744   0.188   1.487   8.339 -0.5759  0.1084  0.3668
 6036SOL    HW229745   0.163   1.609   8.415  0.4444 -0.4891 -1.8950
 6037SOL     OW29746   2.261   2.492   3.222  0.1531  0.7107  0.3727
 6037SOL    HW129747   2.196   2.476   3.154  0.7601  0.9660 -0.2610
 6037SOL    HW229748   2.341   2.456   3.184  0.3706 -0.0037  1.4909
 6038SOL     OW29749   1.394   3.856  13.948 -0.0102  0.1650  0.0926
 6038SOL    HW129750   1.388   3.815  13.861 -2.7420 -0.1497  0.4409
 6038SOL    HW229751   1.305   3.861  13.982  0.4079  0.1286  1.1922
 6039SOL     OW29752   1.666   2.517   8.064  0.0903 -0.3336  0.4314
 6039SOL    HW129753   1.584   2.552   8.100  0.0514  0.7509 -0.7267
 6039SOL    HW229754   1.730   2.511   8.134 -1.1761 -2.7496  1.3987
 6040SOL     OW29755   1.195   3.639   2.909 -0.5438 -0.1217 -0.1353
 6040SOL    HW129756   1.228   3.697   2.840  0.2860  0.9780  1.1817
 6040SOL    HW229757   1.100   3.648   2.899 -0.4674 -1.2986 -1.8317
 6041SOL     OW29758   3.403   3.879   8.009  0.0642  0.5703  0.0622
 6041SOL    HW129759   3.382   3.801   8.061 -1.0860  1.6612  1.2276
 6041SOL    HW229760   3.486   3.914   8.041 -0.9776  3.2131 -0.1380
 6042SOL     OW29761   4.492   0.193  11.541  0.0460 -0.0878  0.3446
 6042SOL    HW129762   4.462   0.120  11.487 -0.2766  0.5501 -0.3464
 6042SOL    HW229763   4.440   0.268  11.511 -0.9933 -1.2244 -0.6743
 6043SOL     OW29764   0.862   2.372   3.665 -0.6238  0.0486  0.4066
 6043SOL    HW129765   0.816   2.411   3.590  0.1135 -0.6474 -0.4041
 6043SOL    HW229766   0.932   2.436   3.682 -1.7066  2.2160 -3.1763
 6044SOL     OW29767   3.987   3.511   8.805  0.7252 -0.0367  0.3371
 6044SOL    HW129768   4.041   3.589   8.810  0.0430  0.4318  0.4237
 6044SOL    HW229769   3.912   3.549   8.851  0.6617  0.1669  0.0608
 6045SOL     OW29770   1.307   1.275   4.309  0.1438 -0.1148  0.4603
 6045SOL    HW129771   1.319   1.274   4.214  0.0109  1.7566  0.4194
 6045SOL    HW229772   1.241   1.205   4.314  0.0559  0.0026  0.9288
 6046SOL     OW29773   4.216   0.283   2.504  0.0059 -0.5349 -0.2552
 6046SOL    HW129774   4.142   0.241   2.549  1.0395 -0.2677  1.6749
 6046SOL    HW229775   4.216   0.362   2.558 -2.4183 -0.8643  0.2213
 6047SOL     OW29776   1.328   4.675   2.353 -0.2607  0.1341 -0.1580
 6047SOL    HW129777   1.291   4.588   2.339  1.7096 -0.1258 -3.7752
 6047SOL    HW229778   1.327   4.708   2.264 -1.2100 -0.6052 -0.4202
 6048SOL     OW29779   0.083   1.130  13.562 -0.3273 -0.0168  0.2934
 6048SOL    HW129780   0.176   1.143  13.577  0.0355 -0.5895 -1.5415
 6048SOL    HW229781   0.079   1.036  13.545 -2.2682  1.0840 -5.3528
 6049SOL     OW29782   3.939   2.855   8.856  0.0074  0.1110 -0.0497
 6049SOL    HW129783   3.847   2.847   8.879 -0.2298  0.4904 -0.8677
 6049SOL    HW229784   3.997   2.848   8.932 -1.6231 -1.8632  1.0229
 6050SOL     OW29785   2.120   1.579   8.098  0.9142 -0.1325 -0.0554
 6050SOL    HW129786   2.208   1.592   8.061  1.2695  2.2615  1.6447
 6050SOL    HW229787   2.118   1.654   8.158  0.3378 -0.6001  0.5093
 6051SOL     OW29788   4.594   3.424   2.328  0.4169  0.4659 -0.3266
 6051SOL    HW129789   4.642   3.341   2.325  1.4618  0.9989  1.2783
 6051SOL    HW229790   4.525   3.409   2.263 -0.5997 -0.6495  1.0005
 6052SOL     OW29791   1.793   1.580   6.630 -0.0818  0.1488 -0.4958
 6052SOL    HW129792   1.881   1.542   6.629  0.2898  1.0170 -0.6875
 6052SOL    HW229793   1.794   1.610   6.721  0.0733 -1.7713  0.1253
 6053SOL     OW29794   3.963   4.311  10.230 -0.3371 -0.9189 -0.1618
 6053SOL    HW129795   4.046   4.270  10.251  0.7279  0.1357 -2.2781
 6053SOL    HW229796   3.978   4.392  10.279  0.8634 -0.5780 -1.0800
 6054SOL     OW29797   4.385   0.428  14.363  0.4631 -0.0969 -0.2865
 6054SOL    HW129798   4.463   0.481  14.381 -0.1976  0.5103  0.7501
 6054SOL    HW229799   4.327   0.504  14.361 -0.0313 -0.4592  0.3584
 6055SOL     OW29800   2.942   0.733   2.337  0.0345 -0.3836  0.0970
 6055SOL    HW129801   2.953   0.734   2.242 -1.3695 -1.7632 -0.0856
 6055SOL    HW229802   2.871   0.669   2.344  0.0412 -0.4723 -0.6539
 6056SOL     OW29803   1.774   2.050   1.755  0.2686  0.7654  0.8587
 6056SOL    HW129804   1.797   2.014   1.841  0.8423  0.0435  0.4119
 6056SOL    HW229805   1.794   1.975   1.699 -2.0312 -0.0128  1.0720
 6057SOL     OW29806   4.347   0.022   5.019  0.4528 -0.2454  0.5579
 6057SOL    HW129807   4.389   4.694   4.963 -0.7896 -0.8206  0.3107
 6057SOL    HW229808   4.337   4.707   5.099  0.7084  1.7790  1.9248
 6058SOL     OW29809   1.859   1.723  11.214 -0.2762 -0.4458 -0.6380
 6058SOL    HW129810   1.829   1.736  11.124 -0.1026  0.2394 -0.5890
 6058SOL    HW229811   1.791   1.661  11.244 -1.8836  1.0933 -1.1072
 6059SOL     OW29812   1.565   2.260   2.478  0.1308 -0.4099 -0.0442
 6059SOL    HW129813   1.532   2.187   2.427  0.1969  1.1440 -2.3076
 6059SOL    HW229814   1.581   2.220   2.563 -0.2051  1.5896  0.9563
 6060SOL     OW29815   3.147   0.480   2.982  0.6047 -0.5397  0.1492
 6060SOL    HW129816   3.169   0.444   2.896 -1.6759  0.0525 -0.6942
 6060SOL    HW229817   3.215   0.430   3.027  1.5908  1.3626  0.7856
 6061SOL     OW29818   4.660   3.342   4.245 -0.5394 -0.0597 -0.9569
 6061SOL    HW129819   0.006   3.372   4.209 -1.3554 -0.3292 -3.0799
 6061SOL    HW229820   4.628   3.421   4.289 -1.3283  0.5258 -2.5611
 6062SOL     OW29821   1.251   2.904   4.325 -0.5401  0.6848  0.2843
 6062SOL    HW129822   1.175   2.849   4.346 -0.9520  0.3135 -2.1450
 6062SOL    HW229823   1.248   2.960   4.402 -3.8537  2.2107 -0.9261
 6063SOL     OW29824   0.858   3.026  13.713 -0.2355  0.0754 -0.1472
 6063SOL    HW129825   0.904   3.109  13.704 -0.7820  0.2123 -1.6497
 6063SOL    HW229826   0.768   3.052  13.730  0.0356  0.7892  0.2209
 6064SOL     OW29827   1.278   4.114   6.972  0.0468  0.5062  0.1431
 6064SOL    HW129828   1.209   4.051   6.950  1.9415 -1.0743 -1.3113
 6064SOL    HW229829   1.352   4.061   7.000  1.2680  2.5089  0.6770
 6065SOL     OW29830   2.074   1.429  14.058 -0.1586 -0.1116 -0.6892
 6065SOL    HW129831   2.141   1.421  13.990  1.1536 -0.2083  0.6211
 6065SOL    HW229832   2.020   1.496  14.015  0.0586  1.2432  1.1734
 6066SOL     OW29833   1.608   4.004   3.920  0.1954 -0.7554 -0.1395
 6066SOL    HW129834   1.542   3.983   3.987 -1.6317 -0.5554 -1.8895
 6066SOL    HW229835   1.660   3.926   3.936  0.9862 -0.4455 -1.2006
 6067SOL     OW29836   4.613   2.867   2.121 -0.1349  0.1354  0.2008
 6067SOL    HW129837   4.706   2.846   2.136 -0.3057 -1.6831 -1.3526
 6067SOL    HW229838   4.595   2.822   2.039 -1.8959  2.4454 -0.6549
 6068SOL     OW29839   2.951   1.671  10.126  0.1236  0.4143 -0.6009
 6068SOL    HW129840   3.040   1.643  10.147  0.2521  1.2738 -0.0055
 6068SOL    HW229841   2.906   1.605  10.178  0.8273 -1.5522 -2.4515
 6069SOL     OW29842   0.468   2.564   6.180 -0.4984 -0.1375 -0.0128
 6069SOL    HW129843   0.493   2.616   6.103 -0.9810 -0.8366 -0.6378
 6069SOL    HW229844   0.531   2.492   6.187 -2.7167 -2.0730 -0.1256
 6070SOL     OW29845   4.067   3.815   1.875 -0.0637  0.4134 -0.1139
 6070SOL    HW129846   4.156   3.782   1.865 -0.6121 -1.0634 -0.1449
 6070SOL    HW229847   4.063   3.847   1.785 -2.5241  0.0049 -0.1613
 6071SOL     OW29848   1.734   0.830   7.479 -0.5072  0.4250 -0.6587
 6071SOL    HW129849   1.644   0.821   7.447 -0.2989  0.0787 -1.1394
 6071SOL    HW229850   1.762   0.738   7.480 -1.6022  0.0860 -0.1249
 6072SOL     OW29851   4.153   2.855   9.039 -0.3644  0.2768 -0.4051
 6072SOL    HW129852   4.219   2.852   8.970 -0.5005  1.7737 -0.6033
 6072SOL    HW229853   4.159   2.762   9.060  0.9884  0.8558  1.7506
 6073SOL     OW29854   1.347   2.448  10.612 -0.3262 -0.0009  0.1328
 6073SOL    HW129855   1.402   2.508  10.663  0.1909 -1.0227  0.7585
 6073SOL    HW229856   1.312   2.381  10.670 -1.9763  0.8813  0.1642
 6074SOL     OW29857   3.450   2.834  11.253  0.1957 -0.3743  0.5960
 6074SOL    HW129858   3.380   2.856  11.192  0.4911  0.6606  0.6325
 6074SOL    HW229859   3.472   2.917  11.295  0.6046  1.1779 -2.7556
 6075SOL     OW29860   2.257   2.376  11.808 -0.3726  0.0825  0.1059
 6075SOL    HW129861   2.174   2.338  11.780 -0.6805  1.1976 -0.4960
 6075SOL    HW229862   2.276   2.328  11.889  0.8464  2.4051  1.1982
 6076SOL     OW29863   2.025   2.636   9.796 -0.1747  0.4735 -0.1140
 6076SOL    HW129864   2.066   2.721   9.808  3.3106 -1.2590  0.4401
 6076SOL    HW229865   2.010   2.613   9.887  2.2022  0.8481  0.3655
 6077SOL     OW29866   1.268   0.061   5.678  0.0627 -0.5152  0.2891
 6077SOL    HW129867   1.307   0.089   5.595  0.2811  0.3229  0.6804
 6077SOL    HW229868   1.277   4.704   5.674 -0.8853 -0.6379  1.0625
 6078SOL     OW29869   3.951   1.804   8.430  0.5250  0.0368 -0.3575
 6078SOL    HW129870   4.030   1.840   8.470 -0.1758  0.7167  0.4370
 6078SOL    HW229871   3.964   1.828   8.338 -1.3721  1.8605 -0.1506
 6079SOL     OW29872   1.065   2.777   4.636  0.1371  0.7886 -0.0550
 6079SOL    HW129873   1.156   2.792   4.614 -0.0473  0.8262 -0.7879
 6079SOL    HW229874   1.042   2.722   4.561 -0.4435  1.8674 -0.6655
 6080SOL     OW29875   2.792   1.210  16.250 -0.8256  0.2808 -0.1683
 6080SOL    HW129876   2.755   1.191  16.336  2.2811 -0.1027  1.0597
 6080SOL    HW229877   2.834   1.292  16.273  1.7004 -0.9262 -0.4569
 6081SOL     OW29878   0.536   3.821   8.287  0.5730  0.8067 -0.1845
 6081SOL    HW129879   0.537   3.750   8.222  0.5649 -0.2319  0.9582
 6081SOL    HW229880   0.625   3.814   8.321  0.2065 -1.8808  0.1866
 6082SOL     OW29881   4.646   2.828  17.478  0.7126  0.0219  0.4335
 6082SOL    HW129882   4.605   2.746  17.506 -2.8968  0.2730 -4.1930
 6082SOL    HW229883   4.736   2.800  17.463  0.2376  0.0987 -2.5182
 6083SOL     OW29884   2.029   1.771   8.590  0.7897 -0.7623 -0.0427
 6083SOL    HW129885   2.066   1.702   8.645  0.8060 -0.5866  0.1666
 6083SOL    HW229886   2.103   1.799   8.536 -1.0400 -0.1251 -2.2395
 6084SOL     OW29887   1.383   4.655   5.224 -0.7464 -0.1165  0.6557
 6084SOL    HW129888   1.409   4.709   5.149  0.5746 -0.0332  1.1767
 6084SOL    HW229889   1.462   4.666   5.277 -0.4937 -2.7230  0.8290
 6085SOL     OW29890   0.632   1.100   7.915  0.4457  0.0268  0.4876
 6085SOL    HW129891   0.628   1.167   7.848  0.3413  0.4221  0.8887
 6085SOL    HW229892   0.538   1.086   7.924  0.7135 -1.1837  1.3941
 6086SOL     OW29893   3.577   3.720   5.474  0.6976 -0.4417  0.0108
 6086SOL    HW129894   3.560   3.772   5.396  1.9178  0.7925  0.5609
 6086SOL    HW229895   3.503   3.744   5.530  0.9563 -0.3665  0.3233
 6087SOL     OW29896   0.550   4.056   4.320 -0.3185 -0.1073  0.5505
 6087SOL    HW129897   0.633   4.064   4.273 -0.4464  2.7176  0.8084
 6087SOL    HW229898   0.513   3.985   4.266  1.6953  0.5824 -1.7241
 6088SOL     OW29899   1.192   3.233   6.182 -0.2247 -0.5799 -0.6219
 6088SOL    HW129900   1.171   3.178   6.106  2.5159 -0.1487 -1.6823
 6088SOL    HW229901   1.105   3.262   6.208 -0.0600 -0.4521 -0.2082
 6089SOL     OW29902   3.837   2.467  13.964 -0.4442  0.3001 -0.4894
 6089SOL    HW129903   3.864   2.394  13.908 -1.2244  0.0116 -0.4966
 6089SOL    HW229904   3.919   2.512  13.983 -0.5709 -0.0620  0.8937
 6090SOL     OW29905   1.641   0.637   3.790  0.4356  0.8032 -0.4143
 6090SOL    HW129906   1.734   0.657   3.777  0.5887  0.1590 -0.3272
 6090SOL    HW229907   1.640   0.562   3.850  0.0349  0.8557 -0.3546
 6091SOL     OW29908   3.365   2.706   6.220 -0.8818  0.2077  0.1369
 6091SOL    HW129909   3.340   2.636   6.159  0.9742 -0.9584  0.7131
 6091SOL    HW229910   3.403   2.774   6.163  1.4914 -0.2171  1.2264
 6092SOL     OW29911   2.732   0.419   7.547  0.2956  0.0982 -0.3844
 6092SOL    HW129912   2.755   0.428   7.640 -0.9042  3.2080 -0.3937
 6092SOL    HW229913   2.693   0.332   7.537 -1.4577  0.6127  1.8752
 6093SOL     OW29914   1.781   3.709   3.924 -0.7657 -0.3272  0.0027
 6093SOL    HW129915   1.777   3.614   3.919 -0.8234 -0.2626 -1.2734
 6093SOL    HW229916   1.856   3.719   3.982 -0.3535  0.3797 -0.6468
 6094SOL     OW29917   3.344   2.897   3.184 -0.5656  0.7994 -0.3965
 6094SOL    HW129918   3.249   2.908   3.183 -0.7667 -1.0062  0.0948
 6094SOL    HW229919   3.360   2.895   3.279 -1.9465 -2.1409 -0.2235
 6095SOL     OW29920   0.236   0.414   1.214  0.8729 -0.0541  0.1657
 6095SOL    HW129921   0.267   0.450   1.297  3.0063  4.5492 -2.6326
 6095SOL    HW229922   0.225   0.324   1.245 -1.0286 -0.1174 -0.6972
 6096SOL     OW29923   2.773   0.841   3.701 -0.4862  0.3142  0.1310
 6096SOL    HW129924   2.850   0.882   3.664  0.0609 -0.7475  0.0875
 6096SOL    HW229925   2.727   0.918   3.735  0.0540  1.7524 -2.4215
 6097SOL     OW29926   1.346   2.139   1.797  0.1987  0.4378  0.2027
 6097SOL    HW129927   1.321   2.230   1.783 -0.0753  0.4484  0.7818
 6097SOL    HW229928   1.369   2.139   1.890  0.1337  3.6053  0.2156
 6098SOL     OW29929   2.273   2.497   1.205 -0.4466  0.4284  0.3664
 6098SOL    HW129930   2.268   2.425   1.268 -0.5425  0.5388  0.4868
 6098SOL    HW229931   2.244   2.572   1.257 -1.7902 -0.6481  1.1723
 6099SOL     OW29932   0.966   0.646   7.535 -0.2445 -0.5324 -0.4642
 6099SOL    HW129933   0.998   0.560   7.511  0.2649 -0.5980  0.4392
 6099SOL    HW229934   0.939   0.679   7.450 -0.3330  0.4685 -0.0565
 6100SOL     OW29935   2.187   3.243   6.851 -0.2727 -0.0533 -0.5420
 6100SOL    HW129936   2.237   3.258   6.931 -3.4790 -0.2561  1.5131
 6100SOL    HW229937   2.158   3.153   6.865 -2.9909  1.1298  1.4788
 6101SOL     OW29938   0.863   2.776   8.766  0.2145 -0.1645 -0.4689
 6101SOL    HW129939   0.903   2.860   8.788 -0.9152 -0.1474  1.5005
 6101SOL    HW229940   0.833   2.787   8.676 -0.2632  2.6923  0.0386
 6102SOL     OW29941   1.904   2.232   9.037 -0.6507 -0.0114  0.3273
 6102SOL    HW129942   1.855   2.153   9.016  0.6810 -0.9209  0.6190
 6102SOL    HW229943   1.865   2.289   8.970  0.4049 -0.0345 -0.3178
 6103SOL     OW29944   2.209   1.916  17.513  0.3085  0.2878 -0.5903
 6103SOL    HW129945   2.115   1.934  17.514  0.0385 -1.0116 -1.4893
 6103SOL    HW229946   2.227   1.929  17.606  2.0725 -1.6473 -0.6559
 6104SOL     OW29947   2.140   3.482  13.145  0.2182  0.4893 -0.0210
 6104SOL    HW129948   2.169   3.397  13.114 -1.3205 -0.1004  0.1495
 6104SOL    HW229949   2.188   3.489  13.228  0.1618 -1.9928  0.2141
 6105SOL     OW29950   0.040   0.074   3.663 -0.2387 -0.3147 -0.1879
 6105SOL    HW129951   4.719   0.135   3.620  0.1525  0.5433  0.4776
 6105SOL    HW229952   0.066   0.121   3.743  2.5547 -2.1464 -0.0005
 6106SOL     OW29953   3.301   3.270   9.942  0.1833 -0.4628  0.4298
 6106SOL    HW129954   3.321   3.200  10.005 -0.6151 -0.3769  0.7845
 6106SOL    HW229955   3.227   3.242   9.888 -0.2100  0.4160  0.5148
 6107SOL     OW29956   3.512   3.954   0.821 -0.1322 -0.4821  0.4386
 6107SOL    HW129957   3.452   4.019   0.784  0.6352  0.1194  0.2479
 6107SOL    HW229958   3.553   4.003   0.893 -0.1783  0.7284 -0.3648
 6108SOL     OW29959   3.223   1.826  14.761  0.0103 -0.1904 -0.0842
 6108SOL    HW129960   3.260   1.862  14.842  0.4586 -2.4994  0.7352
 6108SOL    HW229961   3.299   1.776  14.730 -1.1565 -0.5928 -2.2717
 6109SOL     OW29962   1.465   2.016   8.616 -0.0703  0.1751 -0.4800
 6109SOL    HW129963   1.467   1.975   8.702 -0.7219 -0.4140 -0.7532
 6109SOL    HW229964   1.386   2.069   8.629 -1.5995 -1.7033 -2.1899
 6110SOL     OW29965   1.525   2.842   8.126 -0.1351 -0.0908 -0.2898
 6110SOL    HW129966   1.541   2.763   8.177 -3.0128 -0.5588 -0.0911
 6110SOL    HW229967   1.612   2.881   8.136 -0.2481  0.7240 -2.6524
 6111SOL     OW29968   3.123   1.016   7.466 -0.3457  0.2128  0.2887
 6111SOL    HW129969   3.054   0.959   7.433  0.6550  0.1343 -1.6670
 6111SOL    HW229970   3.197   0.989   7.412 -0.5844  1.8817 -0.8825
 6112SOL     OW29971   2.507   3.454   8.183  0.1062 -0.8412  0.9828
 6112SOL    HW129972   2.494   3.532   8.129  1.3052 -2.4841 -1.6722
 6112SOL    HW229973   2.415   3.425   8.188  0.2534 -1.2659  1.2319
 6113SOL     OW29974   2.475   1.921  12.274  0.0582  0.1228 -1.3116
 6113SOL    HW129975   2.487   2.012  12.302  4.1000 -1.7046  2.6866
 6113SOL    HW229976   2.388   1.927  12.314  0.2683  0.7669 -0.9525
 6114SOL     OW29977   2.949   2.085   4.226  0.4585  0.2126 -0.4336
 6114SOL    HW129978   3.031   2.039   4.240 -0.4119 -0.6370  1.8045
 6114SOL    HW229979   2.919   2.036   4.149  2.9097 -0.4362 -0.9482
 6115SOL     OW29980   0.630   2.524   2.487 -0.0472  0.1720 -0.3709
 6115SOL    HW129981   0.707   2.556   2.533 -0.7016 -0.4629  1.1476
 6115SOL    HW229982   0.576   2.477   2.551  0.8211 -0.5573 -0.1648
 6116SOL     OW29983   1.030   4.469   4.387 -0.1564 -0.1968 -0.1708
 6116SOL    HW129984   1.024   4.557   4.351  1.3830  0.2959  0.7931
 6116SOL    HW229985   1.001   4.491   4.475  0.8485  0.8844 -0.1111
 6117SOL     OW29986   1.380   0.810   3.494 -0.2806  0.5635 -0.3323
 6117SOL    HW129987   1.376   0.786   3.586 -0.5427 -1.4918 -0.8929
 6117SOL    HW229988   1.462   0.774   3.461  0.8453  2.1078  0.7961
 6118SOL     OW29989   0.039   2.322   1.365 -0.0670  0.2500  0.2706
 6118SOL    HW129990   0.114   2.380   1.380  2.1114 -1.9602 -1.9818
 6118SOL    HW229991   0.039   2.271   1.446 -0.1565  0.5342  0.4461
 6119SOL     OW29992   4.205   4.419  10.378  0.2482 -0.4170 -0.3721
 6119SOL    HW129993   4.223   4.437  10.471 -0.8985  1.9654 -0.6093
 6119SOL    HW229994   4.292   4.392  10.350  0.8945  1.0089  0.2407
 6120SOL     OW29995   0.549   1.096   3.584  0.0523  0.7200  0.2619
 6120SOL    HW129996   0.513   1.155   3.518  0.6851  0.2956 -0.4640
 6120SOL    HW229997   0.630   1.142   3.605  0.8015  0.6654 -2.5784
 6121SOL     OW29998   3.827   2.618  10.953  0.3734  0.4316 -0.5791
 6121SOL    HW129999   3.907   2.659  10.920 -0.4225  2.6292  0.1840
 6121SOL    HW230000   3.805   2.692  11.010 -1.2519  0.3490 -1.0915
 6122SOL     OW30001   2.326   1.642   4.629  0.8089  0.2866  0.3990
 6122SOL    HW130002   2.330   1.629   4.724 -0.8377 -1.1037  0.2778
 6122SOL    HW230003   2.322   1.737   4.633  0.7757  0.3448 -1.2988
 6123SOL     OW30004   0.708   0.348   2.546  0.1583 -0.0405  0.3893
 6123SOL    HW130005   0.777   0.378   2.488 -1.0221  0.1720 -0.8990
 6123SOL    HW230006   0.688   0.261   2.512  0.9314 -0.1761  0.2784
 6124SOL     OW30007   3.727   4.629  14.016  0.3891  0.0155 -1.0672
 6124SOL    HW130008   3.743   4.695  13.949 -1.2380 -0.5235 -1.9983
 6124SOL    HW230009   3.632   4.636  14.022  0.6886  4.0792 -1.4903
 6125SOL     OW30010   0.341   1.330   6.241  0.0837  0.3566 -0.6258
 6125SOL    HW130011   0.372   1.397   6.181  1.2385  0.2754 -0.1284
 6125SOL    HW230012   0.251   1.360   6.254 -0.5203 -1.6827 -0.0096
 6126SOL     OW30013   2.476   2.524   6.482  0.2553  0.4026 -0.1571
 6126SOL    HW130014   2.471   2.438   6.440 -2.3311  0.0346  0.9134
 6126SOL    HW230015   2.467   2.505   6.575 -2.3905  1.5465 -0.1684
 6127SOL     OW30016   2.134   2.194   3.686  0.5865 -0.4355  0.1914
 6127SOL    HW130017   2.169   2.280   3.709 -1.3346 -0.3905  2.9988
 6127SOL    HW230018   2.128   2.206   3.591  1.3111 -1.2706  0.0396
 6128SOL     OW30019   2.103   0.233  13.620  0.7079  0.4714  0.6245
 6128SOL    HW130020   2.038   0.178  13.576 -0.4820  1.0419  1.6709
 6128SOL    HW230021   2.059   0.292  13.681  0.2498 -0.2888  1.0340
 6129SOL     OW30022   3.895   1.080   6.833 -0.3132  0.6224 -0.3405
 6129SOL    HW130023   3.975   1.126   6.858 -0.3134  0.9223 -0.8815
 6129SOL    HW230024   3.838   1.109   6.903 -1.7990  0.6515 -1.5562
 6130SOL     OW30025   3.414   0.570   7.579 -0.1242  0.1661  0.3400
 6130SOL    HW130026   3.413   0.641   7.644 -2.8921  1.0566 -0.6760
 6130SOL    HW230027   3.324   0.585   7.552 -0.1434  0.6269  0.6518
 6131SOL     OW30028   1.252   0.360   1.404 -0.0054 -0.2512  0.2458
 6131SOL    HW130029   1.164   0.391   1.380 -0.5346 -2.6553 -0.9108
 6131SOL    HW230030   1.237   0.272   1.371  0.9819 -0.9345  1.6227
 6132SOL     OW30031   1.765   1.068   6.439 -0.6682 -0.1199  0.1230
 6132SOL    HW130032   1.692   1.024   6.483 -0.3040 -0.2605  0.5930
 6132SOL    HW230033   1.726   1.102   6.359  3.3155  0.0846 -1.7075
 6133SOL     OW30034   4.616   1.964   6.224 -0.9505 -0.0837  0.2075
 6133SOL    HW130035   4.664   1.987   6.304 -0.9851 -0.5389  0.3622
 6133SOL    HW230036   4.652   1.878   6.204  0.3232  0.6408 -0.5464
 6134SOL     OW30037   1.757   0.981  15.494 -0.2843 -0.2034  0.2312
 6134SOL    HW130038   1.844   0.949  15.518  0.4302 -0.2020 -2.4006
 6134SOL    HW230039   1.749   0.950  15.404  0.1923  1.9282 -0.5306
 6135SOL     OW30040   3.700   4.297   8.050 -0.2583 -0.2261  0.6017
 6135SOL    HW130041   3.716   4.330   7.962  0.4322  0.7546  1.0932
 6135SOL    HW230042   3.605   4.286   8.048 -0.2904  0.3598 -0.8896
 6136SOL     OW30043   2.305   1.395  10.374 -0.1452 -0.3257  0.5571
 6136SOL    HW130044   2.252   1.389  10.453 -1.9882  0.3667 -0.6159
 6136SOL    HW230045   2.355   1.313  10.374  1.5549  0.7185 -1.2515
 6137SOL     OW30046   0.588   3.167   8.076  0.4525  0.0582  0.5250
 6137SOL    HW130047   0.655   3.131   8.017  0.6497  1.5692 -0.1967
 6137SOL    HW230048   0.515   3.155   8.016 -0.2472 -0.5462  1.5210
 6138SOL     OW30049   4.610   1.491   6.845 -0.2569 -0.5510 -0.4300
 6138SOL    HW130050   4.654   1.504   6.929  0.4581  0.7700 -0.9825
 6138SOL    HW230051   4.526   1.521   6.878 -0.3644  0.2433 -1.4304
 6139SOL     OW30052   4.217   3.025   4.134 -0.2117  0.9936  0.6187
 6139SOL    HW130053   4.150   2.984   4.189 -0.2505 -0.3944 -0.4706
 6139SOL    HW230054   4.261   3.069   4.207  1.8714  2.4840 -1.5395
 6140SOL     OW30055   2.825   0.004   4.311  0.3150 -0.2999  0.2136
 6140SOL    HW130056   2.822   4.647   4.313  0.7691 -0.2885  1.4000
 6140SOL    HW230057   2.809   0.029   4.402  1.3980 -2.5974  1.0273
 6141SOL     OW30058   0.511   3.934   8.626  0.3095 -0.2615  0.2994
 6141SOL    HW130059   0.580   3.998   8.640 -1.9402  1.9425  1.4961
 6141SOL    HW230060   0.443   3.973   8.572  0.4174 -0.7291 -0.1664
 6142SOL     OW30061   1.417   3.220   6.816 -0.1325 -0.1654  0.2048
 6142SOL    HW130062   1.322   3.212   6.808 -0.0905  0.8127 -1.1953
 6142SOL    HW230063   1.440   3.146   6.873 -0.1321 -0.4009 -0.1015
 6143SOL     OW30064   2.153   4.391   5.097  0.5010 -0.0205  0.3167
 6143SOL    HW130065   2.187   4.322   5.153 -0.4945 -0.8367 -0.1011
 6143SOL    HW230066   2.074   4.409   5.148  0.8827 -2.4408  1.7116
 6144SOL     OW30067   2.490   1.380  10.751  0.1790  0.0156  0.3129
 6144SOL    HW130068   2.485   1.437  10.674  1.0925 -0.5144 -0.1492
 6144SOL    HW230069   2.584   1.365  10.738 -0.4890 -1.0214 -3.1672
 6145SOL     OW30070   0.108   3.994  13.529 -0.7079 -0.4188 -0.0433
 6145SOL    HW130071   0.064   4.023  13.449 -2.3142 -0.6403  0.7530
 6145SOL    HW230072   0.038   4.005  13.594 -0.3138 -0.9312  0.4707
 6146SOL     OW30073   3.561   2.399   8.806  0.2426 -0.5321  0.3108
 6146SOL    HW130074   3.596   2.482   8.839  2.1888 -0.5311 -1.7758
 6146SOL    HW230075   3.624   2.385   8.736 -2.1546 -1.7449 -1.5848
 6147SOL     OW30076   2.863   1.037   5.336 -0.1618 -0.3956 -0.3208
 6147SOL    HW130077   2.774   1.035   5.302 -0.4487 -0.2647  0.4139
 6147SOL    HW230078   2.913   0.965   5.299  0.8029  0.0517  0.1065
 6148SOL     OW30079   4.421   0.454   2.706  0.3786  0.1728  0.5686
 6148SOL    HW130080   4.452   0.500   2.784  0.8127 -1.2127  1.2004
 6148SOL    HW230081   4.335   0.495   2.696  1.0206  1.4571  0.3095
 6149SOL     OW30082   0.924   3.149  11.930  0.4798  0.2910 -0.1373
 6149SOL    HW130083   0.931   3.244  11.921 -0.2359  0.5563  2.1403
 6149SOL    HW230084   0.830   3.137  11.946  0.7567 -1.1175  0.5046
 6150SOL     OW30085   3.694   2.512  16.301 -0.0984  0.0797 -0.2799
 6150SOL    HW130086   3.715   2.536  16.391 -3.2879 -2.5185  1.1492
 6150SOL    HW230087   3.608   2.472  16.310  1.1909 -2.6637 -0.1092
 6151SOL     OW30088   0.735   2.182   0.866 -0.0436  0.6460 -0.2987
 6151SOL    HW130089   0.773   2.137   0.790  1.3786  1.3440 -0.0034
 6151SOL    HW230090   0.793   2.258   0.859 -0.1931  0.8485  0.6740
 6152SOL     OW30091   4.142   0.692  12.144 -0.2094  0.1432  0.2704
 6152SOL    HW130092   4.099   0.715  12.062  0.5797  2.0947  0.3937
 6152SOL    HW230093   4.139   0.773  12.196 -0.4967  0.1653  0.2191
 6153SOL     OW30094   0.879   3.449   8.951 -0.0613  0.3835  0.0861
 6153SOL    HW130095   0.952   3.455   9.013  0.5999 -1.7102 -0.5090
 6153SOL    HW230096   0.810   3.482   9.008 -0.4052 -0.9113  0.4046
 6154SOL     OW30097   1.220   4.390  13.459 -0.2540  0.5778 -0.1691
 6154SOL    HW130098   1.156   4.359  13.396 -0.2262 -1.3966  0.7640
 6154SOL    HW230099   1.276   4.447  13.407  0.9760  0.1699  0.7037
 6155SOL     OW30100   4.236   2.446   8.309 -0.3213 -0.2794  0.5733
 6155SOL    HW130101   4.306   2.460   8.374  0.4757 -2.9393  0.2735
 6155SOL    HW230102   4.248   2.520   8.249 -1.0723 -0.6528 -0.0285
 6156SOL     OW30103   3.678   0.696  14.354  0.1696  0.7823  0.2050
 6156SOL    HW130104   3.641   0.769  14.305 -0.6417  0.2297 -0.0124
 6156SOL    HW230105   3.648   0.717  14.442  2.7704 -1.5910  1.6480
 6157SOL     OW30106   0.274   3.790   8.303  0.2293  0.5516 -0.0350
 6157SOL    HW130107   0.364   3.823   8.299 -0.2726  1.8145 -0.9195
 6157SOL    HW230108   0.260   3.790   8.397 -2.1323 -2.4909 -0.3847
 6158SOL     OW30109   4.260   1.929   5.719  0.1029  0.5424  0.2058
 6158SOL    HW130110   4.332   1.927   5.655 -0.7925 -0.6919 -0.7579
 6158SOL    HW230111   4.294   1.986   5.788  1.9463 -1.5871  1.0307
 6159SOL     OW30112   0.153   4.390   3.757 -0.1395  0.1809  0.0322
 6159SOL    HW130113   0.229   4.365   3.705 -0.1358  2.1432 -0.9200
 6159SOL    HW230114   0.182   4.370   3.846 -2.6255 -1.9574  0.3588
 6160SOL     OW30115   4.624   4.596   2.290  0.1229  0.5038 -0.2290
 6160SOL    HW130116   4.641   4.643   2.372 -1.9992  2.2713 -0.7932
 6160SOL    HW230117   4.541   4.558   2.320 -0.5796  1.0041 -1.5191
 6161SOL     OW30118   3.613   0.518  10.537  0.1760  0.0777  0.2146
 6161SOL    HW130119   3.678   0.453  10.509 -0.9618 -0.0140 -2.2020
 6161SOL    HW230120   3.668   0.583  10.580 -0.5256  2.0702 -1.9255
 6162SOL     OW30121   4.280   1.593   4.543  0.5530  0.2388  0.2355
 6162SOL    HW130122   4.274   1.525   4.476  0.1547  1.4077 -0.9187
 6162SOL    HW230123   4.364   1.567   4.580  0.1144 -1.9391 -0.3313
 6163SOL     OW30124   3.280   3.725   7.042  0.3793 -0.4267  0.2345
 6163SOL    HW130125   3.361   3.774   7.025  1.2477 -1.5688  1.0999
 6163SOL    HW230126   3.248   3.769   7.121 -0.8974 -1.9466  0.5505
 6164SOL     OW30127   0.860   1.277   6.867  0.2597  0.0741 -0.1949
 6164SOL    HW130128   0.954   1.279   6.883  0.1995 -0.7974  0.2909
 6164SOL    HW230129   0.823   1.254   6.952  0.5306 -1.8728 -0.5968
 6165SOL     OW30130   0.886   0.684  14.137 -0.4605  0.2662 -0.2555
 6165SOL    HW130131   0.949   0.734  14.084  1.5183 -3.1026 -1.0443
 6165SOL    HW230132   0.805   0.687  14.086 -0.0963  2.4816 -0.7448
 6166SOL     OW30133   1.360   3.078   4.765  0.1111 -0.0376 -0.4723
 6166SOL    HW130134   1.325   3.116   4.845  3.2741 -2.8809  2.2290
 6166SOL    HW230135   1.379   2.987   4.787  0.6591  0.0573 -0.5612
 6167SOL     OW30136   4.103   0.822   2.309 -0.2678  0.4493  0.5017
 6167SOL    HW130137   4.021   0.776   2.295 -0.1660  0.1163  1.0375
 6167SOL    HW230138   4.099   0.875   2.389  0.1244 -0.2163  0.9553
 6168SOL     OW30139   1.517   2.600  12.961  0.4014 -0.0810  0.1566
 6168SOL    HW130140   1.504   2.694  12.972  0.5677 -0.2300  1.6127
 6168SOL    HW230141   1.453   2.571  13.026  0.4083 -0.1146  0.1483
 6169SOL     OW30142   3.019   1.381   5.878 -0.0659  0.4691 -0.0424
 6169SOL    HW130143   2.941   1.432   5.899 -1.2801 -2.1305  1.5984
 6169SOL    HW230144   3.046   1.322   5.948 -2.3951 -0.7497 -0.1835
 6170SOL     OW30145   4.383   3.748   2.193  0.0573  0.1456 -0.2377
 6170SOL    HW130146   4.347   3.830   2.159 -0.6539 -0.7104 -1.5792
 6170SOL    HW230147   4.334   3.718   2.270 -0.7158 -0.1860 -0.8544
 6171SOL     OW30148   3.708   1.807   1.750  0.2451 -0.0734 -0.3129
 6171SOL    HW130149   3.647   1.867   1.793  3.4232  1.1072  2.5416
 6171SOL    HW230150   3.790   1.857   1.751 -0.6114  1.3371 -0.3722
 6172SOL     OW30151   0.601   3.361   7.333 -0.1562  0.7361 -0.1950
 6172SOL    HW130152   0.559   3.442   7.302 -0.1694  1.3342  1.4212
 6172SOL    HW230153   0.555   3.292   7.285 -2.4949  1.4548  1.0323
 6173SOL     OW30154   4.620   4.164  10.195 -0.1532  0.3259  0.5216
 6173SOL    HW130155   4.583   4.198  10.276 -1.9954 -0.0377 -0.1738
 6173SOL    HW230156   4.546   4.178  10.137 -1.2777 -0.0062  1.8748
 6174SOL     OW30157   2.642   3.423   7.741 -0.8255 -0.0835  0.4054
 6174SOL    HW130158   2.583   3.348   7.741  0.1167 -0.8127  1.8040
 6174SOL    HW230159   2.657   3.442   7.648  1.2421 -1.6370  0.4524
 6175SOL     OW30160   0.538   1.297   4.836  0.1159 -0.1042 -0.1316
 6175SOL    HW130161   0.558   1.323   4.746  1.1481  1.0671  0.4389
 6175SOL    HW230162   0.499   1.376   4.874  1.9476  0.6453  0.2142
 6176SOL     OW30163   3.589   1.536   7.784  0.7518 -0.1020  0.2852
 6176SOL    HW130164   3.604   1.443   7.769 -0.0973 -0.1289 -0.4231
 6176SOL    HW230165   3.588   1.554   7.690 -0.8877  0.4318  0.3993
 6177SOL     OW30166   2.629   1.946   1.787  0.1772  0.1896  0.5372
 6177SOL    HW130167   2.660   2.037   1.780 -1.0497  0.5685  0.0493
 6177SOL    HW230168   2.695   1.901   1.735  0.0179  0.8113 -0.2043
 6178SOL     OW30169   0.306   0.488  16.859 -0.1196 -0.4383 -0.3133
 6178SOL    HW130170   0.376   0.548  16.885 -0.1729  0.1859 -1.6097
 6178SOL    HW230171   0.285   0.456  16.946 -0.8775 -0.1702 -0.3983
 6179SOL     OW30172   2.902   3.480   9.504 -0.2701  0.1523  0.2140
 6179SOL    HW130173   2.894   3.388   9.479 -2.3570  0.2699  0.4162
 6179SOL    HW230174   2.993   3.487   9.532 -0.4468  3.8725 -0.1694
 6180SOL     OW30175   3.148   3.290   7.235 -0.1408  0.2613 -0.1748
 6180SOL    HW130176   3.164   3.198   7.215 -0.2653 -0.1905  1.8115
 6180SOL    HW230177   3.237   3.322   7.224  0.5281 -1.4710  0.3666
 6181SOL     OW30178   3.985   3.768  12.322  0.4497  0.3031 -0.3933
 6181SOL    HW130179   3.978   3.674  12.304  1.6621  0.3119 -0.9216
 6181SOL    HW230180   3.955   3.757  12.412  1.1389  0.8079 -0.0990
 6182SOL     OW30181   0.521   2.254   6.127 -0.1531  0.3529  0.5078
 6182SOL    HW130182   0.510   2.170   6.083 -2.5346  0.8035  0.2804
 6182SOL    HW230183   0.610   2.244   6.162  0.3445 -0.2194 -0.9130
 6183SOL     OW30184   1.371   2.322   7.119  0.0320 -0.2525 -0.1507
 6183SOL    HW130185   1.290   2.279   7.091  1.1331 -0.1600 -3.4592
 6183SOL    HW230186   1.351   2.324   7.213  0.2411  2.5752 -0.1573
 6184SOL     OW30187   2.792   0.428   8.325  1.0497  0.4111  0.2011
 6184SOL    HW130188   2.744   0.506   8.298 -3.2180 -2.3479 -0.0820
 6184SOL    HW230189   2.768   0.370   8.253  0.1070 -1.7994  2.3190
 6185SOL     OW30190   0.236   0.312   4.715  0.3885  0.4063 -0.0286
 6185SOL    HW130191   0.180   0.387   4.737  1.8535  1.1096  1.2871
 6185SOL    HW230192   0.226   0.257   4.793  4.3390 -0.3282 -0.0435
 6186SOL     OW30193   3.650   3.894  11.556 -0.0668  0.3790 -0.3379
 6186SOL    HW130194   3.687   3.834  11.492 -0.5526 -0.2121 -0.0663
 6186SOL    HW230195   3.649   3.980  11.513  0.7666  0.5671  0.0250
 6187SOL     OW30196   1.534   1.825   6.844 -0.1793 -0.5030 -0.2822
 6187SOL    HW130197   1.536   1.733   6.818  0.4242 -1.1655  2.0976
 6187SOL    HW230198   1.541   1.827   6.940 -1.7260  1.3788 -0.2080
 6188SOL     OW30199   2.762   0.645   1.862 -0.5949  0.0635  0.1233
 6188SOL    HW130200   2.704   0.669   1.934  1.3847  0.2532  1.6769
 6188SOL    HW230201   2.732   0.558   1.836 -0.1110 -0.4769  1.3642
 6189SOL     OW30202   4.571   3.167   6.673 -0.0126 -0.1380  0.5737
 6189SOL    HW130203   4.663   3.167   6.646 -0.1088 -1.8058  0.2272
 6189SOL    HW230204   4.575   3.223   6.751 -0.0946  1.7807 -0.8107
 6190SOL     OW30205   1.802   0.130  16.164 -0.3502 -0.7484 -0.0707
 6190SOL    HW130206   1.819   0.141  16.070 -0.0723 -0.3355  0.0241
 6190SOL    HW230207   1.850   0.051  16.186 -0.2918 -0.4342  0.9305
 6191SOL     OW30208   0.054   1.982   2.992 -0.6518 -1.3011  0.2766
 6191SOL    HW130209   4.737   1.935   3.055 -0.5183  1.8606  2.7885
 6191SOL    HW230210   4.730   2.012   2.926  0.7002 -0.8297 -0.7827
 6192SOL     OW30211   2.898   3.807   3.762 -0.7046  0.6702  0.0748
 6192SOL    HW130212   2.857   3.893   3.770 -1.7209  0.3720 -2.0795
 6192SOL    HW230213   2.989   3.816   3.792 -0.6024 -0.0348 -0.0189
 6193SOL     OW30214   3.611   2.576  11.949  0.6584 -0.3002  0.2514
 6193SOL    HW130215   3.694   2.606  11.913 -0.8022  1.1142 -1.9349
 6193SOL    HW230216   3.552   2.576  11.873 -2.4263  0.4831  2.6214
 6194SOL     OW30217   1.522   3.273   8.348  0.2322 -0.1675  0.7685
 6194SOL    HW130218   1.430   3.260   8.325  0.8834 -1.6251 -0.9702
 6194SOL    HW230219   1.570   3.256   8.267  1.0859  0.0825  1.2182
 6195SOL     OW30220   2.155   1.325   2.133  0.1398  0.1597 -0.6347
 6195SOL    HW130221   2.227   1.379   2.165 -0.4076  0.1714  0.5701
 6195SOL    HW230222   2.099   1.359   2.203 -1.7191 -1.4515 -1.3402
 6196SOL     OW30223   1.898   4.280   2.972 -0.2807 -0.3677  0.3889
 6196SOL    HW130224   1.824   4.341   2.981  0.8699  1.6782 -3.9470
 6196SOL    HW230225   1.873   4.213   3.035 -2.0713  0.6035  0.7131
 6197SOL     OW30226   0.839   2.749   0.892  0.2097 -0.3568  1.0709
 6197SOL    HW130227   0.787   2.692   0.835  0.0515  1.8965 -1.0002
 6197SOL    HW230228   0.896   2.779   0.821 -2.6011  2.7316  0.1705
 6198SOL     OW30229   0.415   2.866  11.999 -0.3926  0.3127 -0.2709
 6198SOL    HW130230   0.490   2.856  11.939 -0.7249 -4.0124  0.0088
 6198SOL    HW230231   0.394   2.773  12.007 -2.1406  0.6840 -0.6188
 6199SOL     OW30232   0.998   2.349   4.110 -0.0288 -0.2350 -0.1276
 6199SOL    HW130233   0.925   2.360   4.048  0.4396 -0.5491 -0.7287
 6199SOL    HW230234   1.069   2.376   4.053  0.3941 -1.2444 -0.0734
 6200SOL     OW30235   0.553   1.190  15.096  0.5551 -0.1131 -0.0379
 6200SOL    HW130236   0.648   1.190  15.087  0.4938 -0.1435 -0.6935
 6200SOL    HW230237   0.528   1.245  15.022  1.1775 -0.4299 -0.4820
 6201SOL     OW30238   4.417   4.677   7.756  0.0634  0.3564 -0.3145
 6201SOL    HW130239   4.491   4.736   7.738 -0.2249  1.0471  0.7830
 6201SOL    HW230240   4.417   4.619   7.680  0.7645 -0.2507  0.1490
 6202SOL     OW30241   1.484   1.604   5.266  0.0798  0.0223 -0.3953
 6202SOL    HW130242   1.530   1.578   5.346  2.1257  3.9590 -0.2610
 6202SOL    HW230243   1.544   1.581   5.195  0.3996  0.2036 -0.1857
 6203SOL     OW30244   2.186   0.068   7.377 -0.3849  0.1019  0.1941
 6203SOL    HW130245   2.172   0.039   7.467  1.7006  0.2494  0.5569
 6203SOL    HW230246   2.281   0.073   7.372 -0.2778 -1.2642  0.9334
 6204SOL     OW30247   2.564   4.111   0.112 -0.0054 -0.0431 -0.1913
 6204SOL    HW130248   2.509   4.039   0.082  1.2704 -0.8384 -0.6459
 6204SOL    HW230249   2.509   4.169   0.163  2.5473  1.5392  0.7493
 6205SOL     OW30250   3.056   1.448   0.729  0.4072 -0.0325 -0.1408
 6205SOL    HW130251   3.035   1.358   0.701 -0.5351 -0.0908  0.7715
 6205SOL    HW230252   3.143   1.441   0.769 -0.1775  0.4419  1.2200
 6206SOL     OW30253   3.250   3.576   3.311 -0.2281  0.2633  0.2927
 6206SOL    HW130254   3.210   3.660   3.289 -1.0109 -0.6590 -1.7432
 6206SOL    HW230255   3.208   3.512   3.253 -0.3449 -0.0897  0.7668
 6207SOL     OW30256   2.854   3.154  16.671  0.1407  0.5149 -0.3013
 6207SOL    HW130257   2.818   3.161  16.759  3.5190 -0.5898  1.1644
 6207SOL    HW230258   2.924   3.093  16.693 -0.4055  0.4566  1.2400
 6208SOL     OW30259   4.217   4.309   7.430 -0.5285  0.0223 -0.3429
 6208SOL    HW130260   4.154   4.378   7.412 -1.2553 -0.1673  1.5074
 6208SOL    HW230261   4.231   4.257   7.351  1.5456 -0.7945  0.5621
 6209SOL     OW30262   3.484   2.057   2.226 -0.3087 -0.3934  0.1010
 6209SOL    HW130263   3.527   2.064   2.311  0.5756  0.0645 -0.3803
 6209SOL    HW230264   3.539   2.116   2.175  0.5859 -0.3676  1.1056
 6210SOL     OW30265   3.268   2.038   3.862  0.4367 -0.3301 -0.0399
 6210SOL    HW130266   3.199   2.084   3.815 -0.2840 -1.5852 -0.1984
 6210SOL    HW230267   3.292   2.106   3.925 -1.0196 -0.0610  0.2313
 6211SOL     OW30268   3.070   3.171  12.210  0.4399  0.2168  0.3607
 6211SOL    HW130269   3.013   3.131  12.145  0.5566 -0.7259  0.8262
 6211SOL    HW230270   3.025   3.150  12.292  1.0542  1.7018  1.0848
 6212SOL     OW30271   2.596   4.135   3.506  0.6729 -0.3172 -0.2481
 6212SOL    HW130272   2.618   4.085   3.585  0.5757 -0.2985 -0.2089
 6212SOL    HW230273   2.596   4.229   3.527 -0.7189 -0.3585 -0.0687
 6213SOL     OW30274   4.252   1.812   4.902 -0.4117  0.2467  0.1824
 6213SOL    HW130275   4.259   1.751   4.976  0.9454  0.6479  0.3736
 6213SOL    HW230276   4.331   1.862   4.921  0.1049 -0.5235  0.0870
 6214SOL     OW30277   2.243   0.865   6.111 -0.0322 -0.8356  0.9609
 6214SOL    HW130278   2.286   0.891   6.193  1.8204  0.1638 -0.3117
 6214SOL    HW230279   2.203   0.949   6.091 -1.8241 -2.0911 -0.6978
 6215SOL     OW30280   2.514   4.273   9.677  0.0570 -0.6385 -0.4331
 6215SOL    HW130281   2.467   4.210   9.731  1.0483  0.1176  1.2924
 6215SOL    HW230282   2.577   4.216   9.632  1.5570  0.1757  0.6307
 6216SOL     OW30283   0.972   3.547   8.277 -0.0273  0.4795  0.2763
 6216SOL    HW130284   0.944   3.461   8.246  0.5878  0.6299 -0.6741
 6216SOL    HW230285   0.898   3.608   8.279  0.1995  0.7209  1.5540
 6217SOL     OW30286   4.608   3.421   2.601 -0.0697  0.0114 -0.1653
 6217SOL    HW130287   4.517   3.451   2.601 -0.6946 -1.9156 -2.0184
 6217SOL    HW230288   4.623   3.435   2.507  0.5145 -1.4533 -0.2798
 6218SOL     OW30289   2.145   3.290  14.793  0.3216 -0.2177 -0.2249
 6218SOL    HW130290   2.169   3.326  14.708  1.0316  0.8003  0.3890
 6218SOL    HW230291   2.056   3.320  14.812 -0.4228 -0.7352 -2.9179
 6219SOL     OW30292   4.674   1.504   0.435 -0.1338  0.7131  0.5291
 6219SOL    HW130293   4.723   1.437   0.386 -2.4448 -1.6054  1.3649
 6219SOL    HW230294   4.704   1.588   0.401  2.0589 -0.1822  0.2066
 6220SOL     OW30295   0.390   0.037   6.986  0.1459 -0.2240 -0.0973
 6220SOL    HW130296   0.461   0.027   6.923 -0.2260  0.1180 -0.5665
 6220SOL    HW230297   0.368   4.684   7.005  0.0448 -0.4378 -1.2346
 6221SOL     OW30298   2.309   1.665  15.447  0.1238 -0.0116  0.1621
 6221SOL    HW130299   2.342   1.734  15.504  1.8982 -0.9233  0.2279
 6221SOL    HW230300   2.230   1.630  15.490  0.3250 -1.3454 -0.5377
 6222SOL     OW30301   2.490   0.187   5.681  0.2797  0.1962  0.1597
 6222SOL    HW130302   2.506   0.143   5.765  0.8922 -0.4547 -0.2957
 6222SOL    HW230303   2.421   0.250   5.700  0.6106 -0.7577  4.7081
 6223SOL     OW30304   3.189   2.388   3.151  0.2665  0.8518 -0.3432
 6223SOL    HW130305   3.281   2.403   3.174  0.3751  1.1995 -1.0195
 6223SOL    HW230306   3.207   2.360   3.062 -0.1005 -0.4754  0.0095
 6224SOL     OW30307   4.100   2.774   3.281 -0.2409 -0.1482 -0.1295
 6224SOL    HW130308   4.068   2.752   3.193 -1.1437 -2.6041  0.8246
 6224SOL    HW230309   4.162   2.843   3.257 -0.4918 -0.4878 -1.7947
 6225SOL     OW30310   2.514   2.979   7.084 -0.3950  0.1814 -0.3135
 6225SOL    HW130311   2.585   3.036   7.111 -0.7023  0.0001  0.8655
 6225SOL    HW230312   2.484   3.046   7.023  0.7792 -0.8936 -2.0913
 6226SOL     OW30313   4.299   1.729  14.117 -0.1438  0.4558 -0.2063
 6226SOL    HW130314   4.328   1.693  14.201  0.9380 -1.3520 -1.3723
 6226SOL    HW230315   4.205   1.726  14.137 -0.2817  1.9921 -0.6266
 6227SOL     OW30316   0.415   4.550   1.445  0.4118 -0.2906 -0.6457
 6227SOL    HW130317   0.500   4.558   1.489 -0.1250  0.0547  0.3322
 6227SOL    HW230318   0.393   4.643   1.439 -1.4841 -0.7511 -1.0344
 6228SOL     OW30319   1.947   3.521  12.588 -0.0449  0.2179 -0.4254
 6228SOL    HW130320   2.010   3.454  12.616  0.7268  0.7370 -0.9281
 6228SOL    HW230321   1.890   3.473  12.528 -1.6536  1.3948  0.1500
 6229SOL     OW30322   0.149   0.992   0.320 -0.4614 -0.5718 -0.8273
 6229SOL    HW130323   0.178   0.966   0.233  1.0067 -2.3755  0.2134
 6229SOL    HW230324   0.154   1.087   0.329 -0.4830 -0.7505  1.1022
 6230SOL     OW30325   4.604   1.702   8.644 -0.4417 -0.0102 -0.0153
 6230SOL    HW130326   4.604   1.721   8.738 -1.0167  1.0006 -0.2223
 6230SOL    HW230327   4.660   1.776   8.620 -0.5698  0.8248  2.2202
 6231SOL     OW30328   3.641   2.421   9.113 -0.1595 -0.5062 -0.0828
 6231SOL    HW130329   3.701   2.444   9.042 -1.4097 -0.7087 -1.2122
 6231SOL    HW230330   3.703   2.362   9.155  0.0893 -1.8010 -2.3053
 6232SOL     OW30331   4.469   1.232  16.337 -0.0843 -0.2812  0.6445
 6232SOL    HW130332   4.456   1.138  16.326 -0.6449  0.1095 -1.9094
 6232SOL    HW230333   4.423   1.235  16.421 -1.9053 -0.6719 -0.3253
 6233SOL     OW30334   0.033   1.193  17.193  0.0355  0.1485  0.0353
 6233SOL    HW130335   0.124   1.222  17.181 -0.3299  1.7821  1.2915
 6233SOL    HW230336   4.724   1.214  17.113 -0.5700  1.1211  0.6545
 6234SOL     OW30337   1.077   1.481  10.615 -0.0079 -0.3021 -0.4294
 6234SOL    HW130338   1.047   1.442  10.697  2.0174  1.4345  1.1089
 6234SOL    HW230339   1.031   1.431  10.548  0.2047 -0.2331 -0.6273
 6235SOL     OW30340   4.460   1.425   8.562 -0.3547  0.1673  0.0795
 6235SOL    HW130341   4.507   1.508   8.566  0.6298 -0.3205 -1.2172
 6235SOL    HW230342   4.506   1.375   8.629  1.1594  1.2949 -0.1041
 6236SOL     OW30343   3.667   1.405  16.143  0.2567  0.2063 -0.3298
 6236SOL    HW130344   3.681   1.310  16.137 -1.7934 -0.1277  0.1250
 6236SOL    HW230345   3.713   1.429  16.062 -0.6575  4.0067  0.3135
 6237SOL     OW30346   0.506   2.323   2.668 -0.0482  0.0096 -0.2400
 6237SOL    HW130347   0.438   2.338   2.735  1.2653  0.4578  0.9839
 6237SOL    HW230348   0.572   2.271   2.712  0.5055  0.9936  0.0788
 6238SOL     OW30349   3.354   4.159   0.714 -0.1075  0.4941 -0.6637
 6238SOL    HW130350   3.272   4.126   0.676  1.2453 -1.2586 -2.0284
 6238SOL    HW230351   3.393   4.179   0.629  0.4731  2.3437  0.0410
 6239SOL     OW30352   1.003   4.453   5.876 -0.1603 -0.3763  0.3021
 6239SOL    HW130353   0.925   4.481   5.924 -1.2173 -0.0001 -1.6557
 6239SOL    HW230354   1.064   4.526   5.876 -0.6120  0.0076  1.7393
 6240SOL     OW30355   3.921   0.153  11.498 -0.3405  0.2734  0.6600
 6240SOL    HW130356   3.931   0.165  11.403  0.8925 -1.7862  0.5324
 6240SOL    HW230357   4.014   0.141  11.515 -0.9968 -5.0603  0.4626
 6241SOL     OW30358   2.202   3.417  11.608 -0.0029  0.1484 -0.3459
 6241SOL    HW130359   2.185   3.383  11.696 -2.6472  3.2364  0.3444
 6241SOL    HW230360   2.276   3.366  11.576 -1.5007 -2.6419  0.5720
 6242SOL     OW30361   4.113   2.635   8.499  0.0725 -0.4475  0.2668
 6242SOL    HW130362   4.157   2.563   8.453 -0.6438  0.5472 -1.9783
 6242SOL    HW230363   4.062   2.585   8.563 -1.2397  0.9952  0.3555
 6243SOL     OW30364   0.050   2.622   3.149  0.1282  0.3878 -0.7123
 6243SOL    HW130365   4.731   2.565   3.098 -1.9644  0.5052  1.5270
 6243SOL    HW230366   0.070   2.568   3.226 -1.4397  0.5156 -0.2276
 6244SOL     OW30367   3.197   1.408   4.886  1.0962  0.0562  0.0185
 6244SOL    HW130368   3.165   1.385   4.798 -0.0452 -1.2676  0.7858
 6244SOL    HW230369   3.155   1.493   4.894  3.0073  0.8823  1.2936
 6245SOL     OW30370   4.442   1.828   4.454 -0.1914 -0.3126 -0.4104
 6245SOL    HW130371   4.374   1.765   4.477  0.5535 -1.0795 -0.3347
 6245SOL    HW230372   4.393   1.910   4.443  1.3388  0.5565 -0.6505
 6246SOL     OW30373   3.883   2.199   5.452 -0.3375 -0.1427  0.2129
 6246SOL    HW130374   3.883   2.262   5.525  1.1306 -0.5726  0.6014
 6246SOL    HW230375   3.793   2.167   5.450 -0.6134  0.4979  1.8685
 6247SOL     OW30376   3.502   2.434   7.817  0.0995  0.2444 -0.1415
 6247SOL    HW130377   3.570   2.450   7.882  1.4077 -1.9060 -0.9923
 6247SOL    HW230378   3.438   2.501   7.844  0.0568  0.4178 -0.6722
 6248SOL     OW30379   4.022   0.903   6.539  0.3215 -0.2544  0.6270
 6248SOL    HW130380   4.085   0.967   6.571 -0.1269  1.4171 -1.8677
 6248SOL    HW230381   3.940   0.944   6.567  0.0724  0.5005 -1.2286
 6249SOL     OW30382   2.151   0.710  10.185 -0.3276 -0.0215  0.2403
 6249SOL    HW130383   2.237   0.703  10.225  0.0874  3.0488 -0.0922
 6249SOL    HW230384   2.092   0.737  10.256 -0.1038  2.4922 -0.5193
 6250SOL     OW30385   1.170   4.415   5.367 -0.1136  0.2219  0.5985
 6250SOL    HW130386   1.173   4.347   5.300  1.7003  2.4206 -1.5718
 6250SOL    HW230387   1.257   4.442   5.398  1.2875 -1.1893 -2.0902
 6251SOL     OW30388   3.485   0.329   0.093  0.2693 -0.1954 -0.0755
 6251SOL    HW130389   3.392   0.347   0.086  0.5991  1.4771 -0.1894
 6251SOL    HW230390   3.486   0.290   0.181  0.1180 -1.4199 -0.6244
 6252SOL     OW30391   3.566   2.864   1.062 -0.2951 -0.0030  0.0556
 6252SOL    HW130392   3.618   2.784   1.057 -1.0348 -0.5835  1.6396
 6252SOL    HW230393   3.530   2.865   1.151 -1.3160 -1.0840 -0.3532
 6253SOL     OW30394   0.985   3.407   7.411  0.2874 -0.1990 -0.0121
 6253SOL    HW130395   1.065   3.446   7.446  0.1840  0.6299 -0.6880
 6253SOL    HW230396   0.927   3.420   7.487 -0.4991 -0.6758 -0.5309
 6254SOL     OW30397   4.220   4.155   7.203  0.1728  0.1952  0.1368
 6254SOL    HW130398   4.162   4.082   7.225  0.1148 -0.0351 -0.7662
 6254SOL    HW230399   4.297   4.107   7.171  0.6352  0.7045  0.4898
 6255SOL     OW30400   0.885   1.251   4.839  0.1988  0.0596 -0.4199
 6255SOL    HW130401   0.965   1.244   4.891  1.1925  0.7247 -1.8426
 6255SOL    HW230402   0.850   1.333   4.874  0.9683 -0.2511  1.0663
 6256SOL     OW30403   2.957   2.925   3.438  0.1527 -0.1778  0.9474
 6256SOL    HW130404   2.868   2.894   3.457 -0.3792  1.2400  0.7657
 6256SOL    HW230405   3.004   2.845   3.414 -0.1715  0.0302 -0.3916
 6257SOL     OW30406   0.923   3.726  13.958 -0.2562  0.3605 -0.0722
 6257SOL    HW130407   0.982   3.655  13.936 -1.4021  0.0701 -2.1557
 6257SOL    HW230408   0.848   3.720  13.899 -2.2985 -2.7173  2.8970
 6258SOL     OW30409   4.076   3.680   7.428 -0.2749 -0.4430  0.7336
 6258SOL    HW130410   4.001   3.640   7.384 -0.6776  1.1289  0.0148
 6258SOL    HW230411   4.123   3.601   7.455 -0.5896 -0.7720  0.3277
 6259SOL     OW30412   3.675   2.753  13.809 -0.6190  0.0471  0.1860
 6259SOL    HW130413   3.597   2.801  13.780 -0.7483 -0.3215 -0.0793
 6259SOL    HW230414   3.746   2.794  13.761  0.0766 -1.8562 -0.4065
 6260SOL     OW30415   1.556   0.589   4.158  0.4808  0.0247  0.7092
 6260SOL    HW130416   1.591   0.530   4.091 -0.5936 -1.4340  1.4409
 6260SOL    HW230417   1.480   0.624   4.112 -1.2378 -0.6530  3.0521
 6261SOL     OW30418   4.626   3.106   3.849  0.5001 -0.1872  0.1579
 6261SOL    HW130419   4.652   3.028   3.800 -0.8411  0.3936 -1.4565
 6261SOL    HW230420   4.533   3.098   3.869  0.3313  0.0714 -0.5397
 6262SOL     OW30421   3.675   2.635   8.852  0.1768 -0.2113  0.8882
 6262SOL    HW130422   3.679   2.715   8.903  3.2495 -0.4008  0.9052
 6262SOL    HW230423   3.663   2.666   8.762 -1.9398 -0.7959  0.9558
 6263SOL     OW30424   0.122   4.160   3.048 -0.3891  0.3372  0.1106
 6263SOL    HW130425   0.132   4.173   2.953  0.2225 -0.9501  0.0056
 6263SOL    HW230426   0.048   4.220   3.060 -1.1514 -0.4423 -0.6814
 6264SOL     OW30427   2.658   4.671   9.600  0.1917  0.3592 -0.1844
 6264SOL    HW130428   2.680   4.663   9.507  0.6543 -0.0210 -0.0436
 6264SOL    HW230429   2.706   0.012   9.627 -0.8310  0.8126  0.2913
 6265SOL     OW30430   3.531   1.565  14.846  0.1301  0.1568 -0.4163
 6265SOL    HW130431   3.563   1.475  14.854  1.1158  0.5279 -0.2656
 6265SOL    HW230432   3.517   1.590  14.938 -2.6224  0.4933 -0.9342
 6266SOL     OW30433   2.102   4.480   7.256  0.1309 -0.4305 -0.4848
 6266SOL    HW130434   2.025   4.437   7.291 -0.8486  1.0365 -0.8065
 6266SOL    HW230435   2.159   4.474   7.332  1.3016  0.4641 -1.2785
 6267SOL     OW30436   4.179   1.172   8.775  0.7641  0.4332 -0.3231
 6267SOL    HW130437   4.124   1.109   8.820  1.8630 -1.2653 -1.3245
 6267SOL    HW230438   4.241   1.186   8.847 -0.9771  0.0247  1.2309
 6268SOL     OW30439   1.565   1.431   9.262 -0.5809 -0.3296  0.1232
 6268SOL    HW130440   1.652   1.471   9.266 -1.2869  1.2479 -0.2690
 6268SOL    HW230441   1.510   1.509   9.269  0.2886  0.0384  3.0288
 6269SOL     OW30442   2.209   3.946   2.415  0.1978 -0.3979 -1.0801
 6269SOL    HW130443   2.117   3.957   2.439  1.4625  0.6253  3.1700
 6269SOL    HW230444   2.209   4.003   2.338 -0.3884  1.4344  0.2915
 6270SOL     OW30445   3.695   1.602   1.321 -0.0497 -0.0716 -0.0301
 6270SOL    HW130446   3.719   1.693   1.340 -0.1800  0.0948 -0.6630
 6270SOL    HW230447   3.604   1.596   1.291 -0.1493 -1.0931  0.4713
 6271SOL     OW30448   2.418   0.929  16.407 -0.3260  0.0008 -0.2420
 6271SOL    HW130449   2.510   0.928  16.431 -0.1982 -2.3072 -0.8674
 6271SOL    HW230450   2.382   0.913  16.494  1.0742 -0.3878  0.2532
 6272SOL     OW30451   3.469   1.638   2.651  0.0542 -0.2657 -0.2057
 6272SOL    HW130452   3.510   1.572   2.708 -1.0441 -1.2907 -0.5921
 6272SOL    HW230453   3.442   1.705   2.714 -0.9243 -1.3610  0.5775
 6273SOL     OW30454   2.549   4.271   8.609  0.2296 -0.0611  0.4195
 6273SOL    HW130455   2.623   4.324   8.638  0.3807 -0.6410  1.1056
 6273SOL    HW230456   2.513   4.352   8.574 -2.0186 -1.7149 -1.0935
 6274SOL     OW30457   3.687   3.486  11.029  0.5045 -0.4105  0.1330
 6274SOL    HW130458   3.734   3.549  10.975  2.2717 -0.4573  1.5983
 6274SOL    HW230459   3.633   3.447  10.961  0.2231 -1.1661  0.7996
 6275SOL     OW30460   2.087   0.695   6.955 -0.4251  0.4416  0.0325
 6275SOL    HW130461   2.035   0.712   7.034 -0.1160 -0.9838  0.5531
 6275SOL    HW230462   2.027   0.692   6.881 -0.3418 -1.6754  0.0515
 6276SOL     OW30463   3.794   3.705   7.068 -0.6792  0.5647 -0.4270
 6276SOL    HW130464   3.815   3.664   7.152  0.1185  1.1018 -0.3633
 6276SOL    HW230465   3.878   3.719   7.025 -1.0425  1.9894 -0.6764
 6277SOL     OW30466   0.115   1.427   1.669  0.2709  0.1579  0.5488
 6277SOL    HW130467   0.030   1.384   1.657  0.5981  0.1014 -1.4985
 6277SOL    HW230468   0.153   1.361   1.728  1.3662  1.6263  1.4752
 6278SOL     OW30469   4.736   0.911  12.355  0.0800  0.1034 -0.5564
 6278SOL    HW130470   0.079   0.940  12.397  0.6639 -0.6482 -1.1608
 6278SOL    HW230471   4.690   0.995  12.360 -1.5823 -0.7497 -1.4493
 6279SOL     OW30472   3.772   0.875   6.718  0.2194 -0.1809 -0.2591
 6279SOL    HW130473   3.789   0.961   6.757 -1.1612 -1.4819  3.1944
 6279SOL    HW230474   3.815   0.825   6.787 -1.2867 -0.7145  0.2868
 6280SOL     OW30475   1.197   3.503  15.827 -0.4524 -0.2350  0.2697
 6280SOL    HW130476   1.109   3.535  15.845  0.4049  1.3536  1.6145
 6280SOL    HW230477   1.245   3.533  15.904  0.0324  1.7613 -0.8040
 6281SOL     OW30478   4.366   3.199  11.640 -0.2085 -0.4312 -0.6777
 6281SOL    HW130479   4.394   3.286  11.668 -0.2385 -0.7385  0.3377
 6281SOL    HW230480   4.451   3.161  11.620  0.1649  0.3267 -0.5240
 6282SOL     OW30481   2.214   1.301   7.467  0.1605 -0.0342  0.0506
 6282SOL    HW130482   2.217   1.396   7.481 -0.5134 -0.2142  1.4162
 6282SOL    HW230483   2.287   1.277   7.525 -1.6135 -4.0864  0.5913
 6283SOL     OW30484   2.475   3.997   9.234 -0.0918  0.6879  0.2495
 6283SOL    HW130485   2.416   3.954   9.296  0.9863 -0.6209  0.3561
 6283SOL    HW230486   2.445   4.088   9.240 -1.7155  0.0460  1.6462
 6284SOL     OW30487   0.405   0.554   8.258 -0.4705  0.1518  0.2434
 6284SOL    HW130488   0.335   0.506   8.213 -1.5670  1.4272  0.5756
 6284SOL    HW230489   0.365   0.580   8.341 -2.1159  0.5375 -0.6518
 6285SOL     OW30490   3.446   3.320   4.658 -0.0983 -0.1585 -0.0520
 6285SOL    HW130491   3.411   3.311   4.746  0.2773 -0.5363  0.0632
 6285SOL    HW230492   3.392   3.271   4.596  3.4591 -2.4261 -1.4270
 6286SOL     OW30493   3.849   4.578   8.383 -0.0746  0.3318  0.0664
 6286SOL    HW130494   3.932   4.605   8.344  0.8417 -1.0026  1.0988
 6286SOL    HW230495   3.858   4.484   8.368 -3.1851  0.0057  0.3621
 6287SOL     OW30496   1.454   3.332   2.536 -0.1509 -0.4152 -0.1762
 6287SOL    HW130497   1.540   3.359   2.504 -0.2092  0.7904  0.6631
 6287SOL    HW230498   1.489   3.258   2.585  1.8266  1.5777  1.3947
 6288SOL     OW30499   2.684   3.175   1.538 -0.0231  0.1729 -0.1131
 6288SOL    HW130500   2.745   3.117   1.583  0.8951  1.2765  0.0645
 6288SOL    HW230501   2.742   3.247   1.510 -1.7451  1.5013 -0.2536
 6289SOL     OW30502   2.583   0.178  15.383 -0.0661 -0.0492 -0.2088
 6289SOL    HW130503   2.552   0.095  15.349  1.5764  0.5656 -3.1914
 6289SOL    HW230504   2.677   0.176  15.362 -0.5007  0.4487 -2.1753
 6290SOL     OW30505   0.239   0.829   6.955  0.3976 -0.0849  0.2338
 6290SOL    HW130506   0.255   0.918   6.923  1.6615 -1.5909 -3.1979
 6290SOL    HW230507   0.239   0.842   7.050 -3.4940 -1.5895  0.4250
 6291SOL     OW30508   0.568   4.086   8.269  0.0904 -0.0873 -0.2486
 6291SOL    HW130509   0.569   4.108   8.176  0.3917  0.8627 -0.0215
 6291SOL    HW230510   0.544   3.994   8.261  0.8775 -0.4734  1.6816
 6292SOL     OW30511   2.833   2.647  14.277 -0.6873  0.2370  0.3456
 6292SOL    HW130512   2.872   2.642  14.190 -0.1177  0.5045  0.5821
 6292SOL    HW230513   2.841   2.740  14.299 -3.6142  0.3317  1.0012
 6293SOL     OW30514   1.135   3.845  14.070  0.2345  0.1066  0.3425
 6293SOL    HW130515   1.074   3.781  14.033  0.0383  0.7844 -0.4950
 6293SOL    HW230516   1.116   3.913  14.005  1.3457  1.3406  1.3132
 6294SOL     OW30517   1.054   3.817  11.925 -0.4737 -0.7919  0.1056
 6294SOL    HW130518   1.145   3.787  11.924 -1.4113 -3.5663 -2.9277
 6294SOL    HW230519   1.029   3.801  12.015  1.8751 -0.3030  0.8660
 6295SOL     OW30520   3.553   3.542   7.005  0.2712 -0.2205 -0.0570
 6295SOL    HW130521   3.526   3.546   6.913  1.4380  1.2426 -0.3463
 6295SOL    HW230522   3.601   3.623   7.020  0.4814 -0.4552  0.5261
 6296SOL     OW30523   4.207   3.476   5.501 -0.3290 -0.0396  0.3437
 6296SOL    HW130524   4.122   3.446   5.533  0.5937 -0.5378  2.3743
 6296SOL    HW230525   4.258   3.397   5.481 -1.3220 -0.0666 -2.0885
 6297SOL     OW30526   4.087   0.454   7.785  0.2812 -0.2550 -0.4203
 6297SOL    HW130527   4.091   0.359   7.792 -2.4581 -0.4100 -1.0977
 6297SOL    HW230528   4.074   0.467   7.691  2.8130 -2.1480 -1.0160
 6298SOL     OW30529   1.705   3.379   2.467  0.4388 -0.2641 -0.1991
 6298SOL    HW130530   1.789   3.420   2.488  0.0965  0.5133 -0.3460
 6298SOL    HW230531   1.692   3.418   2.381  0.7507  0.3514  0.0334
 6299SOL     OW30532   3.709   2.456   6.138  0.7847  0.1497 -0.0999
 6299SOL    HW130533   3.657   2.479   6.061 -0.6886  0.6541  1.0339
 6299SOL    HW230534   3.801   2.466   6.114  0.4674 -0.1971 -1.4347
 6300SOL     OW30535   2.690   4.482   7.633  0.4351  0.2804  0.8998
 6300SOL    HW130536   2.774   4.467   7.677  1.4457  2.7601 -0.1734
 6300SOL    HW230537   2.680   4.402   7.582 -1.2411  0.2650  1.2684
 6301SOL     OW30538   3.612   1.827   3.264 -0.1006 -0.5830 -0.4806
 6301SOL    HW130539   3.560   1.866   3.333  2.3112 -0.6240  1.3788
 6301SOL    HW230540   3.691   1.882   3.258  1.0101 -2.2656 -1.3547
 6302SOL     OW30541   1.286   3.297  14.978 -0.1168 -0.0910 -0.5134
 6302SOL    HW130542   1.304   3.390  14.996 -0.6859 -0.3370  1.3723
 6302SOL    HW230543   1.317   3.285  14.888 -1.3057 -1.0993 -0.7795
 6303SOL     OW30544   2.434   0.340   5.264 -0.8126 -0.3757 -0.4945
 6303SOL    HW130545   2.387   0.278   5.320 -0.1837  0.7962  1.3070
 6303SOL    HW230546   2.466   0.284   5.193 -0.8579 -1.8889  0.6681
 6304SOL     OW30547   3.465   2.924   3.439  0.8004 -0.2170 -0.4414
 6304SOL    HW130548   3.549   2.878   3.441  0.3157 -1.0300  1.7318
 6304SOL    HW230549   3.415   2.863   3.494  0.5962  0.4669  0.1237
 6305SOL     OW30550   2.191   1.644   6.784 -0.1496  0.4586  0.0337
 6305SOL    HW130551   2.285   1.636   6.771 -0.4262 -0.6194 -1.2900
 6305SOL    HW230552   2.193   1.739   6.770 -1.6743  0.6078  0.8003
 6306SOL     OW30553   3.600   3.756  12.318  0.2174  0.5598  0.7002
 6306SOL    HW130554   3.575   3.727  12.405  0.0368  0.9745  0.7842
 6306SOL    HW230555   3.613   3.851  12.323  1.3460  0.4259  0.3957
 6307SOL     OW30556   1.404   4.159  16.055  0.3099 -0.2710  0.0119
 6307SOL    HW130557   1.320   4.128  16.089  1.7124 -1.3056  2.6060
 6307SOL    HW230558   1.457   4.166  16.135  1.0815  0.6302 -0.5838
 6308SOL     OW30559   1.345   4.602   2.703 -0.2323 -0.7817 -0.3152
 6308SOL    HW130560   1.257   4.612   2.740  0.1663 -0.0234  0.4072
 6308SOL    HW230561   1.357   4.685   2.656  0.3656 -0.9947 -0.5332
 6309SOL     OW30562   3.411   0.311   8.435  0.2064 -0.3458 -0.5317
 6309SOL    HW130563   3.419   0.234   8.492 -0.2971  0.9588  1.2908
 6309SOL    HW230564   3.331   0.360   8.454 -0.1421 -1.2000  0.2238
 6310SOL     OW30565   1.053   0.368   7.927 -0.1451  0.1494  0.5812
 6310SOL    HW130566   1.010   0.358   7.842 -1.5012  1.1871  1.1376
 6310SOL    HW230567   1.078   0.461   7.929  1.4429 -0.2493 -0.7964
 6311SOL     OW30568   1.671   2.855   7.683  0.8550  0.0203 -0.2259
 6311SOL    HW130569   1.742   2.859   7.620 -0.0128 -3.7099 -1.4586
 6311SOL    HW230570   1.722   2.886   7.758  0.8112  1.8613 -0.9413
 6312SOL     OW30571   2.376   2.097   5.145  0.1759 -0.6235 -0.2614
 6312SOL    HW130572   2.439   2.034   5.109  0.5604 -0.7403  0.6045
 6312SOL    HW230573   2.306   2.035   5.168 -2.1203  1.9793 -0.2835
 6313SOL     OW30574   4.258   4.123   8.859 -0.2826 -0.3153 -0.7058
 6313SOL    HW130575   4.345   4.085   8.874 -0.3332 -1.1189 -2.4897
 6313SOL    HW230576   4.208   4.043   8.845  0.3588 -0.7884 -0.2872
 6314SOL     OW30577   1.980   3.500   2.479  0.6463 -0.5235 -0.3274
 6314SOL    HW130578   2.059   3.474   2.528  0.0567 -0.0554  0.8501
 6314SOL    HW230579   1.972   3.589   2.511 -0.8032  0.2604 -2.9271
 6315SOL     OW30580   0.974   0.940   3.707 -0.0706  0.0460  0.0026
 6315SOL    HW130581   0.967   0.848   3.685 -1.6185  0.2243 -0.2546
 6315SOL    HW230582   1.041   0.936   3.775 -1.8224 -0.0696  1.7088
 6316SOL     OW30583   4.437   3.299  15.237  0.4253  0.3037  0.0917
 6316SOL    HW130584   4.379   3.223  15.230  1.1157 -0.6326  4.3012
 6316SOL    HW230585   4.511   3.262  15.286  0.3417 -1.2898 -0.9825
 6317SOL     OW30586   2.467   3.578   8.892 -0.0072 -0.5595  0.1379
 6317SOL    HW130587   2.424   3.661   8.908 -1.0682 -1.1297  0.2434
 6317SOL    HW230588   2.554   3.596   8.929 -0.4442  0.7780  0.5026
 6318SOL     OW30589   1.446   0.434  12.505 -0.3564  0.0400  0.5304
 6318SOL    HW130590   1.450   0.424  12.410  0.6654 -0.8966  0.6836
 6318SOL    HW230591   1.351   0.431  12.518 -0.7832 -0.4374 -2.5210
 6319SOL     OW30592   3.704   1.783   4.530  0.3141 -0.5772 -0.2583
 6319SOL    HW130593   3.652   1.733   4.594 -0.0228  1.8723  1.3836
 6319SOL    HW230594   3.742   1.857   4.576 -0.1982 -0.7344  0.4324
 6320SOL     OW30595   3.609   1.142  14.027 -0.2686  0.2672 -0.1647
 6320SOL    HW130596   3.626   1.102  13.941  0.0150  1.0261 -0.4601
 6320SOL    HW230597   3.566   1.224  14.001 -0.5649  0.2815  0.3664
 6321SOL     OW30598   3.590   1.167   6.570 -0.2038 -0.0413  0.1631
 6321SOL    HW130599   3.575   1.123   6.653 -0.4625 -1.0047 -0.3912
 6321SOL    HW230600   3.683   1.189   6.576 -0.4171  0.5506  1.2832
 6322SOL     OW30601   4.612   2.902  11.739 -0.1870  0.0994 -0.0833
 6322SOL    HW130602   4.689   2.846  11.747 -0.7760 -0.6732  0.2174
 6322SOL    HW230603   4.647   2.984  11.704  0.3719 -0.6994 -1.4253
 6323SOL     OW30604   2.672   2.978   6.253 -0.1325 -0.0217  0.1056
 6323SOL    HW130605   2.717   2.994   6.336  2.9652 -2.0283 -1.1914
 6323SOL    HW230606   2.605   2.922   6.292 -2.1903  1.8960 -0.6793
 6324SOL     OW30607   0.852   1.383   0.948  0.1540 -0.0444  0.2006
 6324SOL    HW130608   0.836   1.323   1.021 -3.6288  1.3268  0.5290
 6324SOL    HW230609   0.924   1.327   0.920 -0.6299 -0.2954 -1.3191
 6325SOL     OW30610   3.466   1.656   1.624 -0.9555 -0.0411  0.0816
 6325SOL    HW130611   3.549   1.701   1.638 -1.5168  0.5311  1.4985
 6325SOL    HW230612   3.428   1.668   1.711 -0.9588  1.0964 -0.0801
 6326SOL     OW30613   4.281   3.358   2.952 -0.0485 -0.0587 -0.1027
 6326SOL    HW130614   4.331   3.280   2.928  0.7911  0.4581 -0.0272
 6326SOL    HW230615   4.192   3.337   2.924 -0.1788 -0.8088  0.8630
 6327SOL     OW30616   3.225   2.547  12.347 -0.1708  0.0226  0.5696
 6327SOL    HW130617   3.266   2.634  12.343  3.2791 -1.7008 -1.1372
 6327SOL    HW230618   3.290   2.492  12.303  0.7487  0.8133  0.9239
 6328SOL     OW30619   2.587   4.191   5.960 -0.2817 -0.3638 -0.7301
 6328SOL    HW130620   2.629   4.181   5.874 -0.8664  0.9756 -1.1778
 6328SOL    HW230621   2.509   4.241   5.937  0.7556  2.6632  2.3110
 6329SOL     OW30622   1.835   4.113   1.967  0.0320 -0.3129 -0.6120
 6329SOL    HW130623   1.884   4.095   2.048 -2.0001 -2.3369  0.1376
 6329SOL    HW230624   1.868   4.042   1.912  1.5844  0.0782 -0.1851
 6330SOL     OW30625   2.951   3.951   6.805  0.0762  0.4224  0.2838
 6330SOL    HW130626   2.892   3.880   6.780  0.5042  0.5235 -1.0275
 6330SOL    HW230627   2.949   3.934   6.899  2.4907  0.3614  0.3252
 6331SOL     OW30628   0.302   4.239   8.810  0.3393  0.1999  0.0688
 6331SOL    HW130629   0.280   4.259   8.719  1.0649  3.1579  0.5647
 6331SOL    HW230630   0.371   4.173   8.800 -1.2853 -1.3904 -0.6394
 6332SOL     OW30631   2.281   4.606   4.841 -0.9789  0.1930  0.1575
 6332SOL    HW130632   2.344   4.660   4.792 -1.6474  0.2548 -0.6397
 6332SOL    HW230633   2.230   4.564   4.771 -2.4945  0.5947  1.0257
 6333SOL     OW30634   0.002   0.423  16.615  0.3448 -0.2456 -0.0169
 6333SOL    HW130635   4.661   0.433  16.562  0.5570 -1.0271 -0.4824
 6333SOL    HW230636   4.690   0.424  16.697 -1.2128 -0.3493 -0.9618
 6334SOL     OW30637   1.122   2.717   0.161  0.4172  0.0436 -0.0341
 6334SOL    HW130638   1.196   2.699   0.104  0.8583 -1.1980  0.9129
 6334SOL    HW230639   1.041   2.731   0.112  0.2413 -2.9594 -0.6059
 6335SOL     OW30640   0.376   4.518   8.802  0.3317  0.2314 -0.4889
 6335SOL    HW130641   0.325   4.441   8.829 -1.8038  1.8830  0.1356
 6335SOL    HW230642   0.328   4.596   8.826  0.6026  0.1044  0.4537
 6336SOL     OW30643   1.513   0.344  15.366  0.2455 -0.1654 -0.8020
 6336SOL    HW130644   1.429   0.312  15.399 -0.3142 -0.7028 -2.7074
 6336SOL    HW230645   1.492   0.407  15.297  1.2331 -1.2919 -2.1155
 6337SOL     OW30646   3.905   3.763   4.878  0.2915  0.5322 -0.3006
 6337SOL    HW130647   3.969   3.705   4.918 -0.2729 -0.2991 -0.5855
 6337SOL    HW230648   3.890   3.820   4.953  0.5580 -0.4428  0.4930
 6338SOL     OW30649   3.226   3.883   6.120 -0.1286 -0.1926 -0.0201
 6338SOL    HW130650   3.192   3.972   6.131  3.0036  0.8246  1.4016
 6338SOL    HW230651   3.156   3.836   6.166 -0.2929  1.3599  1.3152
 6339SOL     OW30652   4.365   2.477  10.936  0.3771 -0.0963  0.0819
 6339SOL    HW130653   4.457   2.497  10.917 -0.2847  2.0564 -0.8403
 6339SOL    HW230654   4.332   2.436  10.856 -0.3047  0.6248 -0.0077
 6340SOL     OW30655   4.315   0.333  13.964 -0.3757  0.2414  0.1769
 6340SOL    HW130656   4.298   0.409  14.020 -1.4129  1.6093 -2.0039
 6340SOL    HW230657   4.257   0.346  13.889  0.9367 -0.9007 -1.0279
 6341SOL     OW30658   1.432   1.051   6.010 -0.0997 -0.5138 -0.1355
 6341SOL    HW130659   1.437   0.956   6.003 -1.3496 -0.4726 -1.5359
 6341SOL    HW230660   1.455   1.070   5.919  1.2117 -0.3185  0.2241
 6342SOL     OW30661   2.471   2.335  16.519 -0.2466 -0.8241  0.7661
 6342SOL    HW130662   2.439   2.391  16.449 -0.9085 -0.1840  1.5821
 6342SOL    HW230663   2.389   2.303  16.558  0.1466 -2.6052  0.1578
 6343SOL     OW30664   4.030   3.098   4.799 -0.1706  0.0743  0.4249
 6343SOL    HW130665   3.970   3.164   4.763  0.6557 -0.0568 -1.2012
 6343SOL    HW230666   3.970   3.029   4.825 -0.4840  0.4543  0.7206
 6344SOL     OW30667   0.602   1.942   8.108  0.3396  0.3850  0.0992
 6344SOL    HW130668   0.590   2.008   8.040 -3.2996  0.7110  1.0458
 6344SOL    HW230669   0.682   1.975   8.148 -0.3505  2.2974 -0.0850
 6345SOL     OW30670   2.690   4.617  13.537 -0.6463 -0.3459  0.8865
 6345SOL    HW130671   2.752   4.690  13.535 -0.0028 -0.9199  0.0885
 6345SOL    HW230672   2.699   4.596  13.444 -1.0851 -2.1148  1.2416
 6346SOL     OW30673   4.107   4.566  16.752  0.2325  0.3381  0.1970
 6346SOL    HW130674   4.072   4.580  16.664  1.5910 -0.7735 -0.5118
 6346SOL    HW230675   4.157   4.648  16.754  1.5657 -0.5276  2.0621
 6347SOL     OW30676   2.336   4.632  15.108 -0.3990  0.2821 -0.0378
 6347SOL    HW130677   2.384   4.687  15.046 -2.6351  0.3539 -1.7093
 6347SOL    HW230678   2.245   4.652  15.085 -0.2832  0.2017 -0.5690
 6348SOL     OW30679   2.043   1.110  13.664 -0.5205 -0.8186 -0.2542
 6348SOL    HW130680   1.987   1.121  13.587 -1.2917 -2.1276  0.1284
 6348SOL    HW230681   2.120   1.082  13.613  0.8944  3.0702 -0.2444
 6349SOL     OW30682   0.827   0.650   1.330 -0.1711 -0.3836  0.1272
 6349SOL    HW130683   0.819   0.556   1.344 -2.0821 -0.1793  0.3628
 6349SOL    HW230684   0.769   0.682   1.398 -1.1944 -1.8853 -0.0577
 6350SOL     OW30685   0.246   0.128   1.219 -0.1205 -0.4918 -0.5242
 6350SOL    HW130686   0.306   0.077   1.164 -0.0260 -0.6402 -0.2881
 6350SOL    HW230687   0.163   0.117   1.173 -0.8879  0.4513  0.6408
 6351SOL     OW30688   1.154   3.552  16.355  0.3240 -0.1538  0.0756
 6351SOL    HW130689   1.242   3.513  16.357 -0.3734 -1.6991  1.5305
 6351SOL    HW230690   1.097   3.475  16.362  2.0907 -1.4073  0.6405
 6352SOL     OW30691   0.386   1.831   7.177 -0.2981  0.5677 -0.4873
 6352SOL    HW130692   0.379   1.912   7.126 -1.4789  1.8778  1.7959
 6352SOL    HW230693   0.481   1.832   7.192  0.0310  1.4000 -2.5704
 6353SOL     OW30694   3.213   4.473   6.083 -0.1430 -0.1687  0.3959
 6353SOL    HW130695   3.279   4.522   6.133  0.5482  0.1022 -0.7726
 6353SOL    HW230696   3.127   4.505   6.111  0.0585  1.4743 -0.8518
 6354SOL     OW30697   1.760   4.263   4.159  0.9042  0.4003 -0.5468
 6354SOL    HW130698   1.718   4.311   4.087  0.8467  0.4515 -0.4783
 6354SOL    HW230699   1.827   4.326   4.183 -0.8508  1.7640  0.6910
 6355SOL     OW30700   1.608   0.778   2.387  0.1905 -0.4439 -0.0240
 6355SOL    HW130701   1.700   0.765   2.409 -0.1738 -0.6259  1.4446
 6355SOL    HW230702   1.565   0.725   2.455 -1.2232 -0.8732 -1.2561
 6356SOL     OW30703   3.434   4.373   7.704 -0.2586 -0.3638 -0.0783
 6356SOL    HW130704   3.442   4.367   7.609  1.2456  1.9307 -0.0818
 6356SOL    HW230705   3.486   4.299   7.734 -1.5080 -0.5368  1.6720
 6357SOL     OW30706   4.671   4.533  13.065  0.0066 -0.0186  0.3134
 6357SOL    HW130707   4.690   4.604  13.127  0.7955 -1.0767  1.2900
 6357SOL    HW230708   4.612   4.470  13.106  0.9702 -1.8460 -1.0974
 6358SOL     OW30709   1.655   1.717   2.101  0.5113 -0.4825  0.7382
 6358SOL    HW130710   1.631   1.656   2.170  0.9943  0.1974  1.5097
 6358SOL    HW230711   1.583   1.779   2.092  1.4806  0.4839 -0.3920
 6359SOL     OW30712   2.997   1.035   6.348  0.1147  0.2058  0.2478
 6359SOL    HW130713   3.001   0.999   6.437  2.8047 -0.7078 -0.2493
 6359SOL    HW230714   3.031   0.963   6.296  2.0475  2.3356 -1.4787
 6360SOL     OW30715   4.208   0.754   2.611 -0.3371 -0.2708  0.1797
 6360SOL    HW130716   4.233   0.744   2.703  0.3936 -1.9274 -0.1974
 6360SOL    HW230717   4.147   0.827   2.625  0.3545  0.5012 -0.7801
 6361SOL     OW30718   1.239   2.153  13.125  0.1316 -0.4793  0.5819
 6361SOL    HW130719   1.148   2.125  13.120 -0.6509  2.5628 -2.6792
 6361SOL    HW230720   1.245   2.181  13.216 -1.8213  0.0410  0.5644
 6362SOL     OW30721   4.081   1.573   1.256  0.6363  0.6572  0.2393
 6362SOL    HW130722   4.119   1.661   1.260  0.4493  0.7498 -0.0284
 6362SOL    HW230723   4.018   1.562   1.328 -1.2943 -1.9953 -1.8670
 6363SOL     OW30724   0.796   1.605   5.534 -0.6217 -0.0607 -0.1710
 6363SOL    HW130725   0.795   1.609   5.630 -1.2291 -1.2724 -0.1294
 6363SOL    HW230726   0.886   1.621   5.507 -0.1661 -1.1969  0.7091
 6364SOL     OW30727   1.820   3.585   6.679  0.6527  0.1866 -0.4018
 6364SOL    HW130728   1.886   3.516   6.677 -1.3451 -1.7487 -0.3896
 6364SOL    HW230729   1.871   3.664   6.694 -1.8265  1.2789  2.1443
 6365SOL     OW30730   3.433   2.835  16.685  0.2323 -0.4149 -0.9074
 6365SOL    HW130731   3.397   2.862  16.601  2.1997 -0.5394 -1.7822
 6365SOL    HW230732   3.387   2.890  16.748  2.2482  0.6444 -0.3500
 6366SOL     OW30733   0.299   0.287   2.902 -0.2221  0.2756 -0.3091
 6366SOL    HW130734   0.366   0.290   2.834 -0.9962 -1.0721 -1.1211
 6366SOL    HW230735   0.218   0.273   2.854 -1.0823  0.9048  0.9646
 6367SOL     OW30736   0.046   2.208   4.196 -0.5201 -0.7014 -0.1469
 6367SOL    HW130737   0.025   2.298   4.170  2.7915  0.4107  1.1259
 6367SOL    HW230738   4.704   2.192   4.246 -0.2494 -0.0048  0.5184
 6368SOL     OW30739   2.461   2.018  14.676  0.5101 -0.6878 -0.2681
 6368SOL    HW130740   2.464   1.978  14.763 -0.1277 -1.3283 -0.5478
 6368SOL    HW230741   2.556   2.034  14.670  0.5010 -0.2934  0.6721
 6369SOL     OW30742   1.913   2.994  14.964  0.7320 -0.0617 -0.7619
 6369SOL    HW130743   1.883   2.903  14.958 -0.7741  0.5491 -2.2519
 6369SOL    HW230744   1.870   3.031  14.887 -0.0503 -0.2193 -0.4006
 6370SOL     OW30745   4.310   4.317  12.231  0.3305 -0.1761 -0.2040
 6370SOL    HW130746   4.236   4.286  12.179 -0.6432  1.4960  0.2063
 6370SOL    HW230747   4.293   4.411  12.236 -3.7514 -1.0863  2.9264
 6371SOL     OW30748   0.645   2.249   8.170 -0.3117  0.0605  0.3372
 6371SOL    HW130749   0.606   2.225   8.254 -1.0131 -0.6392 -0.1860
 6371SOL    HW230750   0.655   2.344   8.176  3.1591 -0.1641 -1.8889
 6372SOL     OW30751   3.546   1.487   5.804  0.2060 -0.4128  0.2832
 6372SOL    HW130752   3.634   1.521   5.788 -0.0289 -0.0983 -0.3230
 6372SOL    HW230753   3.530   1.428   5.730 -0.0092 -0.9057  0.7175
 6373SOL     OW30754   1.538   0.432   6.666  0.2258 -0.3680  0.2863
 6373SOL    HW130755   1.574   0.396   6.585  2.4699  1.9402  0.2545
 6373SOL    HW230756   1.585   0.375   6.727 -0.0896  0.0605  0.9241
 6374SOL     OW30757   3.398   2.341   2.364 -0.7410 -0.7418 -0.3564
 6374SOL    HW130758   3.391   2.355   2.270 -2.0863 -3.4008 -0.6352
 6374SOL    HW230759   3.458   2.407   2.399 -1.6726 -0.3699  0.5605
 6375SOL     OW30760   4.601   3.045   8.446  0.0907  0.1348  0.0310
 6375SOL    HW130761   4.587   3.015   8.356  1.5647 -1.2097  0.2447
 6375SOL    HW230762   4.673   3.107   8.435 -2.1393  2.5197 -1.1020
 6376SOL     OW30763   0.816   1.228   4.018  0.5232  0.0684  0.2356
 6376SOL    HW130764   0.847   1.313   4.048 -0.5982  0.7901 -0.6454
 6376SOL    HW230765   0.894   1.195   3.974 -0.6651 -0.0145 -1.8037
 6377SOL     OW30766   2.580   3.851   8.769  0.0516 -0.0763 -0.0822
 6377SOL    HW130767   2.626   3.899   8.699 -0.9783  0.7095 -0.2107
 6377SOL    HW230768   2.646   3.788   8.798 -0.4010 -0.8226 -0.6749
 6378SOL     OW30769   0.067   0.656   2.509  0.2812  0.1980 -0.2789
 6378SOL    HW130770   0.150   0.609   2.512  0.7501  0.7768 -3.8760
 6378SOL    HW230771   0.081   0.685   2.419  0.8314  1.9523  0.3861
 6379SOL     OW30772   2.711   1.725   0.902 -0.1055  0.4422  0.6794
 6379SOL    HW130773   2.806   1.714   0.910  0.1602 -0.4294 -3.5785
 6379SOL    HW230774   2.690   1.792   0.966 -0.0168  0.9476  0.1771
 6380SOL     OW30775   4.070   0.570  16.348 -0.5526  0.2614  0.0906
 6380SOL    HW130776   4.041   0.505  16.412 -0.0262  0.8144  0.8939
 6380SOL    HW230777   4.122   0.518  16.288 -2.3051 -1.3210 -0.0425
 6381SOL     OW30778   1.154   1.085  15.439 -0.2966  0.3056 -0.5402
 6381SOL    HW130779   1.236   1.083  15.489 -0.8672  0.3270  0.3982
 6381SOL    HW230780   1.186   1.050  15.356 -2.5410 -1.9117 -0.4447
 6382SOL     OW30781   1.071   4.707   2.467 -0.6425 -0.4791 -0.6738
 6382SOL    HW130782   1.090   0.011   2.551  0.3332 -1.7119 -0.2726
 6382SOL    HW230783   1.151   4.655   2.460 -1.0418 -1.0844 -0.7163
 6383SOL     OW30784   2.473   1.355   6.041  0.4865 -0.1784  0.4194
 6383SOL    HW130785   2.386   1.355   6.081 -0.4655 -1.3935 -1.6551
 6383SOL    HW230786   2.465   1.419   5.971 -0.6072 -1.3357 -0.5200
 6384SOL     OW30787   2.567   3.531   2.488 -0.0291 -0.3723 -0.2592
 6384SOL    HW130788   2.541   3.520   2.579 -0.2267 -4.7651 -0.8703
 6384SOL    HW230789   2.640   3.470   2.487  0.3515  0.1068 -1.5247
 6385SOL     OW30790   0.694   0.057   5.145  0.4422 -0.1252 -0.4999
 6385SOL    HW130791   0.737   4.732   5.203  0.1998  0.3612  0.2074
 6385SOL    HW230792   0.604   0.046   5.176  0.4721  0.4562 -0.2011
 6386SOL     OW30793   4.135   0.902   2.867 -0.1800 -0.1013 -0.3431
 6386SOL    HW130794   4.083   0.839   2.917 -0.4353  0.4674  0.1096
 6386SOL    HW230795   4.073   0.964   2.829 -0.3258  0.2205  0.4221
 6387SOL     OW30796   2.211   3.444   7.848  0.3532 -0.1337 -0.0433
 6387SOL    HW130797   2.223   3.351   7.866  1.1843 -0.1376 -0.6424
 6387SOL    HW230798   2.138   3.454   7.787 -0.2333  0.2924  0.7297
 6388SOL     OW30799   3.544   3.206   1.786 -0.0088  0.1461 -0.2056
 6388SOL    HW130800   3.606   3.153   1.736  1.5385 -0.6555  2.5647
 6388SOL    HW230801   3.578   3.296   1.782 -0.5663  0.3900  0.5060
 6389SOL     OW30802   2.166   0.431   1.138 -0.8328  0.0006  0.2600
 6389SOL    HW130803   2.179   0.526   1.143 -0.3586 -0.0898  0.8204
 6389SOL    HW230804   2.257   0.403   1.151 -0.2135  2.4028  1.3134
 6390SOL     OW30805   4.639   3.316   0.135  0.4547  0.0101  0.0369
 6390SOL    HW130806   4.631   3.221   0.147  1.3446 -0.0821 -0.1132
 6390SOL    HW230807   4.664   3.326   0.043 -0.9394  1.5964 -0.1804
 6391SOL     OW30808   2.583   3.465   4.379 -0.0694 -0.2234 -0.3877
 6391SOL    HW130809   2.644   3.425   4.441  1.7618  0.1663 -1.9589
 6391SOL    HW230810   2.631   3.545   4.357 -0.2041  0.2135  0.8776
 6392SOL     OW30811   3.851   3.452   2.713 -0.7525  0.0483  0.4589
 6392SOL    HW130812   3.812   3.365   2.701 -1.1032  0.4003 -1.0146
 6392SOL    HW230813   3.787   3.496   2.768  1.0416  1.7561  1.1923
 6393SOL     OW30814   3.376   0.783   7.031  0.1671  0.2537 -0.3502
 6393SOL    HW130815   3.372   0.810   6.939 -1.4909  0.3274 -0.2602
 6393SOL    HW230816   3.464   0.748   7.027  1.4282  3.2324  1.2133
 6394SOL     OW30817   4.477   1.072   2.613 -0.0341  0.1982 -0.3925
 6394SOL    HW130818   4.549   1.098   2.671 -0.5797 -1.1033  0.8863
 6394SOL    HW230819   4.515   1.006   2.555  0.6013  1.3902 -1.3206
 6395SOL     OW30820   0.775   0.434   1.061  0.7651 -0.8056 -0.4796
 6395SOL    HW130821   0.813   0.379   1.129  0.1548  1.2919  1.5615
 6395SOL    HW230822   0.690   0.453   1.102  1.0171 -0.7868  0.0319
 6396SOL     OW30823   2.937   4.466   5.827  0.5597  0.1752  0.1807
 6396SOL    HW130824   3.005   4.412   5.787  0.8228 -1.8061  3.2813
 6396SOL    HW230825   2.869   4.457   5.760  1.0528  0.2990 -0.3345
 6397SOL     OW30826   2.353   3.961   1.069  0.0197 -0.3601 -0.8872
 6397SOL    HW130827   2.320   4.045   1.102 -0.1192 -1.2451  1.2624
 6397SOL    HW230828   2.402   3.927   1.143  1.0047 -0.1656 -1.4546
 6398SOL     OW30829   3.163   1.108  12.491  0.9112  0.2502 -0.1328
 6398SOL    HW130830   3.139   1.162  12.416  3.9319  0.4275 -0.9577
 6398SOL    HW230831   3.206   1.037  12.444 -0.1574  0.6725 -1.7276
 6399SOL     OW30832   0.786   4.516   2.965 -0.5676 -0.0270  0.2805
 6399SOL    HW130833   0.846   4.447   2.935 -1.3569  1.0911 -3.8474
 6399SOL    HW230834   0.765   4.547   2.877 -2.2505  1.6783  1.3036
 6400SOL     OW30835   4.604   0.046   5.142  0.6202 -0.6809 -0.1096
 6400SOL    HW130836   4.522   0.085   5.111  0.4186  0.3380  1.7126
 6400SOL    HW230837   4.610   4.699   5.099  2.7168 -0.6381  0.0939
 6401SOL     OW30838   0.164   4.202   8.152 -0.3383  0.4531  0.2023
 6401SOL    HW130839   0.150   4.166   8.239  1.6208 -1.4049 -0.2815
 6401SOL    HW230840   0.101   4.143   8.110 -0.4620  1.0943 -0.5201
 6402SOL     OW30841   3.097   2.077  14.750  0.0961  0.2494 -0.0441
 6402SOL    HW130842   3.145   1.995  14.737 -0.7857 -0.3736  0.7073
 6402SOL    HW230843   3.089   2.110  14.660 -1.4062 -0.5445 -0.1912
 6403SOL     OW30844   3.817   0.953   3.131  0.0422  0.1182 -0.1911
 6403SOL    HW130845   3.859   1.039   3.130  0.3337 -0.0102  1.1996
 6403SOL    HW230846   3.755   0.957   3.059  0.2784 -0.8017 -0.4461
 6404SOL     OW30847   0.285   0.273   3.181  0.4261 -0.4850  0.3569
 6404SOL    HW130848   0.298   0.281   3.087 -0.5250  2.3997  0.4534
 6404SOL    HW230849   0.332   0.351   3.214 -0.3704 -0.2864  1.0184
 6405SOL     OW30850   4.052   0.671  13.720  0.1643 -0.1432 -0.0238
 6405SOL    HW130851   3.997   0.744  13.748  0.6010 -0.8720  2.7760
 6405SOL    HW230852   4.003   0.632  13.648  0.4587 -0.2516 -0.1647
 6406SOL     OW30853   0.770   1.184   8.165  0.0634  0.4355 -0.5767
 6406SOL    HW130854   0.688   1.154   8.125  0.1310  0.2723 -0.5957
 6406SOL    HW230855   0.812   1.100   8.183  2.3614  1.4857 -1.0919
 6407SOL     OW30856   1.901   2.852   6.963  0.2323  0.3030  0.9983
 6407SOL    HW130857   1.933   2.763   6.949  1.5609  0.8264  0.6999
 6407SOL    HW230858   1.983   2.900   6.978 -0.3566  1.3634  0.8124
 6408SOL     OW30859   2.686   4.563   4.728 -0.3182 -0.3567 -0.1149
 6408SOL    HW130860   2.676   4.651   4.690 -0.0011 -0.7812 -1.1834
 6408SOL    HW230861   2.775   4.533   4.711 -0.1553 -0.1173  0.3161
 6409SOL     OW30862   2.562   0.674   3.749  0.7832 -0.5115 -0.1818
 6409SOL    HW130863   2.555   0.683   3.844  0.2714 -2.1959 -0.0549
 6409SOL    HW230864   2.638   0.732   3.741  0.0125  0.5597  0.1526
 6410SOL     OW30865   3.175   4.055   9.410 -0.3067 -0.4777  0.2542
 6410SOL    HW130866   3.187   4.085   9.501 -2.6443 -0.5081  0.5684
 6410SOL    HW230867   3.171   4.143   9.371  0.8805 -1.5105 -2.1805
 6411SOL     OW30868   2.191   3.944   4.989  0.3540 -0.7152 -0.0041
 6411SOL    HW130869   2.121   3.902   4.940 -1.6646  0.8686  1.5076
 6411SOL    HW230870   2.264   3.896   4.950  2.1169  0.7417  1.4526
 6412SOL     OW30871   3.235   3.430   4.875  0.5396  0.1684  0.2004
 6412SOL    HW130872   3.184   3.411   4.797  0.0113  0.2935  0.5125
 6412SOL    HW230873   3.235   3.525   4.867 -0.2418 -0.0690 -2.4000
 6413SOL     OW30874   4.479   0.109   2.945 -0.3347 -0.2405  0.2404
 6413SOL    HW130875   4.428   0.115   3.026 -0.4754 -0.9416  0.2082
 6413SOL    HW230876   4.559   0.066   2.974 -0.9854 -0.3733  1.8226
 6414SOL     OW30877   2.523   1.884   3.181 -0.0540  0.2186 -0.3157
 6414SOL    HW130878   2.458   1.830   3.137  0.4411 -0.0350 -0.7301
 6414SOL    HW230879   2.583   1.880   3.106 -0.2396 -1.9455 -0.3530
 6415SOL     OW30880   3.377   0.013  14.826 -0.1839 -0.8697 -0.0332
 6415SOL    HW130881   3.282   0.019  14.825 -0.1678 -0.5930  0.0382
 6415SOL    HW230882   3.387   0.055  14.911  0.9290  0.0454 -0.6125
 6416SOL     OW30883   4.299   2.585   2.040 -0.9302 -0.2716  0.3242
 6416SOL    HW130884   4.209   2.556   2.050 -0.8673 -0.1601  1.2203
 6416SOL    HW230885   4.297   2.674   2.006 -0.9584 -0.7938 -1.0201
 6417SOL     OW30886   1.970   3.256   8.052 -0.1642  0.2468 -0.7011
 6417SOL    HW130887   1.985   3.350   8.059 -3.7264  0.7466  0.0076
 6417SOL    HW230888   1.911   3.247   7.978 -3.0199  3.2153  1.2287
 6418SOL     OW30889   2.103   0.594  12.968  0.8046  0.3252  0.2871
 6418SOL    HW130890   2.174   0.628  12.913 -1.2587  2.2290 -1.1753
 6418SOL    HW230891   2.115   0.643  13.049 -0.9313 -1.7866  1.8326
 6419SOL     OW30892   2.228   4.087   4.683  0.4628 -0.6467 -0.0557
 6419SOL    HW130893   2.190   4.150   4.622  0.1976  0.2870  1.0850
 6419SOL    HW230894   2.271   4.144   4.747  0.5390  0.5964 -1.2228
 6420SOL     OW30895   2.366   4.604  10.744  0.0204 -0.0289  0.0849
 6420SOL    HW130896   2.301   4.538  10.724  2.1574 -1.9212 -0.6493
 6420SOL    HW230897   2.314   4.667  10.794 -0.3267 -0.5164  0.3372
 6421SOL     OW30898   4.617   3.796  14.962 -0.1109  0.3892 -0.4929
 6421SOL    HW130899   4.525   3.798  14.989 -0.6640  0.8539 -2.4539
 6421SOL    HW230900   4.663   3.775  15.044  1.1788 -0.1622 -1.3659
 6422SOL     OW30901   2.985   3.981   2.892 -0.2010 -0.2404 -0.6935
 6422SOL    HW130902   2.931   4.034   2.952  2.1124  2.2573 -0.8346
 6422SOL    HW230903   3.062   4.035   2.877 -1.1657  0.6125 -2.5355
 6423SOL     OW30904   2.887   1.398  17.409 -0.2731 -0.4553 -0.0039
 6423SOL    HW130905   2.920   1.485  17.433  0.1519 -0.5101 -0.3800
 6423SOL    HW230906   2.796   1.402  17.439 -0.6235 -1.9189 -0.8506
 6424SOL     OW30907   2.877   4.236   4.325  0.3562  0.2331 -1.1079
 6424SOL    HW130908   2.971   4.234   4.311  0.4592 -2.2640 -0.0700
 6424SOL    HW230909   2.864   4.189   4.407  2.4489  0.2329 -0.7903
 6425SOL     OW30910   0.217   2.449  11.153 -0.1193 -0.0297 -0.3762
 6425SOL    HW130911   0.224   2.468  11.247 -0.4143 -1.1042 -0.1354
 6425SOL    HW230912   0.303   2.421  11.121  0.8602  2.4737  0.1308
 6426SOL     OW30913   0.788   1.212   7.120  0.1961  0.2546  0.1811
 6426SOL    HW130914   0.855   1.240   7.184 -0.2419 -0.2754  0.8729
 6426SOL    HW230915   0.723   1.174   7.179  1.1980  0.5109  1.4521
 6427SOL     OW30916   0.996   3.856  17.609  0.3017 -0.0032  0.0325
 6427SOL    HW130917   1.029   3.770  17.637  0.7748 -0.3335 -1.5473
 6427SOL    HW230918   1.077   3.901  17.587  0.6270 -0.8022 -0.4052
 6428SOL     OW30919   1.193   3.720  10.764 -0.2322  0.2334 -0.0737
 6428SOL    HW130920   1.227   3.809  10.755  2.9067 -1.0547 -0.9581
 6428SOL    HW230921   1.176   3.703  10.671  1.7367 -0.0122 -0.3845
 6429SOL     OW30922   1.699   2.459   4.513  0.1188 -0.7187 -0.1505
 6429SOL    HW130923   1.707   2.366   4.492  0.5001 -0.7447  0.1328
 6429SOL    HW230924   1.606   2.468   4.536  0.6603 -0.1753  1.7891
 6430SOL     OW30925   3.988   1.603  14.469 -0.5513  0.0191 -0.0391
 6430SOL    HW130926   4.005   1.509  14.477  1.6833  0.5312  1.1803
 6430SOL    HW230927   3.972   1.636  14.557 -0.2340 -0.8153  0.3306
 6431SOL     OW30928   1.988   2.392   4.982  0.1966  0.1249 -0.2097
 6431SOL    HW130929   1.960   2.428   4.898  1.5488 -1.6912 -1.4475
 6431SOL    HW230930   1.924   2.328   5.013 -0.2268  1.5097  1.7526
 6432SOL     OW30931   2.753   0.434   5.144  0.8245 -0.6131 -0.1667
 6432SOL    HW130932   2.832   0.441   5.198 -1.1434  0.3633  2.5906
 6432SOL    HW230933   2.799   0.425   5.060  0.6994  1.8975 -0.4931
 6433SOL     OW30934   3.510   2.549   0.911  0.8848 -0.4241 -0.3109
 6433SOL    HW130935   3.467   2.477   0.866  1.1455 -0.9253  0.2378
 6433SOL    HW230936   3.601   2.534   0.884  1.8039  1.1823  1.8290
 6434SOL     OW30937   1.130   2.523   3.072  0.1533 -0.9695 -0.0688
 6434SOL    HW130938   1.106   2.604   3.027 -0.6788 -1.4031 -0.4238
 6434SOL    HW230939   1.072   2.534   3.147  0.3226  3.6057 -0.5845
 6435SOL     OW30940   3.766   0.207   8.504  0.4988  0.6728 -0.3212
 6435SOL    HW130941   3.819   0.282   8.532 -1.9550  2.3563 -0.1436
 6435SOL    HW230942   3.685   0.229   8.549 -0.3151 -1.3253 -0.8223
 6436SOL     OW30943   1.143   0.845   6.271  0.0245  0.1820  0.0060
 6436SOL    HW130944   1.090   0.766   6.276 -0.0684  0.1722 -1.1009
 6436SOL    HW230945   1.142   0.858   6.176  1.1716  1.5975  0.1810
 6437SOL     OW30946   4.269   3.468  14.520 -0.5234 -0.3302  0.2591
 6437SOL    HW130947   4.255   3.458  14.614 -2.9040 -0.2612 -0.0960
 6437SOL    HW230948   4.244   3.560  14.516  0.0018 -0.2336 -0.8678
 6438SOL     OW30949   3.188   0.095  16.571  0.3610  0.0087 -0.1871
 6438SOL    HW130950   3.099   0.126  16.557  1.0812  2.1420 -0.0736
 6438SOL    HW230951   3.162   0.003  16.570  0.4168 -0.0135  0.6674
 6439SOL     OW30952   1.543   3.594   3.403  0.0250 -0.6389 -0.4601
 6439SOL    HW130953   1.616   3.610   3.344 -0.3425  1.3763 -0.3681
 6439SOL    HW230954   1.485   3.535   3.355 -1.5675  1.9235 -1.7072
 6440SOL     OW30955   2.686   1.108   8.344 -0.3092  0.3905 -0.3576
 6440SOL    HW130956   2.758   1.069   8.394  1.2227  1.6051 -1.6343
 6440SOL    HW230957   2.624   1.139   8.410 -0.1622 -0.9513  0.4193
 6441SOL     OW30958   4.325   4.603   9.174  0.4382  0.1919  0.2459
 6441SOL    HW130959   4.285   4.674   9.223  0.9351  1.6758 -1.5230
 6441SOL    HW230960   4.346   4.638   9.087  2.6541  1.7830  1.4113
 6442SOL     OW30961   3.226   0.919   1.182  0.6138  0.3676  0.7289
 6442SOL    HW130962   3.285   0.845   1.169 -1.8352 -1.6668  1.2559
 6442SOL    HW230963   3.164   0.885   1.247  3.5877 -1.4923  2.5754
 6443SOL     OW30964   1.965   1.127   3.505  0.3643  0.0921  0.4177
 6443SOL    HW130965   1.994   1.039   3.529 -1.2292 -0.4926  0.1717
 6443SOL    HW230966   1.899   1.151   3.570 -0.7434 -0.0777 -0.6563
 6444SOL     OW30967   3.287   2.951  16.895  0.1378 -0.0106 -0.0333
 6444SOL    HW130968   3.219   2.972  16.960 -1.5628 -0.4844 -1.6493
 6444SOL    HW230969   3.352   2.928  16.961 -2.3941 -1.2112  2.0881
 6445SOL     OW30970   2.902   2.493   1.697 -0.0139 -0.1605  0.2512
 6445SOL    HW130971   2.990   2.461   1.715 -0.3241  0.2739  2.5458
 6445SOL    HW230972   2.853   2.478   1.777 -2.2157  2.7313 -0.5633
 6446SOL     OW30973   1.707   4.296   8.710 -0.4047 -0.1156 -0.2618
 6446SOL    HW130974   1.741   4.232   8.773 -3.2203  0.3139  1.6309
 6446SOL    HW230975   1.645   4.347   8.761 -0.0908  1.5630 -1.5557
 6447SOL     OW30976   0.220   0.858   7.230  0.5869 -0.3227 -0.0032
 6447SOL    HW130977   0.206   0.933   7.288  0.2743 -0.1123 -0.3523
 6447SOL    HW230978   0.288   0.810   7.279  0.1122 -0.9588  0.0329
 6448SOL     OW30979   2.219   1.136   1.942 -0.0191  0.0495 -0.6586
 6448SOL    HW130980   2.203   1.206   2.006 -2.9982 -1.2579  0.0363
 6448SOL    HW230981   2.145   1.077   1.958  0.4826  0.3681  2.7362
 6449SOL     OW30982   2.531   0.265   8.161  0.5561  0.3613  0.3632
 6449SOL    HW130983   2.612   0.245   8.113 -0.2477  2.8703 -1.9967
 6449SOL    HW230984   2.486   0.181   8.151  1.5030 -0.0479 -0.4219
 6450SOL     OW30985   4.633   3.067   4.830 -0.1320  0.4027  0.2332
 6450SOL    HW130986   4.664   3.034   4.746 -0.0520 -0.9209  0.7795
 6450SOL    HW230987   4.586   3.143   4.799 -0.0389  0.6044  0.5800
 6451SOL     OW30988   0.395   0.084   1.956 -0.3280 -0.0450 -0.0358
 6451SOL    HW130989   0.357   0.171   1.944  0.3549  0.2568 -0.0052
 6451SOL    HW230990   0.406   0.092   2.051 -0.5440 -1.4928  0.1126
 6452SOL     OW30991   3.056   2.747   7.775 -0.3256  0.3191  0.5241
 6452SOL    HW130992   2.986   2.681   7.771 -2.3598  2.5248 -0.1612
 6452SOL    HW230993   3.004   2.823   7.752 -0.8293 -0.1512  0.1102
 6453SOL     OW30994   2.086   2.644   4.506  0.7835  0.1667  0.0618
 6453SOL    HW130995   2.097   2.735   4.534 -0.1423  0.1706  0.3959
 6453SOL    HW230996   2.008   2.661   4.454  0.7303  1.0592  0.4317
 6454SOL     OW30997   3.113   4.100  16.413  0.2871  0.3399 -0.9840
 6454SOL    HW130998   3.184   4.078  16.352  0.0491 -1.8331 -0.4729
 6454SOL    HW230999   3.126   4.038  16.485 -1.1364 -0.4102 -1.3624
 6455SOL     OW31000   3.871   0.581   3.821  0.1538 -0.6496  0.7015
 6455SOL    HW131001   3.809   0.524   3.775 -1.3899  0.9208  0.8332
 6455SOL    HW231002   3.949   0.526   3.827 -0.1267 -0.9728  1.4230
 6456SOL     OW31003   3.827   1.304   2.115 -0.0212  0.1741  0.1378
 6456SOL    HW131004   3.754   1.301   2.053  1.3707  1.0568 -1.5421
 6456SOL    HW231005   3.821   1.213   2.143 -2.7824 -0.2723 -1.8452
 6457SOL     OW31006   1.978   4.713   7.818 -0.5629 -0.6203  0.1274
 6457SOL    HW131007   2.047   4.729   7.882  0.0064 -1.3395 -0.3115
 6457SOL    HW231008   1.946   4.624   7.830  0.3385 -0.8341  0.8934
 6458SOL     OW31009   3.941   3.063  10.340 -0.1524 -0.8349  0.0453
 6458SOL    HW131010   3.856   3.019  10.340 -2.5059  3.7076  2.2947
 6458SOL    HW231011   3.982   3.056  10.255 -0.4343 -0.6083 -0.1091
 6459SOL     OW31012   1.676   0.665  16.295 -0.3878 -0.0145  0.1726
 6459SOL    HW131013   1.716   0.580  16.276 -0.8243 -0.2481  0.2989
 6459SOL    HW231014   1.645   0.669  16.386  1.3134  3.0122  0.6191
 6460SOL     OW31015   4.482   3.572  15.233  0.1041  0.4348  0.0824
 6460SOL    HW131016   4.462   3.566  15.327  1.0908 -2.4034  0.0877
 6460SOL    HW231017   4.448   3.490  15.198 -0.0479 -0.0282  1.3140
 6461SOL     OW31018   3.377   4.257  17.490 -0.3439 -0.0035  0.3852
 6461SOL    HW131019   3.467   4.255  17.457  0.2114 -1.6120  2.0603
 6461SOL    HW231020   3.374   4.353  17.495  1.5193  0.0466  0.5101
 6462SOL     OW31021   1.266   0.454   6.623  0.1297  0.3023  0.5967
 6462SOL    HW131022   1.265   0.427   6.715 -0.3420  2.4116  1.1934
 6462SOL    HW231023   1.361   0.463   6.615  0.0137  0.7692 -0.2248
 6463SOL     OW31024   0.662   2.195   1.141  0.0737 -0.1209  0.0805
 6463SOL    HW131025   0.756   2.209   1.139 -0.0666  1.3795  3.8191
 6463SOL    HW231026   0.644   2.157   1.055 -0.9752 -0.3260  0.3827
 6464SOL     OW31027   1.579   0.594   2.861 -0.2993  0.1554 -0.2025
 6464SOL    HW131028   1.565   0.685   2.886 -1.0900 -0.2044  0.6380
 6464SOL    HW231029   1.664   0.594   2.905 -0.0881 -0.9101 -0.6210
 6465SOL     OW31030   3.805   1.960   4.193  0.1136 -0.0103 -0.4464
 6465SOL    HW131031   3.769   1.877   4.224  1.8832 -0.1416  1.2296
 6465SOL    HW231032   3.847   1.987   4.274  0.0384  1.4789 -0.9136
 6466SOL     OW31033   2.374   3.886   0.053 -0.2280  0.5406  0.9801
 6466SOL    HW131034   2.347   3.826   0.123 -0.6041  0.2456  0.5850
 6466SOL    HW231035   2.336   3.848  17.724  0.8663 -0.0998  0.7583
 6467SOL     OW31036   1.563   4.348   2.461 -0.6700  0.0025  0.0407
 6467SOL    HW131037   1.621   4.275   2.485  0.7534  0.9051 -0.6422
 6467SOL    HW231038   1.583   4.412   2.530 -2.2411 -2.1910  2.5399
 6468SOL     OW31039   3.219   1.613   8.458 -0.0362 -0.6671  0.0931
 6468SOL    HW131040   3.276   1.682   8.492 -0.9058 -0.4906  1.1931
 6468SOL    HW231041   3.143   1.664   8.430  1.4208  1.0768 -0.7671
 6469SOL     OW31042   1.408   0.523  10.325  0.3660  0.3399  0.0831
 6469SOL    HW131043   1.398   0.613  10.357 -2.5178  0.8067 -2.1847
 6469SOL    HW231044   1.318   0.490  10.329  0.5234  0.0010  0.8154
 6470SOL     OW31045   0.981   2.065   8.730 -0.0580  0.1040 -0.1737
 6470SOL    HW131046   0.918   2.137   8.737 -1.2820 -1.1185  1.3200
 6470SOL    HW231047   0.952   2.003   8.797  1.1759 -1.3089 -0.9550
 6471SOL     OW31048   4.112   0.921   5.008 -0.1397 -0.0687  0.4620
 6471SOL    HW131049   4.041   0.907   5.071  1.1077 -0.2305  1.8218
 6471SOL    HW231050   4.105   1.015   4.990 -0.8926  0.0028  1.1460
 6472SOL     OW31051   4.116   0.163   5.019  0.0853 -0.5829  0.2343
 6472SOL    HW131052   4.201   0.130   5.047  0.6117  0.3177 -0.3256
 6472SOL    HW231053   4.128   0.152   4.925  0.4510  1.0325  0.0839
 6473SOL     OW31054   4.517   2.821   3.240 -0.2728  0.0265 -0.0395
 6473SOL    HW131055   4.431   2.859   3.223 -0.9510 -1.3437  0.3121
 6473SOL    HW231056   4.517   2.775   3.157 -3.3195 -0.3278  0.1356
 6474SOL     OW31057   1.911   0.675   2.796 -0.1471  0.0010 -0.2486
 6474SOL    HW131058   1.961   0.671   2.714  1.2141 -2.7224  0.7293
 6474SOL    HW231059   1.852   0.747   2.775  0.5175 -0.2376 -2.9870
 6475SOL     OW31060   2.161   1.433  16.377 -0.4216 -0.4972 -0.5807
 6475SOL    HW131061   2.240   1.464  16.422 -0.2182 -0.4961 -0.9372
 6475SOL    HW231062   2.194   1.352  16.339 -1.9938 -0.8395 -1.1998
 6476SOL     OW31063   3.205   1.594   2.134  0.2493  0.3793 -0.2859
 6476SOL    HW131064   3.124   1.628   2.171  0.1022 -2.7615  2.2725
 6476SOL    HW231065   3.266   1.653   2.178  0.4817 -0.7652  0.9289
 6477SOL     OW31066   1.366   4.454   8.919 -0.2795 -0.1518 -0.2110
 6477SOL    HW131067   1.337   4.364   8.904  3.3409 -1.1942 -0.9018
 6477SOL    HW231068   1.371   4.456   9.015  0.0320  0.0046 -0.2299
 6478SOL     OW31069   0.768   1.435   6.386  0.3882  0.4059  0.0065
 6478SOL    HW131070   0.710   1.490   6.332  0.2419  1.2202  0.9925
 6478SOL    HW231071   0.718   1.400   6.459  0.6205 -2.7930 -1.3770
 6479SOL     OW31072   4.515   4.089   4.872  0.7171  0.2278  0.5754
 6479SOL    HW131073   4.442   4.076   4.812  1.3406  0.2576 -0.1878
 6479SOL    HW231074   4.481   4.166   4.917  1.7677  2.0630 -1.7592
 6480SOL     OW31075   0.580   1.287   7.725  0.0796  0.1201  0.2387
 6480SOL    HW131076   0.487   1.299   7.745 -0.4128 -2.1494 -0.7396
 6480SOL    HW231077   0.585   1.316   7.634  0.0675  1.7596  0.7640
 6481SOL     OW31078   1.438   1.819   2.227 -0.1692  0.1761  0.0787
 6481SOL    HW131079   1.391   1.894   2.190 -0.6989 -0.4988 -0.6297
 6481SOL    HW231080   1.364   1.761   2.246  1.2529 -0.7631  2.6859
 6482SOL     OW31081   1.122   2.793   2.493  0.3138  0.5387  0.0754
 6482SOL    HW131082   1.106   2.850   2.418 -1.2262 -0.1167 -0.0916
 6482SOL    HW231083   1.216   2.804   2.505  0.2356  2.4436 -1.0294
 6483SOL     OW31084   1.354   2.417  13.984 -0.2087  0.0847  0.1552
 6483SOL    HW131085   1.334   2.363  13.908  0.9287 -0.2696  0.1144
 6483SOL    HW231086   1.405   2.490  13.950 -0.9892  0.4569 -0.2243
 6484SOL     OW31087   2.293   0.769  11.613  0.0730 -0.2539  0.4713
 6484SOL    HW131088   2.222   0.735  11.559  0.5539 -1.9433  0.8938
 6484SOL    HW231089   2.325   0.851  11.575 -1.3802  1.8225  3.7446
 6485SOL     OW31090   2.128   2.543   4.027  0.5803 -0.3678  0.2652
 6485SOL    HW131091   2.161   2.621   3.980  1.6327 -0.4253  0.9163
 6485SOL    HW231092   2.063   2.524   3.959  2.9990  1.6049 -2.6120
 6486SOL     OW31093   3.959   4.047  12.253 -0.1980 -0.3023  0.1881
 6486SOL    HW131094   3.985   4.044  12.161 -0.2331 -2.2131  0.2443
 6486SOL    HW231095   3.983   3.961  12.288  1.0102 -1.0039 -2.4103
 6487SOL     OW31096   1.244   0.561   3.153 -0.4369 -0.0477 -0.5768
 6487SOL    HW131097   1.253   0.654   3.132 -1.6938 -0.1673 -1.6928
 6487SOL    HW231098   1.331   0.554   3.193  0.0767  1.4607 -1.4561
 6488SOL     OW31099   1.003   2.876  12.207 -0.1446 -0.6873 -0.5367
 6488SOL    HW131100   0.915   2.903  12.233 -0.6729 -1.0619 -1.9237
 6488SOL    HW231101   1.034   2.854  12.295 -1.1919  0.6164  0.1618
 6489SOL     OW31102   3.415   4.271   4.269  0.2433  0.0394  0.0367
 6489SOL    HW131103   3.479   4.211   4.232 -0.0856 -0.3019  0.0256
 6489SOL    HW231104   3.403   4.244   4.360 -0.1204 -1.0153 -0.3321
 6490SOL     OW31105   1.590   1.923   3.507  0.1587 -0.2071 -0.2218
 6490SOL    HW131106   1.532   1.866   3.458 -0.5168  1.5535 -1.4903
 6490SOL    HW231107   1.562   2.008   3.472 -2.9760 -1.6448 -1.1853
 6491SOL     OW31108   1.843   2.995   2.369  0.1749 -0.0777 -0.4118
 6491SOL    HW131109   1.929   3.033   2.387 -0.7915  1.0762  1.6802
 6491SOL    HW231110   1.832   2.952   2.453 -0.0794  1.2884  0.2469
 6492SOL     OW31111   2.976   0.933   8.458  0.0405 -0.5244 -0.3260
 6492SOL    HW131112   2.927   0.908   8.536  0.2254 -0.8214 -0.3037
 6492SOL    HW231113   3.059   0.951   8.502  0.2266  0.6329 -1.1425
 6493SOL     OW31114   1.177   3.747  12.857 -0.1324  0.4260 -0.2794
 6493SOL    HW131115   1.201   3.660  12.826 -1.9990 -0.9886  2.2758
 6493SOL    HW231116   1.081   3.744  12.859 -0.1507  2.1276  1.6264
 6494SOL     OW31117   2.717   2.746  11.165 -0.1295 -0.4082 -0.3171
 6494SOL    HW131118   2.803   2.770  11.129 -0.3485 -0.5120 -0.9138
 6494SOL    HW231119   2.701   2.674  11.104 -2.4519 -0.6701  0.6087
 6495SOL     OW31120   3.208   1.028   5.906  0.2314  0.1396 -0.4396
 6495SOL    HW131121   3.270   0.978   5.960  0.5281 -0.1501 -1.0457
 6495SOL    HW231122   3.256   1.111   5.901  0.9141 -0.3003 -1.1546
 6496SOL     OW31123   0.179   0.832   0.516  0.0960  0.3938  0.0870
 6496SOL    HW131124   0.086   0.815   0.530 -0.1770 -0.2539 -2.5002
 6496SOL    HW231125   0.176   0.891   0.441 -0.5017  1.7345  1.1597
 6497SOL     OW31126   4.564   0.451   2.977 -0.0428  0.0826  0.1899
 6497SOL    HW131127   4.625   0.421   3.044  0.0568 -3.6929 -1.5884
 6497SOL    HW231128   4.624   0.503   2.923 -1.0258  0.6420 -0.3568
 6498SOL     OW31129   3.095   2.229   5.754  0.5678 -0.1731 -0.1546
 6498SOL    HW131130   3.050   2.282   5.820  2.1973  2.2052 -0.9369
 6498SOL    HW231131   3.121   2.293   5.688  1.5296 -1.2543 -0.8304
 6499SOL     OW31132   1.721   4.604   6.439 -0.0319  0.6195 -0.1046
 6499SOL    HW131133   1.626   4.592   6.433  0.2655 -1.1425 -1.3593
 6499SOL    HW231134   1.738   4.618   6.532  0.0521 -2.9339  0.4256
 6500SOL     OW31135   4.594   1.023   1.730  0.2959 -0.1529 -0.2454
 6500SOL    HW131136   4.607   0.964   1.804  0.8448  0.6567  0.3036
 6500SOL    HW231137   4.500   1.032   1.743  0.5752  1.3520  0.7356
 6501SOL     OW31138   1.592   0.288   6.423  0.2019  0.0355 -0.3177
 6501SOL    HW131139   1.561   0.318   6.337 -2.3224  0.2988  0.6749
 6501SOL    HW231140   1.666   0.245   6.381  0.2289 -2.1360  1.9626
 6502SOL     OW31141   4.155   2.250   0.818 -0.1720 -0.5768  0.2202
 6502SOL    HW131142   4.074   2.200   0.822 -0.5278  0.0631  1.0122
 6502SOL    HW231143   4.199   2.209   0.743 -0.7224  0.4276 -0.6638
 6503SOL     OW31144   2.623   0.245  12.598  0.0921  0.8203 -0.2481
 6503SOL    HW131145   2.558   0.191  12.553 -1.0473  3.6556 -1.9766
 6503SOL    HW231146   2.566   0.270  12.670  0.6514  0.2179  0.4041
 6504SOL     OW31147   3.798   3.021   5.166 -0.8012 -0.2649 -0.3612
 6504SOL    HW131148   3.707   3.023   5.195  0.0858  2.9819  2.2531
 6504SOL    HW231149   3.785   3.007   5.072  1.9862 -1.1489 -0.6209
 6505SOL     OW31150   1.447   3.839   0.026  0.2976  0.5426  0.4398
 6505SOL    HW131151   1.490   3.815   0.108 -1.2829 -1.4890  0.6612
 6505SOL    HW231152   1.463   3.758  17.729 -2.2718 -0.5668  1.4873
 6506SOL     OW31153   3.259   0.245   1.752 -0.1755 -0.2811  0.0492
 6506SOL    HW131154   3.179   0.248   1.803 -0.4334 -3.1697 -0.2069
 6506SOL    HW231155   3.315   0.310   1.794 -0.0896 -0.2776 -0.0697
 6507SOL     OW31156   4.635   1.230   8.649 -0.3539  0.1435 -0.1925
 6507SOL    HW131157   4.712   1.254   8.700  0.8034  3.1785 -3.3525
 6507SOL    HW231158   4.674   1.152   8.608  0.0634 -0.0332  0.5431
 6508SOL     OW31159   3.460   3.542   1.863 -0.7823 -0.0161 -0.1355
 6508SOL    HW131160   3.365   3.549   1.850 -0.9249 -1.6524  0.1088
 6508SOL    HW231161   3.492   3.624   1.824 -0.3971 -0.3516 -0.5214
 6509SOL     OW31162   2.993   0.521   6.560 -0.3116  0.1654 -0.0446
 6509SOL    HW131163   2.904   0.503   6.528 -1.1661  1.4197  1.6110
 6509SOL    HW231164   2.990   0.488   6.649  1.1964 -0.2464 -0.1435
 6510SOL     OW31165   0.993   2.569   9.006 -0.5260  0.0336  0.1783
 6510SOL    HW131166   1.031   2.656   8.995 -0.3288 -0.3873 -2.4862
 6510SOL    HW231167   0.982   2.560   9.101  2.6324 -1.1939  0.4261
 6511SOL     OW31168   2.318   3.951   7.062 -0.0781  0.2123 -0.2273
 6511SOL    HW131169   2.343   4.041   7.041  0.8162  0.3705  1.4611
 6511SOL    HW231170   2.223   3.951   7.071  0.0393  0.4993  1.0458
 6512SOL     OW31171   0.040   0.224   5.042  0.2074  0.1493  0.3397
 6512SOL    HW131172   0.080   0.151   4.994  3.0067  3.5098 -2.4679
 6512SOL    HW231173   4.708   0.178   5.088  1.9550  0.0170  2.8639
 6513SOL     OW31174   2.532   0.169  13.467  0.0844 -0.1927 -0.3906
 6513SOL    HW131175   2.541   0.127  13.382 -2.5669  1.0844 -1.3191
 6513SOL    HW231176   2.487   0.102  13.518  3.7166 -2.0997  0.3048
 6514SOL     OW31177   1.969   4.623   8.909  0.2874 -1.1195 -0.3989
 6514SOL    HW131178   2.018   4.701   8.935 -3.1285  0.4850  1.3074
 6514SOL    HW231179   1.935   4.638   8.820  0.2380 -1.2709 -0.4053
 6515SOL     OW31180   0.846   1.615  13.017  0.2111 -0.2304 -0.0091
 6515SOL    HW131181   0.916   1.631  12.953  1.0007 -0.1137  0.8834
 6515SOL    HW231182   0.794   1.556  12.963 -1.5808  1.5157 -0.1993
 6516SOL     OW31183   2.965   3.265  17.157 -0.1965 -0.3331  0.4256
 6516SOL    HW131184   2.902   3.250  17.228 -0.8373  1.6512  0.2620
 6516SOL    HW231185   2.920   3.338  17.116  1.7140 -0.6717 -2.2519
 6517SOL     OW31186   4.624   0.814   2.617 -0.0786  0.0970  0.1032
 6517SOL    HW131187   4.699   0.763   2.589  1.2252  1.9206  0.2843
 6517SOL    HW231188   4.634   0.812   2.712  0.8506  0.7134  0.0129
 6518SOL     OW31189   1.251   3.457  10.705 -0.2167 -0.4067 -0.2000
 6518SOL    HW131190   1.269   3.375  10.751  2.7557 -0.9785 -2.3865
 6518SOL    HW231191   1.226   3.517  10.775 -0.6052 -1.4791  0.5767
 6519SOL     OW31192   0.844   1.105  16.016 -0.1792  0.2727  0.2737
 6519SOL    HW131193   0.884   1.163  15.951  0.6149 -0.2370  0.3136
 6519SOL    HW231194   0.777   1.057  15.967 -2.8155  2.9833  1.1467
 6520SOL     OW31195   3.012   2.979   2.697  0.2093  0.2491  0.2094
 6520SOL    HW131196   3.095   2.948   2.734  0.7109  0.8307 -0.4235
 6520SOL    HW231197   2.962   2.897   2.694 -0.9150  1.0089 -2.2419
 6521SOL     OW31198   2.182   4.433  10.656 -0.0446  0.2787  0.1945
 6521SOL    HW131199   2.148   4.397  10.575 -0.5656 -0.5430  0.7750
 6521SOL    HW231200   2.102   4.434  10.708  0.5313  0.5185  1.0984
 6522SOL     OW31201   0.555   2.391   1.305  0.6236 -0.6081 -0.1964
 6522SOL    HW131202   0.575   2.483   1.284 -2.5981 -0.3583 -2.1659
 6522SOL    HW231203   0.604   2.343   1.239  3.3741  1.0600  0.6431
 6523SOL     OW31204   4.532   0.009  15.915  0.5750 -0.1202  0.0902
 6523SOL    HW131205   4.438   4.728  15.911  0.4285  0.6692 -0.3297
 6523SOL    HW231206   4.531   0.088  15.969  0.1217  0.1518 -0.3154
 6524SOL     OW31207   1.220   3.430   4.244 -0.2834 -0.6159  0.0436
 6524SOL    HW131208   1.218   3.489   4.168 -1.7169  0.3586  0.8477
 6524SOL    HW231209   1.217   3.341   4.209 -0.1865  0.1755 -1.9882
 6525SOL     OW31210   1.499   4.408   2.200 -0.2572 -0.0341  0.3222
 6525SOL    HW131211   1.534   4.407   2.289  0.0274  1.9722  0.2492
 6525SOL    HW231212   1.536   4.332   2.156 -0.7134 -0.7080  1.0987
 6526SOL     OW31213   0.235   2.578   5.228 -0.3282  1.0729 -0.6128
 6526SOL    HW131214   0.307   2.630   5.192 -0.9514  0.6130 -2.5674
 6526SOL    HW231215   0.242   2.488   5.197  0.0607  1.7075 -2.3880
 6527SOL     OW31216   4.528   0.698   2.155  0.7318  0.2298 -0.0015
 6527SOL    HW131217   4.452   0.641   2.165  0.3747  0.7113  0.0711
 6527SOL    HW231218   4.505   0.775   2.207  2.8349  0.9571 -0.1318
 6528SOL     OW31219   1.351   4.625   1.765  0.1215 -0.2639 -0.1589
 6528SOL    HW131220   1.265   4.593   1.792 -0.8081 -0.0780 -2.8466
 6528SOL    HW231221   1.374   4.569   1.691  1.3370  0.3058 -0.2133
 6529SOL     OW31222   1.948   0.208   7.634  0.0834  0.1149 -0.0088
 6529SOL    HW131223   1.952   0.157   7.715  0.1979  0.4579  0.1989
 6529SOL    HW231224   1.911   0.145   7.572  1.3308 -0.0275 -0.6059
 6530SOL     OW31225   1.072   3.462   4.894  0.0711  0.3782 -0.0138
 6530SOL    HW131226   1.071   3.549   4.935 -1.8984  0.0633  0.6157
 6530SOL    HW231227   1.013   3.478   4.820  0.7962  1.1902 -0.4139
 6531SOL     OW31228   1.081   1.854   3.853 -0.8698  0.2367 -0.2062
 6531SOL    HW131229   1.105   1.944   3.829 -0.4409 -0.3003 -1.7534
 6531SOL    HW231230   1.162   1.827   3.895  0.6330 -0.0362 -3.2758
 6532SOL     OW31231   3.424   1.762   5.776  0.1571  0.2002 -0.5660
 6532SOL    HW131232   3.507   1.804   5.798 -0.5780  0.0237  2.4779
 6532SOL    HW231233   3.421   1.676   5.818 -1.9526  0.9246  0.7554
 6533SOL     OW31234   1.321   1.422  16.693 -0.1232 -0.1033  0.5919
 6533SOL    HW131235   1.269   1.480  16.638 -0.3886 -0.9301 -0.0258
 6533SOL    HW231236   1.257   1.364  16.734 -0.5577  1.4999  2.1736
 6534SOL     OW31237   3.691   3.461   5.495  0.2225  0.0755 -0.6945
 6534SOL    HW131238   3.607   3.434   5.532 -0.3547  1.0064 -1.3323
 6534SOL    HW231239   3.664   3.553   5.487 -1.0053 -0.3524 -1.5539
 6535SOL     OW31240   3.775   3.838  12.820 -0.0986  0.5183 -0.5188
 6535SOL    HW131241   3.831   3.797  12.754 -1.5580 -1.6606 -0.3886
 6535SOL    HW231242   3.812   3.814  12.906  2.0654 -0.8534 -1.8351
 6536SOL     OW31243   1.066   0.754   9.072 -0.1515 -0.0114  0.0730
 6536SOL    HW131244   1.115   0.837   9.071  1.9049 -1.2493 -0.6455
 6536SOL    HW231245   1.062   0.737   9.166 -1.4179  0.1916  0.0668
 6537SOL     OW31246   1.933   3.800  11.727  0.2596 -0.0452 -0.6470
 6537SOL    HW131247   1.943   3.891  11.754 -0.8293 -0.2988  0.6423
 6537SOL    HW231248   2.013   3.795  11.675  1.2255 -2.7728  1.0663
 6538SOL     OW31249   0.056   3.879   6.494  0.6746 -0.2412  0.0567
 6538SOL    HW131250   4.734   3.805   6.504  1.1084 -0.3765  1.6010
 6538SOL    HW231251   0.138   3.829   6.488  0.2200 -1.2820  2.6496
 6539SOL     OW31252   3.874   0.221  10.991  0.1280 -0.3816  0.3109
 6539SOL    HW131253   3.901   0.200  11.080  1.9531 -0.3918 -0.2367
 6539SOL    HW231254   3.955   0.265  10.966  0.6818 -0.9319  1.1252
 6540SOL     OW31255   3.584   3.087  16.938  0.3206 -0.4207 -0.0922
 6540SOL    HW131256   3.597   3.159  16.876 -3.3070  0.0551 -0.3236
 6540SOL    HW231257   3.637   3.106  17.015 -0.0188 -0.9997  0.2747
 6541SOL     OW31258   3.392   3.944   2.871  0.5254  0.3476  0.3000
 6541SOL    HW131259   3.369   3.895   2.793  0.6647  0.6743  0.0538
 6541SOL    HW231260   3.329   4.015   2.864  3.0627  2.4012 -1.4985
 6542SOL     OW31261   4.128   2.327  11.433  0.1493  0.4082 -0.3056
 6542SOL    HW131262   4.208   2.336  11.381  0.2465 -3.3610 -0.7647
 6542SOL    HW231263   4.140   2.255  11.494  0.1775  0.0902 -0.6815
 6543SOL     OW31264   1.145   0.234   5.073 -0.0699  0.1455 -0.0932
 6543SOL    HW131265   1.125   0.145   5.046  0.4102  0.3138 -1.0067
 6543SOL    HW231266   1.139   0.272   4.985 -0.5880 -0.4254 -0.3006
 6544SOL     OW31267   2.012   3.679   6.353 -0.1175  0.0047  0.0446
 6544SOL    HW131268   2.005   3.586   6.370 -3.7247  0.3993  0.6173
 6544SOL    HW231269   2.107   3.692   6.343 -0.5899  0.5609 -3.9029
 6545SOL     OW31270   1.647   1.045  13.300  0.1014  0.4255  0.3032
 6545SOL    HW131271   1.724   1.019  13.249 -1.5630 -1.2169 -1.3641
 6545SOL    HW231272   1.699   1.087  13.369  0.8020 -4.6932  2.8733
 6546SOL     OW31273   1.882   0.071   3.540 -0.4050  0.0892  0.2907
 6546SOL    HW131274   1.871   0.158   3.501 -0.7875 -0.0584  0.0669
 6546SOL    HW231275   1.901   0.094   3.630 -0.1017 -1.7627  0.7004
 6547SOL     OW31276   0.111   3.110  10.850  0.1903  0.5168 -0.0215
 6547SOL    HW131277   0.142   3.125  10.939 -0.6805  0.9113  0.2172
 6547SOL    HW231278   0.031   3.057  10.852  1.3991 -1.3111 -0.9435
 6548SOL     OW31279   2.160   0.812  15.364  0.4101 -0.3883  0.2540
 6548SOL    HW131280   2.102   0.740  15.389  0.1634 -0.4161 -0.4103
 6548SOL    HW231281   2.102   0.878  15.329  0.3545  0.4316  1.8802
 6549SOL     OW31282   1.529   0.657   6.241 -0.5566  0.3357  0.2477
 6549SOL    HW131283   1.487   0.651   6.155 -0.6305 -0.1374  0.3124
 6549SOL    HW231284   1.614   0.697   6.229 -0.2482 -0.6845 -1.0179
 6550SOL     OW31285   0.198   4.388   4.773 -0.0939  0.0081 -0.7699
 6550SOL    HW131286   0.273   4.409   4.829  0.1525 -0.0035 -1.0917
 6550SOL    HW231287   0.158   4.312   4.815  2.4660 -1.0191 -0.1961
 6551SOL     OW31288   2.254   3.443   5.668  0.3384 -0.6039 -0.3634
 6551SOL    HW131289   2.300   3.439   5.584  1.5952 -1.2040  0.3560
 6551SOL    HW231290   2.308   3.511   5.708 -0.2182 -0.2033 -0.2955
 6552SOL     OW31291   0.947   1.875   8.972 -0.2123 -0.2132 -0.2635
 6552SOL    HW131292   0.864   1.862   9.018 -1.1765  3.6405 -0.8706
 6552SOL    HW231293   0.995   1.932   9.032  1.9606 -1.2640 -1.0194
 6553SOL     OW31294   1.311   1.381   5.143  0.3898  0.4952 -0.3167
 6553SOL    HW131295   1.345   1.470   5.137 -1.1263  1.0990 -0.1271
 6553SOL    HW231296   1.345   1.363   5.231  1.5597  1.3627 -0.5898
 6554SOL     OW31297   4.358   3.014   2.030  0.2251  0.3006 -0.2899
 6554SOL    HW131298   4.365   3.085   2.094  0.9811  1.1609 -1.3325
 6554SOL    HW231299   4.451   3.012   2.005  0.3071  0.5732 -0.0044
 6555SOL     OW31300   3.036   0.356   2.360  0.4155 -0.4440  0.0601
 6555SOL    HW131301   3.068   0.435   2.403 -0.3360 -0.9062  1.4928
 6555SOL    HW231302   2.954   0.334   2.403  1.2774 -0.3999  1.7532
 6556SOL     OW31303   1.712   0.835   4.837 -0.5014 -0.0912  0.1638
 6556SOL    HW131304   1.705   0.801   4.748 -0.6428 -2.7422  1.1687
 6556SOL    HW231305   1.724   0.929   4.824  1.4777 -0.3247  0.3656
 6557SOL     OW31306   3.343   4.627   7.834 -0.0558  0.6710 -0.7040
 6557SOL    HW131307   3.363   4.541   7.796  0.8642  0.2472  0.7512
 6557SOL    HW231308   3.354   4.607   7.927 -0.3592  1.5517 -0.4806
 6558SOL     OW31309   4.305   2.774   6.044 -0.1236  0.5278  0.1889
 6558SOL    HW131310   4.280   2.865   6.030  0.6928  0.7178 -0.0481
 6558SOL    HW231311   4.394   2.780   6.079  0.0557 -0.6533 -0.0583
 6559SOL     OW31312   2.605   2.040  13.156 -0.0560  0.0224 -0.0285
 6559SOL    HW131313   2.676   2.103  13.140  1.8439 -1.6066  1.9992
 6559SOL    HW231314   2.547   2.072  13.087  3.3510 -0.7736 -3.2813
 6560SOL     OW31315   0.481   3.561   4.038  0.2760 -0.5807 -0.1813
 6560SOL    HW131316   0.434   3.537   3.959  0.8744  1.1082 -1.0495
 6560SOL    HW231317   0.560   3.606   4.008 -1.3328  1.0410 -1.9578
 6561SOL     OW31318   4.157   4.421   8.001  0.5141  0.2652 -0.9350
 6561SOL    HW131319   4.140   4.355   7.934 -0.0016 -0.2746 -0.2777
 6561SOL    HW231320   4.161   4.373   8.084  0.1082 -0.5188 -1.3678
 6562SOL     OW31321   0.329   4.483   3.046 -0.0130  0.2888  1.1619
 6562SOL    HW131322   0.365   4.568   3.022  1.4694 -0.7438 -0.2879
 6562SOL    HW231323   0.280   4.518   3.120 -0.8714  0.8856  0.3016
 6563SOL     OW31324   0.823   0.555  10.501  0.3715  0.0792  0.6915
 6563SOL    HW131325   0.806   0.638  10.546 -1.2833 -0.4784  1.1049
 6563SOL    HW231326   0.853   0.584  10.416 -0.2298 -1.5843 -0.0917
 6564SOL     OW31327   4.493   2.749   2.358 -0.2383  0.6007  0.1045
 6564SOL    HW131328   4.449   2.833   2.344 -1.3119 -0.4770 -2.9460
 6564SOL    HW231329   4.574   2.764   2.310 -0.3220  0.3770 -0.1059
 6565SOL     OW31330   2.304   0.373   5.720 -0.2284 -0.1151  0.4841
 6565SOL    HW131331   2.258   0.387   5.638  2.1158  0.7633 -0.6974
 6565SOL    HW231332   2.242   0.411   5.781 -0.3076  1.5701 -0.6387
 6566SOL     OW31333   3.374   1.675   3.398 -0.4050 -0.0583  0.3969
 6566SOL    HW131334   3.396   1.604   3.459  0.4371  0.9333  1.2401
 6566SOL    HW231335   3.432   1.748   3.422  0.2653 -0.7397  0.8567
 6567SOL     OW31336   1.027   2.107   7.550 -0.0776 -0.0147 -0.2375
 6567SOL    HW131337   1.000   2.102   7.458 -1.5055  0.9860  0.1336
 6567SOL    HW231338   1.065   2.194   7.554 -0.8018  0.2199  1.3969
 6568SOL     OW31339   2.737   2.214   2.785  0.3923 -0.7949 -0.5965
 6568SOL    HW131340   2.714   2.136   2.735  2.2349 -1.2629 -0.7099
 6568SOL    HW231341   2.744   2.283   2.719 -2.1640  0.0209 -0.0311
 6569SOL     OW31342   2.781   2.420   3.529 -0.0117  0.3319  0.3215
 6569SOL    HW131343   2.872   2.389   3.530 -0.2619 -0.3451  2.1556
 6569SOL    HW231344   2.744   2.332   3.521  2.6725 -0.6631 -1.2350
 6570SOL     OW31345   3.020   2.372  17.485 -0.8848 -0.3088 -0.0368
 6570SOL    HW131346   3.065   2.338  17.562 -0.5034  2.3005  0.9061
 6570SOL    HW231347   2.929   2.375  17.513 -1.4989  0.6621 -2.1342
 6571SOL     OW31348   4.208   0.646   6.804 -0.3269 -0.1300 -0.1771
 6571SOL    HW131349   4.295   0.682   6.822 -0.3977 -0.1815  0.2837
 6571SOL    HW231350   4.193   0.673   6.714  1.0995  0.4732 -0.2395
 6572SOL     OW31351   3.242   3.549   1.465 -0.0992  0.5645 -0.5822
 6572SOL    HW131352   3.258   3.484   1.396  0.0438  0.0751 -0.0800
 6572SOL    HW231353   3.259   3.494   1.541 -0.4329  0.4666 -0.5791
 6573SOL     OW31354   3.517   2.322   4.740 -0.3176 -0.2807  0.2132
 6573SOL    HW131355   3.477   2.347   4.823  0.1255  0.1914  0.2781
 6573SOL    HW231356   3.443   2.339   4.681  0.1337 -1.2705 -0.6414
 6574SOL     OW31357   4.077   2.995  17.520  0.0573 -0.2409  0.2666
 6574SOL    HW131358   3.992   2.950  17.527 -0.5291  0.8733  0.1995
 6574SOL    HW231359   4.104   2.971  17.431 -0.2902  0.2531  0.0274
 6575SOL     OW31360   4.465   2.469   7.714  0.1893  0.1579 -0.3218
 6575SOL    HW131361   4.457   2.553   7.667 -0.2881 -0.1549 -0.8059
 6575SOL    HW231362   4.390   2.424   7.676  0.8600 -0.6097 -0.7282
 6576SOL     OW31363   3.576   2.923   6.862  0.5128  0.3273  0.8259
 6576SOL    HW131364   3.594   2.923   6.768  2.4239 -2.3855  1.1857
 6576SOL    HW231365   3.481   2.909   6.868  0.2688  0.8507 -1.6630
 6577SOL     OW31366   0.186   3.512   2.578  0.5849 -0.0614 -0.5351
 6577SOL    HW131367   0.201   3.480   2.489 -0.1288  1.2164 -1.1040
 6577SOL    HW231368   0.148   3.599   2.570  0.8414  0.3105  2.1247
 6578SOL     OW31369   4.441   4.628  11.985 -0.4405  0.6643  0.1256
 6578SOL    HW131370   4.489   4.637  11.903  0.3417 -0.0540  0.5059
 6578SOL    HW231371   4.463   4.716  12.015  0.9203  0.5749 -0.6016
 6579SOL     OW31372   0.906   4.072   1.688 -0.1639  0.1681  0.1537
 6579SOL    HW131373   0.960   4.108   1.759  0.3119  1.5215 -0.8920
 6579SOL    HW231374   0.968   4.084   1.616  1.1461 -0.1256  1.2269
 6580SOL     OW31375   0.846   1.700   6.721 -0.3873  0.0041  0.3333
 6580SOL    HW131376   0.778   1.693   6.654 -0.4336  0.3933  0.3411
 6580SOL    HW231377   0.813   1.760   6.788  1.5849 -0.9659  2.1496
 6581SOL     OW31378   2.064   3.582   9.917 -0.2915  0.4991  0.2035
 6581SOL    HW131379   2.121   3.651   9.952  0.2360 -0.6704  1.6118
 6581SOL    HW231380   2.123   3.507   9.911  0.7765  1.2738  1.0458
 6582SOL     OW31381   1.666   0.605  16.582  0.2718 -0.2525  0.4020
 6582SOL    HW131382   1.742   0.570  16.629 -0.2743  2.7915  3.6000
 6582SOL    HW231383   1.649   0.538  16.517  0.2137  1.1320 -1.0093
 6583SOL     OW31384   1.128   0.845  13.385 -0.3323  0.0709  0.7876
 6583SOL    HW131385   1.174   0.835  13.468  2.6546  3.2969 -0.4624
 6583SOL    HW231386   1.190   0.807  13.322 -1.2477  1.9646 -1.2869
 6584SOL     OW31387   3.417   0.019   5.508  0.3881  0.2326 -0.6474
 6584SOL    HW131388   3.394   4.688   5.571  2.1873  0.5406  0.3303
 6584SOL    HW231389   3.511   0.012   5.494  0.2326 -1.7203 -0.8334
 6585SOL     OW31390   1.792   3.950   3.439  0.6270 -0.2722 -0.7757
 6585SOL    HW131391   1.819   3.905   3.518 -0.4649  0.9251  0.2784
 6585SOL    HW231392   1.708   3.915   3.410  0.6151 -2.3481  1.8554
 6586SOL     OW31393   2.537   0.784   4.929  0.0443 -0.0844  0.1957
 6586SOL    HW131394   2.515   0.871   4.893  1.6586 -0.2281 -1.1395
 6586SOL    HW231395   2.484   0.796   5.008 -2.0166 -0.2969 -1.1372
 6587SOL     OW31396   4.392   0.208   6.602 -0.2250 -0.1785 -0.2738
 6587SOL    HW131397   4.459   0.273   6.585 -0.0683 -0.2943 -0.0970
 6587SOL    HW231398   4.311   0.248   6.571  0.5328  0.6030 -1.2084
 6588SOL     OW31399   0.277   4.371  12.081  0.1236 -0.2339  0.2860
 6588SOL    HW131400   0.191   4.345  12.047  0.7595 -1.0242 -0.7353
 6588SOL    HW231401   0.259   4.461  12.105  2.1102 -0.5184  2.8254
 6589SOL     OW31402   1.843   1.154   5.019 -0.4331 -0.1211 -0.0018
 6589SOL    HW131403   1.900   1.216   5.065 -1.1550  0.5539 -0.0084
 6589SOL    HW231404   1.897   1.075   5.012 -2.4936 -1.4768 -0.4087
 6590SOL     OW31405   0.494   3.997   4.607 -0.0800 -0.1164  0.2458
 6590SOL    HW131406   0.501   4.030   4.518  0.2823 -0.4538  0.1499
 6590SOL    HW231407   0.401   3.972   4.614 -0.7837  1.4910 -3.5383
 6591SOL     OW31408   3.615   0.783   4.261 -0.7933  0.4230 -0.0058
 6591SOL    HW131409   3.632   0.698   4.302  0.6608  0.9693  0.5401
 6591SOL    HW231410   3.666   0.780   4.180 -1.2369  0.7717 -0.2952
 6592SOL     OW31411   3.880   0.675   4.472 -0.4193 -0.1936 -0.0179
 6592SOL    HW131412   3.963   0.629   4.467 -0.2533  0.0738  0.2821
 6592SOL    HW231413   3.834   0.630   4.401  1.1038 -0.9626 -0.4973
 6593SOL     OW31414   1.338   2.572   2.031 -0.1369  0.1033  0.6463
 6593SOL    HW131415   1.383   2.551   2.113  0.6938 -0.5742  0.0040
 6593SOL    HW231416   1.386   2.513   1.974  1.6705 -1.3399  3.6458
 6594SOL     OW31417   3.141   1.021   3.214 -0.6155 -0.1078 -0.3543
 6594SOL    HW131418   3.169   1.057   3.298 -0.4962  2.4277 -1.4701
 6594SOL    HW231419   3.083   0.956   3.252 -1.0687  0.2282 -0.4800
 6595SOL     OW31420   0.808   2.627  16.917 -0.3603  0.3434 -0.1695
 6595SOL    HW131421   0.772   2.542  16.943  2.1942 -0.2457  1.3692
 6595SOL    HW231422   0.816   2.633  16.822  1.1360 -0.4948 -0.0873
 6596SOL     OW31423   2.781   2.177   1.272 -0.0353  0.0922 -0.3871
 6596SOL    HW131424   2.793   2.256   1.324 -2.0672  0.7261 -0.8715
 6596SOL    HW231425   2.844   2.112   1.302 -1.0658 -1.2553 -1.1291
 6597SOL     OW31426   2.432   3.429   3.503 -0.5632  0.3971 -0.1310
 6597SOL    HW131427   2.494   3.388   3.443 -0.0051  1.6907 -0.4323
 6597SOL    HW231428   2.419   3.367   3.575 -0.9832  1.0491  0.3456
 6598SOL     OW31429   2.935   3.232   9.938 -0.0911  0.1778 -0.1412
 6598SOL    HW131430   2.920   3.163  10.002 -0.3888  1.0119  0.6840
 6598SOL    HW231431   2.874   3.206   9.869 -0.1429 -1.9201  0.7073
 6599SOL     OW31432   0.468   1.322   8.235 -0.5237  0.4206 -0.5508
 6599SOL    HW131433   0.401   1.386   8.211  0.2154  0.8675 -1.4030
 6599SOL    HW231434   0.424   1.243   8.203 -1.4824  0.0833  1.5955
 6600SOL     OW31435   2.616   4.214  16.327  0.4695 -0.1250 -0.2241
 6600SOL    HW131436   2.708   4.200  16.307 -0.5728 -2.3857 -3.5812
 6600SOL    HW231437   2.613   4.246  16.417 -0.9292 -1.6925  0.3027
 6601SOL     OW31438   0.482   3.513   2.351  0.3261  0.4562  0.2966
 6601SOL    HW131439   0.494   3.553   2.265  1.4931  0.8279  0.6376
 6601SOL    HW231440   0.400   3.475   2.320 -0.5321 -0.5802  3.8241
 6602SOL     OW31441   0.177   1.261   0.420  0.2284  0.6971  0.1904
 6602SOL    HW131442   0.084   1.247   0.439  0.7079  0.7469  2.6782
 6602SOL    HW231443   0.202   1.306   0.501  0.4921 -0.6825  0.8822
 6603SOL     OW31444   2.292   0.658   7.231 -0.4533 -0.0791  0.3200
 6603SOL    HW131445   2.345   0.654   7.310  0.1385  0.6328 -0.0406
 6603SOL    HW231446   2.290   0.750   7.203 -0.5332 -0.4720 -0.9654
 6604SOL     OW31447   4.605   3.287   1.411 -0.6292 -0.0038  0.3127
 6604SOL    HW131448   4.551   3.360   1.380  0.8350  1.2118  0.5610
 6604SOL    HW231449   4.561   3.264   1.493 -0.2214 -1.3010  0.1668
 6605SOL     OW31450   1.084   0.491   5.205 -0.1553  0.6239 -0.4980
 6605SOL    HW131451   1.060   0.408   5.163 -0.3489  0.7340 -0.6022
 6605SOL    HW231452   1.162   0.521   5.158  1.1294 -0.5797  0.8469
 6606SOL     OW31453   0.691   1.717   0.366  0.0334 -0.6104 -0.1109
 6606SOL    HW131454   0.597   1.700   0.365 -0.1444  0.3118  2.0198
 6606SOL    HW231455   0.710   1.678   0.280  1.3412 -0.8293  0.2892
 6607SOL     OW31456   1.589   2.507   7.228 -0.1996  0.0475  0.1403
 6607SOL    HW131457   1.545   2.424   7.211  1.7080 -0.8307 -0.4778
 6607SOL    HW231458   1.642   2.511   7.149 -0.8669  1.2902 -0.2481
 6608SOL     OW31459   0.700   0.603  11.558  0.9535  0.3823  0.1233
 6608SOL    HW131460   0.678   0.512  11.539  0.9218  0.5943 -0.8683
 6608SOL    HW231461   0.790   0.591  11.588  0.2009 -3.5002  0.8003
 6609SOL     OW31462   1.086   4.028   8.285  0.2034 -0.4745  0.1195
 6609SOL    HW131463   1.010   4.069   8.327 -2.2013 -2.5348 -2.2204
 6609SOL    HW231464   1.086   3.936   8.311 -2.8244 -1.2674 -2.7712
 6610SOL     OW31465   1.711   1.251   4.482 -0.4458 -0.0677 -0.4507
 6610SOL    HW131466   1.688   1.335   4.523 -1.5246 -0.5464 -0.0804
 6610SOL    HW231467   1.639   1.194   4.509 -1.1720  0.5279 -1.1214
 6611SOL     OW31468   0.669   3.626   8.162  0.6963  0.1764 -0.0906
 6611SOL    HW131469   0.701   3.627   8.072  0.4242  1.7965 -0.1615
 6611SOL    HW231470   0.676   3.537   8.198  0.5738  0.2828  0.1989
 6612SOL     OW31471   2.010   3.651   1.886 -0.3550  0.4289  0.5095
 6612SOL    HW131472   2.004   3.627   1.794 -1.0521 -1.1176  0.9630
 6612SOL    HW231473   2.104   3.650   1.906  0.2019 -1.8390 -2.2040
 6613SOL     OW31474   3.839   0.278   1.838 -0.1666  0.4828  0.0103
 6613SOL    HW131475   3.790   0.202   1.805  3.2031 -0.3455 -3.1453
 6613SOL    HW231476   3.907   0.232   1.887 -0.2806 -1.7246 -1.8576
 6614SOL     OW31477   3.402   4.132   6.261  0.2373  0.5062 -0.1304
 6614SOL    HW131478   3.315   4.131   6.222 -0.6059 -0.4794  1.8090
 6614SOL    HW231479   3.377   4.140   6.353 -0.3827 -1.0363 -0.1687
 6615SOL     OW31480   1.191   0.443  13.448  0.0266 -0.5941  0.1236
 6615SOL    HW131481   1.139   0.512  13.488  1.7044  1.5982 -1.4498
 6615SOL    HW231482   1.256   0.489  13.396  1.1181 -2.6952 -0.3916
 6616SOL     OW31483   3.670   1.730   5.439 -0.9649 -0.1010 -0.2701
 6616SOL    HW131484   3.693   1.768   5.355  2.2691 -1.9644 -0.2578
 6616SOL    HW231485   3.620   1.651   5.419 -1.2186 -0.0024 -0.0268
 6617SOL     OW31486   3.205   3.351   8.676  0.1576 -0.6399 -0.1014
 6617SOL    HW131487   3.254   3.405   8.738 -0.5521 -0.3280  0.1890
 6617SOL    HW231488   3.227   3.263   8.706 -0.3344 -0.7105  0.0516
 6618SOL     OW31489   4.017   3.465  14.994  0.3168 -0.2272  0.0557
 6618SOL    HW131490   4.011   3.540  14.935 -1.1878 -1.7841 -1.8099
 6618SOL    HW231491   3.998   3.517  15.072  2.7877  0.1669  0.3967
 6619SOL     OW31492   2.747   3.196  16.916  0.6428  0.2482 -0.6172
 6619SOL    HW131493   2.779   3.260  16.980 -3.3932  1.4064  0.2670
 6619SOL    HW231494   2.683   3.246  16.866 -1.6098 -1.8963  0.0967
 6620SOL     OW31495   0.342   2.079   6.727  0.1535 -0.0543 -0.8255
 6620SOL    HW131496   0.367   2.064   6.636 -1.2440  0.6596 -1.3363
 6620SOL    HW231497   0.328   2.173   6.733 -1.2264 -0.4622  2.7243
 6621SOL     OW31498   3.910   3.740   2.960  0.1759 -0.1434  0.3466
 6621SOL    HW131499   3.997   3.734   2.999 -0.3802 -2.3087  1.2532
 6621SOL    HW231500   3.865   3.696   3.032 -0.1739  0.6557  0.6156
 6622SOL     OW31501   0.678   1.649   3.872 -0.3837 -0.2531  0.2283
 6622SOL    HW131502   0.685   1.728   3.817 -2.3743 -0.2045  0.0705
 6622SOL    HW231503   0.749   1.668   3.934  0.0759  4.8749 -1.8429
 6623SOL     OW31504   1.423   3.070   5.559 -0.2530  0.2637 -0.4699
 6623SOL    HW131505   1.486   3.077   5.630 -0.4067  2.8769 -0.5970
 6623SOL    HW231506   1.349   3.034   5.609  0.7116  1.6890  1.9804
 6624SOL     OW31507   1.778   2.364   3.850 -0.4011  0.6080 -0.1219
 6624SOL    HW131508   1.787   2.288   3.907 -2.0336 -0.4974 -1.3251
 6624SOL    HW231509   1.729   2.328   3.775  1.1281  0.1896 -0.9163
 6625SOL     OW31510   1.446   1.124   4.515 -0.4454 -0.3280  0.2065
 6625SOL    HW131511   1.359   1.114   4.553 -0.6881  1.7531  0.1712
 6625SOL    HW231512   1.433   1.198   4.457 -1.0675 -0.2279  0.4661
 6626SOL     OW31513   3.753   0.545  16.456 -0.1135 -0.3000 -0.0740
 6626SOL    HW131514   3.740   0.634  16.491  0.4353 -0.5070  0.6556
 6626SOL    HW231515   3.671   0.498  16.449  0.2612 -0.8382 -0.7943
 6627SOL     OW31516   1.341   1.753   1.832  0.2297 -0.1478  0.4070
 6627SOL    HW131517   1.413   1.812   1.810  0.2725 -0.1648  0.5046
 6627SOL    HW231518   1.384   1.691   1.890  2.1679  0.8297  0.0154
 6628SOL     OW31519   2.964   3.305   1.760  0.4707 -0.0877  0.2801
 6628SOL    HW131520   2.874   3.327   1.783  0.2821  1.3073 -1.8142
 6628SOL    HW231521   2.985   3.261   1.843 -0.1200  1.2835  1.1614
 6629SOL     OW31522   1.767   3.899   2.755 -0.6354 -0.3558 -0.7953
 6629SOL    HW131523   1.770   3.832   2.686 -0.1592  1.3421 -2.4239
 6629SOL    HW231524   1.860   3.923   2.762  0.2035 -4.4648  2.1288
 6630SOL     OW31525   0.537   0.292   2.238 -0.1634  0.0595 -0.1555
 6630SOL    HW131526   0.491   0.267   2.318 -1.5065  2.7970 -0.0678
 6630SOL    HW231527   0.562   0.204   2.211 -2.3147 -0.8697  0.8896
 6631SOL     OW31528   0.696   2.440   1.552 -0.3358  0.7269 -0.1423
 6631SOL    HW131529   0.626   2.391   1.508  1.1093 -2.8597  1.5843
 6631SOL    HW231530   0.769   2.420   1.493 -1.2535 -2.8702 -0.0357
 6632SOL     OW31531   0.999   4.172  11.618 -0.2360  0.5017 -0.5566
 6632SOL    HW131532   1.020   4.088  11.577  2.2895  1.5053 -1.3124
 6632SOL    HW231533   0.941   4.144  11.688  0.5384  1.1392  0.3370
 6633SOL     OW31534   2.635   3.783   2.773  0.0618  0.6380 -0.4281
 6633SOL    HW131535   2.602   3.694   2.773  1.7109  0.0222 -0.1584
 6633SOL    HW231536   2.563   3.838   2.804  0.8163  1.5639 -0.3025
 6634SOL     OW31537   1.393   0.588   6.906 -0.2644  0.2443  0.2382
 6634SOL    HW131538   1.338   0.642   6.850  0.8538  2.6916  1.4907
 6634SOL    HW231539   1.348   0.506   6.923  0.2518  0.8751  4.5639
 6635SOL     OW31540   0.876   1.879   9.551  0.0196  0.4987  0.0744
 6635SOL    HW131541   0.828   1.807   9.510 -1.3754  1.5610 -0.1458
 6635SOL    HW231542   0.969   1.873   9.528 -1.5632  1.1933 -6.4806
 6636SOL     OW31543   3.809   4.485   9.696  0.1109 -0.8306 -0.1806
 6636SOL    HW131544   3.756   4.453   9.769 -1.0313  1.5079 -0.0010
 6636SOL    HW231545   3.883   4.424   9.700  1.1529  0.5724  2.0639
 6637SOL     OW31546   1.416   2.547   6.950 -0.1375  0.0688 -0.3436
 6637SOL    HW131547   1.510   2.531   6.961  0.3330  1.4055 -2.3966
 6637SOL    HW231548   1.386   2.484   7.015 -0.2677 -0.1235 -0.5932
 6638SOL     OW31549   2.904   3.782   2.746  0.2418  0.1902  0.4472
 6638SOL    HW131550   2.930   3.868   2.781  1.6256  0.5969 -1.5993
 6638SOL    HW231551   2.810   3.783   2.762  0.4134  1.8191  1.3782
 6639SOL     OW31552   3.078   3.707   7.401  0.2218  0.3369  0.1840
 6639SOL    HW131553   3.051   3.626   7.445  2.6616 -0.0433  0.9822
 6639SOL    HW231554   3.108   3.758   7.477  0.4384 -2.3285  1.8944
 6640SOL     OW31555   0.803   1.720   9.923  0.0046 -0.0409 -0.2502
 6640SOL    HW131556   0.753   1.648   9.959  1.7372 -1.0505  0.1586
 6640SOL    HW231557   0.745   1.759   9.858  2.5239  2.3882 -1.0617
 6641SOL     OW31558   2.251   3.893   2.071  0.0997  0.0442  0.2976
 6641SOL    HW131559   2.340   3.925   2.087  0.7726 -2.5388  1.7008
 6641SOL    HW231560   2.207   3.975   2.094  0.4003  0.3801 -0.3295
 6642SOL     OW31561   2.779   0.556   3.973  0.2875 -0.3251  0.0118
 6642SOL    HW131562   2.839   0.487   4.000  1.8072  0.6755 -0.7808
 6642SOL    HW231563   2.843   0.619   3.940  1.2031 -1.5147 -0.5052
 6643SOL     OW31564   1.097   3.500   0.189 -0.5966  0.6274  0.3476
 6643SOL    HW131565   1.159   3.428   0.191  0.2424  1.2754 -2.6957
 6643SOL    HW231566   1.132   3.555   0.119 -2.2951  1.9224  0.5163
 6644SOL     OW31567   2.852   2.941   4.792  0.2934  0.4397 -0.1323
 6644SOL    HW131568   2.775   2.932   4.737 -0.1341  1.1888  0.3488
 6644SOL    HW231569   2.916   2.912   4.727 -1.0376  2.6768 -2.4227
 6645SOL     OW31570   2.119   1.382   2.455 -0.0204 -0.0963 -0.6793
 6645SOL    HW131571   2.091   1.472   2.440 -0.4963 -0.5401 -2.5131
 6645SOL    HW231572   2.052   1.353   2.516 -0.6640 -0.4680 -1.5508
 6646SOL     OW31573   1.038   2.583  10.978 -0.6116  0.1198 -0.6515
 6646SOL    HW131574   1.090   2.612  11.052  0.4920 -0.3852 -1.2312
 6646SOL    HW231575   0.985   2.515  11.019  1.8741 -1.5107 -0.1302
 6647SOL     OW31576   4.463   1.465   2.618 -0.5625  0.8356  0.3432
 6647SOL    HW131577   4.504   1.435   2.537  0.7797  1.5144  0.7685
 6647SOL    HW231578   4.544   1.479   2.667  1.1109  0.3330 -2.2719
 6648SOL     OW31579   0.049   0.666   1.424  0.5625 -0.0514  0.1521
 6648SOL    HW131580   0.122   0.662   1.486  0.0797  0.1273  0.7371
 6648SOL    HW231581   0.034   0.761   1.428 -0.0492 -0.1193 -0.5383
 6649SOL     OW31582   4.287   3.160  10.468  0.6466  0.9219  0.0875
 6649SOL    HW131583   4.250   3.226  10.527 -3.3120  0.6962 -2.1471
 6649SOL    HW231584   4.217   3.095  10.475  2.9433 -1.6208 -0.2844
 6650SOL     OW31585   3.690   1.173   3.987 -0.3646 -0.0609  0.3007
 6650SOL    HW131586   3.669   1.250   3.933 -2.1190 -1.7278 -1.3782
 6650SOL    HW231587   3.600   1.162   4.017 -0.5042  1.0848  0.3135
 6651SOL     OW31588   3.345   0.407   1.006 -0.1515  0.3604  0.1455
 6651SOL    HW131589   3.431   0.449   1.012 -0.4919  1.1324 -0.3458
 6651SOL    HW231590   3.348   0.312   1.010  1.2084  0.5110  2.6202
 6652SOL     OW31591   1.873   2.097   6.193 -0.0062 -0.2810  0.6462
 6652SOL    HW131592   1.901   2.007   6.174 -1.2558 -0.5053 -0.1829
 6652SOL    HW231593   1.804   2.092   6.259  0.6494  0.4137  1.3765
 6653SOL     OW31594   3.974   2.874   1.437 -0.4363  0.4906  0.3303
 6653SOL    HW131595   4.049   2.827   1.473  0.9873  2.6720  0.2108
 6653SOL    HW231596   3.981   2.959   1.481  1.9995  0.1207  0.6870
 6654SOL     OW31597   3.552   3.619  15.708  0.0778  0.3306 -0.6130
 6654SOL    HW131598   3.574   3.690  15.648  1.0338 -2.0532 -3.0469
 6654SOL    HW231599   3.482   3.664  15.756  0.5448 -1.3054  1.6350
 6655SOL     OW31600   2.993   0.402   6.811 -0.1410 -0.1469  0.3844
 6655SOL    HW131601   3.002   0.413   6.906  0.4859  0.7210  0.2338
 6655SOL    HW231602   2.997   0.307   6.798  0.7596 -0.0299 -0.2513
 6656SOL     OW31603   0.588   1.422   0.848  0.0888  0.3444 -0.3270
 6656SOL    HW131604   0.528   1.434   0.922  2.5982 -0.7049  1.8895
 6656SOL    HW231605   0.671   1.411   0.894 -1.7522 -0.3433  2.8145
 6657SOL     OW31606   2.780   0.345   9.088 -0.3124 -0.0355  0.1364
 6657SOL    HW131607   2.730   0.405   9.143 -0.9469 -2.1108  1.8564
 6657SOL    HW231608   2.728   0.344   9.008 -0.1621 -2.6887  0.0542
 6658SOL     OW31609   1.493   4.529  13.414 -0.0384  0.3524 -0.6591
 6658SOL    HW131610   1.452   4.614  13.428 -1.9408 -0.8896  1.3579
 6658SOL    HW231611   1.524   4.534  13.323 -1.1156  0.3469 -1.0382
 6659SOL     OW31612   2.872   4.344   3.848 -0.1948 -0.6157  0.0126
 6659SOL    HW131613   2.801   4.372   3.906 -0.1241 -1.6043  0.5758
 6659SOL    HW231614   2.864   4.249   3.853 -1.3234 -0.5569 -0.7084
 6660SOL     OW31615   0.067   1.880   8.618  0.3315 -0.6294 -0.4311
 6660SOL    HW131616   0.147   1.911   8.575  1.0574  0.3157  1.5836
 6660SOL    HW231617   0.098   1.838   8.698  0.0545 -0.1925 -0.0932
 6661SOL     OW31618   0.003   4.326   4.272  0.1436  0.3938  0.0801
 6661SOL    HW131619   4.706   4.239   4.287  0.1068  0.7361  2.0684
 6661SOL    HW231620   4.721   4.328   4.179 -1.2715 -1.3275  0.3622
 6662SOL     OW31621   3.914   4.630   6.657 -0.4596 -0.2590 -0.1715
 6662SOL    HW131622   3.854   4.685   6.706  1.1308  0.8193  0.5347
 6662SOL    HW231623   3.932   4.558   6.718 -0.3831 -0.1925 -0.1158
 6663SOL     OW31624   0.268   4.401   1.268  0.3496  0.1787 -0.1658
 6663SOL    HW131625   0.312   4.477   1.306  0.9563  0.8446 -2.2306
 6663SOL    HW231626   0.263   4.326   1.328 -1.4982  0.2681 -0.1976
 6664SOL     OW31627   1.634   2.436  11.532  0.0341  0.1207  0.2373
 6664SOL    HW131628   1.723   2.400  11.531  0.1749  0.4978 -1.6980
 6664SOL    HW231629   1.637   2.516  11.584  0.3053  1.2937 -1.5713
 6665SOL     OW31630   0.826   0.419   2.037 -0.6187  0.3559  0.0010
 6665SOL    HW131631   0.812   0.479   1.964  3.0829  1.8287  0.4611
 6665SOL    HW231632   0.768   0.469   2.094  0.5378  2.0009 -0.2424
 6666SOL     OW31633   2.029   0.257   0.695  0.2411  0.1218 -0.3593
 6666SOL    HW131634   2.103   0.198   0.688  1.3364  1.4628 -0.1726
 6666SOL    HW231635   2.087   0.334   0.691 -1.8458  1.6286 -1.5607
 6667SOL     OW31636   3.352   3.901   5.541  0.1599 -0.0566  0.2648
 6667SOL    HW131637   3.270   3.921   5.587  0.7548  1.5177  0.6360
 6667SOL    HW231638   3.413   3.961   5.585  0.0145  0.1458  0.1937
 6668SOL     OW31639   2.094   1.121   7.704 -0.5326  0.1038  0.5905
 6668SOL    HW131640   2.134   1.044   7.664 -2.0434 -0.7610  0.7325
 6668SOL    HW231641   2.008   1.126   7.663  0.9949 -0.9480 -2.7885
 6669SOL     OW31642   0.619   4.139   2.351 -0.3845 -0.1104  0.1421
 6669SOL    HW131643   0.656   4.227   2.347 -0.5569 -0.0326  0.2639
 6669SOL    HW231644   0.528   4.157   2.378  0.0998  2.1873  0.2010
 6670SOL     OW31645   0.938   2.735   3.027 -0.3503  0.1257 -0.0125
 6670SOL    HW131646   0.886   2.768   3.101  1.4891  2.0739  0.4262
 6670SOL    HW231647   0.877   2.730   2.954 -0.1946 -0.5673 -0.0912
 6671SOL     OW31648   4.446   2.517   8.488  0.4372  0.1936  0.5366
 6671SOL    HW131649   4.479   2.445   8.541 -1.3228 -1.2489 -0.3103
 6671SOL    HW231650   4.518   2.579   8.498  1.3653 -1.0428  1.5492
 6672SOL     OW31651   0.720   2.143  17.497  0.1607  0.3442 -0.3793
 6672SOL    HW131652   0.651   2.093  17.542  0.4646 -0.4773 -0.8224
 6672SOL    HW231653   0.766   2.069  17.458 -2.0807 -1.3091  0.0409
 6673SOL     OW31654   1.248   2.101   4.724  0.3963  0.8941 -0.1742
 6673SOL    HW131655   1.266   2.171   4.786  2.1129 -0.1908  0.5374
 6673SOL    HW231656   1.152   2.108   4.716  0.2337 -1.1957 -0.1081
 6674SOL     OW31657   0.309   0.462   0.696 -0.1603  0.1427  0.4846
 6674SOL    HW131658   0.293   0.423   0.782 -1.3760 -2.2735 -0.8391
 6674SOL    HW231659   0.264   0.391   0.651 -2.0165  1.8151 -0.2880
 6675SOL     OW31660   3.576   4.046  14.085 -0.2418  0.1446 -0.4761
 6675SOL    HW131661   3.530   4.121  14.047  2.1094  2.7041  1.8159
 6675SOL    HW231662   3.650   4.043  14.024 -0.4931  0.9803 -0.8268
 6676SOL     OW31663   2.990   3.446   5.700 -0.2562 -0.3862 -0.0961
 6676SOL    HW131664   3.083   3.468   5.708 -0.4081  0.1797  0.1003
 6676SOL    HW231665   2.972   3.409   5.786  1.8543 -0.9798  0.0747
 6677SOL     OW31666   4.274   4.584   1.495 -0.2866 -0.2402 -0.2966
 6677SOL    HW131667   4.255   4.625   1.580  0.2924  0.0108 -0.2849
 6677SOL    HW231668   4.279   4.665   1.444  0.7066  0.6200  1.1643
 6678SOL     OW31669   2.877   3.744  14.378  0.5839  0.0914  0.3502
 6678SOL    HW131670   2.822   3.696  14.439 -1.7634  2.0918 -0.1772
 6678SOL    HW231671   2.813   3.766  14.310 -0.3648 -0.4363  1.0815
 6679SOL     OW31672   2.365   4.639  12.654 -0.0259 -0.5475  0.5222
 6679SOL    HW131673   2.426   4.585  12.603  0.8449 -0.2018  1.2004
 6679SOL    HW231674   2.362   4.727  12.616  0.7402  0.3827  2.6029
 6680SOL     OW31675   1.964   0.747   8.627  0.5358 -0.0901  0.0272
 6680SOL    HW131676   1.963   0.749   8.532  0.6960  0.7260  0.0472
 6680SOL    HW231677   1.872   0.758   8.652 -0.0106 -1.2710 -1.4673
 6681SOL     OW31678   4.274   2.703  10.332 -0.4121  0.2813 -0.7217
 6681SOL    HW131679   4.326   2.772  10.374 -0.2190 -0.2793 -0.0299
 6681SOL    HW231680   4.321   2.622  10.354  1.6062  1.9484  1.1167
 6682SOL     OW31681   2.886   0.161   7.201 -0.2484  0.1592  0.4892
 6682SOL    HW131682   2.969   0.172   7.247 -0.5494 -1.3675  1.3958
 6682SOL    HW231683   2.822   0.120   7.259  0.0698 -0.5603  0.3351
 6683SOL     OW31684   1.252   4.182   8.890  0.6865 -0.1398 -0.0646
 6683SOL    HW131685   1.181   4.123   8.912 -1.9355  3.4659  1.1732
 6683SOL    HW231686   1.320   4.123   8.858 -0.7821 -0.7174 -2.0792
 6684SOL     OW31687   1.758   0.623   1.690 -0.2636  0.1176 -0.0179
 6684SOL    HW131688   1.823   0.690   1.713 -0.0514 -1.4668  4.0280
 6684SOL    HW231689   1.683   0.673   1.723 -0.8155 -0.1359 -0.8968
 6685SOL     OW31690   1.348   1.318   2.228 -0.3623  0.2133  0.4359
 6685SOL    HW131691   1.352   1.271   2.145  0.6669  1.1128 -0.0116
 6685SOL    HW231692   1.368   1.253   2.295  0.5783  0.4590  0.3901
 6686SOL     OW31693   1.254   1.497   8.771 -0.4763 -0.3534  1.1669
 6686SOL    HW131694   1.245   1.574   8.828  0.6505 -0.0778  0.9653
 6686SOL    HW231695   1.347   1.476   8.770 -0.6005 -0.9286  1.9897
 6687SOL     OW31696   2.333   3.436  13.377 -0.1407  0.1231 -0.6685
 6687SOL    HW131697   2.301   3.422  13.466 -1.0406 -0.2391 -1.0549
 6687SOL    HW231698   2.362   3.350  13.348  0.8809 -0.2114  1.3463
 6688SOL     OW31699   2.178   2.401   1.923 -0.2033 -0.2648  0.4723
 6688SOL    HW131700   2.165   2.369   1.834  1.2280  3.1443 -0.9851
 6688SOL    HW231701   2.094   2.372   1.957  0.4701  0.3025  2.6182
 6689SOL     OW31702   1.613   1.283   8.026 -0.4078 -0.3054  0.1590
 6689SOL    HW131703   1.702   1.286   7.992 -1.1654 -0.3025 -1.7927
 6689SOL    HW231704   1.596   1.371   8.060  0.1766 -0.2962  0.4370
 6690SOL     OW31705   2.691   4.007   8.565  0.6757  0.2567  0.8354
 6690SOL    HW131706   2.642   4.089   8.561  0.8155  0.2271 -1.3446
 6690SOL    HW231707   2.690   3.971   8.476 -1.2008  1.2125  0.4721
 6691SOL     OW31708   2.185   0.060   5.903 -0.3113 -0.6805 -0.6825
 6691SOL    HW131709   2.229   0.133   5.947 -1.5033 -0.3025 -0.1400
 6691SOL    HW231710   2.122   0.041   5.973 -1.6953  1.0550 -1.4591
 6692SOL     OW31711   4.035   0.082   2.673 -0.2532  0.0568  0.9543
 6692SOL    HW131712   4.104   0.025   2.638  0.6172  1.6704  0.0703
 6692SOL    HW231713   3.963   0.019   2.683  0.4739 -0.8070  0.7966
 6693SOL     OW31714   3.573   2.830   2.245 -0.2480  0.0325  0.2487
 6693SOL    HW131715   3.656   2.802   2.284 -0.8236 -3.5429 -1.1419
 6693SOL    HW231716   3.552   2.910   2.294  0.1398 -0.5701  1.4006
 6694SOL     OW31717   4.098   4.732   3.153 -0.6099  0.1011 -0.4161
 6694SOL    HW131718   4.190   0.021   3.151 -1.5024  3.3163  3.0339
 6694SOL    HW231719   4.063   0.072   3.110  0.7997  0.2201 -1.3404
 6695SOL     OW31720   1.189   3.581   5.213 -0.0965  0.1620 -0.2492
 6695SOL    HW131721   1.099   3.567   5.184 -0.3037  0.8545  0.0498
 6695SOL    HW231722   1.177   3.545   5.300  1.1480  0.7466  0.1742
 6696SOL     OW31723   0.668   4.199  11.419  0.2194 -0.0993 -0.0482
 6696SOL    HW131724   0.693   4.190  11.511 -1.8945  1.7754  0.7152
 6696SOL    HW231725   0.737   4.138  11.391  2.9109  1.9592  2.0639
 6697SOL     OW31726   1.871   2.968   9.500 -0.0954  0.5487 -0.3183
 6697SOL    HW131727   1.829   2.883   9.507  0.4487  0.3357  0.3921
 6697SOL    HW231728   1.936   2.974   9.570  1.2836 -0.2374 -1.5496
 6698SOL     OW31729   2.484   1.566  10.518 -0.1456 -0.4691 -0.0735
 6698SOL    HW131730   2.506   1.646  10.471 -0.5827 -0.2387  0.1063
 6698SOL    HW231731   2.436   1.520  10.449 -2.1954  0.5845  0.6269
 6699SOL     OW31732   2.943   1.779  12.305 -0.3516  0.6068 -0.0882
 6699SOL    HW131733   2.949   1.692  12.267 -0.6300  0.2104  0.7576
 6699SOL    HW231734   2.855   1.766  12.341  0.3094 -2.3368  0.4670
 6700SOL     OW31735   2.919   3.928   7.850  0.9651 -0.0845 -0.1474
 6700SOL    HW131736   2.904   3.834   7.857 -0.9347  0.3463  1.5607
 6700SOL    HW231737   2.974   3.925   7.771 -1.7073 -1.3573 -1.9442
 6701SOL     OW31738   3.677   4.070   6.825  0.0045 -0.9422  0.4413
 6701SOL    HW131739   3.664   4.148   6.879 -1.4416 -1.3895  0.7370
 6701SOL    HW231740   3.772   4.058   6.831  0.1464  0.0461  0.1089
 6702SOL     OW31741   0.080   2.334   2.858  0.1644  0.5247 -0.4608
 6702SOL    HW131742   4.726   2.339   2.834  0.1534 -0.6527 -0.6417
 6702SOL    HW231743   0.090   2.258   2.914  0.0347  1.6059  1.0357
 6703SOL     OW31744   3.797   0.961   1.865  0.0954  0.1598 -0.1888
 6703SOL    HW131745   3.819   1.053   1.853 -0.2011  0.0943 -1.1872
 6703SOL    HW231746   3.856   0.939   1.937  0.5991 -0.9562 -0.9375
 6704SOL     OW31747   2.960   2.344   2.125 -0.7565 -0.5899  0.6842
 6704SOL    HW131748   2.995   2.255   2.129 -0.2250 -0.3979  0.3197
 6704SOL    HW231749   3.043   2.392   2.128  0.1410 -2.0719 -0.4349
 6705SOL     OW31750   2.284   0.498   9.162  0.1693  0.4589  0.2414
 6705SOL    HW131751   2.281   0.586   9.124  4.4582  1.4321  2.2694
 6705SOL    HW231752   2.208   0.494   9.221  1.2888 -1.1411  1.5608
 6706SOL     OW31753   4.516   4.198   2.758  0.2513 -0.0290 -0.5025
 6706SOL    HW131754   4.514   4.103   2.748  0.8061 -0.0633 -0.3200
 6706SOL    HW231755   4.504   4.192   2.853 -0.3360  0.6770 -0.5304
 6707SOL     OW31756   3.202   3.246  13.456 -0.1802 -0.0655  0.1931
 6707SOL    HW131757   3.208   3.240  13.360  2.7413  0.1877  0.3667
 6707SOL    HW231758   3.205   3.341  13.460 -0.4110 -0.0565  0.1533
 6708SOL     OW31759   1.702   1.881   5.198 -0.3399  0.3961 -0.0667
 6708SOL    HW131760   1.768   1.854   5.134  1.4840  3.6546  0.4749
 6708SOL    HW231761   1.702   1.974   5.178  2.9781  0.3948 -0.1005
 6709SOL     OW31762   3.583   3.262  12.981  0.4146 -0.5285  0.1798
 6709SOL    HW131763   3.556   3.290  13.068 -1.2794  0.7124 -0.7625
 6709SOL    HW231764   3.580   3.339  12.924  0.5583 -1.7090 -1.4328
 6710SOL     OW31765   2.677   0.311   8.844 -0.2565  0.5715  0.1519
 6710SOL    HW131766   2.662   0.354   8.760  1.3830 -0.4165 -0.6388
 6710SOL    HW231767   2.607   0.246   8.840  0.5225 -0.0659 -3.2121
 6711SOL     OW31768   2.097   1.142   7.982 -0.3026 -0.2093 -0.0360
 6711SOL    HW131769   2.100   1.151   7.887 -1.0397 -0.3713 -0.0741
 6711SOL    HW231770   2.138   1.057   7.998  0.2891  0.0324 -0.2691
 6712SOL     OW31771   0.234   3.265  14.703  0.2592  0.5624  0.6258
 6712SOL    HW131772   0.148   3.264  14.660  0.0644  0.6074  1.0121
 6712SOL    HW231773   0.260   3.357  14.704 -0.8179  0.8585  1.9382
 6713SOL     OW31774   3.385   2.007   5.313 -0.1767 -0.1597 -0.4291
 6713SOL    HW131775   3.291   2.001   5.298 -0.2475  3.0284 -1.3023
 6713SOL    HW231776   3.401   1.940   5.379 -0.8741 -1.4057 -1.5247
 6714SOL     OW31777   4.543   2.397   8.221 -0.1532 -0.3679  0.4445
 6714SOL    HW131778   4.573   2.401   8.131 -0.4809  1.5536  0.4303
 6714SOL    HW231779   4.503   2.483   8.237 -1.1286 -0.5151 -1.2267
 6715SOL     OW31780   0.042   1.724   8.366  0.0635  0.2243 -0.1720
 6715SOL    HW131781   0.111   1.778   8.327 -0.0432  2.5317  2.8405
 6715SOL    HW231782   0.022   1.781   8.441  0.0327  0.9453 -0.7228
 6716SOL     OW31783   0.408   1.609   8.721 -0.3833 -0.1588 -0.4584
 6716SOL    HW131784   0.464   1.531   8.724  3.7775  2.8516  0.1904
 6716SOL    HW231785   0.479   1.662   8.684  1.1210 -0.8274  1.4353
 6717SOL     OW31786   4.554   3.012   5.476  0.0312  0.1704 -0.6952
 6717SOL    HW131787   4.540   2.931   5.427 -1.0263  1.1307 -1.9917
 6717SOL    HW231788   4.522   2.981   5.560 -2.1288  2.4848 -0.6890
 6718SOL     OW31789   3.545   4.229   4.930  0.5034  0.1008  0.2808
 6718SOL    HW131790   3.606   4.286   4.883 -3.1549  1.1453 -3.2413
 6718SOL    HW231791   3.597   4.150   4.940  2.1223  1.0375 -0.7078
 6719SOL     OW31792   1.115   0.830   5.991 -0.3425  0.6310 -0.9999
 6719SOL    HW131793   1.066   0.890   5.936 -0.6348  2.1452  0.9163
 6719SOL    HW231794   1.083   0.749   5.951  1.7656 -0.5129 -0.3998
 6720SOL     OW31795   0.089   1.973   5.060 -0.4630 -0.2023 -0.0530
 6720SOL    HW131796   0.139   1.959   5.141  0.9652  2.2854 -0.5206
 6720SOL    HW231797   0.142   2.038   5.016 -1.0088 -0.1767 -0.6691
 6721SOL     OW31798   2.722   1.746   7.086 -0.0056 -0.1162  0.1455
 6721SOL    HW131799   2.665   1.764   7.011 -0.9710  1.2413  1.1951
 6721SOL    HW231800   2.805   1.750   7.038 -1.3487  3.3558 -1.8504
 6722SOL     OW31801   0.683   0.668   2.022  0.3449 -0.0201 -0.0991
 6722SOL    HW131802   0.675   0.760   2.049  2.2754 -0.0409  0.5188
 6722SOL    HW231803   0.608   0.660   1.963  0.9004  1.2621 -0.9844
 6723SOL     OW31804   2.183   4.438   5.685  0.2636  0.1848  0.0071
 6723SOL    HW131805   2.182   4.343   5.674 -1.9499  0.0543  1.3580
 6723SOL    HW231806   2.172   4.476   5.598 -0.4256  0.9360  0.4152
 6724SOL     OW31807   3.990   3.916   7.585 -0.3873  0.3710  0.8325
 6724SOL    HW131808   3.910   3.873   7.615 -1.1453  0.4097 -1.1788
 6724SOL    HW231809   4.021   3.867   7.510 -0.6894  0.7104  0.4823
 6725SOL     OW31810   2.532   1.684   7.724  0.4004  0.6082  0.2813
 6725SOL    HW131811   2.615   1.637   7.720 -0.8008 -1.5209  0.8753
 6725SOL    HW231812   2.559   1.775   7.710 -0.1665  0.6107 -0.7804
 6726SOL     OW31813   0.544   2.382  11.325  0.2683 -0.4081  0.3937
 6726SOL    HW131814   0.604   2.313  11.296 -0.3794 -0.4317 -0.8682
 6726SOL    HW231815   0.613   2.448  11.330 -1.8505  1.9098 -1.6977
 6727SOL     OW31816   0.412   1.385  17.406 -0.0949  0.6304  0.3611
 6727SOL    HW131817   0.440   1.321  17.471 -0.8489  1.4741  1.5164
 6727SOL    HW231818   0.349   1.434  17.459 -0.3450 -1.0103  1.5795
 6728SOL     OW31819   3.917   2.875   6.610 -0.0892  0.5731  0.8071
 6728SOL    HW131820   3.917   2.969   6.592 -0.1069  0.7036  1.4850
 6728SOL    HW231821   3.825   2.861   6.631 -0.1240  1.0206  0.9586
 6729SOL     OW31822   0.155   2.696   8.146  0.2266  0.1862  0.2488
 6729SOL    HW131823   0.132   2.644   8.223  2.5064 -0.2392  0.6459
 6729SOL    HW231824   0.161   2.776   8.198 -0.5793  0.5178 -0.1728
 6730SOL     OW31825   2.009   3.946   7.688 -0.5146 -0.0982  0.1462
 6730SOL    HW131826   1.969   4.024   7.727  2.4953  1.4821  0.0860
 6730SOL    HW231827   1.987   3.873   7.745 -0.2417 -1.6537 -1.7641
 6731SOL     OW31828   1.485   1.067   9.970  0.2085  0.1786 -0.9345
 6731SOL    HW131829   1.445   1.006  10.033 -1.6002  0.6629 -1.6099
 6731SOL    HW231830   1.456   1.022   9.890 -0.8948 -1.8890  0.6063
 6732SOL     OW31831   3.221   2.406   6.689 -0.2965  1.1382 -0.4194
 6732SOL    HW131832   3.272   2.341   6.640  1.0431 -0.0423  2.5820
 6732SOL    HW231833   3.185   2.447   6.610 -0.3448 -0.4578 -1.2282
 6733SOL     OW31834   3.180   0.070  14.254  0.5866 -0.1807 -1.2338
 6733SOL    HW131835   3.275   0.076  14.263  0.5467  1.3140 -1.8909
 6733SOL    HW231836   3.164   4.727  14.302  0.3070  0.3992 -0.3284
 6734SOL     OW31837   2.646   1.348   7.439  0.1386  0.0801  0.1115
 6734SOL    HW131838   2.603   1.413   7.494  0.0453  1.9638 -2.1871
 6734SOL    HW231839   2.685   1.402   7.370  1.9600  0.6682  1.6071
 6735SOL     OW31840   4.262   1.252   0.036  0.0403 -0.1031 -0.4252
 6735SOL    HW131841   4.231   1.182   0.093 -2.2174  0.8109 -0.5407
 6735SOL    HW231842   4.241   1.213  17.703 -0.9727 -1.4842  0.4760
 6736SOL     OW31843   4.115   1.136   8.347 -0.2247  0.0184  0.6247
 6736SOL    HW131844   4.084   1.226   8.355 -0.6549 -0.1147  0.4546
 6736SOL    HW231845   4.209   1.152   8.344  0.4963 -4.6904 -2.0194
 6737SOL     OW31846   3.957   0.252   4.054 -0.0892  0.3589 -0.1414
 6737SOL    HW131847   4.041   0.207   4.046  0.0558  0.8708 -1.5072
 6737SOL    HW231848   3.964   0.274   4.147 -0.6496 -1.3700  0.3154
 6738SOL     OW31849   1.853   4.540   0.852  0.2200 -0.1452  0.3522
 6738SOL    HW131850   1.861   4.634   0.869 -2.4449  0.1383  0.0223
 6738SOL    HW231851   1.762   4.537   0.822 -0.3209 -1.0709  2.0690
 6739SOL     OW31852   0.538   4.664   7.627 -0.2383 -0.2096 -0.0078
 6739SOL    HW131853   0.468   4.704   7.576  1.1048  3.7776  1.2078
 6739SOL    HW231854   0.594   4.620   7.562  1.5931  1.3645  0.4769
 6740SOL     OW31855   0.415   0.521   4.672  0.1575 -0.1539  0.3220
 6740SOL    HW131856   0.356   0.447   4.679  0.5557 -0.8167 -3.2063
 6740SOL    HW231857   0.398   0.558   4.759 -3.6532 -3.1202  0.8097
 6741SOL     OW31858   1.363   3.647   2.526 -0.2453 -0.1342 -0.4767
 6741SOL    HW131859   1.434   3.652   2.463 -0.5088  1.2747 -0.6569
 6741SOL    HW231860   1.412   3.610   2.599 -2.2057 -0.7060  0.5461
 6742SOL     OW31861   2.847   4.084   8.029  0.3774  0.5555 -0.5588
 6742SOL    HW131862   2.893   4.028   7.966 -1.6338 -1.2350 -0.4358
 6742SOL    HW231863   2.760   4.046   8.045  0.5764  0.0747 -0.6049
 6743SOL     OW31864   4.071   1.874   6.229  0.4751 -0.6032  0.2434
 6743SOL    HW131865   4.135   1.942   6.208 -1.9036  1.4357 -0.3799
 6743SOL    HW231866   3.988   1.904   6.192  0.2133 -1.3061  0.2668
 6744SOL     OW31867   0.099   1.707   2.599 -0.0268 -0.0002  0.6525
 6744SOL    HW131868   0.073   1.707   2.507 -0.0012  1.6146  0.6613
 6744SOL    HW231869   0.017   1.737   2.638 -0.3953  1.3118 -1.1254
 6745SOL     OW31870   1.307   2.308   0.071 -0.3850  0.9289  0.0488
 6745SOL    HW131871   1.235   2.342   0.018 -0.3979  2.5402  1.0783
 6745SOL    HW231872   1.277   2.334   0.158 -0.5206 -2.7256  1.0918
 6746SOL     OW31873   2.109   3.315   4.088 -0.3038  0.0557  0.5870
 6746SOL    HW131874   2.026   3.331   4.132  0.5198  0.1737  2.0681
 6746SOL    HW231875   2.146   3.290   4.172 -1.1439 -2.3931  0.2268
 6747SOL     OW31876   3.335   4.702   3.632  0.3082 -0.3822  0.4114
 6747SOL    HW131877   3.258   4.666   3.588 -0.1081 -0.4659  1.2109
 6747SOL    HW231878   3.364   0.023   3.563  1.5627  0.1077  1.3612
 6748SOL     OW31879   3.889   0.361   8.897 -1.0404  0.0126  0.2061
 6748SOL    HW131880   3.978   0.325   8.893 -0.4685  1.5961 -0.9956
 6748SOL    HW231881   3.903   0.455   8.901 -4.9324  0.7603 -3.1008
 6749SOL     OW31882   0.229   2.554   4.121 -0.7430 -0.5504 -0.6493
 6749SOL    HW131883   0.136   2.541   4.141 -0.8768 -0.3635 -1.1394
 6749SOL    HW231884   0.232   2.520   4.031 -0.4462  2.1149 -1.6491
 6750SOL     OW31885   1.489   0.907  13.147 -0.7118 -0.5580  0.0645
 6750SOL    HW131886   1.546   0.960  13.202 -1.9538  1.7942 -0.9547
 6750SOL    HW231887   1.555   0.870  13.089 -0.5441  0.8847 -0.6577
 6751SOL     OW31888   0.721   2.097   4.831  0.6438 -0.0906  0.2108
 6751SOL    HW131889   0.735   2.186   4.797  0.2030 -1.2392 -3.0047
 6751SOL    HW231890   0.661   2.057   4.768 -0.5054  1.2012  0.4747
 6752SOL     OW31891   0.460   3.882   9.823 -0.4652  0.1258  0.1235
 6752SOL    HW131892   0.448   3.831   9.902  0.0359 -2.5446 -1.5302
 6752SOL    HW231893   0.391   3.948   9.835  0.3481  0.9753  0.1411
 6753SOL     OW31894   0.205   4.211  15.283  0.0587  0.0224  0.5166
 6753SOL    HW131895   0.243   4.149  15.346  1.7220  0.5253  0.0098
 6753SOL    HW231896   0.254   4.289  15.308  0.5087 -0.9636  2.7371
 6754SOL     OW31897   0.197   1.554   7.641 -0.3871  0.4474  0.1665
 6754SOL    HW131898   0.207   1.637   7.594  0.7444 -0.3303 -0.9723
 6754SOL    HW231899   0.106   1.545   7.669  0.4949 -1.3865  2.3444
 6755SOL     OW31900   1.711   4.386  10.974 -0.1581 -0.1055 -0.0591
 6755SOL    HW131901   1.635   4.382  11.033 -0.9752  2.5451 -0.9384
 6755SOL    HW231902   1.740   4.475  10.991  0.2462 -0.6627  2.1474
 6756SOL     OW31903   4.661   4.123  13.320  0.3843  0.1024  0.5378
 6756SOL    HW131904   4.715   4.092  13.247  0.6534  0.2638  0.6681
 6756SOL    HW231905   4.612   4.044  13.344 -2.2112  1.4640 -0.2570
 6757SOL     OW31906   3.779   0.621   8.027  0.1868 -0.1012  0.1878
 6757SOL    HW131907   3.815   0.710   8.021 -0.5334  0.2923  1.5985
 6757SOL    HW231908   3.858   0.567   8.029 -0.4511 -1.1431 -2.8482
 6758SOL     OW31909   0.115   1.068   6.246  0.5665  0.1433  0.2995
 6758SOL    HW131910   0.084   1.115   6.324  2.9439 -1.3421  2.1537
 6758SOL    HW231911   0.043   1.006   6.234  0.7385  0.2185 -1.0595
 6759SOL     OW31912   0.741   1.241  10.768  0.0019 -0.1976  0.5895
 6759SOL    HW131913   0.711   1.170  10.824  2.2234 -0.7117  1.1298
 6759SOL    HW231914   0.672   1.256  10.704 -1.6964 -1.7590  2.0437
 6760SOL     OW31915   4.170   2.666   4.646 -0.3264 -0.2757  0.4663
 6760SOL    HW131916   4.076   2.683   4.641 -0.5075 -0.6435  2.6443
 6760SOL    HW231917   4.170   2.613   4.726  0.5883  0.2361  0.8059
 6761SOL     OW31918   3.334   4.364   1.738  0.2426 -0.1542  0.3469
 6761SOL    HW131919   3.315   4.455   1.715 -0.7468  0.1052  2.2448
 6761SOL    HW231920   3.284   4.371   1.819 -0.4808  1.5969 -0.2494
 6762SOL     OW31921   2.926   0.774  11.264  0.3542 -0.2004  0.5474
 6762SOL    HW131922   2.893   0.853  11.306 -0.0966 -1.1486  1.9734
 6762SOL    HW231923   3.000   0.762  11.323  2.9826 -0.3529 -2.7859
 6763SOL     OW31924   1.497   0.959  14.786  0.5915 -0.2639 -0.2355
 6763SOL    HW131925   1.410   0.983  14.754  0.7517  2.9709  1.8291
 6763SOL    HW231926   1.502   0.870  14.751  1.3349 -0.4636  0.3915
 6764SOL     OW31927   4.583   3.553   4.887  0.7087  0.1020 -0.5873
 6764SOL    HW131928   4.594   3.539   4.981 -1.9147 -0.6772 -0.3969
 6764SOL    HW231929   4.507   3.499   4.865  0.8138  0.4120 -1.7398
 6765SOL     OW31930   0.075   2.373  16.780  0.4848  0.3945  0.6040
 6765SOL    HW131931   4.726   2.334  16.776 -0.7098  3.2331 -1.3695
 6765SOL    HW231932   0.124   2.314  16.723  1.7378  3.5458 -1.6187
 6766SOL     OW31933   0.942   1.673   1.865  0.5411  0.2714  0.2224
 6766SOL    HW131934   1.019   1.716   1.901  0.4401  0.9197 -0.3520
 6766SOL    HW231935   0.878   1.743   1.858  2.6689  2.3352  1.4905
 6767SOL     OW31936   3.321   4.022   5.081  0.0942 -0.2537  0.4240
 6767SOL    HW131937   3.228   3.997   5.076  0.3609 -1.0622 -0.5585
 6767SOL    HW231938   3.341   3.976   4.999  0.3009  0.5299  0.0317
 6768SOL     OW31939   3.953   1.834   6.735  0.1004  0.3668  0.2008
 6768SOL    HW131940   3.870   1.859   6.693  0.9382  0.8803 -1.1450
 6768SOL    HW231941   4.014   1.849   6.663  1.2633 -0.1231  1.0809
 6769SOL     OW31942   2.117   2.430   3.007 -0.0342 -0.2362 -0.2138
 6769SOL    HW131943   2.024   2.453   3.000 -0.5329 -2.2389  0.0483
 6769SOL    HW231944   2.143   2.416   2.917 -0.7186 -0.6563 -0.3458
 6770SOL     OW31945   1.712   3.526   4.336  0.7003  0.2667  0.0411
 6770SOL    HW131946   1.621   3.506   4.355  0.1038  3.1558  0.1722
 6770SOL    HW231947   1.721   3.613   4.374 -0.4296  0.8306 -0.9778
 6771SOL     OW31948   2.350   3.663   7.784  0.1441  0.3168  0.5775
 6771SOL    HW131949   2.298   3.584   7.799  0.3795  0.1572  0.5510
 6771SOL    HW231950   2.414   3.663   7.855 -0.6768  0.7955  1.3245
 6772SOL     OW31951   0.635   1.215   5.886 -0.2695 -0.7761 -0.1080
 6772SOL    HW131952   0.660   1.257   5.968 -0.9958 -0.5972  0.0212
 6772SOL    HW231953   0.541   1.201   5.894 -0.3425 -0.2246  0.0165
 6773SOL     OW31954   0.049   0.278   6.123  0.4140 -0.1035 -0.1976
 6773SOL    HW131955   0.078   0.350   6.178 -2.6019 -1.0577  2.6550
 6773SOL    HW231956   0.119   0.264   6.060  0.1057 -0.4677 -0.4683
 6774SOL     OW31957   3.230   0.362   7.846  0.0284 -0.7506  0.0061
 6774SOL    HW131958   3.252   0.323   7.931  1.1450  0.4842  0.2848
 6774SOL    HW231959   3.173   0.437   7.864 -1.7259 -1.9575 -0.6020
 6775SOL     OW31960   2.075   3.093   8.890 -0.8113 -0.2851  0.2594
 6775SOL    HW131961   2.003   3.139   8.932 -2.6020 -1.7380 -1.2462
 6775SOL    HW231962   2.084   3.133   8.804  0.2450 -2.5654 -0.6872
 6776SOL     OW31963   3.043   1.761  16.413 -0.2223  0.0515  0.3116
 6776SOL    HW131964   3.135   1.737  16.420 -0.4747 -2.1468 -4.0401
 6776SOL    HW231965   2.990   1.681  16.410 -0.5503  0.2488  0.8057
 6777SOL     OW31966   0.562   3.866   5.055 -0.0501  0.3452  0.3172
 6777SOL    HW131967   0.613   3.923   5.113 -1.0529  1.1672  0.3980
 6777SOL    HW231968   0.498   3.824   5.112 -0.7583  0.8714 -0.0844
 6778SOL     OW31969   0.155   2.496   3.376  0.6048  0.0562 -0.0478
 6778SOL    HW131970   0.094   2.422   3.374  1.0861 -0.3677  1.8416
 6778SOL    HW231971   0.244   2.465   3.395 -0.1486 -1.1472  1.5176
 6779SOL     OW31972   4.311   3.359   3.882  0.0389 -0.2171 -0.8337
 6779SOL    HW131973   4.340   3.268   3.874  1.4416  0.1253  0.3366
 6779SOL    HW231974   4.260   3.377   3.803 -0.5173 -0.3664 -0.5002
 6780SOL     OW31975   0.526   1.555   1.644 -0.2721 -0.6302 -0.1117
 6780SOL    HW131976   0.588   1.599   1.586 -0.7351  0.0971 -0.0424
 6780SOL    HW231977   0.582   1.560   1.722  0.1468 -1.7558 -0.3282
 6781SOL     OW31978   4.446   2.222   5.643 -0.1961 -0.0133 -0.6197
 6781SOL    HW131979   4.480   2.238   5.555 -0.0582  0.0642 -0.5522
 6781SOL    HW231980   4.465   2.129   5.654  0.0127  0.1945  0.7986
 6782SOL     OW31981   4.264   0.004  12.611  0.4314 -0.1316 -0.6973
 6782SOL    HW131982   4.181   0.040  12.641  0.0496 -0.4704 -1.3499
 6782SOL    HW231983   4.280   0.046  12.527  0.6138 -0.7876 -0.9896
 6783SOL     OW31984   3.626   3.498   8.732  0.5331  0.9463 -0.5017
 6783SOL    HW131985   3.702   3.446   8.761 -0.8938 -1.5957 -1.3580
 6783SOL    HW231986   3.594   3.439   8.664  0.3870  2.2957 -1.5914
 6784SOL     OW31987   4.321   1.536  11.992  0.2964  0.0340 -0.0090
 6784SOL    HW131988   4.295   1.445  11.979 -0.5709  0.2721  0.0402
 6784SOL    HW231989   4.412   1.520  12.015 -0.1078 -0.9481  0.9079
 6785SOL     OW31990   0.084   2.847   4.818 -0.0949 -0.4640  0.3604
 6785SOL    HW131991   0.071   2.896   4.737  0.9442  0.4008  0.7063
 6785SOL    HW231992   0.130   2.771   4.783 -1.7256 -1.0110 -0.5390
 6786SOL     OW31993   1.517   4.019  16.583  0.2050 -0.1004  0.0974
 6786SOL    HW131994   1.519   4.013  16.488 -1.8740 -0.3776  0.0530
 6786SOL    HW231995   1.585   4.084  16.601 -1.9354  1.8976  1.0468
 6787SOL     OW31996   0.310   2.323  14.139 -0.2368 -0.3475 -0.0519
 6787SOL    HW131997   0.376   2.319  14.070 -2.8124 -0.2934 -2.5049
 6787SOL    HW231998   0.289   2.415  14.150 -1.0437 -0.7312  1.5940
 6788SOL     OW31999   1.088   1.285   0.204 -0.2855  0.2845  0.1420
 6788SOL    HW132000   1.015   1.304   0.145  1.0634  1.1449 -1.2647
 6788SOL    HW232001   1.081   1.358   0.265  1.1634 -0.7895  1.5872
 6789SOL     OW32002   2.934   0.640   4.819 -0.0102 -0.4766 -0.4467
 6789SOL    HW132003   2.884   0.684   4.889  0.4284 -0.2091 -0.3027
 6789SOL    HW232004   3.015   0.690   4.831 -0.2168  0.3785 -2.5596
 6790SOL     OW32005   2.777   0.608   7.051 -0.4766 -0.2312  0.1189
 6790SOL    HW132006   2.733   0.613   6.966 -0.0111 -0.5388 -0.1409
 6790SOL    HW232007   2.756   0.693   7.089  1.8599  0.5528 -0.3013
 6791SOL     OW32008   3.514   1.652   0.723 -0.5968 -0.2399 -0.1923
 6791SOL    HW132009   3.469   1.667   0.640  0.7170  0.6922 -0.7276
 6791SOL    HW232010   3.601   1.687   0.707 -0.5118 -0.1601  0.4475
 6792SOL     OW32011   0.353   1.472  16.322 -0.0763 -0.2535  0.2884
 6792SOL    HW132012   0.272   1.427  16.297 -0.0779  1.9700 -3.7011
 6792SOL    HW232013   0.398   1.398  16.363  3.1528  1.0584 -0.9384
 6793SOL     OW32014   3.078   2.474   4.476 -0.1657 -0.0892  0.0329
 6793SOL    HW132015   2.997   2.462   4.526  0.9147  2.1695  2.2993
 6793SOL    HW232016   3.060   2.408   4.408  1.1582  0.6795 -1.0588
 6794SOL     OW32017   2.090   1.644  12.462  0.1269 -0.3581  0.1554
 6794SOL    HW132018   2.167   1.596  12.490  1.1055 -0.0415 -1.9749
 6794SOL    HW232019   2.116   1.683  12.378 -1.2193 -0.7742 -0.4669
 6795SOL     OW32020   2.122   2.765  13.366  0.2383 -0.1035 -0.0021
 6795SOL    HW132021   2.153   2.830  13.303 -0.8971  0.6377  0.1873
 6795SOL    HW232022   2.151   2.806  13.448 -3.0798  1.9625  0.1612
 6796SOL     OW32023   2.312   1.923   4.627  0.0560  0.2475 -0.0142
 6796SOL    HW132024   2.265   2.000   4.597 -2.0213 -0.9112  0.2989
 6796SOL    HW232025   2.401   1.941   4.595  0.0467  0.2222 -0.0546
 6797SOL     OW32026   1.956   2.106  17.025  0.3900  0.2363  0.2526
 6797SOL    HW132027   2.033   2.124  17.078 -0.8241  2.3623  1.2966
 6797SOL    HW232028   1.890   2.125  17.092 -0.9487 -0.0744 -0.9886
 6798SOL     OW32029   2.718   3.339   3.721 -0.4378  0.5618 -0.1660
 6798SOL    HW132030   2.734   3.424   3.679  0.5533 -0.2038 -1.3093
 6798SOL    HW232031   2.677   3.369   3.802 -2.9575 -4.3923  0.3923
 6799SOL     OW32032   0.846   0.006   3.778  0.0063  0.1380 -0.5234
 6799SOL    HW132033   0.773   4.693   3.744  0.1588 -0.9421  0.7781
 6799SOL    HW232034   0.925   4.737   3.725 -0.8034 -1.4256 -1.5224
 6800SOL     OW32035   3.584   1.844   6.381 -0.3360 -0.2025 -0.2590
 6800SOL    HW132036   3.532   1.923   6.397  0.9767  0.7161 -0.6189
 6800SOL    HW232037   3.582   1.830   6.286 -1.7928  1.3739 -0.4573
 6801SOL     OW32038   0.407   3.724  16.832  0.2539 -0.1706 -0.0865
 6801SOL    HW132039   0.340   3.785  16.801  1.3106  0.8768 -0.2819
 6801SOL    HW232040   0.357   3.682  16.901  2.3841 -1.6226  0.5530
 6802SOL     OW32041   1.151   2.928   5.634  0.0079  0.1049  0.1731
 6802SOL    HW132042   1.092   2.874   5.686  1.2993  0.6396  2.1930
 6802SOL    HW232043   1.227   2.888   5.676  1.0456  0.6637 -1.1678
 6803SOL     OW32044   1.133   1.796   2.799 -0.2853  0.0448  0.2774
 6803SOL    HW132045   1.151   1.866   2.862 -0.1835  0.3230 -0.0649
 6803SOL    HW232046   1.223   1.768   2.782 -0.9771 -1.0726 -1.5807
 6804SOL     OW32047   0.698   3.938   9.679 -0.6064 -0.3117  0.4853
 6804SOL    HW132048   0.758   3.963   9.749 -0.3717  0.3616  0.0404
 6804SOL    HW232049   0.617   3.941   9.730 -0.4276  0.0048  0.7526
 6805SOL     OW32050   4.563   1.470   5.176  0.2170  0.6306  0.0709
 6805SOL    HW132051   4.516   1.412   5.237  1.8939 -1.9466 -1.0537
 6805SOL    HW232052   4.499   1.520   5.126 -1.5862 -0.9800  0.7535
 6806SOL     OW32053   0.741   1.516   8.452  0.0704  0.0337 -0.4421
 6806SOL    HW132054   0.750   1.429   8.412 -1.2602  0.4301 -1.6499
 6806SOL    HW232055   0.721   1.565   8.372 -1.2368  2.8947  1.6685
 6807SOL     OW32056   3.913   3.568   2.033  0.1686 -0.4921  0.0535
 6807SOL    HW132057   4.002   3.558   2.066  0.2371 -0.4034 -0.1036
 6807SOL    HW232058   3.877   3.627   2.099  1.2144  1.1010 -0.8013
 6808SOL     OW32059   3.950   4.592   5.559 -0.3398 -0.5697 -0.3832
 6808SOL    HW132060   3.877   4.598   5.620 -1.1577 -0.9818 -1.3200
 6808SOL    HW232061   3.899   4.556   5.486 -0.2653  0.3245 -0.8754
 6809SOL     OW32062   3.213   3.420  11.203  0.2886 -0.2864 -0.3512
 6809SOL    HW132063   3.256   3.492  11.157 -0.2360  1.3823  1.7722
 6809SOL    HW232064   3.134   3.402  11.151  1.5227 -2.9984 -1.2602
 6810SOL     OW32065   1.132   0.819   2.029  0.1496  0.5759  0.3993
 6810SOL    HW132066   1.041   0.836   2.053 -0.0615 -0.0287  0.0094
 6810SOL    HW232067   1.185   0.835   2.108 -0.4606  0.4496  0.8302
 6811SOL     OW32068   3.412   4.640   2.634 -0.3981  0.2940 -0.3380
 6811SOL    HW132069   3.434   4.548   2.620  0.2927  0.4973 -0.5986
 6811SOL    HW232070   3.409   4.648   2.730 -0.5070  2.1813 -0.4942
 6812SOL     OW32071   0.927   4.123  16.017  0.5509  0.9107  0.1020
 6812SOL    HW132072   0.934   4.172  15.935  1.0225  0.3404 -0.2013
 6812SOL    HW232073   1.015   4.120  16.054  0.1652  2.2107  1.1129
 6813SOL     OW32074   2.064   1.150   3.022  0.1163 -0.8267 -0.1771
 6813SOL    HW132075   2.113   1.084   3.072 -1.8855 -0.0474  2.8616
 6813SOL    HW232076   2.042   1.221   3.083  1.3062 -0.1683 -0.5310
 6814SOL     OW32077   2.292   4.100   6.080 -0.2668  0.1888 -0.4392
 6814SOL    HW132078   2.254   4.183   6.052  0.5705  0.9757  0.7496
 6814SOL    HW232079   2.240   4.062   6.151  2.8587  1.5358  2.5868
 6815SOL     OW32080   2.923   0.409   5.664  0.7324 -0.1958  0.0301
 6815SOL    HW132081   2.971   0.326   5.665 -0.7704 -1.0653 -1.3269
 6815SOL    HW232082   2.850   0.391   5.606 -1.1179  0.2377  2.2134
 6816SOL     OW32083   3.669   3.196  15.061  0.3013  0.4164  0.3622
 6816SOL    HW132084   3.598   3.134  15.045  0.0027  0.7060  0.5610
 6816SOL    HW232085   3.659   3.211  15.155  1.8691  1.0439  0.4297
 6817SOL     OW32086   4.260   0.163   4.445  0.1091 -0.6042 -0.3426
 6817SOL    HW132087   4.187   0.138   4.388 -2.1518  2.3646  1.2092
 6817SOL    HW232088   4.336   0.182   4.391  1.6349 -2.7696  1.0812
 6818SOL     OW32089   4.291   3.756  13.786  0.4065  0.9061 -0.2522
 6818SOL    HW132090   4.200   3.745  13.814 -0.2812 -0.0342 -2.8963
 6818SOL    HW232091   4.330   3.753  13.873  1.7127  0.3045 -0.8534
 6819SOL     OW32092   3.874   4.397   1.169  0.0442 -0.4577  0.5044
 6819SOL    HW132093   3.850   4.488   1.184  2.4936  0.3281 -0.4724
 6819SOL    HW232094   3.784   4.365   1.176 -0.2874  0.6733  1.5217
 6820SOL     OW32095   1.195   4.660   8.238  0.0863  0.2432 -0.1389
 6820SOL    HW132096   1.169   4.710   8.161  0.6401  0.0720 -0.4337
 6820SOL    HW232097   1.112   4.616   8.256  0.3792 -1.0378 -1.9162
 6821SOL     OW32098   0.645   1.411   4.596  0.6277  0.0951 -0.1283
 6821SOL    HW132099   0.571   1.389   4.539 -0.2040  0.2090  0.8994
 6821SOL    HW232100   0.686   1.471   4.533 -3.5602 -0.1880 -3.1810
 6822SOL     OW32101   3.247   2.469   5.167 -0.4327  0.2616 -1.3207
 6822SOL    HW132102   3.179   2.508   5.112 -1.1196  1.3137  0.2717
 6822SOL    HW232103   3.238   2.516   5.249 -0.0631 -0.5412 -0.8236
 6823SOL     OW32104   4.038   2.441   6.347  0.0630 -0.0259 -0.3523
 6823SOL    HW132105   4.114   2.484   6.385  1.1834 -0.8987 -1.5940
 6823SOL    HW232106   4.001   2.376   6.408 -0.2209  1.2690  0.8514
 6824SOL     OW32107   4.634   0.726  16.441  0.0778  0.6943  0.1301
 6824SOL    HW132108   4.626   0.717  16.346  1.9657  1.6859 -0.1250
 6824SOL    HW232109   4.572   0.662  16.475 -1.8447  1.5190 -1.7836
 6825SOL     OW32110   0.004   3.448  15.137 -0.4837  0.1894 -0.2811
 6825SOL    HW132111   0.018   3.507  15.064 -2.7034  1.7571  0.5646
 6825SOL    HW232112   4.700   3.505  15.201 -0.5114  0.5771 -0.6442
 6826SOL     OW32113   4.311   2.280   6.260  0.0408  0.2788 -0.4397
 6826SOL    HW132114   4.236   2.326   6.297 -0.7171  0.4272 -2.1677
 6826SOL    HW232115   4.386   2.312   6.310 -2.1329 -1.5086  4.0138
 6827SOL     OW32116   1.457   4.367   6.711 -0.1109  0.0724  0.5514
 6827SOL    HW132117   1.493   4.328   6.790  0.3456  0.0775  0.3483
 6827SOL    HW232118   1.364   4.347   6.715 -0.2261  0.1765 -1.3435
 6828SOL     OW32119   0.052   4.698   2.937  0.5520 -0.3234 -0.0165
 6828SOL    HW132120   0.095   4.616   2.958 -3.2463 -1.2775  4.0972
 6828SOL    HW232121   0.039   4.689   2.843  0.0220 -0.9045  0.1161
 6829SOL     OW32122   4.282   4.719   6.230  0.6682  0.4983 -1.2356
 6829SOL    HW132123   4.245   0.045   6.292 -1.4107  0.8133 -2.7943
 6829SOL    HW232124   4.331   0.036   6.169 -0.9697  1.8372 -1.3458
 6830SOL     OW32125   3.727   0.865   7.091  0.2224  0.0447  0.0999
 6830SOL    HW132126   3.717   0.774   7.062  0.6257 -0.5225  1.7747
 6830SOL    HW232127   3.694   0.860   7.180 -0.5270 -0.6040 -0.2203
 6831SOL     OW32128   1.771   1.970  16.900  0.2322 -0.1525 -0.0458
 6831SOL    HW132129   1.831   2.038  16.931  0.7141 -0.5325 -0.1604
 6831SOL    HW232130   1.803   1.946  16.813  0.9847 -0.0759  0.2116
 6832SOL     OW32131   4.726   0.027  11.133 -0.4786 -0.4383 -0.0745
 6832SOL    HW132132   0.059   0.076  11.090 -1.1775  0.4976 -0.1696
 6832SOL    HW232133   4.735   0.066  11.220 -1.9065 -1.1076  0.3776
 6833SOL     OW32134   4.082   0.993   6.131  0.5017  0.0914 -0.5514
 6833SOL    HW132135   4.016   1.003   6.063 -0.8940  0.0302  0.8031
 6833SOL    HW232136   4.056   0.910   6.171  0.1885 -0.8153 -2.6915
 6834SOL     OW32137   4.567   0.295   8.826  0.7188 -0.2126  0.4749
 6834SOL    HW132138   4.522   0.338   8.753 -0.7362 -1.6907  0.5113
 6834SOL    HW232139   4.505   0.313   8.897 -0.8337  2.1841 -1.4832
 6835SOL     OW32140   4.085   1.580   2.838  0.2915 -0.5135 -0.1588
 6835SOL    HW132141   4.109   1.488   2.850 -1.4920 -1.1474 -1.4084
 6835SOL    HW232142   4.164   1.633   2.828  0.1494 -0.2412  0.1653
 6836SOL     OW32143   3.857   3.094   8.591 -0.0867  0.5137 -0.6637
 6836SOL    HW132144   3.900   3.017   8.629  1.9712  2.4223  0.9056
 6836SOL    HW232145   3.879   3.089   8.498 -0.2323 -0.0314 -0.6669
 6837SOL     OW32146   4.410   0.726   5.271  0.1591  0.6024  0.4481
 6837SOL    HW132147   4.388   0.819   5.262  0.5243  0.7173  0.8016
 6837SOL    HW232148   4.464   0.719   5.349 -1.4456  1.9334  1.6582
 6838SOL     OW32149   0.115   2.640  16.775  0.0128  0.6770  0.4520
 6838SOL    HW132150   0.082   2.552  16.761  0.7029  0.5834 -0.5728
 6838SOL    HW232151   0.210   2.627  16.773 -0.1223 -0.3482  0.9479
 6839SOL     OW32152   0.359   3.428  13.027  0.0651 -0.5639 -0.1091
 6839SOL    HW132153   0.340   3.335  13.020 -0.8401 -0.4545  0.8676
 6839SOL    HW232154   0.271   3.466  13.030 -1.6337 -4.5297 -0.2731
 6840SOL     OW32155   3.856   2.273   4.739 -0.4248 -0.2529  0.4157
 6840SOL    HW132156   3.765   2.244   4.744 -0.4517 -0.0856  0.9351
 6840SOL    HW232157   3.906   2.198   4.771 -0.9420 -0.5906  0.4422
 6841SOL     OW32158   0.315   2.139   9.710 -0.6549  0.2216 -0.2482
 6841SOL    HW132159   0.271   2.224   9.720 -1.2729 -0.3316  1.6217
 6841SOL    HW232160   0.274   2.082   9.774  4.2892 -1.0320  1.7692
 6842SOL     OW32161   0.827   2.002   8.409 -0.5266  0.5334  0.5349
 6842SOL    HW132162   0.785   1.943   8.472 -3.7795  0.3685 -1.7933
 6842SOL    HW232163   0.785   2.088   8.419 -1.1338  0.2414  0.5082
 6843SOL     OW32164   3.770   3.559  11.977 -0.0325  0.8154  0.6519
 6843SOL    HW132165   3.762   3.630  11.914  4.2086  1.3982  0.7428
 6843SOL    HW232166   3.693   3.571  12.032 -0.6823  2.0512 -0.5489
 6844SOL     OW32167   1.902   1.745  11.609 -0.2868  0.5343  0.0112
 6844SOL    HW132168   1.814   1.745  11.571  0.7660 -0.8632 -2.3679
 6844SOL    HW232169   1.898   1.800  11.687 -2.0797 -1.6585  1.4619
 6845SOL     OW32170   0.784   2.081  16.303 -0.2110  0.3911  0.4172
 6845SOL    HW132171   0.758   2.038  16.222 -0.1169  0.0091  0.5885
 6845SOL    HW232172   0.824   2.165  16.277  2.3444 -0.6924  0.8206
 6846SOL     OW32173   4.306   2.512   7.091  0.5446 -0.6823  0.1245
 6846SOL    HW132174   4.387   2.503   7.141  1.6042 -0.0217 -1.4684
 6846SOL    HW232175   4.294   2.421   7.067 -1.1381 -0.6559  0.9029
 6847SOL     OW32176   2.538   4.391  10.297  0.3453 -0.0029 -0.1006
 6847SOL    HW132177   2.624   4.350  10.294  1.7651  2.9804 -0.4492
 6847SOL    HW232178   2.479   4.317  10.284  3.3979 -2.2383 -1.2545
 6848SOL     OW32179   0.586   0.502   3.178  0.2880  0.1480  0.4159
 6848SOL    HW132180   0.644   0.578   3.189  0.6294 -0.1670  0.8021
 6848SOL    HW232181   0.499   0.534   3.201 -0.4507 -0.9933 -0.7976
 6849SOL     OW32182   2.429   0.315  15.143 -0.7137 -0.2845 -0.3007
 6849SOL    HW132183   2.431   0.240  15.084 -1.2099 -0.0641 -0.6006
 6849SOL    HW232184   2.522   0.334  15.144 -1.2084  2.0776  0.2024
 6850SOL     OW32185   3.066   0.581   4.264  0.2045  0.3386  0.2658
 6850SOL    HW132186   3.030   0.660   4.225 -0.9511  0.0835  0.8266
 6850SOL    HW232187   3.154   0.611   4.289  1.4199 -2.6262 -0.4488
 6851SOL     OW32188   2.359   2.210  16.205  0.0710 -0.1304 -0.7740
 6851SOL    HW132189   2.354   2.275  16.135  2.6308  0.1049 -0.7290
 6851SOL    HW232190   2.310   2.250  16.276  1.0584 -0.7714  0.2727
 6852SOL     OW32191   1.519   4.254   6.294 -0.9730 -0.4007 -0.5001
 6852SOL    HW132192   1.508   4.309   6.371 -3.1707 -0.7919 -0.5452
 6852SOL    HW232193   1.523   4.323   6.228  0.4022  1.2635  1.3169
 6853SOL     OW32194   0.652   3.561  11.368  0.0164 -0.3909 -0.4176
 6853SOL    HW132195   0.701   3.484  11.339  0.8595 -1.1307  2.9814
 6853SOL    HW232196   0.695   3.589  11.449 -1.6141 -2.1978  1.0754
 6854SOL     OW32197   4.315   1.872   6.789 -0.2030 -0.0062 -0.4326
 6854SOL    HW132198   4.300   1.953   6.838 -0.9583 -0.0547 -0.5872
 6854SOL    HW232199   4.280   1.898   6.703 -2.9899 -1.9296  0.1346
 6855SOL     OW32200   1.055   1.519   6.692  0.2053  0.2632  0.0381
 6855SOL    HW132201   1.034   1.446   6.633  1.1774  0.0955 -0.1090
 6855SOL    HW232202   0.967   1.553   6.709 -0.8328 -1.4011 -1.9437
 6856SOL     OW32203   2.242   2.758   5.359  0.3954  0.0907  0.3737
 6856SOL    HW132204   2.220   2.666   5.376 -0.3867  0.3815  0.9164
 6856SOL    HW232205   2.194   2.769   5.276 -1.0615 -2.7803  0.8234
 6857SOL     OW32206   0.651   0.611   3.515 -0.7601 -0.5249 -0.3370
 6857SOL    HW132207   0.578   0.667   3.543 -1.0093 -0.1822 -1.6829
 6857SOL    HW232208   0.670   0.561   3.594 -1.5060  2.7262  1.8888
 6858SOL     OW32209   1.582   2.295   5.474 -0.7400 -0.0710  0.2176
 6858SOL    HW132210   1.540   2.376   5.442 -2.1468 -1.3179 -1.1021
 6858SOL    HW232211   1.502   2.243   5.468 -0.9373  0.3485 -0.8853
 6859SOL     OW32212   1.597   3.547   4.859 -0.0497 -0.1278 -0.3743
 6859SOL    HW132213   1.560   3.577   4.942  0.1185  0.8152 -0.6405
 6859SOL    HW232214   1.526   3.503   4.813 -0.5632  0.9399 -0.5943
 6860SOL     OW32215   4.434   4.409  14.753  0.6550 -0.4241 -0.4212
 6860SOL    HW132216   4.408   4.415  14.661 -3.4643 -2.0024  0.6120
 6860SOL    HW232217   4.431   4.315  14.775  1.1504  0.7236  4.5744
 6861SOL     OW32218   0.136   2.540  14.743  0.3797 -0.1132 -0.9228
 6861SOL    HW132219   0.151   2.609  14.807  0.7559 -1.8966  0.9267
 6861SOL    HW232220   0.084   2.476  14.792 -1.0346  1.8339  0.1041
 6862SOL     OW32221   2.999   3.839  10.469 -0.1024 -0.3340 -0.4378
 6862SOL    HW132222   2.988   3.768  10.532  0.9883  0.0668  0.2153
 6862SOL    HW232223   3.016   3.921  10.516  0.5101 -0.8011  0.1486
 6863SOL     OW32224   0.092   1.412   0.213  0.1862  0.0505 -0.3405
 6863SOL    HW132225   0.169   1.377   0.259 -0.2494 -0.2679  0.1336
 6863SOL    HW232226   0.088   1.342   0.147  1.4185 -0.8321  0.5023
 6864SOL     OW32227   1.969   4.269  15.793 -0.2863 -0.4219 -0.5961
 6864SOL    HW132228   2.061   4.266  15.819 -0.2676  1.1423 -0.4643
 6864SOL    HW232229   1.968   4.323  15.714 -3.9335  0.7235  0.2499
 6865SOL     OW32230   1.959   3.928   6.136 -0.7476  0.0432 -0.0147
 6865SOL    HW132231   1.895   3.857   6.147 -0.6731  0.0590  0.4979
 6865SOL    HW232232   1.918   4.002   6.180 -0.6511 -0.8026  1.4896
 6866SOL     OW32233   3.305   2.767  17.382  0.2908  0.3894  0.0840
 6866SOL    HW132234   3.240   2.836  17.370 -0.7720 -0.6352 -0.1017
 6866SOL    HW232235   3.379   2.822  17.410 -0.6514  1.0793  1.2444
 6867SOL     OW32236   0.839   2.463   6.742 -0.5062  0.1638  0.0887
 6867SOL    HW132237   0.931   2.457   6.718 -0.8946 -0.0844 -1.3565
 6867SOL    HW232238   0.822   2.556   6.753 -1.0507  0.1622 -0.6791
 6868SOL     OW32239   2.606   0.529  16.834 -0.0063 -0.3521 -0.1200
 6868SOL    HW132240   2.513   0.511  16.821  0.1585 -0.3826 -1.2991
 6868SOL    HW232241   2.630   0.484  16.916  0.6244  1.4923  0.6933
 6869SOL     OW32242   0.399   2.028  12.715  0.3100 -0.0051 -0.1164
 6869SOL    HW132243   0.352   1.952  12.681  0.2992  0.0948 -0.3192
 6869SOL    HW232244   0.339   2.098  12.689 -0.0930  0.7909  2.9454
 6870SOL     OW32245   0.173   2.055  10.461  0.2695 -0.2592 -0.3574
 6870SOL    HW132246   0.111   2.059  10.389  0.9063 -1.1939 -0.9587
 6870SOL    HW232247   0.252   2.056  10.407 -0.3440 -3.1882 -1.2696
 6871SOL     OW32248   3.269   4.007  15.955  0.0354 -0.1385 -0.3398
 6871SOL    HW132249   3.231   3.976  16.037 -0.0576  0.5985 -0.1047
 6871SOL    HW232250   3.305   3.929  15.913  0.7279 -0.0017  0.0160
 6872SOL     OW32251   3.809   1.352   1.357  0.3372 -0.4074 -0.4527
 6872SOL    HW132252   3.782   1.436   1.319 -3.7719 -1.5180  0.0581
 6872SOL    HW232253   3.724   1.309   1.360  0.4187 -0.6434 -1.5387
 6873SOL     OW32254   1.720   0.383   8.256 -0.3693  0.7398  0.3882
 6873SOL    HW132255   1.811   0.409   8.242 -0.8256  0.6525 -2.6845
 6873SOL    HW232256   1.684   0.471   8.255 -3.0890 -0.3468  2.8523
 6874SOL     OW32257   0.101   4.672   5.907  0.2435 -0.1426  0.0274
 6874SOL    HW132258   0.141   0.014   5.940 -0.9105  0.3226  0.2812
 6874SOL    HW232259   0.050   4.700   5.831 -1.7204  0.6247  1.6314
 6875SOL     OW32260   4.272   3.494   7.736  0.9859  0.2831  0.1507
 6875SOL    HW132261   4.312   3.568   7.782  0.0615 -0.7399  2.5798
 6875SOL    HW232262   4.278   3.430   7.807 -3.1150  1.0180  1.1832
 6876SOL     OW32263   1.187   4.088   2.566  0.2822 -0.3084  0.1572
 6876SOL    HW132264   1.092   4.088   2.553  0.1026 -1.7692  1.5127
 6876SOL    HW232265   1.203   4.177   2.536 -1.5442  0.2716  0.8790
 6877SOL     OW32266   0.388   4.648   8.252  0.0262  0.0298  0.6965
 6877SOL    HW132267   0.313   4.675   8.199 -0.4475 -1.5658  0.5403
 6877SOL    HW232268   0.348   4.625   8.336 -0.8485 -1.0189 -0.0132
 6878SOL     OW32269   2.085   2.612   7.499 -0.1603  0.8764 -0.3120
 6878SOL    HW132270   2.102   2.699   7.463  1.2390  1.1021  0.9291
 6878SOL    HW232271   2.028   2.589   7.425 -1.3728  1.0354  0.5817
 6879SOL     OW32272   1.164   1.069   2.361 -0.2180  0.1258 -0.9844
 6879SOL    HW132273   1.153   1.096   2.270  3.2702  1.4922 -1.0120
 6879SOL    HW232274   1.198   0.981   2.346  2.0808  0.5275  1.8182
 6880SOL     OW32275   2.559   3.387  17.238  0.1897 -0.5824 -0.0463
 6880SOL    HW132276   2.532   3.295  17.241  1.9921 -1.0887  0.3079
 6880SOL    HW232277   2.474   3.431  17.227  0.6852  0.1114 -1.1036
 6881SOL     OW32278   0.485   4.600   7.882  0.1187  0.0386  0.4511
 6881SOL    HW132279   0.488   4.630   7.791  0.7022  2.9260  1.3980
 6881SOL    HW232280   0.391   4.612   7.899  0.1097 -3.8110  2.9915
 6882SOL     OW32281   1.235   3.005   1.138 -0.1888 -0.0792  0.1886
 6882SOL    HW132282   1.175   2.964   1.076 -1.9827 -0.7205  2.3753
 6882SOL    HW232283   1.315   3.010   1.085 -0.3376 -1.3955 -0.1703
 6883SOL     OW32284   4.035   1.641  12.031  0.3024 -0.7403 -0.1064
 6883SOL    HW132285   4.041   1.550  12.003  0.6509 -0.7229 -0.0858
 6883SOL    HW232286   4.127   1.665  12.022  0.3455 -0.3850  1.2969
 6884SOL     OW32287   2.443   1.609   4.878 -0.7688  0.2007 -0.1120
 6884SOL    HW132288   2.439   1.543   4.947 -0.4197 -0.4517 -0.7268
 6884SOL    HW232289   2.535   1.633   4.866 -0.5230  1.0708  3.4639
 6885SOL     OW32290   1.259   2.475   8.622 -0.1613  0.8478 -0.4786
 6885SOL    HW132291   1.172   2.489   8.586 -0.3953 -3.1857 -1.5474
 6885SOL    HW232292   1.277   2.381   8.615  2.3762  1.1836  1.5986
 6886SOL     OW32293   2.105   3.644  11.483  0.1232  0.1743 -0.1278
 6886SOL    HW132294   2.100   3.600  11.398  1.5346 -0.2163 -0.0091
 6886SOL    HW232295   2.144   3.578  11.541 -1.7295 -0.2364  0.6632
 6887SOL     OW32296   2.206   1.296   5.545 -0.1535 -0.2940  0.1113
 6887SOL    HW132297   2.169   1.364   5.600  1.8703  0.8384  0.0635
 6887SOL    HW232298   2.292   1.282   5.583  0.0990 -0.6881 -0.5922
 6888SOL     OW32299   0.126   0.521   3.654  0.0176  0.0691  0.1412
 6888SOL    HW132300   0.155   0.445   3.706  2.0290  1.4130  0.9761
 6888SOL    HW232301   0.194   0.522   3.586  1.0056 -2.1539  1.0788
 6889SOL     OW32302   0.622   0.904   5.832  0.1938 -0.2956  0.0339
 6889SOL    HW132303   0.661   0.820   5.805 -0.3186 -1.0717  1.7083
 6889SOL    HW232304   0.696   0.964   5.837 -0.4050  0.4743 -0.3265
 6890SOL     OW32305   0.130   2.947  12.604 -0.2962 -0.2285 -0.4484
 6890SOL    HW132306   0.073   2.981  12.673  0.1745  1.3038 -0.7957
 6890SOL    HW232307   0.199   3.013  12.602 -1.0324  0.5541  0.1114
 6891SOL     OW32308   2.654   1.920  17.517 -0.0992  0.6017 -0.1425
 6891SOL    HW132309   2.729   1.863  17.500 -0.1857  0.5289 -0.2738
 6891SOL    HW232310   2.696   1.997  17.555  2.7557 -0.5289 -1.0269
 6892SOL     OW32311   0.502   4.729   1.061  0.2206 -0.5347  0.3685
 6892SOL    HW132312   0.482   4.722   0.967 -2.0356  0.6621  0.7659
 6892SOL    HW232313   0.576   0.051   1.066 -0.1898 -0.1495  1.7900
 6893SOL     OW32314   2.985   2.536   6.215  0.3022  0.1902  0.5251
 6893SOL    HW132315   2.891   2.551   6.223  0.5974  1.3005  1.8611
 6893SOL    HW232316   3.000   2.573   6.128  1.8794  1.2312  1.2416
 6894SOL     OW32317   4.110   2.144   7.568  0.1971 -0.5861 -0.4527
 6894SOL    HW132318   4.086   2.059   7.605  2.3378 -0.8999  0.2084
 6894SOL    HW232319   4.037   2.166   7.510  2.3361  3.9868 -1.4176
 6895SOL     OW32320   0.404   1.147   0.331  0.0057  0.5978 -0.3441
 6895SOL    HW132321   0.473   1.148   0.397 -0.9952  1.5312  0.6857
 6895SOL    HW232322   0.329   1.193   0.369 -1.4461 -1.7709 -0.3854
 6896SOL     OW32323   0.729   2.143   8.976  0.1558 -0.0934  0.2696
 6896SOL    HW132324   0.713   2.220   9.030 -2.4159 -0.8685  0.6161
 6896SOL    HW232325   0.695   2.068   9.024 -1.5651  1.3235  1.2596
 6897SOL     OW32326   1.414   3.309  14.255  0.5462 -0.5362  0.3478
 6897SOL    HW132327   1.361   3.309  14.175  0.4494  2.6581  0.4105
 6897SOL    HW232328   1.488   3.354  14.216  0.2058  0.2155  0.5676
 6898SOL     OW32329   0.510   1.880  10.041 -0.0240 -0.0815  0.2199
 6898SOL    HW132330   0.591   1.873   9.990 -1.6509  0.8091 -2.4981
 6898SOL    HW232331   0.525   1.945  10.109 -0.8637  0.6710 -0.3163
 6899SOL     OW32332   2.562   4.341   9.020 -0.3512 -1.0271 -0.7394
 6899SOL    HW132333   2.621   4.298   8.959  1.3839 -3.8636  2.9534
 6899SOL    HW232334   2.476   4.324   8.980 -0.6071 -0.5810 -0.3835
 6900SOL     OW32335   4.058   1.529  13.746  0.2005  0.1310  0.3944
 6900SOL    HW132336   4.078   1.617  13.714  0.5466 -0.4794 -1.0555
 6900SOL    HW232337   4.111   1.529  13.826 -0.3356 -0.8029  0.7495
 6901SOL     OW32338   4.610   3.404   3.589  0.0676  0.0338  0.1342
 6901SOL    HW132339   4.521   3.434   3.569  0.8939  2.6001  0.2630
 6901SOL    HW232340   4.602   3.347   3.665 -1.9750  0.1155 -0.0311
 6902SOL     OW32341   0.814   3.174   3.714 -0.6418  0.6079  0.3545
 6902SOL    HW132342   0.892   3.157   3.767  1.2702  0.2455 -2.5659
 6902SOL    HW232343   0.754   3.211   3.779 -1.1320 -0.5231  0.5503
 6903SOL     OW32344   1.962   3.033   4.995 -0.1787 -0.1790  0.5474
 6903SOL    HW132345   1.886   2.976   5.008  0.6356 -2.1313 -3.4346
 6903SOL    HW232346   1.916   3.116   4.985  1.0863  0.7402  2.3760
 6904SOL     OW32347   0.940   1.662   6.297 -0.0249 -0.1825 -0.1424
 6904SOL    HW132348   0.924   1.572   6.324  3.4590 -0.7630 -0.1225
 6904SOL    HW232349   0.884   1.703   6.363  1.0145  2.0958 -0.6667
 6905SOL     OW32350   3.088   2.207  14.308 -0.2335  0.2968 -0.3910
 6905SOL    HW132351   3.093   2.303  14.308 -2.6549  0.4256 -0.9287
 6905SOL    HW232352   3.164   2.176  14.259  0.0462  0.1678  0.1222
 6906SOL     OW32353   3.116   2.746   1.907  0.0953  0.0137 -0.2341
 6906SOL    HW132354   3.158   2.684   1.847  0.8498  0.3410 -0.0527
 6906SOL    HW232355   3.153   2.829   1.878  0.8962 -0.7481 -1.4457
 6907SOL     OW32356   4.473   2.962   0.162 -1.0026  0.2990 -0.3122
 6907SOL    HW132357   4.541   2.997   0.104 -0.4947 -3.0057 -1.7140
 6907SOL    HW232358   4.513   2.976   0.247 -0.3460  4.8339 -1.3710
 6908SOL     OW32359   3.238   0.640   8.765 -0.8916 -0.1555  0.4220
 6908SOL    HW132360   3.315   0.614   8.814 -0.6070 -0.8046 -0.3609
 6908SOL    HW232361   3.204   0.551   8.758 -0.6981 -0.1102 -1.0459
 6909SOL     OW32362   3.057   3.634   4.050  0.6825 -0.1323  0.0200
 6909SOL    HW132363   2.985   3.581   4.084  0.4390  0.1857 -0.0074
 6909SOL    HW232364   3.129   3.616   4.111  2.3370  3.7307 -0.8062
 6910SOL     OW32365   4.724   0.430   5.229  0.2428  0.1763  0.4272
 6910SOL    HW132366   4.717   0.364   5.159  1.2166  1.5458 -0.9662
 6910SOL    HW232367   0.027   0.503   5.183 -0.1946  0.0600 -0.1596
 6911SOL     OW32368   4.075   1.915   7.705  0.5166 -0.0674 -0.6295
 6911SOL    HW132369   4.041   1.992   7.751 -1.9202 -3.0864  2.6802
 6911SOL    HW232370   4.015   1.844   7.727  1.5880 -0.4467  1.1276
 6912SOL     OW32371   2.369   3.802   2.817 -0.5365 -0.1276 -0.1988
 6912SOL    HW132372   2.311   3.872   2.847 -1.0938 -1.7955  2.6520
 6912SOL    HW232373   2.380   3.822   2.725  1.6443  0.5656  0.2133
 6913SOL     OW32374   2.145   3.233   5.000  0.1479 -0.2901 -0.5012
 6913SOL    HW132375   2.100   3.149   5.006 -0.8529  0.3508  0.7773
 6913SOL    HW232376   2.134   3.257   4.908 -1.7214  1.1048  0.0902
 6914SOL     OW32377   0.456   1.478   3.856  0.5996 -0.7216  0.2046
 6914SOL    HW132378   0.506   1.557   3.836  2.5847 -0.8832  4.6613
 6914SOL    HW232379   0.503   1.413   3.907 -1.8066  0.2798  3.7173
 6915SOL     OW32380   1.988   3.555   5.530 -0.1350 -0.1318 -0.0492
 6915SOL    HW132381   1.966   3.492   5.461  1.0775 -1.3312  0.6700
 6915SOL    HW232382   2.073   3.515   5.551 -0.8666 -1.6005  0.1624
 6916SOL     OW32383   0.240   0.091   8.589 -0.3387  0.2141 -0.1032
 6916SOL    HW132384   0.222   0.109   8.681  2.9147 -0.8123  0.7513
 6916SOL    HW232385   0.334   0.075   8.598 -0.1560  0.7677 -1.1257
 6917SOL     OW32386   1.330   4.621   3.750  0.2127 -0.9185 -0.3818
 6917SOL    HW132387   1.271   4.633   3.675  0.5744  2.8961 -0.0654
 6917SOL    HW232388   1.286   4.545   3.787 -2.3558  1.8135  2.1753
 6918SOL     OW32389   4.663   1.310   5.711  0.2923 -0.3634  0.4150
 6918SOL    HW132390   4.579   1.272   5.686  0.0995 -0.5947  1.4098
 6918SOL    HW232391   4.718   1.293   5.634 -1.8599  0.7599 -1.3553
 6919SOL     OW32392   4.513   4.452  10.382 -0.5693 -0.2517 -0.2368
 6919SOL    HW132393   4.462   4.502  10.446  1.0484 -1.1509  1.7508
 6919SOL    HW232394   4.496   4.361  10.405 -0.0234 -0.1213  0.6996
 6920SOL     OW32395   4.727   2.474  14.411 -0.2059  0.1343 -0.3352
 6920SOL    HW132396   4.666   2.428  14.353 -0.5803 -0.7877  0.7988
 6920SOL    HW232397   4.686   2.439  14.489 -0.1886 -2.1298 -1.3610
 6921SOL     OW32398   2.420   4.680   6.605 -0.6211  0.4389 -0.0009
 6921SOL    HW132399   2.407   4.638   6.521 -0.8561 -2.0601  1.2780
 6921SOL    HW232400   2.418   0.035   6.582 -1.5078  0.7221  1.2028
 6922SOL     OW32401   0.291   1.098   3.141 -0.1797 -0.1960  0.1904
 6922SOL    HW132402   0.319   1.127   3.054  0.4914  1.7343  1.0583
 6922SOL    HW232403   0.196   1.094   3.133  0.1146  0.1135 -3.3164
 6923SOL     OW32404   3.896   0.409   8.637  0.4194 -0.0182  0.7145
 6923SOL    HW132405   3.860   0.498   8.639  1.2595  0.3923 -2.5194
 6923SOL    HW232406   3.876   0.381   8.726  0.3659 -1.4310  0.2725
 6924SOL     OW32407   0.029   2.258   3.466 -0.6754 -0.2536 -0.2966
 6924SOL    HW132408   0.026   2.207   3.547 -0.2486  0.5983  0.2506
 6924SOL    HW232409   4.717   2.337   3.489 -4.3408 -3.2147  1.9435
 6925SOL     OW32410   1.598   3.600  15.894  0.5953  0.2159  0.3764
 6925SOL    HW132411   1.627   3.689  15.912  0.6700  0.2326  0.1733
 6925SOL    HW232412   1.570   3.566  15.979  1.1761  0.8560  0.8256
 6926SOL     OW32413   0.810   3.415   6.771  0.0108  0.1321  0.1208
 6926SOL    HW132414   0.731   3.431   6.719  0.2674 -1.8222 -0.8611
 6926SOL    HW232415   0.844   3.505   6.774  2.1686 -0.6324 -1.1312
 6927SOL     OW32416   0.945   1.931   0.281 -0.3392  0.1465  0.1477
 6927SOL    HW132417   0.912   2.015   0.249 -0.7402 -0.4947 -1.0853
 6927SOL    HW232418   1.023   1.923   0.226 -0.7657 -1.3431 -0.2352
 6928SOL     OW32419   0.927   4.068  11.852 -0.0455 -0.5867  0.5614
 6928SOL    HW132420   0.965   3.984  11.878  1.2651  0.2180  1.2303
 6928SOL    HW232421   0.897   4.099  11.937 -0.8344 -0.3032  0.1820
 6929SOL     OW32422   1.312   2.868   3.607 -0.1616 -0.4029  0.4025
 6929SOL    HW132423   1.320   2.773   3.598 -1.1731 -0.5865  1.4163
 6929SOL    HW232424   1.217   2.883   3.607 -0.1564 -0.3660  0.6605
 6930SOL     OW32425   1.660   1.901   7.722  0.0200  0.6550 -0.0332
 6930SOL    HW132426   1.602   1.824   7.725  0.9173 -0.0098  0.3641
 6930SOL    HW232427   1.666   1.920   7.629  2.0332 -1.1595 -0.2626
 6931SOL     OW32428   1.360   0.540  12.759  0.0824  0.6526  0.0083
 6931SOL    HW132429   1.291   0.578  12.813 -0.0627  0.1483  0.1794
 6931SOL    HW232430   1.320   0.487  12.690  0.9094  0.3044 -0.1975
 6932SOL     OW32431   4.308   3.690   1.849  0.2741 -0.1429  0.2968
 6932SOL    HW132432   4.344   3.714   1.764 -0.7101  0.0171 -0.0777
 6932SOL    HW232433   4.341   3.766   1.897  0.7599 -0.5969  0.6813
 6933SOL     OW32434   3.259   2.904  10.453 -0.2017  0.3297  0.0194
 6933SOL    HW132435   3.252   2.852  10.373 -0.3036  0.0251  0.2294
 6933SOL    HW232436   3.283   2.989  10.416  1.1898  1.1481  2.7739
 6934SOL     OW32437   0.878   4.370   3.896  0.3182 -0.3063  0.0406
 6934SOL    HW132438   0.872   4.309   3.822 -0.3070 -1.0428  0.7013
 6934SOL    HW232439   0.802   4.428   3.894  0.2190 -0.3939  2.2825
 6935SOL     OW32440   1.831   2.051   2.561 -0.2523  0.9070 -0.2396
 6935SOL    HW132441   1.775   2.129   2.565 -1.9619 -0.4010  1.7498
 6935SOL    HW232442   1.764   1.986   2.582  0.8900 -0.1734  0.0163
 6936SOL     OW32443   3.742   2.463   7.631 -0.0585 -0.4557  0.1353
 6936SOL    HW132444   3.812   2.431   7.574 -0.6898  1.1471 -1.5074
 6936SOL    HW232445   3.695   2.381   7.643 -1.7903  0.5410  0.2195
 6937SOL     OW32446   2.767   4.727   2.083  0.1603  0.7597  0.3708
 6937SOL    HW132447   2.851   0.014   2.045 -0.4355 -1.0779 -2.1717
 6937SOL    HW232448   2.763   0.046   2.160 -0.7353  0.7191  0.3542
 6938SOL     OW32449   1.890   0.422   4.832 -0.1273  0.3619  0.1658
 6938SOL    HW132450   1.913   0.338   4.872  0.5695 -0.0318 -1.0648
 6938SOL    HW232451   1.967   0.470   4.862  0.8477 -0.2681 -1.3110
 6939SOL     OW32452   2.416   4.411  15.344 -0.2125 -0.4322  0.5289
 6939SOL    HW132453   2.377   4.460  15.416 -0.3883 -0.3015  0.3467
 6939SOL    HW232454   2.389   4.324  15.373  0.8198 -0.4007  1.5801
 6940SOL     OW32455   1.112   1.855   1.960 -0.5953  0.5523 -0.1122
 6940SOL    HW132456   1.185   1.812   1.916 -0.2252  3.1733 -2.1079
 6940SOL    HW232457   1.113   1.943   1.922 -2.4311  1.3471  1.6772
 6941SOL     OW32458   4.482   4.523   5.435 -0.7803 -0.1154 -0.1326
 6941SOL    HW132459   4.556   4.582   5.440 -0.5103 -0.1016 -3.8427
 6941SOL    HW232460   4.502   4.465   5.508 -0.9393 -1.6077 -1.2616
 6942SOL     OW32461   3.934   3.157   6.828  0.7520 -0.0649  0.2400
 6942SOL    HW132462   4.012   3.101   6.829  0.2013 -0.8563 -0.5444
 6942SOL    HW232463   3.922   3.173   6.921  0.5365  1.3213 -0.0293
 6943SOL     OW32464   2.447   0.897   5.644  0.1580 -0.0523  0.3619
 6943SOL    HW132465   2.506   0.863   5.711  1.4579  0.2912 -0.6101
 6943SOL    HW232466   2.478   0.835   5.579  0.8878 -1.9116  2.5017
 6944SOL     OW32467   0.476   0.297   3.534 -0.4151 -0.3597 -0.0783
 6944SOL    HW132468   0.427   0.361   3.483 -0.5241  0.1417  0.6640
 6944SOL    HW232469   0.412   0.227   3.527  0.0970 -0.8491  0.1224
 6945SOL     OW32470   1.374   0.568  14.933 -0.3963 -0.6028  0.1187
 6945SOL    HW132471   1.395   0.564  14.839  0.9759 -1.7055  0.4843
 6945SOL    HW232472   1.285   0.600  14.919  0.6055  2.5789  1.0723
 6946SOL     OW32473   1.988   3.756   4.089 -0.0274 -0.9605 -0.2645
 6946SOL    HW132474   2.008   3.849   4.077 -0.0763 -0.7657  1.2365
 6946SOL    HW232475   2.013   3.729   4.177 -0.2809 -0.0063  0.0978
 6947SOL     OW32476   0.501   3.404  16.843  0.4654  0.0621  0.9069
 6947SOL    HW132477   0.416   3.364  16.830  0.9930 -1.2887  1.5944
 6947SOL    HW232478   0.487   3.495  16.817  2.5930  0.2170  0.2751
 6948SOL     OW32479   1.255   1.564   9.152 -0.6280 -0.3019 -0.4299
 6948SOL    HW132480   1.228   1.474   9.135  3.2275 -1.7969  1.5913
 6948SOL    HW232481   1.183   1.593   9.209 -1.0895 -3.5506  0.6389
 6949SOL     OW32482   1.041   2.930   3.648  0.5903 -0.3330  0.0331
 6949SOL    HW132483   0.973   2.878   3.605 -0.2723 -0.1016  1.1311
 6949SOL    HW232484   1.069   2.990   3.579  0.4689  0.3409  0.5660
 6950SOL     OW32485   2.365   2.489   6.855  0.4607  0.1663 -0.7822
 6950SOL    HW132486   2.453   2.463   6.828  1.9152  2.5809  1.6103
 6950SOL    HW232487   2.375   2.571   6.903  0.0402 -0.7473  0.8979
 6951SOL     OW32488   3.019   3.493   9.066  0.0758  0.8811  0.1637
 6951SOL    HW132489   3.057   3.567   9.018 -1.2268  0.9447 -0.7592
 6951SOL    HW232490   2.936   3.539   9.081 -0.0458  0.0260  2.1767
 6952SOL     OW32491   0.669   4.341   8.065  0.4623 -0.4786 -0.0839
 6952SOL    HW132492   0.690   4.375   8.151  0.9813  0.0651 -0.4240
 6952SOL    HW232493   0.574   4.355   8.059  0.3218 -1.6489 -0.4988
 6953SOL     OW32494   4.081   4.622   8.250 -0.4816  0.0350 -0.4378
 6953SOL    HW132495   4.113   4.581   8.170  1.3602  3.1477 -1.3092
 6953SOL    HW232496   4.094   4.715   8.229 -0.0832 -0.0148 -0.4183
 6954SOL     OW32497   0.864   4.295   2.792 -0.2179  0.4069 -0.1846
 6954SOL    HW132498   0.942   4.240   2.799  0.9366  2.1277  0.4988
 6954SOL    HW232499   0.890   4.341   2.712 -0.6973  2.6338  0.9324
 6955SOL     OW32500   4.646   4.586   4.577  0.2913 -0.2420 -0.0467
 6955SOL    HW132501   4.597   4.668   4.572  0.7890  0.2011  2.5642
 6955SOL    HW232502   4.589   4.516   4.544  1.8031 -1.4550 -0.0538
 6956SOL     OW32503   4.621   0.918   8.201 -0.0063 -0.3657  0.1769
 6956SOL    HW132504   4.682   0.929   8.128 -1.1807 -1.1389 -0.9330
 6956SOL    HW232505   4.595   0.828   8.179 -0.0764 -0.4391  0.5754
 6957SOL     OW32506   0.120   3.246   2.115  0.1632  0.5461 -0.3672
 6957SOL    HW132507   0.206   3.204   2.121 -0.2712 -0.4547 -1.0199
 6957SOL    HW232508   0.131   3.275   2.024  4.1203 -2.6425 -0.9112
 6958SOL     OW32509   0.438   3.938   7.210  0.2893 -0.5726  0.0522
 6958SOL    HW132510   0.396   3.898   7.134 -0.3419 -0.4892  0.3565
 6958SOL    HW232511   0.392   4.021   7.220  0.3015 -0.4311 -1.0506
 6959SOL     OW32512   1.098   0.929  13.653  0.6667 -0.1066 -0.2786
 6959SOL    HW132513   1.156   0.994  13.614 -1.3127  1.4641 -0.5940
 6959SOL    HW232514   1.063   0.978  13.727 -1.7629  0.3534 -1.7272
 6960SOL     OW32515   0.606   4.047  10.655 -0.0397  0.2908 -0.7665
 6960SOL    HW132516   0.579   4.012  10.570 -3.0721  1.7968 -0.4507
 6960SOL    HW232517   0.534   4.110  10.660 -0.2066  0.3024 -3.0183
 6961SOL     OW32518   0.795   0.649   3.271  0.2773  0.0458  0.1400
 6961SOL    HW132519   0.756   0.628   3.356 -0.5815 -0.2545 -0.3235
 6961SOL    HW232520   0.793   0.744   3.265 -3.6083  0.0772  2.0937
 6962SOL     OW32521   0.280   3.626   0.100 -0.1724 -0.1804  0.3562
 6962SOL    HW132522   0.216   3.586   0.158 -1.9685  0.8238 -0.9422
 6962SOL    HW232523   0.242   3.713   0.091 -0.1690 -0.4363 -2.1941
 6963SOL     OW32524   0.203   0.905   1.684 -0.1680  0.6790 -0.4011
 6963SOL    HW132525   0.124   0.912   1.630  0.9950  0.9717 -2.0846
 6963SOL    HW232526   0.217   0.810   1.683 -0.9913  0.5411  2.0638
 6964SOL     OW32527   0.640   0.675   8.388 -0.7348  0.0042  0.3248
 6964SOL    HW132528   0.593   0.758   8.374 -1.4477 -0.2822  1.0125
 6964SOL    HW232529   0.589   0.610   8.340 -0.2861 -0.1325  0.0353
 6965SOL     OW32530   4.484   1.739   8.034 -0.1296 -0.0246  0.0369
 6965SOL    HW132531   4.486   1.830   8.064  1.5965 -0.3717  0.9778
 6965SOL    HW232532   4.434   1.754   7.954 -1.9240 -2.3219  0.6999
 6966SOL     OW32533   0.316   1.879   7.464  0.1285 -0.0617  0.6950
 6966SOL    HW132534   0.401   1.876   7.509  1.3243  1.2265 -1.5009
 6966SOL    HW232535   0.347   1.875   7.373 -2.6546  0.4593 -0.2630
 6967SOL     OW32536   2.750   0.656  10.845  0.1683 -0.0357  0.2080
 6967SOL    HW132537   2.823   0.686  10.899  0.4438  1.7783 -1.1561
 6967SOL    HW232538   2.803   0.646  10.766  1.5115  1.7826  0.8629
 6968SOL     OW32539   1.219   3.518   7.464  0.0177  0.8437 -0.3599
 6968SOL    HW132540   1.223   3.604   7.423  0.3164  1.0472  0.0920
 6968SOL    HW232541   1.279   3.525   7.538 -1.0735  1.8590  0.4395
 6969SOL     OW32542   1.813   3.676   8.440 -0.2695  0.0669 -0.5590
 6969SOL    HW132543   1.867   3.618   8.386 -0.6738 -2.8251  2.1802
 6969SOL    HW232544   1.729   3.630   8.431 -0.9962  1.0441  1.1250
 6970SOL     OW32545   3.611   0.376  14.800 -0.4808 -0.2909 -0.1975
 6970SOL    HW132546   3.637   0.465  14.780 -1.6389  0.5101  1.9180
 6970SOL    HW232547   3.688   0.356  14.853 -1.1442 -2.3824 -0.0251
 6971SOL     OW32548   3.068   0.189   5.707  0.0095  0.2236  0.0902
 6971SOL    HW132549   3.064   0.140   5.625 -2.3697  0.8792 -0.1800
 6971SOL    HW232550   3.144   0.147   5.748 -0.3756 -0.8620 -0.2898
 6972SOL     OW32551   1.645   1.363   1.927 -0.1078 -0.3225 -0.0782
 6972SOL    HW132552   1.639   1.366   1.831  0.2083  1.3176 -0.0530
 6972SOL    HW232553   1.711   1.297   1.949  0.9439  0.9889  0.6860
 6973SOL     OW32554   1.933   3.731   4.829 -0.0267  0.1496 -0.3389
 6973SOL    HW132555   1.902   3.806   4.880  0.1507 -1.6808  2.4017
 6973SOL    HW232556   1.961   3.778   4.750  0.2078 -0.7103 -0.7724
 6974SOL     OW32557   2.945   2.585   3.161  0.1034  0.1461  0.4401
 6974SOL    HW132558   2.890   2.515   3.196  1.0619 -0.0948  1.4768
 6974SOL    HW232559   3.000   2.539   3.098  0.6581  1.1965  0.1628
 6975SOL     OW32560   0.220   2.930  11.140  0.6739  0.1226 -0.0010
 6975SOL    HW132561   0.293   2.985  11.111  0.7539 -0.6736 -1.3461
 6975SOL    HW232562   0.234   2.850  11.088  1.8926 -0.0817  0.6351
 6976SOL     OW32563   1.109   4.251   0.973  0.2258  0.2184 -0.2286
 6976SOL    HW132564   1.098   4.276   0.881 -0.2316  1.7050  0.2215
 6976SOL    HW232565   1.195   4.285   0.999  0.9577 -2.2851  0.6826
 6977SOL     OW32566   1.816   1.237  11.453  0.0744 -0.8233  0.1782
 6977SOL    HW132567   1.772   1.236  11.368  1.6773 -0.4423 -0.6481
 6977SOL    HW232568   1.900   1.195  11.435  0.4830  0.1683 -0.2383
 6978SOL     OW32569   3.211   2.425   3.902  0.5021  0.7208 -0.2279
 6978SOL    HW132570   3.146   2.484   3.940 -0.6314 -1.7802  1.7192
 6978SOL    HW232571   3.152   2.355   3.875 -1.2623  1.9276  0.5621
 6979SOL     OW32572   1.491   0.249   5.227 -0.2794 -0.0153 -0.0939
 6979SOL    HW132573   1.424   0.256   5.295 -0.8040  0.1505 -0.6351
 6979SOL    HW232574   1.568   0.293   5.264 -0.5892  0.6917 -0.2925
 6980SOL     OW32575   0.829   3.020  12.373  0.5799  0.2049  0.2586
 6980SOL    HW132576   0.737   3.030  12.394  0.1978 -1.3104 -0.7431
 6980SOL    HW232577   0.877   3.025  12.456 -1.2279  1.1043  1.2428
 6981SOL     OW32578   2.406   2.662   5.061  0.3582  0.0384 -0.3662
 6981SOL    HW132579   2.469   2.641   5.130  3.1025 -2.1927 -3.5416
 6981SOL    HW232580   2.417   2.757   5.061 -1.2521  0.2204 -0.1785
 6982SOL     OW32581   4.738   4.728   6.851 -0.5313 -0.2485  0.8115
 6982SOL    HW132582   4.672   0.054   6.825  0.4181  0.4531  0.1545
 6982SOL    HW232583   0.081   0.031   6.823  0.7556 -1.6850  2.4185
 6983SOL     OW32584   1.307   4.432   1.095 -0.2824 -0.0131  0.0460
 6983SOL    HW132585   1.250   4.474   1.031  0.3282 -0.7128 -0.9624
 6983SOL    HW232586   1.383   4.490   1.093 -0.2779  0.0119  0.8568
 6984SOL     OW32587   1.946   3.208   5.382  0.0259 -0.5280 -0.7033
 6984SOL    HW132588   1.908   3.171   5.462 -0.3593  2.4676  0.4883
 6984SOL    HW232589   2.038   3.186   5.398 -0.4251 -2.1876 -0.4345
 6985SOL     OW32590   4.627   4.322  14.149 -0.5777 -0.1014  0.2687
 6985SOL    HW132591   4.664   4.319  14.237 -0.6681  3.0788  0.4044
 6985SOL    HW232592   4.539   4.358  14.159 -1.0610 -0.2565 -3.4634
 6986SOL     OW32593   4.049   3.612   3.830  0.2808 -0.4887 -0.1342
 6986SOL    HW132594   3.957   3.634   3.846  1.4207  2.2410  2.7882
 6986SOL    HW232595   4.040   3.606   3.735 -2.3547  1.4886 -0.0145
 6987SOL     OW32596   1.846   1.233   0.626 -0.1758 -0.2708 -0.3131
 6987SOL    HW132597   1.903   1.277   0.562  0.3932 -2.9649 -1.6254
 6987SOL    HW232598   1.835   1.157   0.569  0.9112  0.5465 -1.6212
 6988SOL     OW32599   3.945   3.275   5.250  0.2868 -0.1379 -0.2734
 6988SOL    HW132600   3.955   3.258   5.344 -1.4519  0.2685 -0.0141
 6988SOL    HW232601   3.937   3.185   5.219 -0.1046 -0.1449 -0.1408
 6989SOL     OW32602   3.466   3.065  10.033 -0.1609 -0.8566  0.3593
 6989SOL    HW132603   3.553   3.084  10.069 -0.1137 -0.8073  0.2204
 6989SOL    HW232604   3.482   3.057   9.939 -0.6656  1.2080  0.0891
 6990SOL     OW32605   1.772   4.424   2.114 -0.2244 -0.0324 -0.1531
 6990SOL    HW132606   1.682   4.458   2.119 -0.3607  0.3463 -4.5400
 6990SOL    HW232607   1.786   4.450   2.023  2.1202 -0.8321 -0.0136
 6991SOL     OW32608   3.017   0.367   3.761  0.1098 -0.4480 -0.0424
 6991SOL    HW132609   2.936   0.317   3.747 -0.4494  1.1018 -2.3149
 6991SOL    HW232610   3.025   0.340   3.853  1.0942 -1.9961 -0.5887
 6992SOL     OW32611   1.471   2.977   6.921 -0.3340  0.0317  0.5115
 6992SOL    HW132612   1.482   2.922   6.999 -0.0756 -0.1146  0.3678
 6992SOL    HW232613   1.435   2.913   6.860  0.6037 -0.3289  0.3406
 6993SOL     OW32614   0.663   0.096   2.435  0.2815  0.2615 -0.1225
 6993SOL    HW132615   0.646   0.072   2.344  1.4539  0.2307 -0.3364
 6993SOL    HW232616   0.729   0.029   2.455 -0.2807 -0.4986 -0.8402
 6994SOL     OW32617   3.939   3.523   8.182  0.4683  0.5047 -0.1039
 6994SOL    HW132618   3.955   3.584   8.254  0.5780  0.2937  0.0487
 6994SOL    HW232619   3.871   3.464   8.215  1.9598 -1.8447 -1.2297
 6995SOL     OW32620   1.385   2.740   5.514 -0.5771 -0.1081  0.1830
 6995SOL    HW132621   1.297   2.765   5.487 -0.5012  1.1839  1.1342
 6995SOL    HW232622   1.443   2.804   5.473  2.0204 -0.2877  3.5310
 6996SOL     OW32623   4.450   4.487   3.229 -0.2063  0.4502 -0.3642
 6996SOL    HW132624   4.397   4.497   3.308  0.4749  0.9351  0.0314
 6996SOL    HW232625   4.531   4.492   3.280  0.6750  0.1539 -1.7347
 6997SOL     OW32626   0.033   4.624   1.603  0.3514 -0.4942  0.0172
 6997SOL    HW132627   0.099   4.555   1.600  1.5876  0.6432  1.0147
 6997SOL    HW232628   0.026   4.634   1.698 -1.4626 -0.0419 -0.1458
 6998SOL     OW32629   2.574   2.473   2.873  0.2988  0.0958 -0.1614
 6998SOL    HW132630   2.610   2.472   2.785 -3.0429  1.3835 -1.5239
 6998SOL    HW232631   2.615   2.554   2.906 -1.1016  1.1339 -0.9576
 6999SOL     OW32632   1.659   3.367   0.664  0.0866  0.2747  0.6418
 6999SOL    HW132633   1.648   3.308   0.590  2.2537  2.6485 -1.5664
 6999SOL    HW232634   1.600   3.334   0.732  0.5026 -0.9502  0.3995
 7000SOL     OW32635   4.665   4.457   5.132 -0.0604  0.1129  0.8291
 7000SOL    HW132636   4.703   4.416   5.054  1.9286 -0.6815  2.2043
 7000SOL    HW232637   0.001   4.476   5.191 -0.0208 -2.7725  1.7017
 7001SOL     OW32638   3.416   4.193   9.900 -0.0744 -0.2514 -0.3711
 7001SOL    HW132639   3.487   4.135   9.875 -0.3628 -0.7193 -0.1007
 7001SOL    HW232640   3.344   4.132   9.916 -0.7996  0.6214 -0.2778
 7002SOL     OW32641   1.601   2.942   5.408  0.2538 -0.5454  0.3316
 7002SOL    HW132642   1.605   3.008   5.340 -0.1416  0.6643  1.4871
 7002SOL    HW232643   1.548   2.997   5.465  1.3022 -0.7488  1.5097
 7003SOL     OW32644   2.395   1.077   4.146 -0.4008 -0.1087  0.7746
 7003SOL    HW132645   2.381   1.172   4.149  1.8694  0.1567  2.6633
 7003SOL    HW232646   2.386   1.080   4.050  1.0697  1.5043  0.6898
 7004SOL     OW32647   1.463   0.197   9.386 -0.8436  0.2316 -0.1575
 7004SOL    HW132648   1.553   0.174   9.363 -0.4226 -0.3105  2.0351
 7004SOL    HW232649   1.434   0.111   9.417 -0.9554  0.0400 -0.7916
 7005SOL     OW32650   3.714   0.145   0.136 -0.2000  0.2228 -0.4571
 7005SOL    HW132651   3.724   0.088   0.059  1.8530  1.6938 -1.2628
 7005SOL    HW232652   3.654   0.210   0.101 -1.9383 -0.3785  1.3902
 7006SOL     OW32653   1.671   2.682   8.631 -0.1975  0.0404  0.0640
 7006SOL    HW132654   1.662   2.587   8.625 -3.1910  0.3664 -0.6188
 7006SOL    HW232655   1.746   2.700   8.688 -1.1683 -0.1631  1.3942
 7007SOL     OW32656   3.695   0.635   6.043  0.0908 -0.1783 -0.5139
 7007SOL    HW132657   3.706   0.544   6.070 -0.5479  1.2435  4.6606
 7007SOL    HW232658   3.636   0.621   5.969 -0.1249 -1.9990  0.0068
 7008SOL     OW32659   3.327   0.568   6.607 -0.5408  0.1819  0.4573
 7008SOL    HW132660   3.360   0.495   6.658 -1.4778  0.5996  1.6646
 7008SOL    HW232661   3.404   0.625   6.607 -2.1288  2.3218  1.5962
 7009SOL     OW32662   0.000   1.239   4.581 -0.1945 -0.0862  0.1679
 7009SOL    HW132663   0.087   1.272   4.557 -0.9588  0.8750 -1.3033
 7009SOL    HW232664   4.675   1.279   4.521  1.7581  1.9536 -0.5632
 7010SOL     OW32665   3.307   1.967  12.138 -0.2536 -0.1116 -0.1176
 7010SOL    HW132666   3.260   2.018  12.204 -0.1286 -1.2531  0.8499
 7010SOL    HW232667   3.393   2.003  12.161 -0.7351  0.2935  1.0464
 7011SOL     OW32668   2.716   3.809   7.035  0.2099 -0.1676 -0.3894
 7011SOL    HW132669   2.711   3.903   7.019  0.6603 -0.2336 -0.9364
 7011SOL    HW232670   2.757   3.816   7.121 -0.5819  0.4239 -0.0633
 7012SOL     OW32671   3.283   3.804   0.866 -0.4421 -0.4236 -0.2134
 7012SOL    HW132672   3.303   3.711   0.879  0.1506  0.2824  3.8828
 7012SOL    HW232673   3.366   3.850   0.856 -0.3060 -0.4290  0.8949
 7013SOL     OW32674   1.297   2.065   7.562 -0.0390 -0.0203  0.3858
 7013SOL    HW132675   1.309   2.114   7.643 -0.2353  1.0941 -0.2508
 7013SOL    HW232676   1.203   2.068   7.546  0.0201 -0.6322 -0.0963
 7014SOL     OW32677   3.445   1.455  10.593 -0.2988 -0.4545  0.4053
 7014SOL    HW132678   3.439   1.515  10.518  0.0353 -1.6975 -0.6041
 7014SOL    HW232679   3.536   1.429  10.603 -0.2620  0.0256  1.3558
 7015SOL     OW32680   2.755   3.824   2.443 -0.2987  0.7575  0.0517
 7015SOL    HW132681   2.678   3.790   2.489  1.1548  0.3527  2.1894
 7015SOL    HW232682   2.764   3.905   2.494 -0.1015  1.6256 -1.3658
 7016SOL     OW32683   4.651   0.451   7.865  0.0177  0.2240 -0.1281
 7016SOL    HW132684   4.677   0.498   7.944  3.9186 -0.4767 -1.0369
 7016SOL    HW232685   4.555   0.448   7.861  0.0688 -3.1008  1.1969
 7017SOL     OW32686   2.203   2.470   3.650  0.7935  0.0103  0.1162
 7017SOL    HW132687   2.150   2.506   3.720 -1.1960 -1.7044 -0.5162
 7017SOL    HW232688   2.152   2.474   3.569  0.3462 -0.5087  0.3772
 7018SOL     OW32689   2.535   1.752   0.197  0.0866  0.0862 -0.1515
 7018SOL    HW132690   2.623   1.764   0.233  0.2912 -0.3976 -0.4826
 7018SOL    HW232691   2.476   1.802   0.253 -0.6720 -1.6967  0.6727
 7019SOL     OW32692   2.936   0.466   0.222 -0.0374  0.1890  0.2100
 7019SOL    HW132693   2.854   0.461   0.270 -0.1383  1.2748  0.1525
 7019SOL    HW232694   2.989   0.462   0.302  1.1065  2.7348 -0.4036
 7020SOL     OW32695   1.820   2.497   6.715 -0.0872 -0.0635 -0.2190
 7020SOL    HW132696   1.907   2.526   6.690 -0.2189 -1.4238 -2.3096
 7020SOL    HW232697   1.767   2.553   6.658 -1.4088  0.3431  1.3808
 7021SOL     OW32698   0.222   2.614  14.484 -0.3923 -0.3105  0.2919
 7021SOL    HW132699   0.150   2.571  14.438  0.1863  0.2299 -1.0852
 7021SOL    HW232700   0.200   2.568  14.566 -1.3668 -1.7048 -0.7518
 7022SOL     OW32701   0.698   2.547  17.440  0.4618  0.3976  0.3979
 7022SOL    HW132702   0.782   2.511  17.470  0.0304  1.1098  2.4443
 7022SOL    HW232703   0.637   2.474  17.452 -2.1770  2.8252  1.6445
 7023SOL     OW32704   2.941   4.031  10.702 -0.2993 -0.1197  0.0824
 7023SOL    HW132705   2.897   4.061  10.782  0.0198 -0.7320  0.4931
 7023SOL    HW232706   2.933   3.938  10.723  1.6050 -0.1350  0.7484
 7024SOL     OW32707   4.162   1.218  15.442 -0.3643  0.3663  0.2826
 7024SOL    HW132708   4.133   1.177  15.523  2.4286 -2.6385 -0.2382
 7024SOL    HW232709   4.245   1.170  15.436  0.6590  1.9567  1.5704
 7025SOL     OW32710   1.797   3.376  12.414 -0.0749  0.2915 -0.1402
 7025SOL    HW132711   1.872   3.343  12.364 -0.0093  0.3928 -0.1094
 7025SOL    HW232712   1.728   3.365  12.349 -0.0626 -0.9299  0.0476
 7026SOL     OW32713   4.001   2.834   2.072  0.1412 -0.1840  0.0022
 7026SOL    HW132714   4.013   2.743   2.045  1.7542  0.2807 -0.8141
 7026SOL    HW232715   3.910   2.858   2.053 -0.7564 -1.9535  1.9828
 7027SOL     OW32716   4.092   0.640   6.544  0.1706  0.0928  0.1990
 7027SOL    HW132717   4.057   0.726   6.519  0.2496 -0.6912 -2.6329
 7027SOL    HW232718   4.059   0.594   6.467  0.9738  3.4730 -2.1978
 7028SOL     OW32719   2.291   3.270   3.708 -0.2498 -0.4577  0.0081
 7028SOL    HW132720   2.331   3.247   3.792  1.3551  0.0842 -0.6069
 7028SOL    HW232721   2.221   3.326   3.742  0.9580 -0.0255  1.8129
 7029SOL     OW32722   4.534   3.880  12.315  0.4199  0.3332 -0.6280
 7029SOL    HW132723   4.465   3.861  12.378  0.7794 -0.2517 -0.4046
 7029SOL    HW232724   4.512   3.826  12.239 -0.4409 -1.9894  1.2817
 7030SOL     OW32725   4.724   1.521   5.397  0.4922  0.2296 -0.5577
 7030SOL    HW132726   4.701   1.546   5.307 -1.7763  1.1195  0.2583
 7030SOL    HW232727   4.689   1.433   5.410 -0.8814  1.3275  3.2058
 7031SOL     OW32728   2.474   1.763   0.746  0.1268 -0.7672 -0.0353
 7031SOL    HW132729   2.428   1.802   0.671 -1.4821 -0.5373  1.0784
 7031SOL    HW232730   2.460   1.836   0.806  0.8490 -1.5462  1.0862
 7032SOL     OW32731   3.820   2.107   6.085  0.5600 -0.1096 -0.2879
 7032SOL    HW132732   3.762   2.038   6.053 -3.6852  3.1238  0.5392
 7032SOL    HW232733   3.862   2.149   6.011  0.3090  1.9021  0.7244
 7033SOL     OW32734   2.629   0.187   3.414  0.0770 -0.0341 -0.1936
 7033SOL    HW132735   2.586   0.102   3.401 -2.7004  1.1960  0.8790
 7033SOL    HW232736   2.554   0.239   3.442  0.3878  0.7792 -0.8698
 7034SOL     OW32737   4.219   1.878   1.959 -0.2279 -0.3165  0.1269
 7034SOL    HW132738   4.232   1.971   1.944 -0.8589 -0.2471 -0.0107
 7034SOL    HW232739   4.259   1.846   1.878 -0.5471  1.1726 -0.6182
 7035SOL     OW32740   0.969   2.506   2.330 -0.3704  0.2519 -0.0562
 7035SOL    HW132741   0.919   2.426   2.313  1.6755 -1.0439  0.1297
 7035SOL    HW232742   0.907   2.564   2.375 -1.6105 -2.1240  1.2724
 7036SOL     OW32743   1.054   1.172   0.864  0.7853  0.1440 -0.1448
 7036SOL    HW132744   1.090   1.181   0.952 -0.4184 -0.4056  0.4055
 7036SOL    HW232745   1.073   1.080   0.845  0.0687 -0.1079  0.3497
 7037SOL     OW32746   1.080   3.431  11.918 -0.3857 -0.0116 -0.0005
 7037SOL    HW132747   1.114   3.520  11.929 -1.0743  0.1769  0.6138
 7037SOL    HW232748   1.017   3.453  11.850  0.8168 -0.5368 -1.2688
 7038SOL     OW32749   2.335   0.173  12.621  0.3443 -0.6382  0.6909
 7038SOL    HW132750   2.311   0.253  12.667 -0.5925  0.8992 -2.4777
 7038SOL    HW232751   2.287   0.185  12.539  0.2637 -0.6465  0.7370
 7039SOL     OW32752   0.783   3.611   6.018  0.2185 -0.1609  0.3818
 7039SOL    HW132753   0.839   3.635   5.944 -0.6549  1.6946  0.3236
 7039SOL    HW232754   0.829   3.534   6.052 -1.4725 -0.2462  2.4577
 7040SOL     OW32755   4.029   4.413   9.384 -0.3228 -0.3840  0.3253
 7040SOL    HW132756   4.039   4.319   9.372 -1.0501 -0.6431  1.7777
 7040SOL    HW232757   4.100   4.435   9.444  0.3959 -3.6919  0.6678
 7041SOL     OW32758   0.649   1.710   7.179  0.4233 -0.0453  0.0768
 7041SOL    HW132759   0.700   1.787   7.205 -0.9171  0.0281  2.4650
 7041SOL    HW232760   0.713   1.658   7.130 -0.8606  0.6552 -2.3220
 7042SOL     OW32761   0.023   3.802   5.900 -0.7882 -0.0944  0.2049
 7042SOL    HW132762   0.028   3.715   5.940 -1.5193  0.0934  0.6871
 7042SOL    HW232763   0.075   3.768   5.827 -0.8247  6.0274 -2.6057
 7043SOL     OW32764   2.335   3.179   9.258  0.3081 -0.3384  0.1687
 7043SOL    HW132765   2.288   3.215   9.333 -0.4777 -0.2095 -0.3844
 7043SOL    HW232766   2.345   3.259   9.206  1.5331 -0.0521  0.8523
 7044SOL     OW32767   1.641   4.558   1.068  0.1296  0.1233  0.4102
 7044SOL    HW132768   1.689   4.475   1.064 -0.3592 -0.2364  1.6813
 7044SOL    HW232769   1.704   4.629   1.065  0.9786 -0.6336  0.3806
 7045SOL     OW32770   0.516   3.935   3.340  0.3817 -0.0269 -0.1417
 7045SOL    HW132771   0.573   3.911   3.267 -0.4528  1.4578 -1.2692
 7045SOL    HW232772   0.537   4.027   3.354 -2.6243  0.3522  1.9681
 7046SOL     OW32773   4.120   0.390   1.104  0.2773  0.0735 -0.0860
 7046SOL    HW132774   4.181   0.446   1.057  2.1030 -0.4776  1.6134
 7046SOL    HW232775   4.164   0.307   1.086  0.2370  0.4107 -1.7245
 7047SOL     OW32776   0.985   2.416  17.464  0.0375 -0.7315 -0.6511
 7047SOL    HW132777   1.011   2.337  17.416  1.5261 -1.1961  0.9455
 7047SOL    HW232778   0.987   2.482  17.395  2.0090  0.1066  0.2274
 7048SOL     OW32779   3.903   4.486   7.806 -0.0234 -0.1075 -0.0939
 7048SOL    HW132780   3.942   4.573   7.811 -0.1372  0.0779 -2.1748
 7048SOL    HW232781   3.821   4.499   7.757  0.3911  0.5590 -0.6072
 7049SOL     OW32782   0.073   0.606   6.887 -0.3187 -0.2347  0.0610
 7049SOL    HW132783   0.079   0.601   6.983  0.5922  1.2071  0.0765
 7049SOL    HW232784   0.116   0.691   6.874 -3.1399  0.9121 -1.7369
 7050SOL     OW32785   2.208   1.768   5.772 -0.0441  1.0588  0.3695
 7050SOL    HW132786   2.185   1.855   5.741 -2.0902  0.9068  1.5205
 7050SOL    HW232787   2.181   1.770   5.864  1.5687 -3.2406  0.9606
 7051SOL     OW32788   4.327   2.484   6.746 -0.1588 -0.3682 -0.7047
 7051SOL    HW132789   4.334   2.534   6.827  1.8855 -0.2137 -0.9715
 7051SOL    HW232790   4.242   2.518   6.719  0.6897  0.3249 -2.5510
 7052SOL     OW32791   2.896   1.142   2.769  0.6553  0.1828  0.4116
 7052SOL    HW132792   2.888   1.149   2.864  1.8288  1.0336  0.4460
 7052SOL    HW232793   2.827   1.193   2.726 -1.8533 -0.8574  3.2190
 7053SOL     OW32794   4.665   4.542   3.848 -0.1526 -0.0553  0.1196
 7053SOL    HW132795   0.018   4.552   3.820  0.4807 -0.5547  1.9784
 7053SOL    HW232796   4.674   4.486   3.925 -1.7105  0.4125  0.6265
 7054SOL     OW32797   3.901   1.150  12.885  0.0297 -0.0687 -0.2025
 7054SOL    HW132798   3.876   1.079  12.944 -2.4646  1.1769  0.2835
 7054SOL    HW232799   3.919   1.110  12.800 -0.5907 -1.1956  0.1903
 7055SOL     OW32800   0.177   1.497  17.086 -0.4923 -0.1472 -0.0331
 7055SOL    HW132801   0.186   1.585  17.124  2.5876  0.5397 -2.3986
 7055SOL    HW232802   0.238   1.446  17.140 -0.4375  0.3118  0.3432
 7056SOL     OW32803   3.976   2.202   5.892  0.1074 -0.0162  0.4230
 7056SOL    HW132804   4.069   2.199   5.917  0.6594 -1.7055 -1.7815
 7056SOL    HW232805   3.950   2.286   5.928  1.0673  0.5484 -0.1848
 7057SOL     OW32806   3.705   4.271   9.170  0.0048 -0.2162 -0.2966
 7057SOL    HW132807   3.648   4.315   9.107  0.4836 -0.4691 -0.9004
 7057SOL    HW232808   3.729   4.344   9.228  1.0196 -1.2694  0.6071
 7058SOL     OW32809   0.681   3.809   9.429 -0.1202  0.7513  0.0570
 7058SOL    HW132810   0.686   3.839   9.520 -0.4071 -0.3926  0.4480
 7058SOL    HW232811   0.752   3.745   9.434 -1.8560 -1.1927 -0.1103
 7059SOL     OW32812   3.065   4.593  11.346  0.0449  0.7129 -0.6934
 7059SOL    HW132813   3.072   4.646  11.266 -1.3262  3.1556  0.8138
 7059SOL    HW232814   3.007   4.645  11.401  1.0799  0.9763  0.1310
 7060SOL     OW32815   1.158   0.066  14.660 -0.4407 -0.3460  0.2713
 7060SOL    HW132816   1.193   0.002  14.721 -0.4016 -2.3807 -1.9112
 7060SOL    HW232817   1.204   0.052  14.577 -2.2738 -1.8164 -0.4925
 7061SOL     OW32818   2.790   3.395   8.046 -0.5458 -0.0017  0.1085
 7061SOL    HW132819   2.809   3.332   8.115 -0.5321  1.0996  1.1152
 7061SOL    HW232820   2.696   3.398   8.065 -0.9416 -2.8750 -1.4314
 7062SOL     OW32821   0.574   2.762  16.972 -0.4954 -0.5442 -0.3858
 7062SOL    HW132822   0.649   2.707  16.948 -1.1613 -1.2774 -0.8060
 7062SOL    HW232823   0.502   2.712  16.934 -0.5283 -0.3314 -0.6031
 7063SOL     OW32824   0.272   0.568   6.032 -0.6756 -0.2053 -0.0533
 7063SOL    HW132825   0.299   0.642   5.977  0.7281 -0.3691  0.4289
 7063SOL    HW232826   0.184   0.595   6.059 -0.7270 -0.6549  0.2187
 7064SOL     OW32827   1.577   2.529  10.738  0.3091 -0.5056 -0.3149
 7064SOL    HW132828   1.621   2.445  10.725 -0.8625 -1.1117 -0.4049
 7064SOL    HW232829   1.578   2.539  10.834 -0.6440 -1.8217 -0.1569
 7065SOL     OW32830   0.048   4.385  12.878 -0.3469  0.8584  0.4514
 7065SOL    HW132831   0.003   4.453  12.929 -1.1846 -0.1428  1.0316
 7065SOL    HW232832   4.713   4.324  12.865 -0.4815  0.6225  2.3252
 7066SOL     OW32833   1.582   2.445   5.889 -0.0423 -0.0791  0.3941
 7066SOL    HW132834   1.659   2.408   5.930  1.4371  0.6480 -1.7411
 7066SOL    HW232835   1.601   2.536   5.911 -0.0776  0.7319 -2.9595
 7067SOL     OW32836   3.201   3.532  13.465 -0.5029  0.3584  0.0857
 7067SOL    HW132837   3.236   3.614  13.430 -0.0245  0.5997  1.1277
 7067SOL    HW232838   3.200   3.555  13.558 -1.1813  0.7718 -0.0168
 7068SOL     OW32839   1.478   0.326   3.140 -0.1165 -0.0077  0.1079
 7068SOL    HW132840   1.541   0.266   3.179 -0.6185 -0.2181  0.5976
 7068SOL    HW232841   1.409   0.265   3.112 -0.3079 -0.3003  1.2414
 7069SOL     OW32842   2.712   2.474   2.639 -0.0099 -0.3673 -0.1430
 7069SOL    HW132843   2.633   2.471   2.585 -1.8522  0.0248  2.5343
 7069SOL    HW232844   2.775   2.506   2.574 -1.0288  4.0010  1.0157
 7070SOL     OW32845   3.633   2.814   6.627 -0.1959  0.4742  0.3593
 7070SOL    HW132846   3.681   2.803   6.545 -0.4575  0.2024  0.2409
 7070SOL    HW232847   3.547   2.784   6.597 -0.3617  1.5752 -0.2497
 7071SOL     OW32848   2.197   4.161   5.624  0.1335  0.0092  0.5699
 7071SOL    HW132849   2.211   4.086   5.682 -0.1480 -1.0349 -0.6931
 7071SOL    HW232850   2.276   4.159   5.570 -0.5191 -1.4507 -0.3604
 7072SOL     OW32851   0.960   4.390   5.172  0.5245 -0.7197  0.0444
 7072SOL    HW132852   1.054   4.386   5.153  0.6092  2.2440 -0.1899
 7072SOL    HW232853   0.962   4.483   5.195 -0.3278 -0.0060 -2.7576
 7073SOL     OW32854   4.565   1.513   6.330  0.5641  0.2932  0.4533
 7073SOL    HW132855   4.504   1.550   6.394  3.6589  3.2821  1.6583
 7073SOL    HW232856   4.640   1.572   6.339 -1.1076  2.5424 -0.1949
 7074SOL     OW32857   2.535   2.397   7.906  0.0507 -0.4261 -0.1932
 7074SOL    HW132858   2.621   2.354   7.902 -0.3524 -0.9851 -2.7672
 7074SOL    HW232859   2.500   2.364   7.823 -0.4276  0.7143 -0.4392
 7075SOL     OW32860   0.825   3.832   6.980 -0.2455  0.1156 -0.2114
 7075SOL    HW132861   0.780   3.908   7.018 -4.2840 -1.3860 -2.0040
 7075SOL    HW232862   0.757   3.766   6.990 -1.3541  1.2757 -0.0109
 7076SOL     OW32863   2.884   2.286   0.854 -0.2477 -0.1196  0.4171
 7076SOL    HW132864   2.861   2.194   0.841  1.2783 -0.5059  0.4524
 7076SOL    HW232865   2.830   2.297   0.933  2.0087 -1.3574  2.1370
 7077SOL     OW32866   1.760   1.075  13.864  0.1748 -0.4034  0.8644
 7077SOL    HW132867   1.773   1.076  13.959  1.2540 -1.5790  0.7277
 7077SOL    HW232868   1.774   0.981  13.854  0.2674 -0.3225  0.2552
 7078SOL     OW32869   2.991   4.444   5.109  0.5136  0.0614  0.1706
 7078SOL    HW132870   3.006   4.365   5.056  1.8240 -0.0522  0.7164
 7078SOL    HW232871   3.059   4.434   5.176 -1.4151  2.0474  2.4247
 7079SOL     OW32872   4.249   0.364  15.450  0.7675  0.6232  0.5412
 7079SOL    HW132873   4.283   0.291  15.502 -1.0235 -0.4428  0.2344
 7079SOL    HW232874   4.156   0.358  15.472  0.4518 -2.7672 -1.7566
 7080SOL     OW32875   1.549   0.036   2.491  0.5994 -0.7645 -0.1786
 7080SOL    HW132876   1.470   0.013   2.442  0.1420  0.4888 -0.0285
 7080SOL    HW232877   1.515   0.083   2.567  2.2382 -0.4294  0.3334
 7081SOL     OW32878   0.356   4.651  14.254 -0.2967 -0.3315  0.0533
 7081SOL    HW132879   0.328   4.639  14.164 -1.6626  0.1500  0.4059
 7081SOL    HW232880   0.267   4.652  14.290  0.1091  1.4735  1.0546
 7082SOL     OW32881   0.380   0.363   2.005  0.3430  0.2570  0.0490
 7082SOL    HW132882   0.345   0.416   2.076  0.5959  0.6394 -0.1139
 7082SOL    HW232883   0.456   0.328   2.051  0.1824 -0.1004  0.0445
 7083SOL     OW32884   2.464   2.694   1.506  0.6292 -0.0748  0.3114
 7083SOL    HW132885   2.371   2.705   1.487  0.8800  2.2988  0.5386
 7083SOL    HW232886   2.491   2.774   1.552  0.1788 -0.5414  1.3870
 7084SOL     OW32887   4.069   4.414   2.439  0.3975 -0.0777 -0.3811
 7084SOL    HW132888   4.028   4.334   2.405 -1.3703 -0.0179  1.6472
 7084SOL    HW232889   4.020   4.485   2.398 -0.0896 -0.0690  0.2279
 7085SOL     OW32890   1.524   1.602   8.945  0.0629 -0.0094 -0.3601
 7085SOL    HW132891   1.487   1.540   9.008 -1.0184  2.2874  1.2705
 7085SOL    HW232892   1.572   1.533   8.898  0.4854 -0.5191  0.8254
 7086SOL     OW32893   0.609   4.480   2.718  0.6149  0.2577 -0.6178
 7086SOL    HW132894   0.516   4.459   2.712  0.9795 -1.5750  0.0001
 7086SOL    HW232895   0.643   4.392   2.735  3.0974  1.1085 -1.1543
 7087SOL     OW32896   1.699   0.012   4.708  0.1992  0.2732  0.0327
 7087SOL    HW132897   1.789   4.716   4.701  0.5662  1.4613 -0.9789
 7087SOL    HW232898   1.669   4.673   4.756  0.2547 -0.7407 -1.5474
 7088SOL     OW32899   2.753   2.329   5.537 -0.1142  0.3024  0.8341
 7088SOL    HW132900   2.729   2.237   5.525  0.5435 -0.1062  2.6831
 7088SOL    HW232901   2.803   2.333   5.618 -0.4244  1.5428  0.9599
 7089SOL     OW32902   0.744   0.920   7.550  0.5525  0.3682 -0.1194
 7089SOL    HW132903   0.765   0.913   7.644 -1.3975 -1.5466  0.1743
 7089SOL    HW232904   0.829   0.922   7.507 -0.0167  2.1938 -1.1840
 7090SOL     OW32905   2.379   4.172  14.008 -0.3238  0.6297  0.3340
 7090SOL    HW132906   2.372   4.258  13.968  0.0371 -0.9637 -3.1858
 7090SOL    HW232907   2.290   4.139  13.994 -1.0351  2.1301  1.3944
 7091SOL     OW32908   0.237   3.186   9.552  0.2751  0.2775  0.4546
 7091SOL    HW132909   0.242   3.203   9.646 -1.5133 -1.2792  0.8344
 7091SOL    HW232910   0.288   3.105   9.551 -0.2347 -0.0410  0.0975
 7092SOL     OW32911   0.546   3.342   5.250 -0.1375  0.6900 -0.1925
 7092SOL    HW132912   0.593   3.419   5.283  0.0403  0.4462  0.1169
 7092SOL    HW232913   0.563   3.280   5.321 -0.0810 -0.6336 -1.3639
 7093SOL     OW32914   1.237   0.979   9.054  0.3582 -0.4266 -0.0408
 7093SOL    HW132915   1.195   1.043   9.112  0.6031 -0.4279  0.1373
 7093SOL    HW232916   1.295   1.035   9.002 -0.7678 -0.5103 -1.3670
 7094SOL     OW32917   1.301   0.206   5.973 -0.2293  0.5149 -0.1274
 7094SOL    HW132918   1.284   0.223   5.880 -1.2798  3.1906  0.5498
 7094SOL    HW232919   1.388   0.167   5.964 -0.2378  0.0591  1.7747
 7095SOL     OW32920   1.283   2.151   1.345  0.3669  0.3539 -0.4847
 7095SOL    HW132921   1.371   2.182   1.323  0.1363  1.7545  0.5700
 7095SOL    HW232922   1.240   2.167   1.261 -0.6785  1.2305  0.2309
 7096SOL     OW32923   2.183   2.097   2.089  0.3701  0.0673  0.3140
 7096SOL    HW132924   2.273   2.087   2.060  1.1436  1.1225  2.3718
 7096SOL    HW232925   2.160   2.009   2.058 -1.1428  0.2630  0.8730
 7097SOL     OW32926   1.904   4.404  13.182 -0.2044  0.6467 -0.2808
 7097SOL    HW132927   1.951   4.364  13.109 -0.1481  0.2001  0.0005
 7097SOL    HW232928   1.895   4.488  13.136 -1.1374  2.0093  2.3581
 7098SOL     OW32929   0.809   3.799   1.698 -0.2390  0.4944 -0.2327
 7098SOL    HW132930   0.834   3.892   1.690  1.5545  0.0308 -0.0729
 7098SOL    HW232931   0.757   3.793   1.778  1.0305 -1.4557  0.4387
 7099SOL     OW32932   0.594   1.241   5.606  0.7064 -0.0872  0.1755
 7099SOL    HW132933   0.689   1.237   5.598  0.4868 -2.2769 -1.1990
 7099SOL    HW232934   0.595   1.215   5.698 -0.5112  3.5224  1.2053
 7100SOL     OW32935   4.344   1.833   7.382  0.3751  0.1894  0.3853
 7100SOL    HW132936   4.417   1.881   7.420  0.2610  2.1813 -1.8788
 7100SOL    HW232937   4.323   1.776   7.456  0.3635  1.8098  1.6214
 7101SOL     OW32938   2.516   2.749   1.162  0.2705 -0.1330 -0.4027
 7101SOL    HW132939   2.531   2.702   1.244  2.3485  1.7919  0.3332
 7101SOL    HW232940   2.585   2.815   1.172  1.2308 -0.9726 -1.5078
 7102SOL     OW32941   1.254   0.815  13.133  0.2412 -0.3355  0.3159
 7102SOL    HW132942   1.342   0.849  13.116  0.0854 -0.3429 -0.4985
 7102SOL    HW232943   1.210   0.897  13.110  4.2749  1.5825 -0.6366
 7103SOL     OW32944   1.763   1.318   4.819 -0.5161  0.5711  0.0413
 7103SOL    HW132945   1.793   1.276   4.899 -0.0660 -1.2967 -1.0921
 7103SOL    HW232946   1.708   1.250   4.779  0.0450  0.0548  0.1612
 7104SOL     OW32947   2.750   1.745  15.198 -0.2238  0.3710 -0.1379
 7104SOL    HW132948   2.829   1.717  15.153  0.0788  1.8945 -0.5628
 7104SOL    HW232949   2.734   1.669  15.253  0.4937 -0.4078 -1.0071
 7105SOL     OW32950   2.271   0.277   6.050 -0.0619 -0.3901 -0.2566
 7105SOL    HW132951   2.187   0.282   6.094  0.4789 -0.3748  0.7828
 7105SOL    HW232952   2.330   0.332   6.102 -0.8684  0.3776 -0.1606
 7106SOL     OW32953   2.948   4.346   7.335  0.1628  0.2947 -0.1641
 7106SOL    HW132954   2.957   4.373   7.244 -0.6037 -2.1837 -0.9718
 7106SOL    HW232955   2.854   4.336   7.344  0.3309  0.0249  1.2630
 7107SOL     OW32956   2.626   2.555  14.092  0.1345 -0.5021  0.4389
 7107SOL    HW132957   2.674   2.611  14.152 -0.3005  0.2808  0.0640
 7107SOL    HW232958   2.673   2.473  14.109 -1.3862 -1.6364 -0.8355
 7108SOL     OW32959   0.228   2.794   3.768  0.1955  0.3368  0.5746
 7108SOL    HW132960   0.305   2.825   3.816  1.5483 -0.8512 -0.8101
 7108SOL    HW232961   0.266   2.753   3.690  1.3110  3.3049 -0.4479
 7109SOL     OW32962   3.622   2.272   2.135  0.1986  0.5543 -0.4168
 7109SOL    HW132963   3.628   2.353   2.085  0.8817 -0.8112 -2.5221
 7109SOL    HW232964   3.715   2.253   2.145 -0.2846 -1.8647 -0.5169
 7110SOL     OW32965   0.947   1.395  10.858 -0.1410 -0.6568  0.1962
 7110SOL    HW132966   0.884   1.465  10.873  0.5468  0.4441 -2.1125
 7110SOL    HW232967   0.881   1.331  10.832  0.4297 -0.6868 -1.1579
 7111SOL     OW32968   1.865   3.430   8.682 -0.4546  0.3495 -0.3574
 7111SOL    HW132969   1.943   3.485   8.672  0.1900  0.1122  3.4379
 7111SOL    HW232970   1.900   3.367   8.745 -0.8353  1.9836  1.4905
 7112SOL     OW32971   4.241   4.003  13.636 -0.3582  0.4721 -0.4728
 7112SOL    HW132972   4.266   3.921  13.678  0.2899  2.0760  2.2563
 7112SOL    HW232973   4.324   4.039  13.604  0.4084 -1.4000 -0.5802
 7113SOL     OW32974   1.265   1.278   2.795  0.2757 -0.0452  0.2374
 7113SOL    HW132975   1.205   1.252   2.725  1.7120  1.5804 -1.6355
 7113SOL    HW232976   1.210   1.238   2.861 -0.5894 -1.5188 -1.3758
 7114SOL     OW32977   2.024   4.373   9.011  0.0943 -0.7612 -0.4099
 7114SOL    HW132978   2.008   4.399   9.101  0.9957  0.1540 -0.5172
 7114SOL    HW232979   2.032   4.456   8.964  4.6281 -1.1944 -0.3372
 7115SOL     OW32980   4.553   3.412  12.463 -0.2453  0.0778 -0.3618
 7115SOL    HW132981   4.492   3.483  12.485  0.6710  0.3527  1.3214
 7115SOL    HW232982   4.591   3.385  12.547  0.3907 -0.1448 -0.7264
 7116SOL     OW32983   2.689   3.852   8.325 -0.3119  0.1067  0.5529
 7116SOL    HW132984   2.642   3.865   8.243 -1.6229 -1.5997  1.0392
 7116SOL    HW232985   2.696   3.757   8.327  1.3249  0.1887 -1.7589
 7117SOL     OW32986   1.881   2.787   8.433  0.0699  0.3037  0.2279
 7117SOL    HW132987   1.906   2.741   8.513 -0.5998  0.7023  0.6630
 7117SOL    HW232988   1.803   2.826   8.472  0.1325  0.3874  0.2694
 7118SOL     OW32989   1.185   0.292  15.850  0.2255 -0.3642 -0.0260
 7118SOL    HW132990   1.149   0.356  15.911 -1.4661 -0.8042 -0.5682
 7118SOL    HW232991   1.150   0.325  15.767 -0.6954  0.4782  0.6947
 7119SOL     OW32992   2.734   3.439   4.623 -0.0095 -0.6149  0.1696
 7119SOL    HW132993   2.725   3.459   4.717 -1.1665  0.9506 -0.2645
 7119SOL    HW232994   2.766   3.350   4.630  1.4955 -0.1271 -0.3911
 7120SOL     OW32995   4.093   0.502   5.799  0.4165 -0.1601  0.2111
 7120SOL    HW132996   4.183   0.481   5.823 -0.7575 -1.9833  2.9588
 7120SOL    HW232997   4.102   0.597   5.789 -1.0026  0.0566  0.9084
 7121SOL     OW32998   3.387   2.667   8.154  0.2177 -0.2323  0.2401
 7121SOL    HW132999   3.442   2.733   8.197 -0.4214  0.2622  0.3040
 7121SOL    HW233000   3.415   2.691   8.066 -0.7282 -0.9441 -0.2582
 7122SOL     OW33001   0.734   0.890   2.946  0.6617  0.2229  0.3471
 7122SOL    HW133002   0.645   0.869   2.919  0.2618 -0.5585  2.2908
 7122SOL    HW233003   0.724   0.925   3.035 -2.5206 -0.3628  0.2273
 7123SOL     OW33004   3.710   0.353   7.703  0.1248 -0.3076  0.3376
 7123SOL    HW133005   3.705   0.366   7.798 -2.3970 -0.8419  0.2697
 7123SOL    HW233006   3.617   0.357   7.681  0.2347 -0.2898 -0.1161
 7124SOL     OW33007   2.379   2.093   0.262  0.4758  0.1139 -0.3876
 7124SOL    HW133008   2.381   2.188   0.249 -0.2602  0.1385 -0.3473
 7124SOL    HW233009   2.375   2.097   0.357 -1.3401  0.4439 -0.4673
 7125SOL     OW33010   1.038   2.713   5.837  0.0511 -0.0432 -0.0099
 7125SOL    HW133011   1.124   2.756   5.836 -0.6644  1.3905  0.4922
 7125SOL    HW233012   1.049   2.666   5.919  0.0445  3.0333  1.7452
 7126SOL     OW33013   1.750   2.656  10.366  0.3279 -0.0562 -0.2851
 7126SOL    HW133014   1.660   2.631  10.386  0.1607 -1.2056 -2.4406
 7126SOL    HW233015   1.777   2.632  10.454 -2.4022 -1.2368  0.2426
 7127SOL     OW33016   0.564   3.146   4.727  0.1685  0.6238  0.0355
 7127SOL    HW133017   0.531   3.111   4.809 -1.3659  1.1333 -0.3776
 7127SOL    HW233018   0.506   3.116   4.657  3.2273  0.9308 -2.6536
 7128SOL     OW33019   0.417   2.443  11.662  0.3335 -0.1440  0.1186
 7128SOL    HW133020   0.385   2.451  11.752 -1.0676 -1.2374 -0.2921
 7128SOL    HW233021   0.437   2.350  11.655  0.1174 -0.3452  2.2345
 7129SOL     OW33022   2.875   1.425   4.831  0.1215 -0.0309  0.0161
 7129SOL    HW133023   2.882   1.465   4.917 -2.1194  4.0181 -1.6980
 7129SOL    HW233024   2.859   1.495   4.768 -0.0193  0.7377  0.9203
 7130SOL     OW33025   2.551   2.957  16.972  0.4090  0.3569  0.3034
 7130SOL    HW133026   2.611   3.030  16.954  0.4410 -0.2233 -2.0060
 7130SOL    HW233027   2.606   2.929  17.045 -1.2889  1.8268  2.1560
 7131SOL     OW33028   3.775   3.797   5.864  0.3548  0.6432 -0.2156
 7131SOL    HW133029   3.845   3.813   5.927 -0.8096  0.5677  1.1007
 7131SOL    HW233030   3.708   3.855   5.900  0.8160  1.8226 -1.2591
 7132SOL     OW33031   2.013   0.985   3.819  0.3188 -0.2370  0.2675
 7132SOL    HW133032   2.013   0.938   3.736  1.6279 -1.2451  0.8279
 7132SOL    HW233033   2.034   1.075   3.798  1.0997 -0.4751  0.0217
 7133SOL     OW33034   3.289   0.887   5.028 -0.4555 -0.2532 -0.3782
 7133SOL    HW133035   3.223   0.955   5.016  0.1118  0.5951  1.3167
 7133SOL    HW233036   3.251   0.818   4.973 -0.2933 -0.4852 -0.2023
 7134SOL     OW33037   4.334   2.768   7.045 -0.6060  0.0117 -0.5598
 7134SOL    HW133038   4.428   2.754   7.037 -0.4500 -0.4574  2.1138
 7134SOL    HW233039   4.303   2.678   7.050  1.2083 -0.6633 -1.6826
 7135SOL     OW33040   3.722   3.674  17.018 -0.0253 -0.6536 -0.3033
 7135SOL    HW133041   3.790   3.611  16.991 -0.8596 -0.8025 -2.0306
 7135SOL    HW233042   3.689   3.642  17.102  0.4044  1.0892  0.5323
 7136SOL     OW33043   2.778   0.551   5.959 -0.0902 -0.0408 -0.0118
 7136SOL    HW133044   2.720   0.499   5.904 -0.5860  1.0601 -0.5434
 7136SOL    HW233045   2.717   0.561   6.033  1.6265  0.1573  1.3699
 7137SOL     OW33046   2.251   3.741   5.250 -0.2186 -0.5855  0.5945
 7137SOL    HW133047   2.188   3.721   5.181 -1.3783  0.5852  1.3157
 7137SOL    HW233048   2.275   3.829   5.221 -0.6318 -0.4449  0.6765
 7138SOL     OW33049   3.441   4.463   6.703  0.3659 -0.2979  0.1073
 7138SOL    HW133050   3.504   4.397   6.672 -1.1379 -0.8512 -1.7636
 7138SOL    HW233051   3.496   4.513   6.763 -0.5066  1.8210 -0.8390
 7139SOL     OW33052   1.588   2.814   4.332  0.9083 -0.1618 -0.1600
 7139SOL    HW133053   1.590   2.889   4.273 -0.4806  1.1011  1.4108
 7139SOL    HW233054   1.605   2.864   4.412 -1.8002  1.3876 -0.5808
 7140SOL     OW33055   0.935   2.306   0.652 -0.1798 -0.3388  0.0806
 7140SOL    HW133056   0.892   2.231   0.611 -1.2128  0.1622  0.2353
 7140SOL    HW233057   0.974   2.353   0.579  0.0248  2.0748  1.7423
 7141SOL     OW33058   2.046   1.469   6.619 -0.0370 -0.6049  0.5540
 7141SOL    HW133059   2.111   1.471   6.548 -0.7385 -0.8392 -0.0961
 7141SOL    HW233060   2.093   1.511   6.691 -0.0665 -0.0587  0.2619
 7142SOL     OW33061   0.394   1.286   1.614  0.2011  0.0434 -0.4807
 7142SOL    HW133062   0.412   1.379   1.628 -0.0373  0.0166  0.0366
 7142SOL    HW233063   0.416   1.257   1.703 -1.4170  1.1435  0.2958
 7143SOL     OW33064   0.211   0.836   6.389 -0.2130  0.3220  0.3595
 7143SOL    HW133065   0.172   0.806   6.307  1.0814  2.8177 -1.1698
 7143SOL    HW233066   0.212   0.931   6.373 -0.9349 -0.1686 -2.6677
 7144SOL     OW33067   4.114   4.178   2.596 -0.0395  0.7110  0.0327
 7144SOL    HW133068   4.183   4.237   2.566  1.0695 -0.6724 -0.1458
 7144SOL    HW233069   4.144   4.092   2.567 -0.1861  0.6362  0.1006
 7145SOL     OW33070   3.179   2.090   6.079 -0.5165 -0.3623 -0.0557
 7145SOL    HW133071   3.194   2.048   5.994 -2.4784 -0.0457 -0.5433
 7145SOL    HW233072   3.134   2.013   6.115  0.6490 -1.0726 -0.1144
 7146SOL     OW33073   1.520   1.617  14.470  0.1601 -0.3654  0.2697
 7146SOL    HW133074   1.497   1.687  14.408  0.0646  0.0431  0.7632
 7146SOL    HW233075   1.443   1.561  14.473 -1.9047  2.3840 -1.0109
 7147SOL     OW33076   0.153   4.219   8.556  0.0446 -0.3657  0.0308
 7147SOL    HW133077   0.082   4.201   8.495 -0.2422 -0.4662  0.3906
 7147SOL    HW233078   0.231   4.203   8.504 -0.4384 -2.3199 -0.0941
 7148SOL     OW33079   3.747   1.602   3.418  0.1389 -0.0690 -0.0381
 7148SOL    HW133080   3.696   1.670   3.374 -1.4324 -1.1137  0.1890
 7148SOL    HW233081   3.801   1.675   3.449  1.4086 -0.9152 -0.2735
 7149SOL     OW33082   1.620   4.392  13.205  0.3314  0.1902 -0.4961
 7149SOL    HW133083   1.705   4.370  13.244  0.3577 -0.3650 -0.8590
 7149SOL    HW233084   1.616   4.302  13.172 -2.2079  0.2285 -0.2534
 7150SOL     OW33085   4.685   3.111   5.939  0.4543 -0.4085  0.5288
 7150SOL    HW133086   4.590   3.122   5.931  0.5040  0.3119  1.0534
 7150SOL    HW233087   4.708   3.100   5.846 -0.4737 -3.0245  0.5945
 7151SOL     OW33088   3.024   1.274  10.763 -0.1495  0.2357 -0.0230
 7151SOL    HW133089   3.008   1.355  10.716 -2.5781 -0.3041 -0.1061
 7151SOL    HW233090   3.116   1.257  10.744  0.1162  2.8359 -1.0120
 7152SOL     OW33091   0.350   2.618   3.577  0.2043 -0.2985  0.0582
 7152SOL    HW133092   0.376   2.532   3.543  3.1551  0.4293  0.4239
 7152SOL    HW233093   0.333   2.665   3.495 -0.6289 -0.6629  0.0220
 7153SOL     OW33094   1.860   0.755   9.388 -0.4739 -0.0916  0.5583
 7153SOL    HW133095   1.834   0.663   9.397  1.3831 -0.6010  0.7621
 7153SOL    HW233096   1.887   0.760   9.296  1.9447  0.5087  1.2984
 7154SOL     OW33097   2.062   0.224   4.983  0.2863  0.2914 -0.0484
 7154SOL    HW133098   2.035   0.137   4.956 -1.1755  0.8328 -0.3626
 7154SOL    HW233099   2.019   0.235   5.068  0.0985  0.7679 -0.2049
 7155SOL     OW33100   1.093   3.075   7.699 -0.2950 -0.0761  0.1118
 7155SOL    HW133101   1.180   3.099   7.731 -0.4421 -0.9480  1.1738
 7155SOL    HW233102   1.107   3.070   7.605 -0.8136 -1.5719  0.1244
 7156SOL     OW33103   4.033   0.733   3.087  0.7342 -0.3225 -0.4567
 7156SOL    HW133104   4.015   0.658   3.030 -2.3606 -0.8882  1.2398
 7156SOL    HW233105   3.953   0.782   3.068  1.1945 -0.2128 -2.1359
 7157SOL     OW33106   1.254   2.454   8.070  0.1474  0.4424 -0.7327
 7157SOL    HW133107   1.318   2.383   8.064 -1.6137 -1.3245  1.1342
 7157SOL    HW233108   1.257   2.484   8.161 -1.0689  2.1995 -1.2734
 7158SOL     OW33109   1.261   2.510   8.974 -0.4489  0.2212 -0.8719
 7158SOL    HW133110   1.208   2.434   8.950  0.7000 -0.5468 -0.9960
 7158SOL    HW233111   1.195   2.577   8.958 -3.7339 -3.1254 -1.2286
 7159SOL     OW33112   1.201   1.903  15.565 -0.1426  0.2589 -0.7555
 7159SOL    HW133113   1.267   1.875  15.627  0.3597  0.6983 -1.0963
 7159SOL    HW233114   1.135   1.840  15.595 -2.2172  2.0874 -1.5090
 7160SOL     OW33115   2.992   1.729   0.816  0.1994 -0.3672  0.5149
 7160SOL    HW133116   3.070   1.734   0.871 -1.1231 -1.0163  2.4226
 7160SOL    HW233117   3.017   1.655   0.760  0.7966  0.6611 -0.5787
 7161SOL     OW33118   1.660   1.341   1.644  0.3999  0.6285  0.1364
 7161SOL    HW133119   1.658   1.245   1.651 -1.0588  0.6145 -0.3729
 7161SOL    HW233120   1.751   1.368   1.649  0.2820  1.1581 -0.6661
 7162SOL     OW33121   2.654   4.223   7.552  0.2684 -0.3356 -0.3357
 7162SOL    HW133122   2.576   4.210   7.497 -2.2058 -2.5395  3.6884
 7162SOL    HW233123   2.653   4.152   7.616 -2.6508  1.5835  1.7252
 7163SOL     OW33124   4.130   1.382   9.696  0.0635 -0.2526 -0.3952
 7163SOL    HW133125   4.089   1.460   9.732  0.7857 -0.4753  0.9163
 7163SOL    HW233126   4.108   1.395   9.603 -2.1126 -1.0756  0.0169
 7164SOL     OW33127   1.557   4.455   6.106 -0.0827 -0.1882  0.2994
 7164SOL    HW133128   1.549   4.541   6.149  0.3566 -0.0201  0.0453
 7164SOL    HW233129   1.525   4.478   6.019 -0.4629 -0.8412  0.2720
 7165SOL     OW33130   2.365   1.948   0.963  0.9142  0.5965 -0.5151
 7165SOL    HW133131   2.314   2.005   1.021  0.8311 -0.3095  0.3039
 7165SOL    HW233132   2.291   1.898   0.928  1.2871 -0.7572  0.6219
 7166SOL     OW33133   1.245   4.585   7.736 -0.0672 -0.4085 -0.1746
 7166SOL    HW133134   1.243   4.491   7.755  2.1811 -0.3097  0.5659
 7166SOL    HW233135   1.169   4.595   7.792 -0.6425  2.0696 -1.3749
 7167SOL     OW33136   1.820   0.828   1.479 -0.3403  0.5391  0.3387
 7167SOL    HW133137   1.867   0.899   1.522  1.2261 -0.0820 -0.3731
 7167SOL    HW233138   1.876   0.752   1.492 -0.7478  0.2954  0.6725
 7168SOL     OW33139   4.502   2.415   1.393  0.2728 -0.3329  0.1217
 7168SOL    HW133140   4.591   2.380   1.389  0.0501 -0.5843 -2.6727
 7168SOL    HW233141   4.518   2.465   1.313 -0.8990 -1.8808 -1.0668
 7169SOL     OW33142   0.149   1.692   9.542 -0.2319  0.9272  0.0973
 7169SOL    HW133143   0.204   1.617   9.519  1.3411  1.4212  2.2079
 7169SOL    HW233144   0.167   1.699   9.636  1.6021  1.2289 -0.2744
 7170SOL     OW33145   2.255   0.566   2.454 -0.2236  0.1330  0.5505
 7170SOL    HW133146   2.174   0.613   2.434 -0.5778  0.1298  1.9723
 7170SOL    HW233147   2.233   0.537   2.543  1.7544  1.9004  1.6103
 7171SOL     OW33148   1.380   1.520   7.447 -0.1561  0.3748 -0.2642
 7171SOL    HW133149   1.401   1.428   7.434  1.8922  0.7627  0.2325
 7171SOL    HW233150   1.400   1.557   7.361  0.5586  1.0059  0.1663
 7172SOL     OW33151   1.947   4.298   6.573 -0.5341 -0.2073  0.1684
 7172SOL    HW133152   2.002   4.376   6.562 -1.9070  0.4877 -1.7861
 7172SOL    HW233153   1.939   4.265   6.483 -1.3235 -2.0117  0.9138
 7173SOL     OW33154   4.616   3.116  11.543  0.3007  0.0567  0.2036
 7173SOL    HW133155   4.627   3.088  11.452 -0.4617  0.8064 -0.1273
 7173SOL    HW233156   4.687   3.179  11.552 -0.1480  0.8034 -1.4315
 7174SOL     OW33157   1.504   1.016   0.938 -0.1878  0.0764  0.3224
 7174SOL    HW133158   1.444   1.083   0.971 -0.2654  0.6019 -0.8808
 7174SOL    HW233159   1.448   0.939   0.941 -2.5097  1.6529 -1.9537
 7175SOL     OW33160   2.529   1.589   5.454 -0.8503  0.2593  0.5588
 7175SOL    HW133161   2.537   1.642   5.374 -0.5936  0.9216  1.0300
 7175SOL    HW233162   2.546   1.653   5.523 -0.1878 -0.3928  0.9890
 7176SOL     OW33163   1.993   1.050   2.039 -0.8463  0.1939  0.3429
 7176SOL    HW133164   1.922   1.017   2.095 -1.6640  1.2154 -0.0943
 7176SOL    HW233165   1.953   1.129   2.003  0.2323  0.2153 -0.7962
 7177SOL     OW33166   1.385   0.308   4.701  0.0235  0.2678  0.0354
 7177SOL    HW133167   1.356   0.382   4.646 -0.4775 -0.6858 -0.9825
 7177SOL    HW233168   1.464   0.345   4.738  0.6146  1.6309 -2.5782
 7178SOL     OW33169   3.395   4.629   6.207 -0.0709 -0.0814 -0.1085
 7178SOL    HW133170   3.474   4.584   6.175 -1.4035 -2.1702 -0.4742
 7178SOL    HW233171   3.412   4.639   6.301  1.9188 -0.4486 -0.4208
 7179SOL     OW33172   2.790   1.679  17.480  0.0960 -0.5049  0.6233
 7179SOL    HW133173   2.701   1.656  17.453  0.5879 -1.6017 -0.0662
 7179SOL    HW233174   2.802   1.608  17.542  0.6271  0.4264  1.5933
 7180SOL     OW33175   1.438   3.146  12.566  0.2039 -0.4293  0.0238
 7180SOL    HW133176   1.455   3.225  12.616 -1.0434 -1.3270  1.8624
 7180SOL    HW233177   1.523   3.116  12.531 -0.6770 -1.5487 -1.1627
 7181SOL     OW33178   2.135   0.096   3.276 -0.3154 -0.4246  0.4537
 7181SOL    HW133179   2.195   0.028   3.245  1.7681  2.0276 -0.9367
 7181SOL    HW233180   2.060   0.097   3.217  1.4483  0.5628 -1.7661
 7182SOL     OW33181   2.688   0.909   2.158 -0.4808 -0.3456  0.1581
 7182SOL    HW133182   2.668   0.983   2.101 -1.2860 -2.0586 -1.7855
 7182SOL    HW233183   2.630   0.922   2.233  0.2635  0.5113  0.5827
 7183SOL     OW33184   4.210   4.569  12.224 -0.3678  0.7758  0.0328
 7183SOL    HW133185   4.250   4.642  12.271 -1.6109  1.3311  0.2156
 7183SOL    HW233186   4.124   4.602  12.200 -0.9115 -0.1754  0.7250
 7184SOL     OW33187   1.757   2.082   8.449 -0.2708  0.1107  0.4384
 7184SOL    HW133188   1.671   2.114   8.420 -0.0116 -0.1637 -0.6433
 7184SOL    HW233189   1.761   2.004   8.393  1.3110 -1.3491  2.6248
 7185SOL     OW33190   2.110   0.462   7.339  0.0069 -0.3328  0.3073
 7185SOL    HW133191   2.167   0.427   7.407  2.0644  1.7155 -0.3406
 7185SOL    HW233192   2.159   0.537   7.305  1.1807 -1.9095 -1.4365
 7186SOL     OW33193   0.471   2.551  17.225  0.8214 -0.2111 -0.4567
 7186SOL    HW133194   0.549   2.522  17.176  0.5126  0.2346 -1.2132
 7186SOL    HW233195   0.478   2.485  17.294  2.3858  0.2920 -0.1348
 7187SOL     OW33196   1.347   3.168   1.649  0.2840 -0.1331  0.4183
 7187SOL    HW133197   1.393   3.236   1.698 -1.0160  1.8465 -1.0861
 7187SOL    HW233198   1.408   3.096   1.666 -0.7716 -1.6722 -2.3984
 7188SOL     OW33199   0.215   3.997   4.711  0.0247  0.0848 -0.2153
 7188SOL    HW133200   0.276   4.041   4.770  0.4281 -1.0616  0.2321
 7188SOL    HW233201   0.189   3.920   4.762  1.6150  0.1995  0.7744
 7189SOL     OW33202   0.718   3.523   5.373 -0.1739  0.0838  0.4839
 7189SOL    HW133203   0.685   3.599   5.422  1.3707 -0.5141  2.4653
 7189SOL    HW233204   0.764   3.572   5.305 -1.2814  1.5955  0.8071
 7190SOL     OW33205   0.027   1.626   0.808 -0.2211 -0.0394  0.4784
 7190SOL    HW133206   0.123   1.636   0.806 -0.3193  1.0172  1.0537
 7190SOL    HW233207   0.019   1.625   0.713  0.8127  0.0017  0.3829
 7191SOL     OW33208   3.848   1.547   4.159 -0.6539 -0.1512  0.1237
 7191SOL    HW133209   3.940   1.527   4.173 -0.3801  0.4128 -0.9236
 7191SOL    HW233210   3.817   1.457   4.168 -1.7596  0.3051  0.9768
 7192SOL     OW33211   4.213   1.567   3.944  0.2390  0.1946 -0.0450
 7192SOL    HW133212   4.184   1.547   4.033 -0.7196  0.1153 -0.3715
 7192SOL    HW233213   4.181   1.657   3.938  0.8024  0.3082 -1.1893
 7193SOL     OW33214   0.141   4.511   4.427  0.1179  1.0433  0.1395
 7193SOL    HW133215   0.126   4.432   4.374  0.4672  1.9657 -1.3209
 7193SOL    HW233216   0.048   4.519   4.451  0.1074 -1.1072  0.8300
 7194SOL     OW33217   1.857   2.728  14.827  0.2696  0.2016  0.1620
 7194SOL    HW133218   1.852   2.702  14.919  1.6702 -1.4356 -0.2334
 7194SOL    HW233219   1.857   2.645  14.780  0.4937  0.3229 -0.0503
 7195SOL     OW33220   4.356   3.993   4.621 -0.2447 -0.2164 -0.2567
 7195SOL    HW133221   4.345   3.953   4.535 -0.5840  1.4372 -0.9924
 7195SOL    HW233222   4.263   4.004   4.639  0.1005 -1.3073  2.1319
 7196SOL     OW33223   2.284   2.967   8.507 -0.5725 -0.1050 -0.3081
 7196SOL    HW133224   2.369   2.943   8.469 -0.7404 -2.0646  0.5971
 7196SOL    HW233225   2.223   2.926   8.446  0.9737 -2.7725 -0.0592
 7197SOL     OW33226   4.719   1.707   6.406  0.0801  0.0127  0.1173
 7197SOL    HW133227   0.030   1.759   6.344  2.1825  0.9212  2.5745
 7197SOL    HW233228   4.725   1.762   6.484 -0.0336  0.1870  0.0029
 7198SOL     OW33229   4.555   1.585   4.625 -0.4458  0.2298 -0.1959
 7198SOL    HW133230   4.529   1.674   4.602 -0.4285 -0.0273 -1.2037
 7198SOL    HW233231   4.636   1.577   4.574  0.3701  0.4542  1.0795
 7199SOL     OW33232   1.870   1.454   8.115 -0.0253  0.0846  0.2268
 7199SOL    HW133233   1.834   1.421   8.033 -0.4254 -0.0046  0.4408
 7199SOL    HW233234   1.951   1.495   8.085  0.3390 -0.9082 -0.1465
 7200SOL     OW33235   0.978   3.153   4.723  0.2756 -0.3044  0.0750
 7200SOL    HW133236   0.961   3.238   4.762  1.3835  0.6659 -1.5271
 7200SOL    HW233237   0.907   3.144   4.659  1.9131  1.6912 -2.0399
 7201SOL     OW33238   3.958   3.308  11.307 -0.0618  0.0743  0.2822
 7201SOL    HW133239   3.938   3.227  11.260 -1.0426  0.9883 -0.8924
 7201SOL    HW233240   4.002   3.280  11.387 -1.5594 -1.5188  0.5441
 7202SOL     OW33241   1.815   2.783   5.093  0.2625  0.6221 -0.7450
 7202SOL    HW133242   1.784   2.692   5.090  1.7413  0.1933 -2.6130
 7202SOL    HW233243   1.895   2.770   5.143 -0.4161 -1.1658 -0.1150
 7203SOL     OW33244   3.094   3.841  13.665 -0.1083 -0.2039 -0.1056
 7203SOL    HW133245   3.097   3.887  13.581  4.5323  1.2412  0.8304
 7203SOL    HW233246   3.171   3.785  13.672  2.3067  2.9831 -0.7651
 7204SOL     OW33247   1.548   1.264   3.833 -0.4723 -0.0890 -0.2325
 7204SOL    HW133248   1.638   1.244   3.809 -0.3255  0.0144  0.2250
 7204SOL    HW233249   1.550   1.356   3.860 -2.9229 -0.3196  0.7741
 7205SOL     OW33250   0.305   3.679   4.411 -0.0473  0.1291 -0.0828
 7205SOL    HW133251   0.297   3.584   4.406 -1.4117  0.3918 -3.2075
 7205SOL    HW233252   0.394   3.689   4.446 -0.0685  0.6941 -0.1936
 7206SOL     OW33253   1.068   0.490  16.011 -0.3870  0.1126  0.2565
 7206SOL    HW133254   1.135   0.464  16.074 -2.0865 -4.7184  0.0606
 7206SOL    HW233255   1.101   0.576  15.984  0.7855  0.6502  3.4392
 7207SOL     OW33256   2.944   1.737   6.813  0.0696 -0.2062  0.1829
 7207SOL    HW133257   2.971   1.645   6.814 -1.1339 -0.5895 -1.7599
 7207SOL    HW233258   3.025   1.777   6.845 -0.6590  0.7945  0.7971
 7208SOL     OW33259   2.250   2.637  15.276 -0.8039  0.2146 -0.0933
 7208SOL    HW133260   2.279   2.715  15.323 -2.7931  0.1499  1.2563
 7208SOL    HW233261   2.155   2.649  15.276 -0.7332  0.7898  0.6769
 7209SOL     OW33262   0.178   2.366   1.724  0.0367  0.0540 -0.2425
 7209SOL    HW133263   0.138   2.294   1.676 -0.9228  1.4907 -1.5927
 7209SOL    HW233264   0.269   2.345   1.701 -1.1451 -0.5596 -4.2621
 7210SOL     OW33265   2.961   4.316   6.674 -0.6242 -0.5847 -0.0072
 7210SOL    HW133266   2.885   4.308   6.732 -1.6530 -1.6187 -1.5130
 7210SOL    HW233267   2.971   4.411   6.668 -1.8258 -0.4394  0.3507
 7211SOL     OW33268   4.704   2.212   3.183 -0.5637  0.1009  0.6856
 7211SOL    HW133269   4.619   2.174   3.162 -0.0121  0.5279 -2.3890
 7211SOL    HW233270   4.698   2.239   3.274 -0.0377  2.1100  0.1256
 7212SOL     OW33271   3.006   4.216   8.198 -0.0053  0.1991 -0.4000
 7212SOL    HW133272   2.932   4.171   8.158 -0.1217  1.2308 -1.3391
 7212SOL    HW233273   3.064   4.141   8.213 -0.7576 -0.1994  0.5498
 7213SOL     OW33274   2.626   1.377   6.848  0.1341 -0.4681 -0.0123
 7213SOL    HW133275   2.672   1.319   6.909 -3.1650 -2.6538  0.4011
 7213SOL    HW233276   2.685   1.378   6.773  0.8933 -0.1461  0.5862
 7214SOL     OW33277   2.205   2.655   4.901  0.1154 -0.0749 -0.1277
 7214SOL    HW133278   2.278   2.648   4.962 -0.3048 -0.8388  0.2850
 7214SOL    HW233279   2.205   2.562   4.881  1.1134 -0.4896  1.8605
 7215SOL     OW33280   1.151   1.163   5.576  0.4787  0.2107  0.6857
 7215SOL    HW133281   1.212   1.166   5.503 -1.6131 -2.7192 -1.1965
 7215SOL    HW233282   1.197   1.091   5.619 -0.7308 -0.5808  0.6813
 7216SOL     OW33283   3.720   0.495  13.837 -0.4871  0.4108  0.8523
 7216SOL    HW133284   3.741   0.402  13.821  0.2709  0.2778  2.5885
 7216SOL    HW233285   3.627   0.490  13.858 -0.6954  1.7027  0.1640
 7217SOL     OW33286   4.042   4.551   7.469  0.0925  0.5964 -0.1124
 7217SOL    HW133287   4.013   4.608   7.540  1.4710  0.2181  0.7437
 7217SOL    HW233288   4.087   4.616   7.415  1.7167 -0.0471  0.4953
 7218SOL     OW33289   4.280   0.755   3.216 -0.4565  0.8773 -0.3426
 7218SOL    HW133290   4.272   0.678   3.272 -2.4552  1.7955  0.6270
 7218SOL    HW233291   4.196   0.758   3.170 -1.8851 -0.3315  2.2061
 7219SOL     OW33292   1.573   4.325   3.315  0.3176  0.2317 -0.3687
 7219SOL    HW133293   1.628   4.338   3.393  2.9171 -2.1463 -1.8189
 7219SOL    HW233294   1.634   4.263   3.275  0.4289  0.4420 -0.5246
 7220SOL     OW33295   2.718   2.138  17.659 -0.1729  0.3792  0.4768
 7220SOL    HW133296   2.728   2.233  17.666 -0.7368  0.4787 -0.0610
 7220SOL    HW233297   2.744   2.115  17.748 -0.6818 -1.0281  0.2598
 7221SOL     OW33298   0.948   1.415   8.139 -0.0275  0.5125  0.1086
 7221SOL    HW133299   0.883   1.345   8.136  0.9530 -0.3496 -0.5499
 7221SOL    HW233300   1.012   1.394   8.071  0.7744  0.1519  0.9800
 7222SOL     OW33301   0.480   3.643   7.308  0.1674 -0.1280  0.2729
 7222SOL    HW133302   0.495   3.737   7.302 -0.6929  0.0819  1.4385
 7222SOL    HW233303   0.409   3.639   7.373 -0.7357 -1.2138 -0.7790
 7223SOL     OW33304   4.194   1.470   0.262  0.3180 -0.2102  1.0879
 7223SOL    HW133305   4.288   1.463   0.246  0.4967  3.1050  0.6983
 7223SOL    HW233306   4.155   1.404   0.205  0.3789 -0.0191  0.8238
 7224SOL     OW33307   2.063   3.664   2.932  0.3958  0.5996 -0.0990
 7224SOL    HW133308   2.109   3.587   2.898 -0.5479 -1.3985  3.1532
 7224SOL    HW233309   2.063   3.641   3.025 -0.5333 -3.0324 -0.9967
 7225SOL     OW33310   1.063   1.749   1.211  0.2106  0.2705 -0.4854
 7225SOL    HW133311   1.157   1.765   1.213 -0.1554  2.4614 -1.1359
 7225SOL    HW233312   1.050   1.760   1.117 -2.7287 -0.8715 -0.2286
 7226SOL     OW33313   4.049   3.177   2.507 -0.0320  0.1779  0.2027
 7226SOL    HW133314   4.081   3.178   2.417 -0.5694  0.5765  0.0136
 7226SOL    HW233315   4.133   3.141   2.537  1.4647  1.0615 -2.9705
 7227SOL     OW33316   0.408   2.916   5.384  0.0914  0.2935  0.1591
 7227SOL    HW133317   0.454   2.833   5.372  0.5898  0.9697 -2.5425
 7227SOL    HW233318   0.341   2.919   5.316 -0.0679 -3.7148  0.1699
 7228SOL     OW33319   0.206   3.135   4.714  0.0977 -0.3562  0.0281
 7228SOL    HW133320   0.212   3.083   4.794  0.0164 -1.6429 -0.8012
 7228SOL    HW233321   0.191   3.220   4.756 -0.7444 -1.3532  1.7179
 7229SOL     OW33322   1.821   2.320   9.522  0.4798 -0.5121 -0.1169
 7229SOL    HW133323   1.784   2.321   9.434  2.5700 -0.2408 -1.0004
 7229SOL    HW233324   1.835   2.228   9.545 -1.9027 -1.2235 -1.5867
 7230SOL     OW33325   2.179   3.553  11.226  0.1862 -0.2920  0.3879
 7230SOL    HW133326   2.150   3.465  11.204  0.9869 -0.4951  0.1638
 7230SOL    HW233327   2.254   3.557  11.166  0.4691 -3.9240  0.4941
 7231SOL     OW33328   2.611   4.572   5.884 -0.2781 -0.4492 -0.2798
 7231SOL    HW133329   2.676   4.630   5.844 -3.0211  2.0406 -1.1306
 7231SOL    HW233330   2.532   4.611   5.845  2.0187  1.3018 -3.2094
 7232SOL     OW33331   4.149   2.257   7.817  0.2047 -0.1262  0.4184
 7232SOL    HW133332   4.172   2.180   7.869 -3.7829 -2.3647 -1.1021
 7232SOL    HW233333   4.135   2.218   7.731  2.8288  2.3929 -1.1196
 7233SOL     OW33334   4.655   4.689   1.014 -0.1220  0.3303  0.1852
 7233SOL    HW133335   4.643   4.636   1.093 -1.8142  0.1037 -0.2209
 7233SOL    HW233336   4.568   4.710   0.981  0.9969  2.8819 -1.1710
 7234SOL     OW33337   3.336   2.541   6.901 -0.0382 -0.6946  0.2773
 7234SOL    HW133338   3.270   2.511   6.962  0.9969 -1.2178  1.1323
 7234SOL    HW233339   3.313   2.490   6.822 -1.2672  0.5203 -0.1457
 7235SOL     OW33340   1.746   3.350   6.437  0.6066  0.3521 -0.0101
 7235SOL    HW133341   1.713   3.406   6.366 -2.4700  0.0615  1.1681
 7235SOL    HW233342   1.662   3.336   6.482  0.9336 -1.1462  0.1200
 7236SOL     OW33343   0.918   1.815  17.531 -0.1345 -0.4148  0.1309
 7236SOL    HW133344   0.949   1.820  17.621 -0.1238  1.1789  0.0398
 7236SOL    HW233345   0.997   1.825  17.478 -1.4198  1.1078 -1.4872
 7237SOL     OW33346   0.862   4.361   5.486 -0.1850  0.7422  0.2756
 7237SOL    HW133347   0.840   4.338   5.576  1.6467  1.9334  1.0416
 7237SOL    HW233348   0.939   4.305   5.474 -0.1894  1.1240 -1.5978
 7238SOL     OW33349   4.536   3.167   8.027  0.0891  0.0005  0.0228
 7238SOL    HW133350   4.509   3.136   7.941 -0.2627 -0.2102  0.2141
 7238SOL    HW233351   4.545   3.090   8.083  1.1695  0.4032  0.4166
 7239SOL     OW33352   4.738   3.028  11.292 -0.3585  0.2029  0.4264
 7239SOL    HW133353   0.007   3.114  11.249 -0.7853  0.9196  1.7929
 7239SOL    HW233354   0.024   2.971  11.219  0.6511  0.8483  0.2612
 7240SOL     OW33355   3.369   4.570   3.222  0.0159  0.2272 -0.5428
 7240SOL    HW133356   3.415   4.503   3.273  2.0539  1.0695 -1.3169
 7240SOL    HW233357   3.291   4.521   3.195 -1.1368  1.9263 -0.3374
 7241SOL     OW33358   0.397   2.693  11.739  0.1154  0.2094  0.4483
 7241SOL    HW133359   0.417   2.610  11.696 -0.9697  0.4633 -0.5431
 7241SOL    HW233360   0.474   2.717  11.790  0.5007  1.1824 -0.5724
 7242SOL     OW33361   3.376   0.035   8.280 -0.1210  0.0901 -0.1264
 7242SOL    HW133362   3.326   0.105   8.321 -0.4037  0.4033 -1.0222
 7242SOL    HW233363   3.459   0.079   8.262  1.2405 -2.2722  0.2604
 7243SOL     OW33364   0.441   4.422   8.558  0.4481  0.3005 -0.3059
 7243SOL    HW133365   0.378   4.479   8.514 -1.0662 -1.3343 -0.2667
 7243SOL    HW233366   0.441   4.455   8.648 -0.5751 -1.2130  0.2456
 7244SOL     OW33367   4.622   0.690   5.463  0.3136  0.0675  0.6635
 7244SOL    HW133368   4.716   0.684   5.444 -0.0125 -0.1678 -0.8695
 7244SOL    HW233369   4.605   0.597   5.478  1.1868 -0.3429 -0.9518
 7245SOL     OW33370   2.113   2.285   3.435  0.4265 -0.3904 -0.3749
 7245SOL    HW133371   2.114   2.238   3.352  1.4326  1.7704 -1.5554
 7245SOL    HW233372   2.076   2.371   3.414 -2.0049 -1.1280  0.8096
 7246SOL     OW33373   3.428   2.687   4.757 -0.2822  0.7811 -0.1322
 7246SOL    HW133374   3.389   2.638   4.684 -2.9119  1.2148  0.9785
 7246SOL    HW233375   3.351   2.684   4.813 -0.8524  2.3105 -0.8187
 7247SOL     OW33376   3.232   2.189   4.837  0.0130 -0.0793  0.0299
 7247SOL    HW133377   3.144   2.214   4.865 -0.1848 -1.5186  0.6576
 7247SOL    HW233378   3.273   2.266   4.877 -0.2677  0.3854 -0.5760
 7248SOL     OW33379   4.377   3.872   4.375 -0.0257 -0.2393  0.1647
 7248SOL    HW133380   4.449   3.901   4.320 -0.2174 -0.2860 -0.1077
 7248SOL    HW233381   4.308   3.855   4.311 -1.5587 -2.4241  2.3792
 7249SOL     OW33382   2.619   1.669   8.739 -0.0925 -0.0818 -0.2612
 7249SOL    HW133383   2.524   1.658   8.747 -0.3528  1.0079 -1.9665
 7249SOL    HW233384   2.647   1.579   8.723 -0.9771 -0.4612  0.3031
 7250SOL     OW33385   1.689   2.840   3.041  0.0319  0.2510  0.2615
 7250SOL    HW133386   1.629   2.879   2.977  0.0888  0.7554  0.5119
 7250SOL    HW233387   1.756   2.815   2.978 -0.5600  2.5397 -1.2732
 7251SOL     OW33388   4.527   4.344  16.122  0.1946 -0.3119 -0.1473
 7251SOL    HW133389   4.606   4.370  16.168  0.2991  0.1470 -0.5886
 7251SOL    HW233390   4.524   4.418  16.061  0.2671  0.2417  0.5184
 7252SOL     OW33391   2.752   4.425   8.212  0.3412 -0.2408  0.3207
 7252SOL    HW133392   2.774   4.343   8.168  0.3125  0.8157 -1.6839
 7252SOL    HW233393   2.736   4.474   8.131  2.1063 -0.7629 -0.3574
 7253SOL     OW33394   3.188   0.570   6.086  0.1619 -0.3140 -0.1490
 7253SOL    HW133395   3.130   0.501   6.052  1.3710 -2.4108  2.0199
 7253SOL    HW233396   3.195   0.534   6.174  0.4856  1.5197  0.5538
 7254SOL     OW33397   2.921   1.327   7.080  0.3529 -0.3835  0.2676
 7254SOL    HW133398   2.913   1.297   7.171 -0.6182 -1.1329 -0.0554
 7254SOL    HW233399   2.973   1.253   7.048 -1.6858 -1.6252 -0.1806
 7255SOL     OW33400   2.365   2.153   9.139 -0.3708  0.2823  0.9774
 7255SOL    HW133401   2.276   2.118   9.147 -0.0522 -0.4826  1.1918
 7255SOL    HW233402   2.365   2.225   9.201  1.8810 -0.3499  1.7262
 7256SOL     OW33403   3.363   1.050  11.595  0.1393 -0.0199 -0.4322
 7256SOL    HW133404   3.332   1.103  11.521  3.1279 -1.1661 -2.5169
 7256SOL    HW233405   3.449   1.023  11.562  0.6088  1.1045 -0.1435
 7257SOL     OW33406   0.424   3.793   3.545  0.2692  0.0036  0.3554
 7257SOL    HW133407   0.451   3.834   3.463 -1.9169 -1.9400 -1.3747
 7257SOL    HW233408   0.393   3.873   3.587  1.4920 -0.3009  1.7959
 7258SOL     OW33409   0.416   3.158   6.439  0.1289  0.2650 -0.5923
 7258SOL    HW133410   0.492   3.131   6.492 -0.1603 -2.5733 -1.6269
 7258SOL    HW233411   0.404   3.084   6.380 -0.9171 -1.9238  2.3602
 7259SOL     OW33412   3.153   4.377   3.598  0.4332 -0.6021  0.1891
 7259SOL    HW133413   3.175   4.377   3.691  0.5414  0.4400  0.1672
 7259SOL    HW233414   3.236   4.344   3.563  0.5377 -1.3712  1.1846
 7260SOL     OW33415   3.091   2.713  16.864 -0.0483 -0.5170 -0.2404
 7260SOL    HW133416   3.093   2.796  16.817 -0.0241 -1.1422 -1.3643
 7260SOL    HW233417   3.079   2.655  16.788 -2.3556 -1.0820  0.5564
 7261SOL     OW33418   3.366   3.854   9.443 -0.1775 -0.2934  0.8481
 7261SOL    HW133419   3.454   3.885   9.463 -0.1360  1.1873 -1.6691
 7261SOL    HW233420   3.312   3.933   9.434 -1.0822 -1.0790 -0.6394
 7262SOL     OW33421   2.519   1.572  11.673 -0.3177 -0.5174 -0.0426
 7262SOL    HW133422   2.467   1.651  11.684  0.6468 -0.2798  2.9721
 7262SOL    HW233423   2.484   1.528  11.595  1.0339 -1.4848 -0.1148
 7263SOL     OW33424   0.418   3.315  10.793 -0.5057 -0.0737  0.2355
 7263SOL    HW133425   0.368   3.244  10.835 -0.7771 -0.8418 -1.3927
 7263SOL    HW233426   0.506   3.318  10.830 -0.0610 -0.8699 -0.7505
 7264SOL     OW33427   0.849   3.315   4.132  0.3493  0.0919  0.2796
 7264SOL    HW133428   0.899   3.236   4.152  1.5107  0.3690 -1.6103
 7264SOL    HW233429   0.765   3.269   4.131  0.6450 -0.4435 -0.1553
 7265SOL     OW33430   3.717   2.494   0.728 -0.3605 -0.1808 -0.4130
 7265SOL    HW133431   3.735   2.587   0.709  1.4685 -0.4090  0.2076
 7265SOL    HW233432   3.802   2.456   0.749  0.8821  1.7687 -1.8498
 7266SOL     OW33433   2.377   1.295   2.946 -0.0849 -0.0046 -0.2393
 7266SOL    HW133434   2.418   1.372   2.984 -0.3881  1.3024 -2.5237
 7266SOL    HW233435   2.377   1.238   3.022 -0.5264  1.1091  0.5918
 7267SOL     OW33436   1.343   1.183   7.968  0.3323  0.1828 -0.1539
 7267SOL    HW133437   1.273   1.127   8.000 -0.2369 -0.8966 -3.2288
 7267SOL    HW233438   1.415   1.134   8.007  0.5076  0.1591 -0.5077
 7268SOL     OW33439   0.573   0.588   7.209 -0.3281  0.3388 -0.7313
 7268SOL    HW133440   0.536   0.643   7.279  2.4713  0.1014  0.9148
 7268SOL    HW233441   0.651   0.630   7.175  0.3411 -0.9538 -0.7624
 7269SOL     OW33442   4.044   4.127   5.581  0.2173  0.6502  0.6609
 7269SOL    HW133443   4.130   4.159   5.555  0.8340  0.4259  2.4372
 7269SOL    HW233444   4.056   4.033   5.563  1.9924  0.8643  0.7138
 7270SOL     OW33445   0.665   2.444  14.280  0.2052  1.1218 -0.2796
 7270SOL    HW133446   0.760   2.436  14.288  0.0883 -0.2113 -0.1701
 7270SOL    HW233447   0.649   2.401  14.196  0.5024  1.0536 -0.3019
 7271SOL     OW33448   3.881   0.680   9.459 -0.0122 -0.2849 -0.2652
 7271SOL    HW133449   3.899   0.728   9.378  1.2498  1.7669  1.2304
 7271SOL    HW233450   3.955   0.620   9.470  1.2568  1.0019 -1.7037
 7272SOL     OW33451   3.992   3.590   3.576 -0.0850 -0.1675  0.3380
 7272SOL    HW133452   3.916   3.548   3.536  1.3193 -1.1274 -1.3551
 7272SOL    HW233453   4.008   3.668   3.522 -1.5822  1.2201  1.8994
 7273SOL     OW33454   3.202   3.479  17.271  0.2483  0.5157 -0.4323
 7273SOL    HW133455   3.168   3.398  17.234  0.2787 -0.0346  0.7654
 7273SOL    HW233456   3.284   3.484  17.221  0.3469  0.9089 -0.2353
 7274SOL     OW33457   3.420   0.793   7.804 -0.2606 -0.4736 -0.2449
 7274SOL    HW133458   3.449   0.810   7.894  0.1789  0.7901 -0.6184
 7274SOL    HW233459   3.327   0.815   7.808 -0.1007  0.9013 -3.5010
 7275SOL     OW33460   4.258   4.189   6.444 -0.1500 -0.1093  0.3040
 7275SOL    HW133461   4.294   4.278   6.444 -0.3533 -0.0252  0.1853
 7275SOL    HW233462   4.179   4.195   6.498 -0.6523 -0.9263 -0.3423
 7276SOL     OW33463   3.606   4.309   1.216 -0.2082  0.4204 -0.4836
 7276SOL    HW133464   3.545   4.296   1.288 -0.6705 -0.4807 -1.0441
 7276SOL    HW233465   3.574   4.396   1.193  0.8333  1.3566  1.6268
 7277SOL     OW33466   4.727   1.550   3.967 -0.1927 -0.2475 -0.1656
 7277SOL    HW133467   4.718   1.457   3.943  2.2544  0.0811 -2.4362
 7277SOL    HW233468   4.641   1.583   3.942  0.1019  0.7576  0.1601
 7278SOL     OW33469   2.069   2.622   2.783  0.3307  0.0723 -0.4265
 7278SOL    HW133470   2.056   2.536   2.743 -1.8403  0.4814 -0.5734
 7278SOL    HW233471   2.160   2.609   2.811  0.7957 -0.0844 -1.9863
 7279SOL     OW33472   3.657   1.729   4.275  0.2736 -0.3539 -0.0340
 7279SOL    HW133473   3.697   1.649   4.241  0.3181  0.3541 -1.6658
 7279SOL    HW233474   3.681   1.727   4.367 -2.0583  0.7727  0.6325
 7280SOL     OW33475   1.231   3.847   6.254  0.2166 -0.0219 -0.0060
 7280SOL    HW133476   1.207   3.757   6.234  0.4644  0.0525 -0.6084
 7280SOL    HW233477   1.201   3.890   6.174  0.0590  2.2602  1.2656
 7281SOL     OW33478   4.114   1.493   4.192  0.0080 -0.2475 -0.7624
 7281SOL    HW133479   4.091   1.410   4.150 -0.7410  0.1066 -1.0487
 7281SOL    HW233480   4.159   1.464   4.271 -0.9914 -1.2369 -0.5600
 7282SOL     OW33481   0.862   4.015  11.320 -0.3879 -0.3660  0.4085
 7282SOL    HW133482   0.819   3.972  11.246  0.4858  0.8881 -0.8064
 7282SOL    HW233483   0.916   3.946  11.359 -0.3197 -1.0293 -0.8820
 7283SOL     OW33484   3.828   0.950  11.843 -0.0143  0.3024  0.1252
 7283SOL    HW133485   3.776   0.893  11.785 -1.1077 -0.0001  1.4110
 7283SOL    HW233486   3.760   1.011  11.872 -0.0536  0.8902 -1.1547
 7284SOL     OW33487   4.584   2.378   2.244  0.6329  0.1066 -0.1696
 7284SOL    HW133488   4.642   2.454   2.234  1.5587 -0.7060 -0.8756
 7284SOL    HW233489   4.571   2.353   2.153  0.8310  3.0666 -1.0346
 7285SOL     OW33490   2.334   1.857   6.417 -0.6526 -0.8399 -0.1889
 7285SOL    HW133491   2.264   1.796   6.396 -1.3524 -0.1159  0.0320
 7285SOL    HW233492   2.286   1.927   6.461 -1.3881 -0.4884 -1.5621
 7286SOL     OW33493   1.534   2.096   4.754 -0.0373 -0.5049 -0.1938
 7286SOL    HW133494   1.553   2.002   4.750 -1.3763 -0.8784  1.8937
 7286SOL    HW233495   1.443   2.102   4.725  0.8856 -2.3737 -3.4827
 7287SOL     OW33496   2.957   2.305  12.666 -0.0713  0.0211  0.1288
 7287SOL    HW133497   2.994   2.221  12.692  2.0650  1.0022  0.2560
 7287SOL    HW233498   3.033   2.358  12.694 -1.3147  1.3749  0.9799
 7288SOL     OW33499   2.025   1.110   8.631 -0.0657  0.2070 -0.0386
 7288SOL    HW133500   1.951   1.164   8.658 -0.4962 -0.0944 -0.5985
 7288SOL    HW233501   2.082   1.186   8.623  0.1225  0.1384  0.6989
 7289SOL     OW33502   2.874   0.824   4.135 -0.4068 -0.0561 -0.1600
 7289SOL    HW133503   2.917   0.772   4.067  1.8873 -0.7430  1.8271
 7289SOL    HW233504   2.782   0.811   4.111  0.4061 -1.9332 -2.3066
 7290SOL     OW33505   0.745   1.349  17.539 -0.6219 -0.0486  0.1803
 7290SOL    HW133506   0.739   1.436  17.499  0.0460  0.1913  0.6126
 7290SOL    HW233507   0.840   1.344  17.543 -0.6768 -0.5314  0.8796
 7291SOL     OW33508   3.427   1.491   3.583  0.1620 -0.1814 -0.2777
 7291SOL    HW133509   3.501   1.430   3.585  0.7689  0.5740  0.6983
 7291SOL    HW233510   3.379   1.466   3.662  2.5296  0.3933  1.3562
 7292SOL     OW33511   3.848   1.825   3.578 -0.4114 -0.3366  0.1657
 7292SOL    HW133512   3.869   1.917   3.563 -0.3163 -0.1961  1.1564
 7292SOL    HW233513   3.797   1.831   3.658 -1.1977 -1.9331 -0.2080
 7293SOL     OW33514   2.882   0.321  13.344 -0.3785 -0.2572 -0.4577
 7293SOL    HW133515   2.797   0.276  13.338  0.3278 -1.8285  1.1331
 7293SOL    HW233516   2.873   0.388  13.277 -1.5251 -0.8653 -0.9136
 7294SOL     OW33517   4.012   1.399   3.690 -0.2340 -0.5544 -0.5622
 7294SOL    HW133518   3.965   1.317   3.677 -0.9103 -0.1110 -0.8876
 7294SOL    HW233519   4.100   1.376   3.720 -0.5698  1.4033  1.9837
 7295SOL     OW33520   0.056   3.864  12.402 -0.4769  0.1039 -0.0861
 7295SOL    HW133521   4.699   3.870  12.391 -0.0853  0.5237 -3.1913
 7295SOL    HW233522   0.091   3.946  12.436  0.4324 -0.4138  0.2210
 7296SOL     OW33523   3.154   1.014   2.652 -0.1730 -0.3649  0.0477
 7296SOL    HW133524   3.220   0.963   2.699 -1.2402 -1.0678  0.7673
 7296SOL    HW233525   3.092   1.039   2.720 -0.7143 -1.3492 -0.0761
 7297SOL     OW33526   0.006   3.568   3.767 -0.1677 -0.1389  0.8456
 7297SOL    HW133527   4.724   3.533   3.679 -2.7214 -0.9653  1.7522
 7297SOL    HW233528   4.656   3.597   3.791 -1.2628 -0.8197 -2.3387
 7298SOL     OW33529   1.167   3.531  13.747  0.3036 -0.3312 -0.2267
 7298SOL    HW133530   1.240   3.499  13.694 -1.2624 -2.6638 -0.9738
 7298SOL    HW233531   1.207   3.510  13.832 -1.5163 -1.0398  0.4540
 7299SOL     OW33532   2.233   0.179  15.267 -0.3544 -0.4463  0.2152
 7299SOL    HW133533   2.303   0.230  15.226 -0.9648 -1.1480 -1.7153
 7299SOL    HW233534   2.179   0.248  15.305  0.6606  1.3531 -1.6128
 7300SOL     OW33535   3.353   4.294   9.086  0.2317  0.3667  0.0473
 7300SOL    HW133536   3.427   4.351   9.066  0.1850 -0.7474 -3.2057
 7300SOL    HW233537   3.324   4.275   8.997 -4.3039  5.2163  0.4457
 7301SOL     OW33538   2.167   1.907   6.751 -0.0399 -0.6113  0.2211
 7301SOL    HW133539   2.087   1.943   6.712  0.3429  0.7023  0.6324
 7301SOL    HW233540   2.241   1.964   6.730 -1.3462  1.3975  0.9826
 7302SOL     OW33541   4.130   4.199  16.700 -0.0445  0.4342 -0.0884
 7302SOL    HW133542   4.068   4.177  16.770  0.2845 -1.5352 -0.4179
 7302SOL    HW233543   4.165   4.114  16.672 -0.6855  0.2896 -0.4504
 7303SOL     OW33544   0.973   2.929   0.293  0.3279  0.1948  0.6050
 7303SOL    HW133545   0.956   3.008   0.241  1.2323 -0.2377 -0.3439
 7303SOL    HW233546   0.919   2.867   0.244  0.4644  0.0770  0.6044
 7304SOL     OW33547   1.489   0.668  16.102  0.0420  0.4290  0.2579
 7304SOL    HW133548   1.449   0.583  16.123 -1.4593  0.9953 -0.3103
 7304SOL    HW233549   1.537   0.679  16.184 -0.0771  2.3535  0.0701
 7305SOL     OW33550   2.780   1.259   8.136  0.0255 -0.4464  0.0441
 7305SOL    HW133551   2.735   1.221   8.211 -0.1533 -0.8309 -0.2592
 7305SOL    HW233552   2.793   1.178   8.086 -1.1890 -0.0893 -0.8503
 7306SOL     OW33553   1.288   1.617   7.860 -0.4287  0.2275 -0.8622
 7306SOL    HW133554   1.325   1.689   7.911 -0.8843  2.3103 -3.4998
 7306SOL    HW233555   1.279   1.655   7.772  0.9048 -0.8101 -1.4544
 7307SOL     OW33556   1.585   4.377  12.901  0.0387 -0.0773  0.2784
 7307SOL    HW133557   1.647   4.323  12.852 -0.9689 -1.3055  0.3756
 7307SOL    HW233558   1.603   4.338  12.987  1.4546 -0.1403 -0.0482
 7308SOL     OW33559   4.282   2.161   5.950  0.7363 -0.8067  0.1577
 7308SOL    HW133560   4.363   2.205   5.924  1.1051 -1.5878  0.0029
 7308SOL    HW233561   4.315   2.148   6.039 -1.6744 -1.8052  0.9037
 7309SOL     OW33562   0.728   0.489  15.927  0.2481  0.1115 -0.0865
 7309SOL    HW133563   0.721   0.413  15.985 -1.5820 -0.4790 -1.0853
 7309SOL    HW233564   0.692   0.448  15.848  2.5830  2.8084 -2.5256
 7310SOL     OW33565   3.105   0.509   1.570 -0.1999  0.5187 -0.0166
 7310SOL    HW133566   3.090   0.575   1.502  1.9010  0.1722 -0.8113
 7310SOL    HW233567   3.147   0.564   1.636 -0.4247  3.6400 -2.4501
 7311SOL     OW33568   4.489   1.805  14.348 -0.2505 -0.0754 -0.6204
 7311SOL    HW133569   4.563   1.748  14.370  0.4243  2.0269  2.4286
 7311SOL    HW233570   4.426   1.768  14.409  0.5108 -0.1834  0.0976
 7312SOL     OW33571   3.756   3.667   3.160 -0.7559  0.0612  0.0268
 7312SOL    HW133572   3.697   3.608   3.113 -0.2390  0.7688 -1.5004
 7312SOL    HW233573   3.706   3.748   3.167 -1.6792 -0.5377  0.4976
 7313SOL     OW33574   1.650   0.650   6.982  0.0325 -0.1321 -1.2654
 7313SOL    HW133575   1.564   0.610   6.971 -0.3070  0.0744  0.5815
 7313SOL    HW233576   1.682   0.617   7.067  2.1514 -0.8840 -2.3578
 7314SOL     OW33577   1.600   3.906   2.247 -0.0103  0.6888  0.4039
 7314SOL    HW133578   1.689   3.872   2.256  0.1756  1.5412  1.7507
 7314SOL    HW233579   1.556   3.821   2.237  0.7954  0.5283 -1.7871
 7315SOL     OW33580   3.057   3.412   5.224  0.2041  0.6610  0.5165
 7315SOL    HW133581   3.085   3.388   5.313  1.9945  0.3920 -0.1119
 7315SOL    HW233582   3.089   3.341   5.168  1.0667  0.8872  0.7184
 7316SOL     OW33583   2.489   2.856   7.549  0.6068  0.2763  0.5552
 7316SOL    HW133584   2.560   2.878   7.609 -1.7486 -0.9833  3.8484
 7316SOL    HW233585   2.526   2.869   7.462  0.7757 -0.9798  0.4284
 7317SOL     OW33586   1.461   3.651   2.190  0.1937 -0.1405 -0.1782
 7317SOL    HW133587   1.450   3.680   2.099 -0.8697  0.7254  0.2259
 7317SOL    HW233588   1.393   3.584   2.198  1.0106 -1.1890 -1.9710
 7318SOL     OW33589   3.890   1.292  15.965 -0.0441  0.1093 -0.0774
 7318SOL    HW133590   3.872   1.234  15.890  1.1327 -1.9154  1.1861
 7318SOL    HW233591   3.952   1.353  15.925 -2.0749  1.3596 -1.3361
 7319SOL     OW33592   1.271   2.775   8.044  0.2234 -0.4485 -0.3238
 7319SOL    HW133593   1.360   2.800   8.069  0.3091  0.1998 -1.2829
 7319SOL    HW233594   1.275   2.794   7.950  1.0690  0.5977 -0.0708
 7320SOL     OW33595   1.966   1.681   1.542  0.3112  0.0895 -0.0157
 7320SOL    HW133596   1.952   1.623   1.467 -1.6396 -0.9352  1.1205
 7320SOL    HW233597   1.881   1.677   1.586  0.1354  2.2396 -0.1403
 7321SOL     OW33598   1.130   3.626   5.646  0.0215  0.1177  0.3134
 7321SOL    HW133599   1.178   3.553   5.684 -1.2068 -0.5123  0.6553
 7321SOL    HW233600   1.121   3.577   5.564 -0.1187 -1.1765  1.1032
 7322SOL     OW33601   1.792   4.211   5.366 -0.6570  0.3068 -0.1005
 7322SOL    HW133602   1.814   4.163   5.286 -0.7889  0.3203 -0.1449
 7322SOL    HW233603   1.874   4.208   5.415 -0.9158  0.6709  0.3554
 7323SOL     OW33604   2.438   3.861  13.146 -0.5150 -0.2683  0.5484
 7323SOL    HW133605   2.363   3.896  13.193  1.1339  1.9151  1.5549
 7323SOL    HW233606   2.461   3.792  13.209  0.8206 -0.4718 -0.1553
 7324SOL     OW33607   3.254   2.902   7.539 -0.3535 -0.1419 -0.6617
 7324SOL    HW133608   3.199   2.930   7.612  0.3341 -0.0782 -0.1684
 7324SOL    HW233609   3.199   2.924   7.463  0.6173 -1.8134 -1.8592
 7325SOL     OW33610   2.684   0.682  12.217 -0.1436  0.0432  0.5180
 7325SOL    HW133611   2.685   0.727  12.302  0.4495  0.8678  0.0699
 7325SOL    HW233612   2.758   0.729  12.178  0.0301 -2.2205 -1.8507
 7326SOL     OW33613   4.705   2.889  10.501  0.0114 -0.0429  0.0305
 7326SOL    HW133614   4.725   2.982  10.488  1.7557 -0.5209 -0.7356
 7326SOL    HW233615   0.057   2.857  10.498  0.4222  1.0016  0.9803
 7327SOL     OW33616   2.396   3.338   5.044 -0.0364 -0.3271  0.2245
 7327SOL    HW133617   2.380   3.429   5.017 -2.1998 -0.2498  1.7522
 7327SOL    HW233618   2.308   3.302   5.033  0.8062 -2.2798 -0.0175
 7328SOL     OW33619   3.686   3.006   7.471  0.0557 -0.1985 -0.1581
 7328SOL    HW133620   3.666   2.917   7.500  1.8559 -0.4832  0.2179
 7328SOL    HW233621   3.699   2.989   7.378 -1.1719 -0.0497 -0.3586
 7329SOL     OW33622   3.893   2.415   8.200 -0.8910 -0.2700 -0.6956
 7329SOL    HW133623   3.916   2.323   8.186  2.3358  0.7005 -1.6467
 7329SOL    HW233624   3.981   2.449   8.214  0.3313 -2.5871 -2.7727
 7330SOL     OW33625   1.430   2.033  12.963 -0.7087 -0.2147  0.6793
 7330SOL    HW133626   1.453   2.112  12.914 -0.7379  1.1294  2.7923
 7330SOL    HW233627   1.360   2.068  13.018 -0.0196  2.5503 -0.1779
 7331SOL     OW33628   0.929   0.219   8.871 -0.1989 -0.1736 -0.6029
 7331SOL    HW133629   0.838   0.228   8.899  0.1579 -1.5090  0.9633
 7331SOL    HW233630   0.952   0.311   8.865 -1.1992  0.1122 -0.1409
 7332SOL     OW33631   1.936   2.849   4.159  0.5114 -0.0772 -0.3241
 7332SOL    HW133632   1.916   2.802   4.239 -1.4761  1.1984 -0.0628
 7332SOL    HW233633   1.935   2.933   4.204  1.5034  0.0263 -0.4995
 7333SOL     OW33634   0.567   4.293  11.739  0.4917 -0.5343  0.3605
 7333SOL    HW133635   0.507   4.317  11.668  1.6107 -1.2700 -0.8325
 7333SOL    HW233636   0.619   4.220  11.705 -0.3077 -0.9005 -0.0967
 7334SOL     OW33637   4.547   0.188   1.382  0.6793 -0.1189  0.2494
 7334SOL    HW133638   4.484   0.258   1.398 -0.2220 -0.7924 -0.3746
 7334SOL    HW233639   4.607   0.199   1.456  0.0549  0.5620  0.6564
 7335SOL     OW33640   0.723   2.377  10.943 -0.4258 -0.3205 -0.3627
 7335SOL    HW133641   0.740   2.318  10.869  0.1327 -0.3321 -0.2241
 7335SOL    HW233642   0.802   2.365  10.996  1.3726  1.0735 -2.7753
 7336SOL     OW33643   1.724   3.279   6.812  0.6789  0.1542 -0.6742
 7336SOL    HW133644   1.640   3.233   6.802 -0.6168  1.3767  4.6382
 7336SOL    HW233645   1.794   3.242   6.759 -0.1600  0.1792 -1.8144
 7337SOL     OW33646   3.030   1.881   6.153 -0.0304 -1.2925  0.5193
 7337SOL    HW133647   3.096   1.816   6.132  0.9932 -0.3748  0.9059
 7337SOL    HW233648   2.970   1.841   6.217 -2.2005  2.8150  1.1003
 7338SOL     OW33649   0.719   4.110   8.678 -0.2763  0.3741 -0.3481
 7338SOL    HW133650   0.704   4.204   8.684  1.1013  0.5670  0.0374
 7338SOL    HW233651   0.813   4.111   8.666 -0.2272 -0.1154  0.0113
 7339SOL     OW33652   2.917   0.491   7.360  0.2912  0.0149 -0.7915
 7339SOL    HW133653   2.916   0.413   7.305 -0.3015 -0.5737  0.0674
 7339SOL    HW233654   2.875   0.452   7.436  0.8907 -0.2433 -0.5861
 7340SOL     OW33655   1.524   2.596   2.540 -0.8338  0.4947 -0.8641
 7340SOL    HW133656   1.559   2.631   2.622  0.1131 -0.4020 -0.8744
 7340SOL    HW233657   1.472   2.520   2.566 -1.3392  0.8218 -0.9376
 7341SOL     OW33658   3.948   2.329   4.129 -0.1901  0.5334  0.1345
 7341SOL    HW133659   4.016   2.306   4.065  1.7525  1.7384  1.7417
 7341SOL    HW233660   3.870   2.297   4.085 -0.4270  1.6634 -0.2608
 7342SOL     OW33661   3.615   1.457   7.178  0.0370  0.5914 -0.0342
 7342SOL    HW133662   3.690   1.456   7.238 -0.8729 -0.5386  1.0807
 7342SOL    HW233663   3.561   1.386   7.213  0.0301 -0.4233 -2.1061
 7343SOL     OW33664   0.183   2.406   0.488 -0.2569 -0.5000  0.2138
 7343SOL    HW133665   0.259   2.449   0.527 -0.5236 -0.3471  0.5561
 7343SOL    HW233666   0.226   2.326   0.457  0.4943 -1.0184  2.5893
 7344SOL     OW33667   4.591   1.675   2.053  0.1191  0.0633  0.2416
 7344SOL    HW133668   4.579   1.682   1.958 -1.0941  0.6235  0.4360
 7344SOL    HW233669   4.553   1.758   2.080  0.2520  0.1419  0.1834
 7345SOL     OW33670   1.684   4.631   4.127  0.2674 -0.4434 -0.1649
 7345SOL    HW133671   1.678   4.553   4.073 -1.2994  0.4462 -1.2776
 7345SOL    HW233672   1.628   4.608   4.201 -1.5794 -2.0855 -2.1149
 7346SOL     OW33673   3.638   1.785   3.742  0.0171  0.4388 -0.7582
 7346SOL    HW133674   3.650   1.691   3.747 -0.0620  0.6680  3.9350
 7346SOL    HW233675   3.570   1.791   3.674  1.4595 -3.0933 -2.4788
 7347SOL     OW33676   1.921   3.494   8.280  0.7900  0.2772  0.0115
 7347SOL    HW133677   1.939   3.407   8.316 -0.5216  0.8823  2.1278
 7347SOL    HW233678   1.950   3.497   8.189 -1.6778 -2.2214 -0.8475
 7348SOL     OW33679   4.532   3.611  12.755  0.2007 -0.4609 -0.0594
 7348SOL    HW133680   4.498   3.609  12.845  0.4106 -2.0722 -0.0203
 7348SOL    HW233681   4.464   3.605  12.688  0.3861  1.3189 -0.4076
 7349SOL     OW33682   0.697   1.508   1.341  0.4508 -0.5062  0.1099
 7349SOL    HW133683   0.662   1.595   1.323 -1.0761 -0.9559  0.8767
 7349SOL    HW233684   0.768   1.515   1.278 -0.0530 -0.0306 -0.4013
 7350SOL     OW33685   3.001   3.780   5.903 -0.0899  0.0746 -0.3548
 7350SOL    HW133686   2.972   3.823   5.983 -0.0905 -2.2334  0.8776
 7350SOL    HW233687   2.927   3.723   5.880 -1.7308  1.8894  0.4448
 7351SOL     OW33688   3.440   3.060  15.077  0.4830  0.0099 -0.1489
 7351SOL    HW133689   3.384   3.031  15.149  1.3527 -0.1454  0.4590
 7351SOL    HW233690   3.441   2.989  15.013 -0.5046  2.0639 -2.4597
 7352SOL     OW33691   2.259   4.612   2.251  0.1525  0.1754 -0.2272
 7352SOL    HW133692   2.325   4.656   2.196 -1.9254  2.7406 -0.6409
 7352SOL    HW233693   2.196   4.581   2.186  2.4338 -0.4944 -2.1377
 7353SOL     OW33694   0.973   0.854   2.535 -0.2212  0.3978 -0.3140
 7353SOL    HW133695   0.981   0.933   2.481  1.1342 -0.5769 -1.5403
 7353SOL    HW233696   0.968   0.893   2.622  1.0909 -2.1951  0.9220
 7354SOL     OW33697   0.394   4.210   3.114 -0.2445 -0.2509 -0.1337
 7354SOL    HW133698   0.304   4.194   3.142 -0.2670 -1.7391 -1.0579
 7354SOL    HW233699   0.390   4.303   3.091  0.1557  0.4239  2.4995
 7355SOL     OW33700   2.105   4.539   2.501 -0.4257  0.3623  0.3271
 7355SOL    HW133701   2.079   4.555   2.411 -1.7846  0.0524  0.6604
 7355SOL    HW233702   2.018   4.540   2.542  0.9042 -1.6706  3.2047
 7356SOL     OW33703   0.543   2.984  10.428 -0.1171 -0.0566  0.4737
 7356SOL    HW133704   0.549   3.057  10.490 -0.5971 -0.1380  0.6135
 7356SOL    HW233705   0.448   2.986  10.418  0.1307  2.2199 -1.3535
 7357SOL     OW33706   3.592   3.425   2.110  0.3738 -0.8128  0.2046
 7357SOL    HW133707   3.558   3.497   2.162  2.6618  1.4674 -1.5046
 7357SOL    HW233708   3.529   3.435   2.039 -0.9714 -1.3968  1.3237
 7358SOL     OW33709   0.379   1.229  11.632 -0.2869 -0.0147  0.5968
 7358SOL    HW133710   0.363   1.146  11.676 -2.2440  1.5398  2.8165
 7358SOL    HW233711   0.393   1.286  11.708 -2.1778  2.1095 -0.6317
 7359SOL     OW33712   3.829   0.118   5.546 -0.2974  0.1183  0.6725
 7359SOL    HW133713   3.922   0.131   5.528 -0.2474 -1.6137 -0.3028
 7359SOL    HW233714   3.781   0.103   5.465 -0.2182 -1.5278  0.9396
 7360SOL     OW33715   4.050   1.775  16.949  0.7102 -0.1347  0.8909
 7360SOL    HW133716   4.088   1.718  16.881  0.0581  0.0561  0.3682
 7360SOL    HW233717   4.032   1.850  16.893  0.3022 -0.7196  0.2318
 7361SOL     OW33718   2.925   0.473  11.234  0.4015 -0.2265  0.1724
 7361SOL    HW133719   2.984   0.443  11.165  2.8919 -1.2167  2.6948
 7361SOL    HW233720   2.934   0.568  11.235  0.3545 -0.2043 -1.2113
 7362SOL     OW33721   1.385   0.825   5.883  0.3363  0.7255  0.0732
 7362SOL    HW133722   1.293   0.814   5.906  0.1693 -0.0100 -0.9210
 7362SOL    HW233723   1.365   0.848   5.792  1.3008  1.4173  0.0383
 7363SOL     OW33724   0.838   3.001   7.283  0.5649 -0.3211 -0.2391
 7363SOL    HW133725   0.863   2.941   7.353 -0.0644 -0.0710  0.2012
 7363SOL    HW233726   0.853   2.944   7.208  3.3397 -0.0951  0.1406
 7364SOL     OW33727   4.275   4.575   2.922  0.3715 -0.4194 -0.0710
 7364SOL    HW133728   4.194   4.623   2.939  0.3442 -0.2971 -0.5475
 7364SOL    HW233729   4.329   4.653   2.916  1.1798 -0.9917 -0.1843
 7365SOL     OW33730   3.375   3.884   8.921 -0.3201 -0.0903 -0.2552
 7365SOL    HW133731   3.459   3.930   8.906  0.6687 -1.7407  0.2712
 7365SOL    HW233732   3.372   3.875   9.016 -2.2630  1.0498 -0.2219
 7366SOL     OW33733   3.003   3.997   8.386 -0.0016  0.3441  0.6207
 7366SOL    HW133734   2.923   3.951   8.358 -0.2134  0.6211  0.7684
 7366SOL    HW233735   2.968   4.082   8.414 -0.2369  0.5850 -0.4011
 7367SOL     OW33736   0.983   2.846   7.087 -0.3735  0.0565 -0.0959
 7367SOL    HW133737   1.050   2.889   7.033  0.7180  1.3908  2.3468
 7367SOL    HW233738   1.008   2.754   7.078  0.0050  0.0922  0.5700
 7368SOL     OW33739   4.672   4.025   1.060 -0.5440  0.2939  0.3495
 7368SOL    HW133740   4.708   3.945   1.023  1.1964  1.0688  0.3483
 7368SOL    HW233741   4.640   4.081   0.989 -0.3761  0.1037  0.1241
 7369SOL     OW33742   1.295   0.738   7.145  0.0940 -0.2770 -0.2571
 7369SOL    HW133743   1.238   0.700   7.079 -0.8563  3.0001 -1.3428
 7369SOL    HW233744   1.277   0.678   7.217  3.6268 -0.0765  0.7941
 7370SOL     OW33745   2.519   3.201   7.747 -0.1941  0.2707  0.6665
 7370SOL    HW133746   2.466   3.176   7.671  2.0760 -0.4663 -0.6875
 7370SOL    HW233747   2.447   3.197   7.809 -1.9632 -0.4894 -1.4231
 7371SOL     OW33748   1.343   4.003   5.813 -0.2454  0.3967  0.1083
 7371SOL    HW133749   1.373   4.040   5.730 -1.6860 -0.2962 -0.7058
 7371SOL    HW233750   1.252   3.980   5.796  0.0202 -1.4274  1.1173
 7372SOL     OW33751   2.999   2.898   9.069 -0.0520  0.4993 -0.0233
 7372SOL    HW133752   3.024   2.856   8.987 -0.8023 -0.1910  0.1069
 7372SOL    HW233753   3.044   2.982   9.056 -1.7961  1.1394 -2.0804
 7373SOL     OW33754   0.761   2.790   2.804 -0.2767 -0.5074  0.3546
 7373SOL    HW133755   0.709   2.869   2.787 -2.3007 -1.6806  1.0435
 7373SOL    HW233756   0.694   2.742   2.853 -0.2720 -1.5435 -0.6376
 7374SOL     OW33757   1.374   1.977   9.427  0.7729 -0.5185  0.5356
 7374SOL    HW133758   1.391   2.024   9.345 -1.2103 -0.8741 -0.0697
 7374SOL    HW233759   1.418   2.032   9.491  1.1409  0.8715 -0.8929
 7375SOL     OW33760   3.256   3.125   8.835 -0.3906  0.4808  0.4517
 7375SOL    HW133761   3.266   3.179   8.914 -3.1821  0.6490  0.6707
 7375SOL    HW233762   3.269   3.042   8.881  0.0374 -0.4535 -1.3546
 7376SOL     OW33763   0.275   1.867   8.363  0.1294  0.4156  0.0900
 7376SOL    HW133764   0.292   1.940   8.304 -0.6708  0.5912  0.0786
 7376SOL    HW233765   0.356   1.818   8.374 -1.0397 -1.5430  0.1319
 7377SOL     OW33766   2.513   4.484   8.011 -0.2173  0.2766  0.1347
 7377SOL    HW133767   2.587   4.437   7.974  1.0676  3.3196 -1.2053
 7377SOL    HW233768   2.462   4.412   8.049 -1.0183  1.1415  0.7041
 7378SOL     OW33769   2.689   0.653   8.209 -0.2869 -0.3062  0.1044
 7378SOL    HW133770   2.671   0.658   8.115  0.7713  0.2728 -0.0699
 7378SOL    HW233771   2.602   0.669   8.245 -1.2426  0.3481 -2.5090
 7379SOL     OW33772   0.527   3.380   6.231  0.4902 -0.1088 -0.5747
 7379SOL    HW133773   0.444   3.340   6.257  1.0935 -0.9364  0.0744
 7379SOL    HW233774   0.587   3.306   6.238 -1.0229 -1.4342 -1.5122
 7380SOL     OW33775   1.529   4.217   0.387  0.2261  0.0724 -0.0113
 7380SOL    HW133776   1.609   4.177   0.354 -0.1724 -1.5502  0.9673
 7380SOL    HW233777   1.455   4.167   0.352  0.2495 -0.5232  0.7906
 7381SOL     OW33778   1.677   1.585  11.327  0.0608 -0.1439 -0.4960
 7381SOL    HW133779   1.693   1.522  11.397 -1.4294  0.6807  0.5876
 7381SOL    HW233780   1.646   1.655  11.384  0.9706 -0.3507  0.2575
 7382SOL     OW33781   4.333   0.459   5.918  0.3183  0.0252  0.1978
 7382SOL    HW133782   4.422   0.494   5.930  0.4924 -0.3853  0.1066
 7382SOL    HW233783   4.338   0.391   5.984  0.0759 -0.1842 -0.0009
 7383SOL     OW33784   3.026   1.486   6.866  0.5170 -0.4020 -0.3237
 7383SOL    HW133785   3.018   1.399   6.827  0.5574  0.0840 -1.4231
 7383SOL    HW233786   2.973   1.470   6.944 -0.3512 -0.0689 -0.8529
 7384SOL     OW33787   0.722   2.105  13.383  0.2110 -0.4508  0.2722
 7384SOL    HW133788   0.647   2.052  13.410 -0.4822 -0.0250 -0.8136
 7384SOL    HW233789   0.680   2.150  13.309 -3.1725 -0.7561  2.0040
 7385SOL     OW33790   4.078   0.050  17.124  0.0224 -0.4080 -0.3252
 7385SOL    HW133791   4.054   0.065  17.215  0.5900  1.8613 -0.5681
 7385SOL    HW233792   4.018   0.114  17.085  0.6865 -0.3075 -1.1911
 7386SOL     OW33793   4.726   1.876   4.768  0.1923 -0.2172  0.3259
 7386SOL    HW133794   0.071   1.893   4.722  0.2725  1.9936  1.3016
 7386SOL    HW233795   0.007   1.892   4.860 -0.9780 -0.0231  0.5262
 7387SOL     OW33796   2.270   0.647   4.692  0.2817  0.2207 -0.4388
 7387SOL    HW133797   2.355   0.619   4.657 -0.4673  1.3571 -3.0972
 7387SOL    HW233798   2.252   0.575   4.753  0.5282  0.1824 -0.4114
 7388SOL     OW33799   4.392   3.386   4.138 -0.2078  0.1137  0.3731
 7388SOL    HW133800   4.483   3.359   4.145  0.2213  1.1660 -1.1517
 7388SOL    HW233801   4.389   3.385   4.043  1.5569  1.2548  0.3095
 7389SOL     OW33802   3.661   2.040   1.577  0.6176  0.3035  0.5409
 7389SOL    HW133803   3.692   1.953   1.552  1.7933 -0.1079  3.3674
 7389SOL    HW233804   3.729   2.065   1.640 -1.3534  1.9245  2.0094
 7390SOL     OW33805   2.645   2.273   1.766  0.7019  0.1809 -0.5675
 7390SOL    HW133806   2.675   2.323   1.842 -0.9529 -3.1299  2.2307
 7390SOL    HW233807   2.725   2.222   1.753  0.2873 -1.5260  3.5943
 7391SOL     OW33808   1.831   1.288   9.655  0.2642  0.3250 -0.0401
 7391SOL    HW133809   1.839   1.197   9.626  2.3217  0.4257  0.2165
 7391SOL    HW233810   1.818   1.284   9.750  0.9676 -1.7794 -0.0386
 7392SOL     OW33811   4.726   3.217  12.353 -0.0852 -0.0636  0.0553
 7392SOL    HW133812   4.678   3.218  12.270  0.9288  1.3911 -0.5020
 7392SOL    HW233813   4.687   3.298  12.386  1.4304  1.7743 -2.6943
 7393SOL     OW33814   1.862   2.341   2.040 -0.8680 -0.4193  0.3432
 7393SOL    HW133815   1.808   2.393   2.100  1.9137 -0.3225  2.7174
 7393SOL    HW233816   1.808   2.352   1.962  0.5842  0.9349 -0.4657
 7394SOL     OW33817   3.752   0.995   9.061  0.0687 -0.1028  0.9106
 7394SOL    HW133818   3.679   0.940   9.031  0.2802  0.6968 -1.0410
 7394SOL    HW233819   3.730   1.078   9.019 -0.5031 -0.9252 -0.3903
 7395SOL     OW33820   4.628   2.144  17.502 -0.8608 -0.3403  0.2504
 7395SOL    HW133821   4.619   2.088  17.426 -1.9487 -0.3475  0.3902
 7395SOL    HW233822   4.630   2.076  17.569  0.6175 -0.5764 -0.0275
 7396SOL     OW33823   3.024   1.556   0.467 -0.5569  0.4974  0.5606
 7396SOL    HW133824   3.049   1.507   0.545  0.5881  0.7577  0.3580
 7396SOL    HW233825   2.936   1.523   0.452 -0.1966  0.2869 -1.0728
 7397SOL     OW33826   1.237   1.853   6.573 -0.0836 -0.2576  0.2644
 7397SOL    HW133827   1.291   1.793   6.623 -1.6094 -0.8810  1.1702
 7397SOL    HW233828   1.257   1.826   6.483 -2.5094 -0.3222 -0.2581
 7398SOL     OW33829   3.787   4.484   5.386  0.3830  0.6036  0.1646
 7398SOL    HW133830   3.701   4.442   5.392  1.0049 -0.7669 -0.4171
 7398SOL    HW233831   3.824   4.421   5.324  0.7491  0.0300  0.9660
 7399SOL     OW33832   3.403   1.713   5.253  0.0963 -0.1805  0.4333
 7399SOL    HW133833   3.453   1.638   5.283  1.6166  0.0649 -1.4435
 7399SOL    HW233834   3.402   1.760   5.336 -0.0013 -1.9779  1.4348
 7400SOL     OW33835   0.013   1.886   3.875 -0.8305 -0.4097  1.0751
 7400SOL    HW133836   4.706   1.844   3.947 -1.7778  0.7064  1.1268
 7400SOL    HW233837   4.722   1.827   3.805  2.7875 -1.0167  0.0801
 7401SOL     OW33838   4.243   2.575   3.432  0.1671 -0.1733 -0.1319
 7401SOL    HW133839   4.182   2.600   3.501  0.0338 -0.6247 -0.0901
 7401SOL    HW233840   4.215   2.629   3.358 -1.4192 -0.3098  0.3890
 7402SOL     OW33841   3.948   3.219  15.074 -0.0546  0.2303 -0.8197
 7402SOL    HW133842   3.960   3.309  15.043  1.6382  0.3391  0.1447
 7402SOL    HW233843   3.857   3.215  15.044 -1.1139  0.7329  2.3282
 7403SOL     OW33844   2.784   0.828   3.195 -0.5355 -0.2242  0.4007
 7403SOL    HW133845   2.712   0.877   3.155 -1.4442 -1.6819  0.2551
 7403SOL    HW233846   2.770   0.824   3.290  1.1049  0.2231  0.6584
 7404SOL     OW33847   1.449   2.069   0.117 -0.2019  0.3329 -0.0468
 7404SOL    HW133848   1.427   2.159   0.093 -0.8467  0.3804  0.7347
 7404SOL    HW233849   1.509   2.043   0.047 -1.5649  0.6441 -1.3370
 7405SOL     OW33850   1.084   0.325  12.937  0.3253 -0.3317 -0.1210
 7405SOL    HW133851   1.178   0.321  12.954  0.6456 -0.5735 -1.9933
 7405SOL    HW233852   1.062   0.232  12.947 -1.8080  0.2640  0.7962
 7406SOL     OW33853   3.427   3.039   6.054 -0.6226  0.0171 -0.0217
 7406SOL    HW133854   3.339   3.072   6.073 -0.0730  0.5155  1.7058
 7406SOL    HW233855   3.464   3.109   6.000 -2.1010  1.7312  1.1699
 7407SOL     OW33856   2.570   3.490   6.846  0.1607 -0.1002  0.2286
 7407SOL    HW133857   2.661   3.509   6.869  0.5311 -2.3061  0.5798
 7407SOL    HW233858   2.552   3.558   6.780 -2.7932 -1.3300 -0.2264
 7408SOL     OW33859   0.658   1.420  11.767  0.0775  0.2733  0.3631
 7408SOL    HW133860   0.737   1.401  11.817 -0.3634 -1.7365  0.2963
 7408SOL    HW233861   0.690   1.495  11.716 -0.4548  1.5045  1.8160
 7409SOL     OW33862   2.055   4.668   4.030 -0.1991  0.3839 -0.4343
 7409SOL    HW133863   1.977   4.715   4.000 -0.8060 -1.8283 -2.2404
 7409SOL    HW233864   2.119   4.680   3.960 -0.6726 -0.6502 -1.0400
 7410SOL     OW33865   4.103   2.051   3.215  0.7505  0.2901 -0.6608
 7410SOL    HW133866   4.093   2.080   3.306 -0.2810  0.9347 -0.9834
 7410SOL    HW233867   4.167   2.115   3.185 -0.4268  0.3344 -3.0562
 7411SOL     OW33868   1.466   3.715   6.928 -0.1777 -0.0774  0.0753
 7411SOL    HW133869   1.497   3.797   6.890 -1.4713  0.0975 -0.6130
 7411SOL    HW233870   1.448   3.665   6.848  0.3288  0.2695 -0.2544
 7412SOL     OW33871   3.675   0.891   2.428  0.0614  0.2556 -0.1395
 7412SOL    HW133872   3.587   0.854   2.430  0.8301 -1.6151 -0.2094
 7412SOL    HW233873   3.701   0.874   2.519 -0.4939  1.0920  0.1709
 7413SOL     OW33874   1.667   0.491  10.399 -0.2419 -0.3354 -0.8715
 7413SOL    HW133875   1.658   0.412  10.452 -0.1701 -0.0628 -0.4560
 7413SOL    HW233876   1.574   0.510  10.384 -0.4592 -0.3683  0.4949
 7414SOL     OW33877   1.021   3.616   4.377 -0.0087  0.1437  0.4305
 7414SOL    HW133878   1.102   3.566   4.364  1.9974  3.6085 -0.4468
 7414SOL    HW233879   1.038   3.707   4.354  0.9572  0.2719  1.6864
 7415SOL     OW33880   0.422   2.727   4.253 -0.6439 -0.0104  0.0412
 7415SOL    HW133881   0.353   2.691   4.197 -0.6812  0.3638 -0.1494
 7415SOL    HW233882   0.382   2.787   4.316 -0.9514  1.2906 -1.4046
 7416SOL     OW33883   1.264   3.756   1.717 -0.7947 -0.0002  0.1897
 7416SOL    HW133884   1.224   3.706   1.646 -0.3245 -1.0499  0.6631
 7416SOL    HW233885   1.282   3.842   1.679 -1.2564 -0.6326 -1.4756
 7417SOL     OW33886   1.539   3.269   5.892  0.4616 -1.0664 -0.4069
 7417SOL    HW133887   1.493   3.188   5.870 -3.3469  0.5751  1.5706
 7417SOL    HW233888   1.632   3.246   5.892  1.0109  1.1241  0.4588
 7418SOL     OW33889   0.699   4.080  11.688  0.1368  0.2376  0.6319
 7418SOL    HW133890   0.760   4.076  11.762  1.0434  2.4348 -0.0042
 7418SOL    HW233891   0.640   4.005  11.696  2.1603 -1.4628 -0.5397
 7419SOL     OW33892   3.242   2.794   9.589  0.0907 -0.3736  0.6187
 7419SOL    HW133893   3.298   2.865   9.557 -2.7299  2.6292  2.3971
 7419SOL    HW233894   3.207   2.826   9.672  1.4337  0.7853  0.7458
 7420SOL     OW33895   2.061   4.520   2.843 -0.4565  0.3289  0.1181
 7420SOL    HW133896   2.153   4.510   2.818 -1.1574 -1.2748 -1.7935
 7420SOL    HW233897   2.010   4.524   2.762  0.8907  0.9213 -0.6920
 7421SOL     OW33898   3.874   3.103   9.373  0.1138 -0.5687  0.0939
 7421SOL    HW133899   3.841   3.072   9.288  1.8807  1.6628 -1.3893
 7421SOL    HW233900   3.964   3.128   9.352  0.5561 -2.4144 -0.2128
 7422SOL     OW33901   4.287   3.630   1.218 -0.5796 -0.2187 -0.4401
 7422SOL    HW133902   4.303   3.548   1.264  1.9773 -0.1109 -1.1555
 7422SOL    HW233903   4.237   3.665   1.292  1.0257 -0.3384  0.6923
 7423SOL     OW33904   2.935   1.167  10.181  0.5419 -0.0895 -0.0848
 7423SOL    HW133905   2.868   1.196  10.243  0.6654  1.5607 -0.7254
 7423SOL    HW233906   3.008   1.179  10.243 -0.1126 -3.4872  1.3491
 7424SOL     OW33907   1.537   1.020   8.076 -0.2770 -0.1912  0.4855
 7424SOL    HW133908   1.583   1.103   8.067 -0.1523  0.0316  3.1565
 7424SOL    HW233909   1.602   0.950   8.065  0.3323  0.2289  1.4696
 7425SOL     OW33910   1.431   4.699   3.433  0.0195  0.0292  0.2034
 7425SOL    HW133911   1.384   4.616   3.429 -0.8613  0.5348  0.2041
 7425SOL    HW233912   1.385   0.004   3.505 -3.5524  0.7518 -2.5109
 7426SOL     OW33913   3.450   4.231   5.203  0.2687  0.2349  0.0496
 7426SOL    HW133914   3.498   4.240   5.120 -1.6289  1.3518 -0.9400
 7426SOL    HW233915   3.393   4.161   5.171 -1.4465  0.5288  2.4403
 7427SOL     OW33916   3.329   1.403   0.759 -0.3768 -0.1507  0.0964
 7427SOL    HW133917   3.382   1.471   0.718  1.4648 -0.9368  1.1393
 7427SOL    HW233918   3.381   1.334   0.716  0.1552  0.0302  0.4458
 7428SOL     OW33919   4.607   2.788  10.738 -0.3562 -0.1432  0.6855
 7428SOL    HW133920   4.633   2.822  10.652 -1.0528 -0.5906  0.2999
 7428SOL    HW233921   4.514   2.771  10.728 -0.8550  2.4322  0.9222
 7429SOL     OW33922   3.138   4.116   6.717  0.0203  0.5792 -0.0375
 7429SOL    HW133923   3.073   4.049   6.737 -1.2190  1.9978  0.5861
 7429SOL    HW233924   3.077   4.178   6.677 -1.7558 -0.3484  1.2555
 7430SOL     OW33925   2.833   4.551  10.626 -0.4234 -0.3421  0.7952
 7430SOL    HW133926   2.837   4.455  10.624  0.2239 -0.2684 -1.1081
 7430SOL    HW233927   2.744   4.552  10.591  0.6760  2.0698 -1.8902
 7431SOL     OW33928   0.841   4.621   2.345  0.1018 -0.1203 -0.7882
 7431SOL    HW133929   0.868   4.623   2.253  1.7029 -0.1790 -0.3151
 7431SOL    HW233930   0.921   4.653   2.387 -0.2789  0.0730 -0.2116
 7432SOL     OW33931   1.128   1.902   9.415 -0.5952 -0.8379 -0.0276
 7432SOL    HW133932   1.099   1.907   9.324 -3.1302 -1.6471  0.7358
 7432SOL    HW233933   1.218   1.934   9.413 -0.9685  0.2241  0.2605
 7433SOL     OW33934   0.376   1.150   7.187  0.3294  0.3047  0.0632
 7433SOL    HW133935   0.364   1.092   7.113 -0.2206  1.4033 -0.7055
 7433SOL    HW233936   0.387   1.231   7.138  1.9878  0.2971  0.4307
 7434SOL     OW33937   4.717   1.079  15.790  0.1591 -0.2229  0.5479
 7434SOL    HW133938   0.070   1.050  15.778  0.4066  0.8096 -0.1035
 7434SOL    HW233939   4.724   1.148  15.856 -2.0155  1.4929 -1.0088
 7435SOL     OW33940   3.293   2.520   5.990 -0.4405  0.0585  0.2179
 7435SOL    HW133941   3.207   2.526   5.949 -0.4931  1.6624  0.5659
 7435SOL    HW233942   3.278   2.442   6.043 -2.7338  1.0943  1.0680
 7436SOL     OW33943   4.645   3.747  11.452  0.0546 -0.1941 -0.1040
 7436SOL    HW133944   4.738   3.738  11.430  0.3053 -0.5390  1.0566
 7436SOL    HW233945   4.659   3.750  11.547  0.9688 -1.1038 -0.2122
 7437SOL     OW33946   1.651   3.996   5.229 -0.0252  0.4435  0.3671
 7437SOL    HW133947   1.669   3.966   5.318  0.5610  0.1869  0.1662
 7437SOL    HW233948   1.734   3.962   5.193 -1.0006 -2.3312  0.7341
 7438SOL     OW33949   0.422   4.151   9.281 -0.2908  0.0624  0.2799
 7438SOL    HW133950   0.437   4.063   9.316 -0.9025 -1.1993 -2.5999
 7438SOL    HW233951   0.464   4.205   9.348 -1.4899 -1.4022  2.2224
 7439SOL     OW33952   1.101   1.359  16.831  0.4291  0.4128 -0.8923
 7439SOL    HW133953   1.085   1.453  16.834 -1.0101  0.0698  2.2126
 7439SOL    HW233954   1.118   1.340  16.923  0.4515 -1.0169 -1.1984
 7440SOL     OW33955   1.377   1.898  14.485 -0.0970  0.5093  0.0697
 7440SOL    HW133956   1.438   1.871  14.554  0.0529  0.7914  0.0495
 7440SOL    HW233957   1.413   1.987  14.480  0.1378  0.5311  1.9948
 7441SOL     OW33958   1.850   3.159  14.745 -0.3807 -0.3549  0.0964
 7441SOL    HW133959   1.832   3.178  14.653 -0.1742 -0.5007  0.0267
 7441SOL    HW233960   1.889   3.236  14.786 -0.7110 -0.2167  0.1587
 7442SOL     OW33961   3.225   3.284   7.568 -0.2751 -0.4561  0.1305
 7442SOL    HW133962   3.299   3.246   7.522 -0.8367 -1.8237  0.3459
 7442SOL    HW233963   3.268   3.300   7.652  1.1123  1.2741 -0.9152
 7443SOL     OW33964   1.679   0.195  17.689  1.0612  0.1801  0.2381
 7443SOL    HW133965   1.711   0.115  17.730  0.7088  0.4416  1.0150
 7443SOL    HW233966   1.653   0.243   0.017  0.1306 -2.1005  1.3102
 7444SOL     OW33967   3.969   4.643   2.338 -0.1780  0.5017 -0.3251
 7444SOL    HW133968   3.930   4.662   2.423  0.9202 -3.4742  1.0926
 7444SOL    HW233969   3.900   4.675   2.281  0.6154  0.5555 -1.2635
 7445SOL     OW33970   3.675   1.981  11.540 -0.2930 -0.0055  0.0591
 7445SOL    HW133971   3.770   1.969  11.536 -0.3444 -0.1938 -0.5940
 7445SOL    HW233972   3.672   2.064  11.588 -1.8454 -0.5230  0.8753
 7446SOL     OW33973   4.041   2.689   5.788  0.2260 -0.4129  0.3351
 7446SOL    HW133974   4.010   2.605   5.821  1.2905 -1.3677 -1.1114
 7446SOL    HW233975   4.005   2.744   5.858 -2.6699  0.8097 -2.0726
 7447SOL     OW33976   3.268   4.110   3.119  0.5586  0.2619  0.1787
 7447SOL    HW133977   3.202   4.166   3.079  0.7897 -0.5641 -1.3825
 7447SOL    HW233978   3.346   4.163   3.100  0.8799 -0.0655  0.5779
 7448SOL     OW33979   3.632   1.471   8.829 -0.6244 -0.1799 -0.5346
 7448SOL    HW133980   3.564   1.529   8.864 -2.4132 -2.0368 -0.9840
 7448SOL    HW233981   3.581   1.422   8.765 -1.2613 -1.3350  0.8618
 7449SOL     OW33982   1.729   3.623   1.326 -0.3113  0.5406  0.2413
 7449SOL    HW133983   1.789   3.679   1.276  0.9677 -2.0322 -1.0707
 7449SOL    HW233984   1.751   3.538   1.288 -1.4307  0.2089  0.3207
 7450SOL     OW33985   1.115   1.782   4.494  0.5041 -0.1430 -0.6786
 7450SOL    HW133986   1.039   1.752   4.544  1.8176 -2.5232 -0.1265
 7450SOL    HW233987   1.156   1.695   4.491  3.0977  0.9853  1.8780
 7451SOL     OW33988   2.173   3.509  13.612 -0.0104  0.0285 -0.1563
 7451SOL    HW133989   2.223   3.591  13.617  0.0686  0.0733 -1.7501
 7451SOL    HW233990   2.100   3.550  13.567 -0.4237 -0.1524  0.3555
 7452SOL     OW33991   2.271   0.728   8.921 -0.4520  0.0271 -0.0001
 7452SOL    HW133992   2.310   0.760   9.002 -2.3367 -0.1440  0.9859
 7452SOL    HW233993   2.306   0.794   8.860 -1.0282  1.3448  1.0904
 7453SOL     OW33994   4.064   0.404  17.416 -0.3720 -0.0064 -0.0079
 7453SOL    HW133995   4.016   0.453  17.349 -0.8671 -0.3263  0.1186
 7453SOL    HW233996   4.119   0.468  17.461 -0.6115  1.3384 -1.6298
 7454SOL     OW33997   4.658   1.970   3.410 -0.6548  0.2000 -0.0977
 7454SOL    HW133998   4.625   1.922   3.487 -0.2116  1.1139  0.6600
 7454SOL    HW233999   4.648   2.061   3.436 -2.4376  0.0993 -0.4268
 7455SOL     OW34000   2.853   4.551   3.123 -0.8707  0.0814 -0.3212
 7455SOL    HW134001   2.821   4.481   3.066  0.0842 -0.8757  0.3242
 7455SOL    HW234002   2.847   4.623   3.061 -3.3383  1.5612  1.6638
 7456SOL     OW34003   0.091   3.289   2.834 -1.0787  0.0826  0.2750
 7456SOL    HW134004   0.047   3.336   2.905 -0.4850  2.0163 -0.6298
 7456SOL    HW234005   0.088   3.357   2.767 -0.5975 -1.9603 -1.7950
 7457SOL     OW34006   2.694   2.978   2.460 -0.5643 -0.0972  0.4284
 7457SOL    HW134007   2.664   3.069   2.454 -0.4748 -0.0284  0.9597
 7457SOL    HW234008   2.621   2.933   2.503 -1.0228 -0.2724 -0.5535
 7458SOL     OW34009   2.753   1.106   1.935 -0.4376 -0.7409  0.1958
 7458SOL    HW134010   2.831   1.160   1.921 -0.0308 -1.2891  0.3232
 7458SOL    HW234011   2.767   1.043   1.864 -0.7625 -0.0322 -0.4965
 7459SOL     OW34012   0.450   2.620  12.170 -0.4051 -0.0801  0.3667
 7459SOL    HW134013   0.395   2.592  12.243 -3.7945  1.0309 -1.7640
 7459SOL    HW234014   0.504   2.685  12.215 -0.8514  0.7497 -0.2977
 7460SOL     OW34015   2.945   0.108   3.624 -0.0187  0.2136  0.2732
 7460SOL    HW134016   2.886   0.116   3.698 -0.2830  0.7380  0.0067
 7460SOL    HW234017   2.957   0.013   3.620  1.6239  0.4267  0.0195
 7461SOL     OW34018   4.588   2.633   2.800  0.5072  0.0911 -0.0665
 7461SOL    HW134019   4.586   2.541   2.776  0.8103  0.0958 -0.1057
 7461SOL    HW234020   4.665   2.671   2.757  0.0731 -0.2802 -1.1884
 7462SOL     OW34021   1.010   2.048   0.797 -0.3706 -0.6871 -0.0883
 7462SOL    HW134022   1.071   2.046   0.723 -0.8129  3.3992 -0.5370
 7462SOL    HW234023   0.999   2.137   0.830 -2.1310 -0.2377 -1.9334
 7463SOL     OW34024   3.459   3.857   3.820  0.5108  0.4112  0.4851
 7463SOL    HW134025   3.430   3.775   3.860  0.0990 -0.4310 -1.5323
 7463SOL    HW234026   3.524   3.821   3.759 -1.0152 -1.4531 -0.0352
 7464SOL     OW34027   1.845   0.484   9.730  0.1957 -0.0532 -0.3639
 7464SOL    HW134028   1.794   0.410   9.698 -0.2876 -0.0341  0.3612
 7464SOL    HW234029   1.783   0.540   9.777  0.1013 -2.4456  2.3329
 7465SOL     OW34030   1.406   0.050  13.347  0.0595  0.3258 -0.2283
 7465SOL    HW134031   1.458   0.128  13.326 -0.4301  0.9658  0.8640
 7465SOL    HW234032   1.349   0.083  13.417  2.7016 -1.4065  2.7112
 7466SOL     OW34033   1.933   2.540   3.372 -0.0771 -0.0925  0.6060
 7466SOL    HW134034   1.881   2.530   3.292  0.6471  2.3524 -0.1619
 7466SOL    HW234035   1.889   2.609   3.423  0.8009  0.2965  0.8427
 7467SOL     OW34036   4.132   1.921   6.533  0.0481 -0.0047 -0.6924
 7467SOL    HW134037   4.162   2.012   6.529  4.7301 -1.4765  1.0722
 7467SOL    HW234038   4.065   1.929   6.466  0.3665  0.5789 -0.9502
 7468SOL     OW34039   4.545   0.701   7.731 -0.5532  0.2425  1.0695
 7468SOL    HW134040   4.530   0.613   7.698  0.0513 -0.1298  1.7747
 7468SOL    HW234041   4.640   0.705   7.741 -0.5170 -0.1119  0.8447
 7469SOL     OW34042   1.734   2.977  11.502 -0.4290 -0.7236 -0.0721
 7469SOL    HW134043   1.796   3.051  11.500 -1.0908 -0.1232  1.3314
 7469SOL    HW234044   1.668   3.007  11.564  1.6481  0.9797  1.3409
 7470SOL     OW34045   2.399   4.185   7.402  0.1375  0.3848 -0.0940
 7470SOL    HW134046   2.328   4.244   7.428  1.5237  0.9685  2.3804
 7470SOL    HW234047   2.359   4.102   7.427  1.3212  0.1782  1.1399
 7471SOL     OW34048   3.626   0.245   8.917 -0.4928 -0.2493 -0.0006
 7471SOL    HW134049   3.609   0.180   8.986  0.3116 -1.0006 -0.5011
 7471SOL    HW234050   3.706   0.295   8.931 -1.1306  0.9854 -0.7738
 7472SOL     OW34051   2.105   2.517   2.458  0.3175 -0.1340 -0.4897
 7472SOL    HW134052   2.118   2.422   2.459  1.4024  0.0433  2.4492
 7472SOL    HW234053   2.012   2.522   2.478  0.1055  1.5430 -1.8462
 7473SOL     OW34054   2.653   4.166   2.295  0.2958 -0.1009  0.2404
 7473SOL    HW134055   2.643   4.259   2.314 -2.6809 -0.2652 -0.4646
 7473SOL    HW234056   2.746   4.149   2.281 -0.5006 -2.4853 -2.2424
 7474SOL     OW34057   4.291   3.588   5.895 -0.3744 -0.2494  0.1144
 7474SOL    HW134058   4.215   3.551   5.941 -0.1689  0.1561  0.7851
 7474SOL    HW234059   4.365   3.539   5.930 -1.0726 -0.0896  1.8018
 7475SOL     OW34060   4.335   0.502  11.709  0.0693 -0.5244  0.1923
 7475SOL    HW134061   4.419   0.461  11.730  0.0178 -0.1689  1.1189
 7475SOL    HW234062   4.317   0.473  11.620 -0.5074 -1.7422  0.7184
 7476SOL     OW34063   2.321   3.479   3.963 -0.3864 -0.2532  0.0365
 7476SOL    HW134064   2.414   3.456   3.969  0.0646  1.6685  0.3586
 7476SOL    HW234065   2.280   3.408   4.014 -0.4546 -0.1055  0.1891
 7477SOL     OW34066   4.105   1.720   5.718 -0.5350  0.3272 -0.3374
 7477SOL    HW134067   4.011   1.735   5.708 -0.8744 -1.5389  0.0773
 7477SOL    HW234068   4.150   1.802   5.697  0.5609 -0.2745 -0.3183
 7478SOL     OW34069   2.624   3.129   4.760  0.0787  0.5753  0.0832
 7478SOL    HW134070   2.669   3.158   4.680 -0.3150  0.7849 -0.0661
 7478SOL    HW234071   2.534   3.140   4.730 -0.5355 -1.1072  1.3470
 7479SOL     OW34072   0.158   0.931   2.730 -0.0915 -0.2020  0.3463
 7479SOL    HW134073   0.130   0.905   2.642  0.9238  1.3268 -0.4269
 7479SOL    HW234074   0.093   0.994   2.760  1.8045  2.5965 -1.4327
 7480SOL     OW34075   3.636   4.231   3.706 -0.3535  0.9550  0.4704
 7480SOL    HW134076   3.560   4.208   3.760 -1.2593 -0.2728 -1.2955
 7480SOL    HW234077   3.594   4.296   3.648 -2.0272 -0.2322  0.3283
 7481SOL     OW34078   2.912   1.786   4.366 -0.1394  0.1237 -0.3216
 7481SOL    HW134079   2.939   1.814   4.278  0.3320 -0.3830 -0.3405
 7481SOL    HW234080   2.956   1.701   4.368  2.7573  1.5801 -2.0592
 7482SOL     OW34081   0.554   2.684   4.637  0.0594 -0.2422  0.5057
 7482SOL    HW134082   0.622   2.715   4.576 -0.8364  0.1734 -0.2787
 7482SOL    HW234083   0.594   2.604   4.671 -0.9147 -0.4013  1.2510
 7483SOL     OW34084   4.228   3.098   1.530  0.4109  0.4326 -0.8202
 7483SOL    HW134085   4.294   3.031   1.511 -0.6678 -0.3564 -1.8320
 7483SOL    HW234086   4.279   3.155   1.587  0.8295 -1.2755  0.5154
 7484SOL     OW34087   4.092   4.463  12.442 -0.0856 -0.1732  0.0192
 7484SOL    HW134088   4.168   4.451  12.499  1.0812  0.5494 -1.3981
 7484SOL    HW234089   4.129   4.508  12.366 -0.6511 -1.1646 -0.8351
 7485SOL     OW34090   4.734   3.157   2.331  0.0913  0.6173 -0.4554
 7485SOL    HW134091   4.684   3.087   2.288  0.0391 -0.1777  0.8924
 7485SOL    HW234092   0.047   3.176   2.252 -0.9152  1.1309 -0.9862
 7486SOL     OW34093   1.920   0.248   6.898  0.0604  0.0631 -0.4741
 7486SOL    HW134094   1.993   0.288   6.946 -1.9169  1.7101  1.1348
 7486SOL    HW234095   1.877   0.215   6.977  1.9934  2.5509  1.6524
 7487SOL     OW34096   0.136   2.537  14.181  0.0360  0.2028  0.3005
 7487SOL    HW134097   0.057   2.491  14.209 -0.9330  1.9882  0.4848
 7487SOL    HW234098   0.112   2.586  14.103 -1.8903 -1.9439 -0.4247
 7488SOL     OW34099   1.987   0.795   3.044 -0.4702 -0.2931  0.1228
 7488SOL    HW134100   2.079   0.808   3.067 -1.2845  2.6128  1.8241
 7488SOL    HW234101   1.985   0.774   2.951  0.9504  1.0889 -0.2095
 7489SOL     OW34102   3.293   1.225   8.394 -0.1379  0.7611 -0.3155
 7489SOL    HW134103   3.341   1.300   8.360  1.8835 -0.7465 -0.7594
 7489SOL    HW234104   3.213   1.269   8.422 -0.0178  1.8030 -1.6415
 7490SOL     OW34105   2.147   4.189   1.950  0.0086  0.8829  0.5936
 7490SOL    HW134106   2.113   4.160   1.865  0.7061 -0.1625  0.6807
 7490SOL    HW234107   2.222   4.131   1.960 -1.9386 -1.5934  1.0035
 7491SOL     OW34108   2.636   1.347   5.426 -0.2096  0.6815  0.5422
 7491SOL    HW134109   2.599   1.434   5.435 -0.2880  0.5534  1.5108
 7491SOL    HW234110   2.728   1.373   5.425 -0.2008  0.5797 -0.9061
 7492SOL     OW34111   1.479   1.254   4.948  0.1169 -0.1724 -0.2246
 7492SOL    HW134112   1.532   1.325   4.912  2.1729 -1.1548  0.8532
 7492SOL    HW234113   1.424   1.297   5.014  0.6081  1.9775 -1.2205
 7493SOL     OW34114   4.578   0.095  14.886  0.3421 -0.1846 -0.3467
 7493SOL    HW134115   4.557   0.004  14.906 -0.1666  0.1967  0.8285
 7493SOL    HW234116   4.548   0.088  14.795  2.5443  0.8011 -1.1539
 7494SOL     OW34117   2.026   2.365  12.675 -0.4694 -0.5893 -0.5348
 7494SOL    HW134118   2.006   2.279  12.711  0.4879 -0.5318  0.1272
 7494SOL    HW234119   1.951   2.369  12.616 -0.4370  1.3361 -0.4511
 7495SOL     OW34120   2.027   0.810   0.024 -0.3347  0.1663  0.1114
 7495SOL    HW134121   2.110   0.775  17.740 -0.6172 -1.0685  0.6892
 7495SOL    HW234122   1.991   0.861  17.702 -0.9869  0.1247  0.4127
 7496SOL     OW34123   1.836   1.228   9.062  0.5485 -0.6727  0.1766
 7496SOL    HW134124   1.921   1.192   9.038  1.2317  0.7425  0.4885
 7496SOL    HW234125   1.850   1.242   9.156  0.0285  2.0347 -0.1426
 7497SOL     OW34126   4.670   3.469  17.640  0.4048 -0.1857  0.2132
 7497SOL    HW134127   4.643   3.558  17.664  0.6549  0.3787 -1.6481
 7497SOL    HW234128   4.654   3.464  17.546  0.3838  1.1645  0.1521
 7498SOL     OW34129   4.667   2.001   7.282 -0.8774 -0.2190 -0.4695
 7498SOL    HW134130   4.628   2.025   7.198  0.4251  0.6454 -0.8277
 7498SOL    HW234131   4.682   1.908   7.267  0.5760  0.0994 -0.9951
 7499SOL     OW34132   0.596   3.123  13.724 -0.1030  0.2033 -0.0512
 7499SOL    HW134133   0.533   3.097  13.791  0.8068 -0.9405  0.3739
 7499SOL    HW234134   0.547   3.191  13.679  0.1173  1.0039  0.9196
 7500SOL     OW34135   1.690   0.775   8.688 -0.1636 -0.1531 -0.3777
 7500SOL    HW134136   1.607   0.727   8.685 -0.3706  0.1023  1.0813
 7500SOL    HW234137   1.654   0.841   8.748  2.6109  0.0006  1.1140
 7501SOL     OW34138   3.180   1.402   4.205 -0.4052  0.0605  0.2096
 7501SOL    HW134139   3.118   1.344   4.162 -0.9229  0.5169  0.3363
 7501SOL    HW234140   3.226   1.341   4.262 -2.4877 -0.1784  1.6500
 7502SOL     OW34141   0.100   1.205   5.468  0.1318 -0.2952  0.3592
 7502SOL    HW134142   0.110   1.139   5.537  0.5810  0.9351  1.4661
 7502SOL    HW234143   0.032   1.161   5.418  1.2013 -0.0999 -1.2573
 7503SOL     OW34144   3.862   1.196   6.577  0.7205  0.1178 -0.0667
 7503SOL    HW134145   3.946   1.233   6.552  0.8651  0.2860  0.6576
 7503SOL    HW234146   3.886   1.160   6.663 -1.0385 -0.6248  0.1201
 7504SOL     OW34147   1.878   3.379   5.193 -0.0573 -0.2356 -0.4008
 7504SOL    HW134148   1.889   3.305   5.253 -1.1272  0.6838  0.9092
 7504SOL    HW234149   1.851   3.334   5.112 -3.1796  0.0856  0.4576
 7505SOL     OW34150   1.654   4.470   9.748  0.3008 -0.0854  0.4462
 7505SOL    HW134151   1.736   4.491   9.793  1.3733  1.3990 -2.2488
 7505SOL    HW234152   1.586   4.521   9.793  2.7856  1.4399  2.5505
 7506SOL     OW34153   3.736   1.925  15.750 -0.2607  0.3617  0.2346
 7506SOL    HW134154   3.750   1.895  15.840  1.9410  0.7475  0.0121
 7506SOL    HW234155   3.747   2.019  15.763  0.0129  0.5666 -1.4772
 7507SOL     OW34156   2.742   3.673   4.257  0.1235 -0.0848 -0.2799
 7507SOL    HW134157   2.790   3.593   4.233  2.0677  0.2589  2.5034
 7507SOL    HW234158   2.808   3.742   4.253 -1.9639  1.7992 -2.3950
 7508SOL     OW34159   1.629   4.240   5.758 -0.4807  0.5854 -0.4246
 7508SOL    HW134160   1.668   4.245   5.846 -0.7042  0.4916 -0.3220
 7508SOL    HW234161   1.660   4.156   5.723 -2.1331 -0.7863  1.3999
 7509SOL     OW34162   0.256   3.139  11.576 -0.1377 -0.2199  0.7145
 7509SOL    HW134163   0.262   3.055  11.530 -0.7534 -0.0510  0.3258
 7509SOL    HW234164   0.216   3.114  11.659 -0.0978  0.0738  0.8218
 7510SOL     OW34165   4.333   0.412   5.649  0.1908 -0.3240 -0.1762
 7510SOL    HW134166   4.329   0.424   5.744 -0.8985 -3.0070  0.1171
 7510SOL    HW234167   4.377   0.328   5.634  0.0480 -0.1565 -1.5482
 7511SOL     OW34168   4.125   1.820   8.077 -0.0968 -0.5242 -0.1219
 7511SOL    HW134169   4.042   1.820   8.029 -0.4891  0.2730  0.5535
 7511SOL    HW234170   4.127   1.739   8.127 -1.7242 -0.5162 -0.0388
 7512SOL     OW34171   2.394   2.616  16.692 -0.0585 -0.0342 -0.5269
 7512SOL    HW134172   2.349   2.533  16.703  0.2118 -0.0274  0.5974
 7512SOL    HW234173   2.475   2.591  16.647 -1.6516 -2.2193 -2.1595
 7513SOL     OW34174   1.310   4.295  14.169 -0.1990 -0.7762  0.4212
 7513SOL    HW134175   1.215   4.288  14.176 -0.4871  2.0851 -0.5702
 7513SOL    HW234176   1.342   4.207  14.148  0.1027 -0.9068  1.4186
 7514SOL     OW34177   4.716   3.157  10.433 -0.2313  0.5785 -0.4098
 7514SOL    HW134178   4.658   3.190  10.365 -0.8463 -2.4198 -1.3159
 7514SOL    HW234179   4.713   3.238  10.485 -1.6930  0.1843  0.1101
 7515SOL     OW34180   2.127   3.440   8.875  0.1598  0.1737 -0.3286
 7515SOL    HW134181   2.207   3.389   8.863  0.1277  0.3961 -1.4712
 7515SOL    HW234182   2.143   3.528   8.840  0.5386 -0.6886 -2.2598
 7516SOL     OW34183   3.065   1.657   7.531 -0.2699  0.2653  0.0809
 7516SOL    HW134184   3.052   1.699   7.616  1.1245  3.4501 -1.2839
 7516SOL    HW234185   3.061   1.564   7.554 -2.1672  0.1730 -0.5641
 7517SOL     OW34186   3.741   1.733  14.420  0.0561  0.2401 -0.0623
 7517SOL    HW134187   3.822   1.692  14.449  0.1103 -0.6513 -1.4587
 7517SOL    HW234188   3.764   1.762  14.332  0.1054  0.5048  0.0377
 7518SOL     OW34189   1.986   4.495   6.382 -0.1088 -0.3414  0.1468
 7518SOL    HW134190   2.019   4.576   6.421 -0.6921 -1.3390  2.6628
 7518SOL    HW234191   1.893   4.498   6.403  0.1868 -0.4364  1.4572
 7519SOL     OW34192   0.271   0.533   2.190 -0.3767  0.1765 -0.0022
 7519SOL    HW134193   0.176   0.548   2.190 -0.1628  1.4501 -1.8757
 7519SOL    HW234194   0.291   0.530   2.284 -0.0472 -2.1413 -0.1405
 7520SOL     OW34195   3.653   2.219   5.096 -0.5195  0.1114  0.0577
 7520SOL    HW134196   3.739   2.240   5.133 -1.8351  2.4982  1.7551
 7520SOL    HW234197   3.606   2.181   5.169  1.8076 -0.6647  1.1492
 7521SOL     OW34198   0.771   3.748   0.913 -0.2462  0.3711 -0.1570
 7521SOL    HW134199   0.854   3.714   0.879  0.3989  0.6721  1.1415
 7521SOL    HW234200   0.709   3.677   0.893  0.1342 -0.5771  2.0837
 7522SOL     OW34201   1.733   4.561  13.576 -0.1203  0.0673 -0.6322
 7522SOL    HW134202   1.778   4.607  13.505 -2.5105  1.5480 -1.2165
 7522SOL    HW234203   1.645   4.558  13.538 -0.7636  0.6721  0.8379
 7523SOL     OW34204   0.930   3.029   2.520  0.7108 -0.2102 -0.1649
 7523SOL    HW134205   0.972   3.051   2.437  1.7703  0.6474  0.5813
 7523SOL    HW234206   0.839   3.052   2.504  0.2191 -0.2922  2.4935
 7524SOL     OW34207   0.815   3.830   4.244  0.0526  0.4739  0.1705
 7524SOL    HW134208   0.908   3.847   4.255  0.5569 -1.0252 -1.6089
 7524SOL    HW234209   0.832   3.750   4.194  0.7625 -0.7758  2.4039
 7525SOL     OW34210   2.121   2.865   4.669 -0.2364  0.3706  0.0005
 7525SOL    HW134211   2.143   2.806   4.741 -0.8658 -0.7582 -0.7270
 7525SOL    HW234212   2.211   2.893   4.653  0.8300 -1.9703  1.8633
 7526SOL     OW34213   0.477   1.576   2.377  0.0684  0.1774  0.0692
 7526SOL    HW134214   0.444   1.658   2.413 -1.4870  0.3646 -1.7765
 7526SOL    HW234215   0.518   1.592   2.292  0.8457 -1.8991  0.0469
 7527SOL     OW34216   1.909   1.038   8.379  0.2556  0.1527  0.2619
 7527SOL    HW134217   1.956   1.055   8.461 -1.4846  0.2216  1.2605
 7527SOL    HW234218   1.944   1.102   8.318 -2.1319  0.6559 -0.6043
 7528SOL     OW34219   1.924   4.593   4.457  0.2916 -0.1069  0.6749
 7528SOL    HW134220   1.890   4.547   4.380  2.5566 -0.2461 -0.2336
 7528SOL    HW234221   2.003   4.633   4.421 -0.3107  0.2984 -0.2120
 7529SOL     OW34222   3.463   0.076   6.009 -0.1447 -0.3013  0.6399
 7529SOL    HW134223   3.384   0.131   6.005 -0.3216 -0.6850 -1.0170
 7529SOL    HW234224   3.423   0.004   6.059  1.4716 -1.0175  0.8856
 7530SOL     OW34225   2.185   3.968   6.307  0.4404  0.3915 -0.0826
 7530SOL    HW134226   2.095   3.937   6.308 -0.0687  1.8631  0.2047
 7530SOL    HW234227   2.221   3.911   6.376 -0.3483 -0.4874 -0.4070
 7531SOL     OW34228   4.530   2.493  15.695  0.2483 -0.1776  0.3365
 7531SOL    HW134229   4.556   2.401  15.693 -1.6922 -0.7390  0.7050
 7531SOL    HW234230   4.436   2.504  15.681  0.0026  0.3738  2.3271
 7532SOL     OW34231   3.752   0.594   5.227  0.5679  0.0177 -0.4529
 7532SOL    HW134232   3.759   0.689   5.233  0.4407 -0.1013  1.4394
 7532SOL    HW234233   3.660   0.581   5.252  0.3795  0.0674 -1.1161
 7533SOL     OW34234   1.799   0.366   7.418  0.2527  0.1417 -0.3797
 7533SOL    HW134235   1.869   0.343   7.480  0.8141  1.5046 -0.5041
 7533SOL    HW234236   1.785   0.277   7.386 -0.2017 -0.1650  0.6778
 7534SOL     OW34237   2.997   4.559   9.832  0.1060  0.0274 -0.1765
 7534SOL    HW134238   2.969   4.539   9.743 -0.0861  1.0242 -0.3406
 7534SOL    HW234239   2.979   4.653   9.835 -1.9770 -0.2781 -2.8321
 7535SOL     OW34240   1.443   2.177   5.988  0.3669  0.0088 -0.4164
 7535SOL    HW134241   1.526   2.222   6.005 -0.4230  1.3972 -0.2661
 7535SOL    HW234242   1.427   2.190   5.894  0.1405 -0.0963 -0.3913
 7536SOL     OW34243   3.186   0.749   2.996 -0.2156 -0.4457  0.5427
 7536SOL    HW134244   3.180   0.654   2.986 -1.5551 -0.2369 -0.5711
 7536SOL    HW234245   3.105   0.768   3.043 -0.5917  2.0354 -1.1207
 7537SOL     OW34246   2.508   4.432  16.735  0.1394  0.5618  0.7324
 7537SOL    HW134247   2.445   4.489  16.778  0.1879 -0.7734  2.5820
 7537SOL    HW234248   2.566   4.495  16.692  1.1836 -0.5061  0.5667
 7538SOL     OW34249   2.995   3.375   2.801 -0.0708  0.1687  1.1130
 7538SOL    HW134250   2.965   3.312   2.867 -0.6222  0.1574  0.8486
 7538SOL    HW234251   3.028   3.436   2.866 -0.2523  0.4226  0.9630
 7539SOL     OW34252   0.749   0.458   3.864 -0.0399 -0.3004 -0.4754
 7539SOL    HW134253   0.690   0.383   3.858 -1.8701  1.3153 -2.6874
 7539SOL    HW234254   0.800   0.441   3.943 -1.1342  0.4589  0.4011
 7540SOL     OW34255   2.563   3.942   8.091 -0.2336 -0.3736 -0.0360
 7540SOL    HW134256   2.538   3.971   8.003 -1.6830 -1.3085  0.0631
 7540SOL    HW234257   2.555   4.020   8.145  1.2022  0.2748 -0.7575
 7541SOL     OW34258   1.575   1.886   3.819  0.5091 -0.2812 -0.0947
 7541SOL    HW134259   1.609   1.862   3.733 -0.6511  0.6758 -0.8214
 7541SOL    HW234260   1.646   1.853   3.875 -0.6380 -2.2093  0.2382
 7542SOL     OW34261   0.630   3.089   3.243 -0.1873 -0.7176  0.1978
 7542SOL    HW134262   0.675   3.155   3.190  0.8325  0.1704  2.1482
 7542SOL    HW234263   0.679   3.094   3.325 -1.5492 -1.4559  1.0512
 7543SOL     OW34264   1.128   1.990   3.399  0.0120 -0.2137  0.2000
 7543SOL    HW134265   1.167   1.970   3.484  1.2240 -0.0812 -0.3282
 7543SOL    HW234266   1.168   1.930   3.336  1.1378  1.7250 -0.9474
 7544SOL     OW34267   2.007   3.433   1.302 -0.1928  0.0553  0.4441
 7544SOL    HW134268   2.060   3.356   1.279 -1.0253  0.1844 -1.8998
 7544SOL    HW234269   1.928   3.417   1.251  0.0875 -0.5929  0.2093
 7545SOL     OW34270   1.175   3.245   1.436  0.1086  0.2306 -0.1167
 7545SOL    HW134271   1.141   3.322   1.482  0.3551  0.8066 -0.9123
 7545SOL    HW234272   1.241   3.216   1.500  1.7566  0.2392 -1.8363
 7546SOL     OW34273   3.668   3.755   4.022 -0.2936 -0.1147  0.4583
 7546SOL    HW134274   3.720   3.706   3.959  0.4431  3.8863 -2.0970
 7546SOL    HW234275   3.616   3.807   3.961 -0.4674  0.2144  0.8801
 7547SOL     OW34276   2.201   3.658   3.793  1.0260  0.5911 -0.0216
 7547SOL    HW134277   2.147   3.579   3.793 -0.5111  1.6761 -3.1870
 7547SOL    HW234278   2.268   3.628   3.855  1.0814 -0.9247 -0.8025
 7548SOL     OW34279   0.342   4.040  13.650  0.4675  0.6600 -0.4489
 7548SOL    HW134280   0.306   4.104  13.713  2.8335  1.2189  0.3263
 7548SOL    HW234281   0.261   3.998  13.621 -0.0975  0.4713  1.3676
 7549SOL     OW34282   4.380   4.330   4.950  0.4733 -0.2842 -0.3635
 7549SOL    HW134283   4.382   4.425   4.940  0.8353 -0.1474  0.9882
 7549SOL    HW234284   4.375   4.320   5.046 -0.7887  2.4751 -0.1487
 7550SOL     OW34285   3.175   0.999   9.908 -0.7626 -0.8356  0.2519
 7550SOL    HW134286   3.191   0.934   9.977 -2.1311 -1.2551  0.1762
 7550SOL    HW234287   3.096   1.045   9.939 -0.9089 -0.7378 -0.2761
 7551SOL     OW34288   0.201   4.579   8.450  0.2779  0.7474  0.8376
 7551SOL    HW134289   0.109   4.552   8.447 -0.5219  3.5590 -0.6666
 7551SOL    HW234290   0.199   4.652   8.512  0.3427 -0.4368  2.2181
 7552SOL     OW34291   3.839   0.638   8.808  0.3493 -0.0329  0.4656
 7552SOL    HW134292   3.891   0.667   8.883 -0.4971 -1.0665  1.4507
 7552SOL    HW234293   3.825   0.722   8.763 -0.5556 -0.5625 -0.2370
 7553SOL     OW34294   0.895   0.337   6.027  0.5966  0.1167  0.5599
 7553SOL    HW134295   0.865   0.265   5.971 -0.4962  1.2619 -0.3479
 7553SOL    HW234296   0.817   0.343   6.081 -1.3624 -0.3481 -2.2168
 7554SOL     OW34297   1.916   1.508   5.416  0.9184  0.5893 -0.0125
 7554SOL    HW134298   1.860   1.584   5.432 -0.4315 -0.0059 -1.9646
 7554SOL    HW234299   2.002   1.550   5.410  1.2977 -0.6575 -3.1948
 7555SOL     OW34300   1.453   4.070   3.637  0.5480  0.0246 -0.8510
 7555SOL    HW134301   1.483   4.088   3.548 -0.5449 -0.9544 -1.4142
 7555SOL    HW234302   1.443   4.161   3.665 -0.0524 -0.4726  0.5998
 7556SOL     OW34303   3.479   1.774   4.685 -0.1176  0.7458 -0.0131
 7556SOL    HW134304   3.416   1.844   4.704  0.6594  1.2978  0.5151
 7556SOL    HW234305   3.412   1.708   4.664  1.5128  0.4947 -4.4708
 7557SOL     OW34306   2.837   2.758   5.327  0.1006  0.0533 -0.5342
 7557SOL    HW134307   2.906   2.822   5.313 -0.6894  0.9990 -0.1108
 7557SOL    HW234308   2.872   2.687   5.272 -0.6433 -0.0451 -0.8783
 7558SOL     OW34309   1.241   0.744  14.594 -1.0650  0.1421 -0.0129
 7558SOL    HW134310   1.207   0.700  14.672  1.0076 -1.7289 -0.1477
 7558SOL    HW234311   1.309   0.677  14.585  0.2751  1.3570  1.1162
 7559SOL     OW34312   2.634   2.864   8.125 -0.5325 -0.0083  0.3082
 7559SOL    HW134313   2.704   2.906   8.074  0.0697 -0.1866  0.9880
 7559SOL    HW234314   2.607   2.792   8.069 -5.6369  2.1124  0.0653
 7560SOL     OW34315   4.430   2.147   2.547  0.7326  0.1693  0.2590
 7560SOL    HW134316   4.409   2.240   2.537  0.0654 -0.2853 -2.5744
 7560SOL    HW234317   4.512   2.135   2.498  0.4072 -1.6090  0.1606
 7561SOL     OW34318   1.098   0.768   7.824  0.2195  0.4360  0.3737
 7561SOL    HW134319   1.157   0.714   7.772 -0.4408 -0.2090  0.2851
 7561SOL    HW234320   1.010   0.768   7.784  0.9146  1.4615 -1.1785
 7562SOL     OW34321   2.618   3.936   3.263 -0.4911 -0.8528 -0.1129
 7562SOL    HW134322   2.653   4.005   3.319 -0.3135 -1.6616  0.7824
 7562SOL    HW234323   2.528   3.937   3.296 -0.9305  0.7835 -1.3767
 7563SOL     OW34324   1.031   4.486   1.554  0.2802 -0.0634  0.1366
 7563SOL    HW134325   1.041   4.579   1.574  2.6338  0.6739 -4.3283
 7563SOL    HW234326   1.101   4.471   1.490 -0.8956  1.9259 -1.6272
 7564SOL     OW34327   2.384   4.645   9.310 -0.2793  0.7203  0.1948
 7564SOL    HW134328   2.417   4.605   9.391 -1.5763  1.8656  1.2945
 7564SOL    HW234329   2.423   4.732   9.302 -0.0318  0.6397  0.5154
 7565SOL     OW34330   3.483   4.384   2.603  0.4033 -0.4846 -0.3081
 7565SOL    HW134331   3.563   4.331   2.600  0.4300 -0.4084 -0.9024
 7565SOL    HW234332   3.424   4.336   2.544  1.0239 -1.2923 -0.2660
 7566SOL     OW34333   0.720   1.397  12.174  0.1753  0.3116  0.3796
 7566SOL    HW134334   0.787   1.398  12.242  0.1832  2.4250  0.3230
 7566SOL    HW234335   0.751   1.462  12.111  4.3592 -2.1635 -0.1053
 7567SOL     OW34336   4.144   4.043   0.595 -0.3449 -0.4241  0.1165
 7567SOL    HW134337   4.195   3.968   0.624  0.8940  0.6098  0.5916
 7567SOL    HW234338   4.207   4.113   0.612  0.5745 -1.2951  0.2892
 7568SOL     OW34339   3.248   1.742   4.476 -0.1472  0.4335  0.1314
 7568SOL    HW134340   3.197   1.682   4.422 -0.7164 -0.0546  1.2080
 7568SOL    HW234341   3.176   1.780   4.526 -0.3881 -1.6271  1.3617
 7569SOL     OW34342   2.459   2.832   2.517 -0.0234 -0.6328 -0.4428
 7569SOL    HW134343   2.416   2.878   2.590  0.6738  0.7780 -0.9256
 7569SOL    HW234344   2.420   2.744   2.522 -0.1163 -0.6169 -0.9113
 7570SOL     OW34345   2.796   2.893   9.311 -0.1365  0.3640  0.3894
 7570SOL    HW134346   2.812   2.811   9.357 -0.3122 -0.5362 -1.1583
 7570SOL    HW234347   2.882   2.911   9.272  1.0580  0.6571  3.1662
 7571SOL     OW34348   2.218   3.456   2.111  0.7424 -0.7980  0.5181
 7571SOL    HW134349   2.239   3.536   2.159  0.6529 -0.4534 -0.0262
 7571SOL    HW234350   2.286   3.399   2.147  2.8782  2.0372  0.8644
 7572SOL     OW34351   2.943   3.878   6.480  0.3492 -0.6214 -0.3200
 7572SOL    HW134352   2.849   3.889   6.465 -0.0587  0.0597  2.6927
 7572SOL    HW234353   2.969   3.970   6.476  2.0476 -1.0458  0.9862
 7573SOL     OW34354   3.741   3.744   7.583  0.0690  0.5172 -0.0372
 7573SOL    HW134355   3.727   3.683   7.655  0.0520  1.1445  0.4892
 7573SOL    HW234356   3.674   3.812   7.589  1.7224  2.1184  0.1179
 7574SOL     OW34357   2.502   4.051   4.551 -0.0300 -0.3638 -0.7616
 7574SOL    HW134358   2.552   3.980   4.592  0.2975  0.3118  0.0337
 7574SOL    HW234359   2.412   4.020   4.563 -0.1715  0.2968 -0.0845
 7575SOL     OW34360   1.358   1.864   4.811 -0.2975 -0.5958  0.3301
 7575SOL    HW134361   1.295   1.798   4.783  2.3289 -2.3464 -1.4445
 7575SOL    HW234362   1.328   1.942   4.765 -1.3603 -1.0179  0.3078
 7576SOL     OW34363   3.093   3.285   4.365 -0.0966  0.4135  0.1553
 7576SOL    HW134364   3.186   3.262   4.362 -0.6812 -1.6498 -1.6427
 7576SOL    HW234365   3.060   3.199   4.343  1.4619 -0.5324  1.4490
 7577SOL     OW34366   1.290   0.069  12.795 -0.0731  0.6622  0.4937
 7577SOL    HW134367   1.368   0.114  12.829  0.0377  1.5073 -0.8698
 7577SOL    HW234368   1.320   4.717  12.783  0.5910  0.5528  3.0253
 7578SOL     OW34369   3.334   3.026  11.609 -0.6469  0.6292  0.9374
 7578SOL    HW134370   3.394   3.014  11.682  0.3867 -0.1637 -0.0450
 7578SOL    HW234371   3.394   3.055  11.541 -0.9067  0.0564  0.4711
 7579SOL     OW34372   3.973   1.289   1.550  0.8733  0.2770  0.2086
 7579SOL    HW134373   4.053   1.323   1.508 -0.4892 -0.0447 -2.6569
 7579SOL    HW234374   3.910   1.330   1.491 -1.4847 -2.1736  1.0531
 7580SOL     OW34375   3.750   1.664   6.508  0.2097 -0.1017 -0.3392
 7580SOL    HW134376   3.812   1.656   6.435  1.0048 -0.4585  0.3838
 7580SOL    HW234377   3.689   1.732   6.478  2.0354  1.8887  0.4333
 7581SOL     OW34378   0.344   2.815   0.536 -0.2814  0.2127  0.5055
 7581SOL    HW134379   0.347   2.762   0.457  1.2840 -0.5172  1.0671
 7581SOL    HW234380   0.261   2.861   0.522  0.7905  1.4818 -1.5948
 7582SOL     OW34381   4.549   1.977   7.530 -0.5941  0.4371  0.0630
 7582SOL    HW134382   4.603   2.004   7.604  0.2580 -1.5907  0.1932
 7582SOL    HW234383   4.596   2.002   7.451 -0.6177 -0.4998 -0.2537
 7583SOL     OW34384   2.702   0.348   3.018 -0.1885  0.5201 -0.3044
 7583SOL    HW134385   2.763   0.308   3.080  0.0374  0.2411 -0.7072
 7583SOL    HW234386   2.681   0.437   3.048  3.0502  1.3115 -0.2879
 7584SOL     OW34387   4.083   2.275   8.491  0.3554  0.3163 -0.5214
 7584SOL    HW134388   4.137   2.331   8.435 -0.3998  0.4253 -1.1336
 7584SOL    HW234389   4.027   2.224   8.433  0.4783  0.5429 -0.8366
 7585SOL     OW34390   0.080   4.566   6.171 -0.0649 -0.1001 -0.4986
 7585SOL    HW134391   4.728   4.566   6.203 -0.0158 -0.5732 -0.3682
 7585SOL    HW234392   0.079   4.601   6.081  2.0158  0.6176 -0.2618
 7586SOL     OW34393   2.022   1.519  10.769 -0.2469  0.0711  0.3159
 7586SOL    HW134394   2.031   1.436  10.723  3.8099  0.7313 -0.0769
 7586SOL    HW234395   2.105   1.563  10.753  0.4853 -1.5903 -0.4862
 7587SOL     OW34396   4.236   1.523  13.951  0.2841 -0.9621 -0.1471
 7587SOL    HW134397   4.284   1.441  13.962  1.2695 -0.2253  1.1108
 7587SOL    HW234398   4.282   1.576  14.016 -0.9846 -0.0511  0.0003
 7588SOL     OW34399   1.119   4.689   5.892  0.8698 -0.0849  0.3533
 7588SOL    HW134400   1.145   4.691   5.800 -0.8151 -0.3230 -0.1268
 7588SOL    HW234401   1.194   4.724   5.941  0.6949  0.9206 -0.0956
 7589SOL     OW34402   0.800   1.473   4.973  0.4152 -0.5192 -0.2402
 7589SOL    HW134403   0.728   1.491   5.033 -0.8195 -3.2652 -0.9204
 7589SOL    HW234404   0.869   1.510   5.029 -1.6618  1.7230  0.8633
 7590SOL     OW34405   4.617   3.668   6.544 -0.6067 -0.3657 -0.2739
 7590SOL    HW134406   4.610   3.591   6.488 -0.5660 -0.6057  0.0519
 7590SOL    HW234407   4.529   3.675   6.581 -0.5563  1.5055 -0.4760
 7591SOL     OW34408   1.026   4.374  11.792 -0.0582 -0.3740  0.9704
 7591SOL    HW134409   1.026   4.297  11.736 -1.9223  0.5150 -0.2460
 7591SOL    HW234410   0.934   4.369  11.816 -1.0115 -3.1437 -3.4254
 7592SOL     OW34411   0.560   1.876   7.581 -1.3804  0.0189  0.0831
 7592SOL    HW134412   0.591   1.808   7.639  0.6129 -0.9508 -2.1447
 7592SOL    HW234413   0.565   1.937   7.654 -0.1009  1.7069 -1.4084
 7593SOL     OW34414   1.150   0.938   8.611 -0.1563  0.0735 -0.2120
 7593SOL    HW134415   1.243   0.960   8.605  0.0295 -0.4464  0.6620
 7593SOL    HW234416   1.100   1.017   8.594 -0.7906  0.2148  2.3174
 7594SOL     OW34417   3.384   3.414   3.662 -0.1833  0.0229 -0.1234
 7594SOL    HW134418   3.383   3.341   3.601  1.0254 -0.0527 -0.0643
 7594SOL    HW234419   3.422   3.491   3.619  3.1972 -1.6638 -0.1720
 7595SOL     OW34420   4.635   3.750  17.696  0.5764  0.0755  0.1863
 7595SOL    HW134421   4.715   3.783  17.738 -0.0148 -0.2621  1.5683
 7595SOL    HW234422   4.573   3.822  17.712  0.6880  0.0535  0.7137
 7596SOL     OW34423   0.224   0.103   4.882  0.2455  0.4261 -0.4997
 7596SOL    HW134424   0.302   0.097   4.828  1.6736 -2.7814  1.8822
 7596SOL    HW234425   0.171   0.027   4.858 -2.5274  2.5791 -1.2045
 7597SOL     OW34426   4.011   1.304   0.444 -0.4932  0.1509  0.2108
 7597SOL    HW134427   3.933   1.309   0.389  0.2808  2.3612 -0.6767
 7597SOL    HW234428   3.995   1.391   0.481  2.6895  0.7055  0.3058
 7598SOL     OW34429   2.622   1.762   4.267 -0.0258 -0.0131  0.1103
 7598SOL    HW134430   2.707   1.797   4.294 -0.4298  1.4898 -0.5702
 7598SOL    HW234431   2.632   1.753   4.172 -0.0846 -2.2745  0.3141
 7599SOL     OW34432   3.076   0.856   9.560 -0.0699 -0.9174  0.6744
 7599SOL    HW134433   3.135   0.915   9.608 -1.2818 -1.0095  2.2674
 7599SOL    HW234434   3.120   0.857   9.475  1.4825  0.1662  1.4961
 7600SOL     OW34435   3.902   1.183   2.552  0.0231 -0.3187 -0.6953
 7600SOL    HW134436   3.859   1.134   2.482  0.9906 -0.1075 -1.4433
 7600SOL    HW234437   3.829   1.241   2.570 -1.1521 -1.6385 -1.2487
 7601SOL     OW34438   0.900   3.628   2.898 -0.5372  0.3447  0.4990
 7601SOL    HW134439   0.928   3.549   2.851  0.6762  0.9237  0.2446
 7601SOL    HW234440   0.809   3.602   2.912 -1.3426  1.8887 -1.8685
 7602SOL     OW34441   1.101   2.378   7.522  0.1044 -0.3255  0.5755
 7602SOL    HW134442   1.148   2.444   7.574  0.0071  0.3556 -0.1936
 7602SOL    HW234443   1.017   2.378   7.567 -0.7014  0.4125 -0.9164
 7603SOL     OW34444   0.097   3.490   0.236 -0.1123  0.3804 -0.8300
 7603SOL    HW134445   0.022   3.549   0.245  0.0600  0.1571  2.2279
 7603SOL    HW234446   0.050   3.407   0.245 -0.8653  1.2645  3.2370
 7604SOL     OW34447   1.063   2.153   7.904 -0.4379 -0.0884  0.2154
 7604SOL    HW134448   1.081   2.070   7.859 -2.0830 -0.8495  0.9833
 7604SOL    HW234449   1.132   2.207   7.864 -0.4375  0.1170  0.4911
 7605SOL     OW34450   4.605   0.509   3.876 -0.3964  0.1028  0.4337
 7605SOL    HW134451   4.634   0.593   3.840  0.3658  0.0722  0.9834
 7605SOL    HW234452   4.632   0.543   3.961 -1.4831  1.3770  0.2748
 7606SOL     OW34453   1.000   0.512  11.686 -0.3762 -0.2612  0.0157
 7606SOL    HW134454   0.992   0.423  11.653  0.9692  0.1355 -1.3651
 7606SOL    HW234455   1.032   0.498  11.776  0.2215  1.0677  0.0144
 7607SOL     OW34456   3.175   3.984   2.230 -0.7105 -0.1385 -0.2625
 7607SOL    HW134457   3.219   4.045   2.171 -0.3723  0.0330  0.1742
 7607SOL    HW234458   3.167   3.906   2.174 -0.2194 -0.3720 -0.0071
 7608SOL     OW34459   3.724   0.312   7.995  0.1200 -0.0924 -0.5264
 7608SOL    HW134460   3.683   0.375   8.055 -0.8890 -0.1288 -1.1816
 7608SOL    HW234461   3.684   0.229   8.020 -0.8834  0.5442 -0.0447
 7609SOL     OW34462   0.493   3.525  12.280 -0.3250 -0.4713  0.5829
 7609SOL    HW134463   0.412   3.478  12.256 -0.0875 -0.7974  0.4192
 7609SOL    HW234464   0.550   3.451  12.302 -1.8316 -1.4905  1.0892
 7610SOL     OW34465   0.297   2.970   5.616 -0.4651 -0.2041  0.0823
 7610SOL    HW134466   0.381   2.967   5.661  0.7393 -1.6455 -2.2133
 7610SOL    HW234467   0.328   2.968   5.525 -1.3611 -2.8342 -0.1876
 7611SOL     OW34468   3.397   3.990  10.747 -0.1823 -0.4061  0.0929
 7611SOL    HW134469   3.364   3.986  10.836 -0.4507 -1.0551 -0.0324
 7611SOL    HW234470   3.486   4.023  10.758 -1.2065  1.9529  1.1595
 7612SOL     OW34471   2.775   2.019   6.325 -0.0686  0.3875  0.2950
 7612SOL    HW134472   2.721   2.005   6.403 -0.5096  1.5356  0.1821
 7612SOL    HW234473   2.740   1.965   6.254 -1.0154 -1.1424  1.9162
 7613SOL     OW34474   0.785   3.914   8.451  0.2481 -0.2728  0.4971
 7613SOL    HW134475   0.707   3.948   8.494  1.6893  1.9107  1.3543
 7613SOL    HW234476   0.846   3.985   8.472 -2.1813  1.8891  0.2628
 7614SOL     OW34477   3.947   3.826   3.321 -0.1934  0.7101  0.4856
 7614SOL    HW134478   3.924   3.747   3.272 -0.1494  0.5606  0.7088
 7614SOL    HW234479   4.040   3.843   3.304 -0.1796  0.1462  0.0041
 7615SOL     OW34480   0.438   1.628   9.704 -0.2392  0.7187  0.1597
 7615SOL    HW134481   0.352   1.670   9.716 -1.2694 -1.9869  2.4349
 7615SOL    HW234482   0.407   1.548   9.663 -1.4900  2.0747 -1.5455
 7616SOL     OW34483   2.307   0.345   8.720 -0.3104 -0.3223  0.3360
 7616SOL    HW134484   2.230   0.392   8.750  0.2305  2.2410 -2.2737
 7616SOL    HW234485   2.261   0.271   8.681  0.0320 -1.1431  1.4692
 7617SOL     OW34486   0.174   2.555   4.866 -0.6506 -0.1617  0.6911
 7617SOL    HW134487   0.146   2.597   4.947 -0.4562  1.1203  0.0929
 7617SOL    HW234488   0.260   2.519   4.887 -0.9881 -0.7908  1.0265
 7618SOL     OW34489   1.815   2.207   4.301  0.0412  0.5098  0.0623
 7618SOL    HW134490   1.785   2.219   4.391 -1.1717  0.3911 -0.3187
 7618SOL    HW234491   1.893   2.262   4.304 -1.5784  2.6805  2.0512
 7619SOL     OW34492   1.327   3.755   8.325  0.2204  0.1225 -1.0027
 7619SOL    HW134493   1.374   3.702   8.389  0.6271  0.0354 -1.3757
 7619SOL    HW234494   1.247   3.703   8.319 -0.9150  1.7637 -0.0080
 7620SOL     OW34495   1.893   3.363   4.220  0.0550 -0.1134 -0.2248
 7620SOL    HW134496   1.811   3.334   4.179  0.3712  0.3598 -1.1835
 7620SOL    HW234497   1.862   3.447   4.254 -1.8698 -1.6252  1.7640
 7621SOL     OW34498   2.171   3.014   3.982 -0.0820 -0.1721 -0.1578
 7621SOL    HW134499   2.154   3.031   4.074 -0.3881 -1.3562  0.0100
 7621SOL    HW234500   2.231   3.084   3.957 -1.2242  1.1897  0.9264
 7622SOL     OW34501   1.638   0.409   3.980 -0.3727 -0.3097 -0.3335
 7622SOL    HW134502   1.673   0.339   4.036  0.2450 -0.8635 -1.4117
 7622SOL    HW234503   1.584   0.354   3.922 -2.5903  0.4920  0.9682
 7623SOL     OW34504   4.579   3.831   4.787  0.0439  0.4407  0.1890
 7623SOL    HW134505   4.544   3.906   4.835  2.0762  1.2363  0.4187
 7623SOL    HW234506   4.668   3.830   4.822  0.4651 -3.8603 -1.0832
 7624SOL     OW34507   0.214   0.121  12.908 -0.0880 -0.6219 -0.3729
 7624SOL    HW134508   0.272   0.145  12.836  0.7681 -1.5110  0.0314
 7624SOL    HW234509   0.230   0.027  12.920  2.2603 -0.1876 -0.2504
 7625SOL     OW34510   2.002   1.010  15.266 -0.3383  0.1551 -0.1931
 7625SOL    HW134511   1.907   1.012  15.271 -0.4041 -0.3028 -1.1092
 7625SOL    HW234512   2.025   1.079  15.203  0.2558  0.2480  0.1265
 7626SOL     OW34513   3.444   3.740  15.065 -0.0075 -0.1625 -0.2181
 7626SOL    HW134514   3.514   3.676  15.076 -0.9039 -0.7958  1.7972
 7626SOL    HW234515   3.421   3.720  14.974  1.0754 -2.8492  0.1225
 7627SOL     OW34516   2.634   3.022   5.647  0.4054 -0.0121  0.1219
 7627SOL    HW134517   2.717   2.993   5.609  0.0691  0.8557 -1.2523
 7627SOL    HW234518   2.570   3.009   5.578 -0.1336 -0.9330  0.7904
 7628SOL     OW34519   2.540   0.851   6.092  0.8880 -0.2276 -0.0177
 7628SOL    HW134520   2.629   0.869   6.121  0.9800 -1.0369  0.2087
 7628SOL    HW234521   2.528   0.922   6.028  4.0784  0.1942 -0.1673
 7629SOL     OW34522   2.777   4.340   3.278 -0.3546 -0.4638  0.2023
 7629SOL    HW134523   2.695   4.343   3.327 -0.8764  1.3787 -0.7644
 7629SOL    HW234524   2.786   4.432   3.252  0.0027 -0.3377  0.7925
 7630SOL     OW34525   0.131   4.057   5.966  0.2464 -0.3639 -0.0878
 7630SOL    HW134526   0.163   4.128   6.022 -3.2858  1.2021 -0.0733
 7630SOL    HW234527   0.127   3.981   6.024  1.9634 -0.0133  0.5123
 7631SOL     OW34528   1.067   2.805  13.395 -0.1734 -0.1311 -0.2893
 7631SOL    HW134529   1.114   2.853  13.328  2.4381  0.3132  1.8923
 7631SOL    HW234530   0.981   2.846  13.389 -0.6300 -0.5105  3.3771
 7632SOL     OW34531   0.414   0.180   6.291  0.2082  0.2420 -0.1402
 7632SOL    HW134532   0.421   0.157   6.383  0.8995  0.7676 -0.0604
 7632SOL    HW234533   0.321   0.163   6.278  0.2276  0.8227 -1.1070
 7633SOL     OW34534   3.798   4.342   1.844  0.1630 -0.0934  0.1135
 7633SOL    HW134535   3.732   4.388   1.792  0.3811  0.8141  0.6426
 7633SOL    HW234536   3.764   4.253   1.853 -1.1190  0.2877 -1.0133
 7634SOL     OW34537   3.004   2.647   3.984 -0.2939 -0.4152 -0.6548
 7634SOL    HW134538   2.922   2.616   4.022  1.2764 -0.6423  2.5043
 7634SOL    HW234539   2.977   2.659   3.893 -0.4250 -1.3527 -0.7463
 7635SOL     OW34540   2.381   2.122   6.649  0.5339  0.8980  0.2209
 7635SOL    HW134541   2.427   2.118   6.733 -1.9411  1.2965  1.6048
 7635SOL    HW234542   2.455   2.093   6.596 -0.8362 -1.7956 -0.2084
 7636SOL     OW34543   0.099   0.890   8.051  0.1589 -0.0059 -0.4914
 7636SOL    HW134544   0.068   0.910   7.963 -0.1337  1.6211 -0.0243
 7636SOL    HW234545   0.181   0.851   8.021 -1.4754 -2.6233 -1.5688
 7637SOL     OW34546   0.883   4.487  16.065  0.5167 -1.0637  0.2385
 7637SOL    HW134547   0.968   4.449  16.088  0.3415 -1.8225 -0.3737
 7637SOL    HW234548   0.844   4.485  16.152  0.9743  1.6164  0.5317
 7638SOL     OW34549   0.752   4.405   8.718  0.1632 -0.4202  0.0898
 7638SOL    HW134550   0.722   4.493   8.740  1.3713 -0.4081  1.7327
 7638SOL    HW234551   0.753   4.371   8.808 -2.2786  0.9756  0.6438
 7639SOL     OW34552   2.173   1.256  16.655  0.4343 -0.3502  0.1720
 7639SOL    HW134553   2.125   1.206  16.720 -0.7698  0.5113 -0.0636
 7639SOL    HW234554   2.141   1.346  16.662 -0.7265 -0.9838  2.9286
 7640SOL     OW34555   3.778   1.785   7.632  0.3018 -0.1061 -0.3924
 7640SOL    HW134556   3.706   1.847   7.623  1.7063  1.5911 -0.0688
 7640SOL    HW234557   3.789   1.760   7.723  0.7924 -2.1039 -0.9839
 7641SOL     OW34558   1.616   4.419   5.308 -1.3173 -0.3236  0.0799
 7641SOL    HW134559   1.603   4.392   5.217  0.8301 -1.1185  0.0145
 7641SOL    HW234560   1.680   4.355   5.337 -2.5686 -1.0302  1.2551
 7642SOL     OW34561   2.590   2.817   7.300 -0.3471  0.0749 -0.2627
 7642SOL    HW134562   2.673   2.793   7.258  0.1674  1.4730 -0.0373
 7642SOL    HW234563   2.561   2.883   7.237  1.5415  0.3344 -0.8466
 7643SOL     OW34564   2.287   4.116  16.527  0.2990  0.2241  0.4279
 7643SOL    HW134565   2.378   4.143  16.542  0.1121  1.0446  0.0574
 7643SOL    HW234566   2.272   4.113  16.622  0.4404 -0.3141  0.4339
 7644SOL     OW34567   1.502   2.083  11.433 -1.0160  0.0406  0.0008
 7644SOL    HW134568   1.411   2.058  11.420 -1.2241  1.1871 -0.7595
 7644SOL    HW234569   1.536   2.049  11.351  0.1444 -0.2743  0.6098
 7645SOL     OW34570   0.451   4.279   3.762 -0.0975 -0.0715  0.2197
 7645SOL    HW134571   0.419   4.283   3.852 -0.3512  2.9450 -0.0011
 7645SOL    HW234572   0.523   4.342   3.758 -0.1605  0.0753  1.4177
 7646SOL     OW34573   0.411   4.067   4.909  0.5103 -0.1549 -0.4086
 7646SOL    HW134574   0.489   4.023   4.942  0.3221 -2.6729 -3.2859
 7646SOL    HW234575   0.447   4.140   4.858  0.0603  0.0973 -0.3682
 7647SOL     OW34576   2.852   2.372   1.431  0.1109 -0.1841  0.2046
 7647SOL    HW134577   2.802   2.441   1.388 -1.0136 -1.3919 -0.4237
 7647SOL    HW234578   2.854   2.385   1.526 -0.1697  1.5583 -0.0217
 7648SOL     OW34579   3.470   3.523  17.185  0.2584  0.5168 -0.8180
 7648SOL    HW134580   3.517   3.534  17.267 -0.3189  0.9705 -0.5476
 7648SOL    HW234581   3.535   3.461  17.152  0.3453  0.4478 -0.5144
 7649SOL     OW34582   2.487   2.134   5.544 -0.5148  0.1031 -0.1520
 7649SOL    HW134583   2.446   2.057   5.505  1.8490 -1.5289  0.5206
 7649SOL    HW234584   2.455   2.198   5.482  3.0207  1.1034 -0.9533
 7650SOL     OW34585   3.527   0.876   9.422  0.1403 -0.2821  0.0850
 7650SOL    HW134586   3.564   0.902   9.506 -2.4756  0.2518  1.0774
 7650SOL    HW234587   3.554   0.785   9.412 -0.0836 -0.1976 -1.2322
 7651SOL     OW34588   0.158   0.506   6.281 -0.0548  0.1044 -0.1508
 7651SOL    HW134589   0.188   0.447   6.350 -0.3256  0.4938  0.3069
 7651SOL    HW234590   0.242   0.543   6.255 -1.1343  1.8398 -1.1088
 7652SOL     OW34591   2.579   3.137   5.031  0.4094  0.2596 -0.0340
 7652SOL    HW134592   2.520   3.210   5.049 -0.1805 -0.3791  0.6355
 7652SOL    HW234593   2.620   3.165   4.950 -3.6036 -1.4339 -2.6303
 7653SOL     OW34594   0.105   1.228   7.002  0.1353 -0.2555  0.5817
 7653SOL    HW134595   0.057   1.306   6.975  1.0573  0.6751  1.5962
 7653SOL    HW234596   0.099   1.230   7.098  3.4614  3.7128  0.6888
 7654SOL     OW34597   4.589   3.106   4.377 -0.0716 -0.1475 -0.2241
 7654SOL    HW134598   4.617   3.143   4.294  2.1365 -1.5599 -0.1077
 7654SOL    HW234599   4.496   3.126   4.379 -0.2516 -1.2809  3.3938
 7655SOL     OW34600   1.351   2.781   7.125  0.5558 -0.1612  0.5270
 7655SOL    HW134601   1.287   2.720   7.160  0.2877 -0.6549 -0.8375
 7655SOL    HW234602   1.395   2.721   7.066  1.4636  1.6889 -0.6870
 7656SOL     OW34603   3.055   0.273   2.106  0.1420 -0.4210  0.2181
 7656SOL    HW134604   3.002   0.348   2.078  0.9970  0.1434  0.1083
 7656SOL    HW234605   3.063   0.297   2.199 -1.1327 -3.3275  1.0748
 7657SOL     OW34606   1.464   0.747  10.427 -0.4077 -0.0464 -0.2653
 7657SOL    HW134607   1.444   0.839  10.448  1.2305  0.1113  0.5371
 7657SOL    HW234608   1.527   0.730  10.497 -2.3637  1.2403  1.8147
 7658SOL     OW34609   1.804   2.753   8.974  0.5149  0.2780  0.3887
 7658SOL    HW134610   1.816   2.766   9.068 -0.1156  1.5792  0.2888
 7658SOL    HW234611   1.896   2.733   8.956  0.3676 -0.1946  0.1620
 7659SOL     OW34612   1.428   1.367   3.071 -0.4319  0.7176  0.2875
 7659SOL    HW134613   1.521   1.379   3.055 -0.4488  0.7800  0.2349
 7659SOL    HW234614   1.386   1.453   3.065  1.4578  1.8920  3.9234
 7660SOL     OW34615   3.075   2.731   8.828  0.1882 -0.2286 -0.4742
 7660SOL    HW134616   3.155   2.680   8.811  1.0881  1.4023 -1.0793
 7660SOL    HW234617   3.020   2.713   8.751  0.4207  2.1291 -1.1780
 7661SOL     OW34618   0.958   3.809   3.090  0.1877  0.3590 -0.3029
 7661SOL    HW134619   0.934   3.770   3.174  0.5245 -0.8176 -0.7560
 7661SOL    HW234620   0.946   3.744   3.022 -0.2233 -0.4989  0.5968
 7662SOL     OW34621   1.574   2.146   7.200  0.1981  0.1153 -0.0792
 7662SOL    HW134622   1.552   2.168   7.110 -0.8903 -1.0348 -0.1089
 7662SOL    HW234623   1.489   2.115   7.234 -0.1074  1.0950  0.0628
 7663SOL     OW34624   3.666   1.351   3.501  0.3757  0.2625 -0.1582
 7663SOL    HW134625   3.702   1.435   3.472  0.9266  0.1556  0.2000
 7663SOL    HW234626   3.737   1.287   3.498  1.8706  2.0262 -2.2006
 7664SOL     OW34627   3.379   3.835  10.511 -0.1435 -0.2048 -0.7243
 7664SOL    HW134628   3.386   3.886  10.591 -3.5431 -1.0658  0.0989
 7664SOL    HW234629   3.439   3.764  10.532  1.1630  1.0060 -0.3916
 7665SOL     OW34630   2.435   3.120   8.185 -0.2886 -0.2167  0.1795
 7665SOL    HW134631   2.416   3.169   8.265  1.0788  0.9359 -0.1860
 7665SOL    HW234632   2.530   3.119   8.200 -0.4646  3.0960  1.4519
 7666SOL     OW34633   2.092   1.660  13.445  0.5779  0.1714  0.1788
 7666SOL    HW134634   2.021   1.693  13.390  0.8962  1.7223  0.6964
 7666SOL    HW234635   2.102   1.581  13.391  2.9553  0.4277  0.2486
 7667SOL     OW34636   2.711   1.264   2.328  0.2926 -0.1994  0.5371
 7667SOL    HW134637   2.802   1.291   2.310 -0.0700  0.3150 -0.5413
 7667SOL    HW234638   2.727   1.172   2.347 -0.8026 -0.8422 -1.6278
 7668SOL     OW34639   2.910   4.471  14.469 -0.4323 -0.0905  0.4835
 7668SOL    HW134640   2.936   4.550  14.516  0.1950  0.4841 -0.8459
 7668SOL    HW234641   2.983   4.470  14.407 -0.3280 -0.2127  0.6064
 7669SOL     OW34642   3.281   2.717  10.236  0.1456  0.1131 -0.1209
 7669SOL    HW134643   3.298   2.720  10.142 -2.6392 -0.9236 -0.6646
 7669SOL    HW234644   3.260   2.624  10.243 -0.1685  0.1664 -0.3422
 7670SOL     OW34645   0.256   0.018   8.882 -0.2276  0.3158  0.3080
 7670SOL    HW134646   0.301   4.734   8.964  1.1826  0.3732 -0.4517
 7670SOL    HW234647   0.196   0.086   8.912 -2.2416 -1.5084  0.3839
 7671SOL     OW34648   4.084   2.478  15.418  0.1845  0.1295 -0.8651
 7671SOL    HW134649   4.061   2.389  15.445  0.3688  0.7863  1.5183
 7671SOL    HW234650   4.006   2.527  15.444  1.6174  1.2214  1.3450
 7672SOL     OW34651   0.463   0.783   7.388 -0.4223 -0.9465  0.1805
 7672SOL    HW134652   0.470   0.748   7.476 -0.9778 -0.6547  0.3464
 7672SOL    HW234653   0.469   0.877   7.405  0.0168 -0.7702 -0.9188
 7673SOL     OW34654   3.093   3.863  16.120 -0.4004  0.1582 -0.1354
 7673SOL    HW134655   3.057   3.797  16.180 -1.3844 -0.0532 -0.9703
 7673SOL    HW234656   3.017   3.915  16.094  0.4836  0.5025 -1.9629
 7674SOL     OW34657   0.361   0.917   5.610 -0.0739  0.3713 -0.5905
 7674SOL    HW134658   0.348   0.871   5.527 -0.4032 -0.6622  0.0360
 7674SOL    HW234659   0.451   0.950   5.605  0.7587 -1.7306  0.5388
 7675SOL     OW34660   0.769   1.584   3.183 -0.2415 -0.1543  0.2586
 7675SOL    HW134661   0.809   1.627   3.107 -1.5909  0.8819  0.1329
 7675SOL    HW234662   0.730   1.664   3.218 -0.5373  0.7213 -2.0536
 7676SOL     OW34663   0.097   3.463   1.343  0.0724  0.0278  0.6994
 7676SOL    HW134664   0.026   3.400   1.359  2.1625 -2.5634 -0.1092
 7676SOL    HW234665   0.153   3.400   1.297  0.0076  1.6117 -1.5069
 7677SOL     OW34666   0.791   3.919  16.121  0.2251  0.2940  0.3604
 7677SOL    HW134667   0.846   3.982  16.075  0.9616 -1.6905 -1.5017
 7677SOL    HW234668   0.761   3.971  16.195 -0.7932 -0.9504  0.8212
 7678SOL     OW34669   0.107   4.670  14.331  0.3297  0.5801  0.0316
 7678SOL    HW134670   0.041   4.604  14.352  1.6617 -0.4879  0.9139
 7678SOL    HW234671   0.073   0.010  14.374 -1.4705 -2.3198  3.8116
 7679SOL     OW34672   3.640   1.866   5.179  0.1752  0.3178 -0.6207
 7679SOL    HW134673   3.548   1.869   5.206  0.2455 -1.1020 -0.1712
 7679SOL    HW234674   3.634   1.832   5.090 -0.6597  0.7189 -0.7204
 7680SOL     OW34675   0.239   3.664   8.083  0.7078  0.6788 -0.3258
 7680SOL    HW134676   0.289   3.594   8.125  3.1865  2.2558 -0.6233
 7680SOL    HW234677   0.210   3.719   8.155  1.7408 -0.5400  1.0100
 7681SOL     OW34678   2.300   3.504   5.403 -0.2839  0.3597 -0.7305
 7681SOL    HW134679   2.288   3.587   5.357 -1.7360  0.9760  0.7893
 7681SOL    HW234680   2.244   3.447   5.350  0.8436 -1.1234 -0.3445
 7682SOL     OW34681   0.845   0.896   5.487 -0.0714  0.3663  0.3587
 7682SOL    HW134682   0.771   0.950   5.459  0.4339  0.7280 -0.2735
 7682SOL    HW234683   0.795   0.817   5.509  0.2641  0.0311 -0.0985
 7683SOL     OW34684   3.162   0.216   0.294  0.3639 -0.2303 -0.0881
 7683SOL    HW134685   3.212   0.234   0.374 -1.0874 -0.1554  0.8109
 7683SOL    HW234686   3.204   0.137   0.262  1.1096 -0.2720  0.9857
 7684SOL     OW34687   3.175   1.861   3.390  0.0862  0.0956  0.0154
 7684SOL    HW134688   3.244   1.797   3.405  0.1392  0.0451 -0.4308
 7684SOL    HW234689   3.092   1.814   3.397  0.1575  0.3408  2.4581
 7685SOL     OW34690   0.648   4.496   3.900  0.3962 -0.6404  0.5082
 7685SOL    HW134691   0.596   4.544   3.835  0.8264  0.9338  1.3124
 7685SOL    HW234692   0.608   4.518   3.984 -1.3519  0.9726 -0.7205
 7686SOL     OW34693   2.537   3.334   5.300  0.0508 -0.5713 -0.2607
 7686SOL    HW134694   2.455   3.366   5.338  0.0470  0.8426 -1.4671
 7686SOL    HW234695   2.504   3.314   5.213 -0.5507  1.2839 -0.4461
 7687SOL     OW34696   1.455   2.153   9.180  0.5019  0.4292 -0.2891
 7687SOL    HW134697   1.470   2.245   9.160 -1.2517  0.7415 -0.1561
 7687SOL    HW234698   1.540   2.127   9.214  0.1287  1.8855  1.7894
 7688SOL     OW34699   4.354   3.732   0.333  0.1169  0.4032 -0.0511
 7688SOL    HW134700   4.263   3.705   0.318  0.8611 -3.4042  2.1935
 7688SOL    HW234701   4.340   3.802   0.397  0.7560  3.1760 -2.9441
 7689SOL     OW34702   0.537   3.561   1.893 -0.1852  0.8862  0.5990
 7689SOL    HW134703   0.616   3.508   1.887 -0.6876  0.0861  1.1328
 7689SOL    HW234704   0.570   3.649   1.912  0.5927  0.2234  2.3098
 7690SOL     OW34705   3.638   2.200   3.496  0.5001  0.6718 -0.0691
 7690SOL    HW134706   3.592   2.256   3.558  1.3136 -0.1194  1.2512
 7690SOL    HW234707   3.700   2.156   3.553 -1.8540 -0.5576  1.5271
 7691SOL     OW34708   4.140   0.541   0.760  0.1917 -0.2855  0.1815
 7691SOL    HW134709   4.173   0.468   0.811 -1.6958  0.0019  1.8222
 7691SOL    HW234710   4.196   0.613   0.790  0.6275  0.2830 -2.0170
 7692SOL     OW34711   4.023   0.640   9.023  0.7794 -0.2693  0.4188
 7692SOL    HW134712   4.067   0.580   9.083 -1.6146 -1.2166  1.2096
 7692SOL    HW234713   4.083   0.715   9.019  1.8571 -1.1159  0.9157
 7693SOL     OW34714   2.471   1.568   3.273 -0.5127  0.0997  0.1034
 7693SOL    HW134715   2.434   1.607   3.194 -0.9290  1.4512  0.9671
 7693SOL    HW234716   2.390   1.562   3.323  0.9588 -1.1453  2.3136
 7694SOL     OW34717   0.257   1.845   4.032 -0.1143  0.3141 -0.0984
 7694SOL    HW134718   0.172   1.863   3.992  1.7003  1.6301 -3.3870
 7694SOL    HW234719   0.227   1.773   4.087  1.4150 -2.0524 -2.3078
 7695SOL     OW34720   3.464   0.733   1.614  0.3699  0.6692  0.0825
 7695SOL    HW134721   3.469   0.795   1.687 -2.1498  1.6286 -0.5503
 7695SOL    HW234722   3.518   0.786   1.556  2.3136 -1.3635  0.0253
 7696SOL     OW34723   0.201   3.437  17.655  0.5788  0.0118 -0.0841
 7696SOL    HW134724   0.236   3.509  17.707 -1.0136  1.2162 -0.6936
 7696SOL    HW234725   0.109   3.463  17.658  0.8439  1.1781 -2.0696
 7697SOL     OW34726   4.614   1.699   8.916  0.2670  0.2359 -0.1124
 7697SOL    HW134727   4.690   1.678   8.970  0.1667 -2.7252 -1.1298
 7697SOL    HW234728   4.595   1.784   8.956  3.3325  0.9032 -0.1318
 7698SOL     OW34729   1.705   1.919   0.550  0.2563 -0.0577  0.0422
 7698SOL    HW134730   1.795   1.887   0.544  0.7085  0.7723  2.4409
 7698SOL    HW234731   1.708   1.968   0.468 -2.5991  0.5479  0.3181
 7699SOL     OW34732   0.709   0.304  11.578 -0.0707  0.1297  0.7194
 7699SOL    HW134733   0.797   0.298  11.614 -0.8213 -1.6469  2.2889
 7699SOL    HW234734   0.711   0.245  11.503  1.8713  0.9265  0.1566
 7700SOL     OW34735   2.941   0.134  16.455  0.3920 -0.0231 -0.0015
 7700SOL    HW134736   2.911   0.044  16.448  2.0292 -0.6101  0.4801
 7700SOL    HW234737   2.856   0.174  16.475 -0.1267 -1.4146  0.5068
 7701SOL     OW34738   4.596   1.728   3.605 -0.1873  0.5598  0.0125
 7701SOL    HW134739   4.687   1.701   3.589 -0.6482 -0.9439 -0.1032
 7701SOL    HW234740   4.558   1.710   3.519 -1.9174  0.1982  0.8549
 7702SOL     OW34741   2.405   0.506   8.109  0.2311  0.1087 -0.5884
 7702SOL    HW134742   2.445   0.423   8.136 -0.7887  0.6385  2.6180
 7702SOL    HW234743   2.417   0.567   8.182  1.1879  0.1110 -0.7501
 7703SOL     OW34744   0.371   1.378   0.042  0.3955  0.2065  0.2680
 7703SOL    HW134745   0.448   1.431   0.059 -1.2816  1.3913  4.1692
 7703SOL    HW234746   0.425   1.328  17.730 -0.2094  1.8800 -1.5787
 7704SOL     OW34747   3.415   2.715   7.858 -0.2647 -0.2975 -0.2250
 7704SOL    HW134748   3.473   2.731   7.783  1.3886 -1.6421  0.7602
 7704SOL    HW234749   3.370   2.799   7.854 -0.0969 -0.1171  1.6921
 7705SOL     OW34750   3.896   3.828  13.061 -0.5136  0.0484  0.3752
 7705SOL    HW134751   3.864   3.793  13.145  0.6888 -1.4175  0.2340
 7705SOL    HW234752   3.923   3.916  13.087 -0.4057 -0.8656  3.3813
 7706SOL     OW34753   0.591   2.437   6.603 -0.1166  0.1112  0.4022
 7706SOL    HW134754   0.676   2.414   6.642  1.8047  3.7816 -1.6791
 7706SOL    HW234755   0.579   2.369   6.537 -2.4077 -0.7705  1.7284
 7707SOL     OW34756   3.563   3.905   3.380  0.1149  0.0674  0.8591
 7707SOL    HW134757   3.628   3.975   3.386  1.2210 -1.0334  1.6795
 7707SOL    HW234758   3.565   3.895   3.285  0.3053  1.9232  0.6808
 7708SOL     OW34759   4.378   3.721   6.629 -0.2037  0.0597 -0.2335
 7708SOL    HW134760   4.334   3.638   6.613  1.0937 -0.4329 -1.2242
 7708SOL    HW234761   4.353   3.780   6.557 -0.0414  1.0062  0.4815
 7709SOL     OW34762   4.273   3.376   6.896  0.0107  0.1112 -0.2008
 7709SOL    HW134763   4.186   3.398   6.929  0.2208  2.3231 -1.1141
 7709SOL    HW234764   4.317   3.328   6.966 -0.3073  1.1917  0.7480
 7710SOL     OW34765   2.299   4.603   8.270  0.0371 -0.3115  0.4778
 7710SOL    HW134766   2.212   4.587   8.306 -1.2492  2.6345 -1.2590
 7710SOL    HW234767   2.361   4.539   8.304 -0.9939 -1.1371  0.7845
 7711SOL     OW34768   0.971   1.370   5.824 -0.0755 -0.0495  0.8180
 7711SOL    HW134769   0.900   1.434   5.819  0.4395  0.3735 -1.1687
 7711SOL    HW234770   0.979   1.366   5.920  2.0941  1.0289  0.6924
 7712SOL     OW34771   4.492   2.631   9.069 -0.1631 -0.3846 -0.1160
 7712SOL    HW134772   4.539   2.550   9.088 -1.9590 -1.4553 -0.2309
 7712SOL    HW234773   4.440   2.587   9.002  1.4903  0.1580 -1.7641
 7713SOL     OW34774   2.172   2.274   8.185  0.4794 -0.1899  0.0080
 7713SOL    HW134775   2.132   2.192   8.214  0.2516  0.5589  1.8057
 7713SOL    HW234776   2.173   2.314   8.272  0.7801  0.4315 -0.2811
 7714SOL     OW34777   1.864   3.878   6.506  0.4238  0.7504 -0.8171
 7714SOL    HW134778   1.881   3.795   6.461 -0.4790  1.4039 -2.3609
 7714SOL    HW234779   1.901   3.867   6.594  2.0183  0.3779 -1.5182
 7715SOL     OW34780   3.648   3.096   8.343  0.1488 -0.1623 -0.1374
 7715SOL    HW134781   3.628   3.097   8.249 -0.2725 -3.0950 -0.0593
 7715SOL    HW234782   3.587   3.030   8.374 -0.1812 -0.0468 -0.5263
 7716SOL     OW34783   1.315   2.946   8.936 -0.8997  0.6798  0.7816
 7716SOL    HW134784   1.308   3.027   8.887 -3.0263 -0.5558 -0.9356
 7716SOL    HW234785   1.410   2.933   8.933 -0.8418  0.7837  2.2636
 7717SOL     OW34786   2.349   1.166   9.297 -0.0399  0.1732 -0.2722
 7717SOL    HW134787   2.400   1.242   9.325 -1.3908  0.8392  0.4170
 7717SOL    HW234788   2.424   1.113   9.270 -1.0903 -1.2961 -0.2893
 7718SOL     OW34789   1.355   2.846   1.927 -0.6150 -0.2254 -0.4240
 7718SOL    HW134790   1.273   2.833   1.879 -1.3089 -0.1515  0.7345
 7718SOL    HW234791   1.357   2.753   1.950 -0.9553  0.1667  1.2012
 7719SOL     OW34792   2.010   0.689   6.091  0.0364 -0.6851  0.7620
 7719SOL    HW134793   2.089   0.742   6.103  0.3352 -0.9875  0.1383
 7719SOL    HW234794   1.938   0.744   6.123  0.7807 -1.0302  3.0675
 7720SOL     OW34795   0.502   4.520  11.912  0.0306 -0.4754 -0.2628
 7720SOL    HW134796   0.493   4.454  11.844  0.6832  2.1855 -2.8943
 7720SOL    HW234797   0.460   4.476  11.986 -0.1990 -1.9488 -1.2870
 7721SOL     OW34798   3.610   4.346  11.698  0.0468 -0.5897  0.2849
 7721SOL    HW134799   3.644   4.395  11.622 -0.1867  0.7617  1.0446
 7721SOL    HW234800   3.521   4.381  11.700  0.8313  1.4840 -0.9240
 7722SOL     OW34801   2.280   4.356   8.913 -0.3865  0.1131 -0.0584
 7722SOL    HW134802   2.312   4.266   8.915 -1.1289 -0.1191  1.5644
 7722SOL    HW234803   2.188   4.347   8.938 -0.6415 -0.7694 -1.3475
 7723SOL     OW34804   4.256   0.941  10.025  0.0979 -0.1674 -0.3191
 7723SOL    HW134805   4.297   1.016  10.066 -2.4115  0.6247  0.7226
 7723SOL    HW234806   4.331   0.910   9.975  0.8683 -0.2908  0.9295
 7724SOL     OW34807   3.492   4.713   4.855  0.5239  0.2347 -0.1131
 7724SOL    HW134808   3.560   0.040   4.867  1.4079 -1.0186  1.6690
 7724SOL    HW234809   3.535   4.632   4.883  1.1423  0.8026  0.5431
 7725SOL     OW34810   3.461   2.218  15.897  0.2606 -0.5463  0.3600
 7725SOL    HW134811   3.385   2.276  15.900  1.1328  0.4428  3.2827
 7725SOL    HW234812   3.516   2.253  15.967  0.8532  0.2156 -0.4863
 7726SOL     OW34813   3.159   4.359  11.441 -0.3270  0.0491 -0.3522
 7726SOL    HW134814   3.080   4.307  11.430  0.4173 -1.2312  0.4216
 7726SOL    HW234815   3.120   4.443  11.416  0.8763  0.4319 -0.9751
 7727SOL     OW34816   1.931   2.118   8.230  0.5078  0.5070 -0.2119
 7727SOL    HW134817   1.859   2.091   8.286  0.6833  1.5658  0.5300
 7727SOL    HW234818   1.892   2.185   8.174 -0.2842  0.8050  0.6827
 7728SOL     OW34819   0.775   2.532   6.129 -0.0234 -0.1186  0.2721
 7728SOL    HW134820   0.694   2.567   6.092 -0.6671 -1.5647  0.3464
 7728SOL    HW234821   0.779   2.576   6.214  0.6182 -0.3881  0.3809
 7729SOL     OW34822   2.146   3.958   9.030  0.0785 -0.4044  0.0454
 7729SOL    HW134823   2.159   4.020   9.102 -0.4616 -0.6721  0.3680
 7729SOL    HW234824   2.231   3.930   8.996  0.5572 -0.6204  1.4152
 7730SOL     OW34825   3.437   2.275   5.398  0.4808  0.7365 -0.0282
 7730SOL    HW134826   3.361   2.318   5.358 -0.5453 -2.2732 -1.2416
 7730SOL    HW234827   3.450   2.193   5.351  4.2859  0.9958  0.5307
 7731SOL     OW34828   1.882   0.078   0.848  0.8714  0.6637 -0.1419
 7731SOL    HW134829   1.923   0.132   0.780  1.4834 -0.6907 -0.8458
 7731SOL    HW234830   1.929   0.098   0.929 -0.9660  0.8882  0.8776
 7732SOL     OW34831   2.073   2.016   5.313  0.8556 -0.1080  0.5963
 7732SOL    HW134832   2.046   2.108   5.303  1.4233 -0.0383 -0.2659
 7732SOL    HW234833   2.070   1.997   5.407 -4.7312  1.9297  0.8514
 7733SOL     OW34834   3.287   0.305   6.752 -0.2122  0.0672 -0.1562
 7733SOL    HW134835   3.347   0.243   6.711  0.3475  0.8018 -0.4581
 7733SOL    HW234836   3.213   0.250   6.776  0.0682 -0.1273  0.2608
 7734SOL     OW34837   4.112   3.701   8.045  0.2072  0.3140 -0.5619
 7734SOL    HW134838   4.055   3.634   8.082  0.2435  0.8164  0.4280
 7734SOL    HW234839   4.078   3.697   7.956  0.0950  1.4187 -0.5678
 7735SOL     OW34840   1.836   1.310   6.206  0.4548 -0.1112 -0.2252
 7735SOL    HW134841   1.804   1.249   6.140  0.2451  1.6318 -1.7227
 7735SOL    HW234842   1.780   1.295   6.282  0.8047  1.1606  0.2885
 7736SOL     OW34843   3.680   3.799   3.684 -0.3413 -0.2605  0.1652
 7736SOL    HW134844   3.756   3.843   3.644 -0.6742  1.4820  1.4561
 7736SOL    HW234845   3.724   3.718   3.709  1.8253  0.0556 -2.5783
 7737SOL     OW34846   3.797   0.064   3.046  0.5562 -0.0837  0.0475
 7737SOL    HW134847   3.738   0.070   3.121  0.4827  0.8883 -0.0921
 7737SOL    HW234848   3.779   0.143   2.995 -0.5248 -0.5181 -0.2319
 7738SOL     OW34849   3.822   2.092   8.474  0.2402 -0.0831 -0.0786
 7738SOL    HW134850   3.745   2.037   8.461 -1.9804  2.1329  3.4569
 7738SOL    HW234851   3.827   2.141   8.392 -2.1396 -0.9220 -0.7134
 7739SOL     OW34852   3.775   0.288   2.582 -0.3526  0.2337  0.6710
 7739SOL    HW134853   3.775   0.282   2.677  1.4305  2.6039  0.8084
 7739SOL    HW234854   3.701   0.229   2.570 -1.8012  2.1870 -0.1255
 7740SOL     OW34855   2.566   2.157   7.503 -0.6732 -0.0776  0.4057
 7740SOL    HW134856   2.505   2.149   7.429  1.8040 -2.4956 -1.3981
 7740SOL    HW234857   2.614   2.232   7.468 -0.5395  0.1159  1.0055
 7741SOL     OW34858   0.986   2.283  16.971 -0.1216 -0.3041  0.3865
 7741SOL    HW134859   0.986   2.344  16.897 -0.6675 -0.6496  0.0999
 7741SOL    HW234860   1.064   2.325  17.008 -0.7852 -0.0550  1.4866
 7742SOL     OW34861   0.101   1.125   2.255  0.0215  0.4164 -0.3344
 7742SOL    HW134862   0.011   1.108   2.227 -0.7854 -1.0035  3.1466
 7742SOL    HW234863   0.119   1.202   2.200 -0.2994 -0.0401 -1.0764
 7743SOL     OW34864   3.339   1.826   3.695 -0.0044  0.0992  0.0431
 7743SOL    HW134865   3.278   1.755   3.718  0.7333 -0.6035 -0.1789
 7743SOL    HW234866   3.338   1.877   3.776 -3.2337 -1.1701  0.8149
 7744SOL     OW34867   0.171   2.693  10.993 -0.3310  0.0299 -0.5194
 7744SOL    HW134868   0.179   2.608  11.036 -1.5406  0.6272  0.8889
 7744SOL    HW234869   0.085   2.720  11.025  0.3760  2.1366 -0.4429
 7745SOL     OW34870   1.662   1.620   1.116  0.4752  0.1577  0.2511
 7745SOL    HW134871   1.617   1.540   1.090  0.3708  0.2033  0.2926
 7745SOL    HW234872   1.646   1.630   1.210 -1.6956 -1.9561  0.0964
 7746SOL     OW34873   3.891   0.262  17.145 -0.0805 -0.2969 -0.1204
 7746SOL    HW134874   3.811   0.259  17.197 -0.2144 -1.0906 -0.3861
 7746SOL    HW234875   3.916   0.355  17.151 -1.3354  0.0929 -0.9017
 7747SOL     OW34876   0.298   0.433   5.742  0.2019 -0.2581  0.5421
 7747SOL    HW134877   0.307   0.462   5.651 -1.0045  1.6541  1.0173
 7747SOL    HW234878   0.205   0.412   5.752  0.4729 -1.6817  0.0257
 7748SOL     OW34879   2.279   2.933   7.199  0.0506 -0.3253 -0.1222
 7748SOL    HW134880   2.314   2.871   7.263  1.1731  0.2379 -0.1945
 7748SOL    HW234881   2.359   2.970   7.162 -2.1851  2.1006 -2.5871
 7749SOL     OW34882   2.050   2.712   1.074 -0.1906  0.1576 -0.6142
 7749SOL    HW134883   2.140   2.724   1.044  0.4497 -1.0296  0.7927
 7749SOL    HW234884   2.035   2.794   1.121 -1.6244 -1.0103  0.9739
 7750SOL     OW34885   0.009   4.261   4.955 -0.1260  0.7133  0.0573
 7750SOL    HW134886   4.666   4.215   4.933  1.3485 -2.6196  1.6088
 7750SOL    HW234887   0.062   4.187   4.984 -1.2812 -1.0470 -2.3684
 7751SOL     OW34888   3.578   2.543   2.387 -0.3109  0.3235 -0.2971
 7751SOL    HW134889   3.658   2.516   2.342  0.3551  1.9972 -0.1132
 7751SOL    HW234890   3.627   2.622   2.408  1.8955 -1.2028  0.1954
 7752SOL     OW34891   1.099   1.021   7.688  0.2809 -0.1625  0.0537
 7752SOL    HW134892   1.085   1.092   7.750 -0.0980 -2.3607  2.4953
 7752SOL    HW234893   1.129   0.946   7.739 -1.5812 -1.6293 -1.0150
 7753SOL     OW34894   0.590   3.903   3.814  0.0255  0.2134  0.3670
 7753SOL    HW134895   0.557   3.882   3.727 -0.2463 -0.6022  0.6674
 7753SOL    HW234896   0.651   3.831   3.826  1.8036  1.8778  1.4392
 7754SOL     OW34897   0.095   3.124   5.632 -0.0888  0.4080  0.5584
 7754SOL    HW134898   0.161   3.056   5.620 -0.2235  0.7128 -1.9012
 7754SOL    HW234899   0.018   3.081   5.594  0.7966  0.2787 -1.0946
 7755SOL     OW34900   3.579   1.093   4.613  0.2539 -0.6979  0.2135
 7755SOL    HW134901   3.491   1.131   4.602  1.5143  1.6410 -1.9108
 7755SOL    HW234902   3.568   1.042   4.533 -0.7344  0.1227 -0.1773
 7756SOL     OW34903   1.129   3.521   3.177 -0.3531  0.0323 -0.2954
 7756SOL    HW134904   1.061   3.577   3.214 -1.6354 -0.0121 -2.5961
 7756SOL    HW234905   1.154   3.563   3.095  1.1027 -0.1659  0.0568
 7757SOL     OW34906   3.851   1.563   8.533  0.8781  0.1616 -0.3236
 7757SOL    HW134907   3.900   1.643   8.511  0.9277 -0.4501 -2.5147
 7757SOL    HW234908   3.784   1.560   8.465  0.5694 -0.4706  0.0117
 7758SOL     OW34909   3.902   3.620  16.565 -0.1351 -0.4981  0.1534
 7758SOL    HW134910   3.896   3.699  16.620  0.4188  0.2176 -0.8173
 7758SOL    HW234911   3.994   3.631  16.538 -0.6921  1.6287 -0.8776
 7759SOL     OW34912   4.532   1.226  17.701 -0.7024 -0.1265 -0.0303
 7759SOL    HW134913   4.576   1.142  17.715  0.7424  0.6152 -0.0743
 7759SOL    HW234914   4.464   1.228   0.017  0.1336 -0.7200  0.8549
 7760SOL     OW34915   1.937   1.690   4.738  0.3250 -0.2204  0.6741
 7760SOL    HW134916   1.977   1.618   4.689  1.5231 -0.3765  1.8867
 7760SOL    HW234917   1.994   1.767   4.732 -2.2953  1.6816  0.2474
 7761SOL     OW34918   4.008   2.179   8.179  0.4163  0.7251 -0.2426
 7761SOL    HW134919   4.103   2.167   8.179  0.3745  0.4273 -1.7393
 7761SOL    HW234920   3.969   2.096   8.154  2.1571  0.4268 -1.9523
 7762SOL     OW34921   0.584   3.737  16.093  0.3331 -0.4234  0.5273
 7762SOL    HW134922   0.657   3.798  16.104  0.3117 -0.5030  1.1206
 7762SOL    HW234923   0.516   3.786  16.140  0.0909 -0.9122  0.6795
 7763SOL     OW34924   3.351   3.047   4.983 -0.4159  0.1918  0.6915
 7763SOL    HW134925   3.381   3.041   4.893 -0.0093  0.2192  0.8223
 7763SOL    HW234926   3.354   2.953   5.003  1.7028 -0.2884 -1.8889
 7764SOL     OW34927   2.767   2.862  11.923  0.0194 -0.2390  0.0534
 7764SOL    HW134928   2.794   2.857  11.831 -1.4258 -2.1245 -0.2740
 7764SOL    HW234929   2.680   2.823  11.925  0.8455 -2.2366 -2.1673
 7765SOL     OW34930   4.555   4.153   7.163  0.0850  0.1462  0.0268
 7765SOL    HW134931   4.635   4.172   7.113 -0.2510  1.0674 -0.1485
 7765SOL    HW234932   4.551   4.220   7.230  2.0135  1.0596 -0.7633
 7766SOL     OW34933   2.027   2.308   5.360 -0.1564  0.3861  0.2214
 7766SOL    HW134934   2.015   2.402   5.373 -0.8720  0.5635 -1.7987
 7766SOL    HW234935   1.941   2.285   5.324  0.9885 -0.7776 -1.7297
 7767SOL     OW34936   3.470   0.384   4.459 -0.0071  0.2819 -0.3587
 7767SOL    HW134937   3.547   0.433   4.430 -0.0384  0.3783 -0.2830
 7767SOL    HW234938   3.514   0.332   4.526  0.1461  1.2439  0.2888
 7768SOL     OW34939   1.523   3.753   4.043  0.0390  0.1745  0.1914
 7768SOL    HW134940   1.615   3.739   4.021 -0.8877 -1.8279 -2.4038
 7768SOL    HW234941   1.480   3.706   3.972  0.4108  1.0337 -0.5964
 7769SOL     OW34942   2.995   3.674  16.281 -0.7654  0.1706  0.1041
 7769SOL    HW134943   3.021   3.642  16.367 -0.2392 -0.7870 -0.4021
 7769SOL    HW234944   3.025   3.605  16.221  1.6417 -1.7902  3.5584
 7770SOL     OW34945   2.365   3.433   9.154  0.2801 -0.6116  0.2715
 7770SOL    HW134946   2.460   3.441   9.162  0.0303  1.1977  1.3976
 7770SOL    HW234947   2.326   3.517   9.177  0.1226 -0.8486  0.8603
 7771SOL     OW34948   0.860   3.414  14.617  0.4586 -0.3421  0.3488
 7771SOL    HW134949   0.765   3.423  14.610  0.3758 -0.9138  0.7083
 7771SOL    HW234950   0.866   3.319  14.604  4.2240 -0.2831  1.6468
 7772SOL     OW34951   2.484   0.933   7.896  0.3137 -1.0149  0.3362
 7772SOL    HW134952   2.482   0.935   7.800  0.8694 -1.7755  0.3142
 7772SOL    HW234953   2.495   0.840   7.916  0.1700 -1.5242 -1.9539
 7773SOL     OW34954   3.248   3.297  17.485 -0.0808 -0.2701  0.0795
 7773SOL    HW134955   3.269   3.377  17.437  2.7375 -0.3069  1.2341
 7773SOL    HW234956   3.290   3.313  17.570 -0.0043 -2.1811  0.3961
 7774SOL     OW34957   2.587   1.442   2.516  0.7912 -0.4550  0.0322
 7774SOL    HW134958   2.498   1.416   2.538  0.7788  0.8071  1.4444
 7774SOL    HW234959   2.607   1.385   2.442  0.5371  2.5956 -2.3567
 7775SOL     OW34960   4.414   2.835   1.585  0.3774 -0.0347 -0.5067
 7775SOL    HW134961   4.478   2.769   1.609 -0.9431 -1.4320 -0.8263
 7775SOL    HW234962   4.457   2.880   1.512  0.3207 -2.6143 -2.1182
 7776SOL     OW34963   1.203   2.218   3.588 -0.3024 -0.2898  0.6071
 7776SOL    HW134964   1.247   2.145   3.545 -1.4894 -1.6870  1.7893
 7776SOL    HW234965   1.222   2.290   3.528  0.8628 -2.4057 -1.5652
 7777SOL     OW34966   1.267   0.655   7.414  0.2115 -0.0021  0.5399
 7777SOL    HW134967   1.258   0.657   7.510  5.6708  1.0216  1.0522
 7777SOL    HW234968   1.245   0.562   7.403  1.9265 -0.0008 -2.8261
 7778SOL     OW34969   2.568   0.108   3.725  0.3519  0.2013 -0.2448
 7778SOL    HW134970   2.559   0.177   3.791 -1.0980 -0.5296  0.3327
 7778SOL    HW234971   2.618   0.152   3.657  0.7976 -1.2863 -0.8901
 7779SOL     OW34972   1.119   0.986   8.010 -0.0935  0.5184  0.7234
 7779SOL    HW134973   1.098   0.908   7.959  2.7330 -0.5033  1.1604
 7779SOL    HW234974   1.111   0.958   8.101  0.5455 -1.3964  0.1853
 7780SOL     OW34975   2.823   3.895   9.483 -0.2337 -0.3224 -0.1573
 7780SOL    HW134976   2.770   3.871   9.559 -1.3379  2.4453 -0.0545
 7780SOL    HW234977   2.815   3.990   9.475 -1.0583 -0.2986  1.0426
 7781SOL     OW34978   0.268   4.069  15.517  0.2997 -0.3655 -0.8180
 7781SOL    HW134979   0.188   4.022  15.543 -0.5107  0.7143 -1.3355
 7781SOL    HW234980   0.272   4.142  15.579 -1.7008  0.1957 -1.3373
 7782SOL     OW34981   4.733   0.158   1.580  0.7697 -0.1341  0.1159
 7782SOL    HW134982   4.736   0.063   1.586 -0.7115 -0.2339 -0.6692
 7782SOL    HW234983   4.689   0.197   1.656  0.6299 -1.6547  0.8252
 7783SOL     OW34984   2.550   1.323   4.589 -0.1436 -0.5120  0.3443
 7783SOL    HW134985   2.487   1.391   4.563  0.7964 -0.1476 -0.9469
 7783SOL    HW234986   2.630   1.333   4.538 -0.8072  1.6454 -0.2630
 7784SOL     OW34987   4.229   2.513   5.461  0.1230 -0.4831  0.3544
 7784SOL    HW134988   4.309   2.466   5.439 -0.9439 -1.4535 -1.4433
 7784SOL    HW234989   4.229   2.503   5.556  0.9234 -1.8724  0.2165
 7785SOL     OW34990   3.322   3.959   7.731 -0.4246  0.4159  0.3785
 7785SOL    HW134991   3.336   3.901   7.806  2.1646 -0.4688 -0.7707
 7785SOL    HW234992   3.300   4.044   7.768 -0.9610  0.4427 -0.0088
 7786SOL     OW34993   0.679   1.306   2.041 -0.5440  0.7772  0.0824
 7786SOL    HW134994   0.764   1.272   2.012 -0.1696  1.9769 -0.1976
 7786SOL    HW234995   0.683   1.286   2.135 -0.4283 -2.7553 -0.6526
 7787SOL     OW34996   0.033   2.334   6.442 -0.2948  0.2969  0.1352
 7787SOL    HW134997   4.722   2.380   6.374 -0.1193  0.2561 -0.0204
 7787SOL    HW234998   0.007   2.391   6.515 -3.7616  0.5768 -1.3321
 7788SOL     OW34999   4.177   3.253   4.588 -0.2808 -0.5108  0.2569
 7788SOL    HW135000   4.156   3.202   4.666  0.4591  0.1485  0.8861
 7788SOL    HW235001   4.212   3.328   4.636  1.0221 -0.7558 -0.3160
 7789SOL     OW35002   3.801   1.737  11.889  0.0477 -0.0209 -0.0946
 7789SOL    HW135003   3.831   1.677  11.821  0.0563 -1.1424  0.9088
 7789SOL    HW235004   3.851   1.711  11.966  1.5142  0.3522 -0.9061
 7790SOL     OW35005   3.287   1.747   6.890  0.3032  0.7084  0.3655
 7790SOL    HW135006   3.363   1.697   6.918  0.0174  0.1614  0.1615
 7790SOL    HW235007   3.270   1.792   6.973 -0.7091  0.3549  0.3473
 7791SOL     OW35008   4.647   4.364  11.676  0.1058  0.7729  0.0293
 7791SOL    HW135009   4.578   4.299  11.666  0.2263  0.8604 -1.4147
 7791SOL    HW235010   4.686   4.379  11.589  1.8848  1.0323  0.8732
 7792SOL     OW35011   4.575   3.596   4.363 -0.2495 -0.5908 -0.0959
 7792SOL    HW135012   4.646   3.660   4.371 -0.8408  0.3552 -2.5112
 7792SOL    HW235013   4.534   3.616   4.448 -0.0817  2.1194 -0.6332
 7793SOL     OW35014   4.078   0.365   3.221 -0.1168  0.2877 -0.0549
 7793SOL    HW135015   4.092   0.315   3.301  0.3079  0.0970 -0.2503
 7793SOL    HW235016   4.163   0.383   3.182  1.1619 -2.6530  1.3630
 7794SOL     OW35017   4.476   2.889  14.174 -0.6325 -0.1492  0.2499
 7794SOL    HW135018   4.533   2.816  14.200 -0.5671  0.6349  2.2772
 7794SOL    HW235019   4.495   2.951  14.245 -0.4764  0.0238  0.0573
 7795SOL     OW35020   1.807   0.847  13.177 -0.1916  0.4935  0.0168
 7795SOL    HW135021   1.837   0.757  13.182  0.2396  0.6904  1.0289
 7795SOL    HW235022   1.781   0.848  13.085 -3.1955  2.3220  0.8825
 7796SOL     OW35023   3.143   0.068  15.211  0.4743 -0.3142  0.2242
 7796SOL    HW135024   3.131   0.082  15.305  0.2412 -0.8462  0.2749
 7796SOL    HW235025   3.229   0.108  15.197 -0.1626  0.4481 -1.4820
 7797SOL     OW35026   1.443   2.788  16.961  0.0686  0.0329 -0.7100
 7797SOL    HW135027   1.436   2.872  16.916 -1.1607  0.5322  0.4007
 7797SOL    HW235028   1.460   2.805  17.053  1.3507  0.9778 -1.1358
 7798SOL     OW35029   1.266   0.230   3.329  0.3316 -0.1509  0.0921
 7798SOL    HW135030   1.236   0.307   3.280  0.5725 -1.5689 -2.2986
 7798SOL    HW235031   1.284   0.175   3.253 -2.3688  1.3736 -1.6603
 7799SOL     OW35032   1.799   1.519   9.351 -0.7884 -0.0739 -0.2711
 7799SOL    HW135033   1.865   1.534   9.283 -0.6576  0.1003 -0.1047
 7799SOL    HW235034   1.833   1.434   9.381 -2.0720 -1.0293 -1.5096
 7800SOL     OW35035   2.992   1.290  12.735 -0.1180  0.3047  0.3419
 7800SOL    HW135036   2.927   1.330  12.676 -0.1914 -2.2060 -1.2662
 7800SOL    HW235037   2.960   1.201  12.749  2.3820 -0.6991 -0.4360
 7801SOL     OW35038   0.362   1.784   6.122 -0.0432  0.0427 -0.4418
 7801SOL    HW135039   0.267   1.776   6.116 -0.1966  1.9874 -0.6363
 7801SOL    HW235040   0.387   1.700   6.084  0.6622 -0.3421  0.8854
 7802SOL     OW35041   0.587   4.006   5.709 -0.0301 -0.4413  0.2381
 7802SOL    HW135042   0.662   3.983   5.764  0.4491  2.0590  0.6294
 7802SOL    HW235043   0.520   3.953   5.753  0.1876  0.4223  1.5975
 7803SOL     OW35044   1.658   0.372  12.801  0.3975  0.0581 -0.0554
 7803SOL    HW135045   1.576   0.418  12.787 -0.1579 -0.1279  2.6998
 7803SOL    HW235046   1.636   0.315  12.875  2.1734 -1.0444 -0.3835
 7804SOL     OW35047   1.762   2.563   1.568 -0.0595 -0.0889 -0.1497
 7804SOL    HW135048   1.804   2.589   1.650  0.4109 -1.4646  0.0395
 7804SOL    HW235049   1.710   2.485   1.587  2.9316 -2.4240 -1.5045
 7805SOL     OW35050   0.820   1.053   1.500 -0.5283 -0.3303  0.5138
 7805SOL    HW135051   0.760   1.118   1.463  2.3023  1.6206 -0.7214
 7805SOL    HW235052   0.782   1.055   1.587 -1.2073 -0.7597  0.2294
 7806SOL     OW35053   2.479   2.636   3.872  0.0127 -0.3315  0.1519
 7806SOL    HW135054   2.390   2.669   3.887 -0.2439 -0.5194 -0.9474
 7806SOL    HW235055   2.481   2.616   3.778  1.1817  0.9747 -0.1131
 7807SOL     OW35056   0.259   0.191   5.926 -0.5343 -0.2277  0.4243
 7807SOL    HW135057   0.287   0.131   5.857 -1.1523 -0.8382  0.7031
 7807SOL    HW235058   0.337   0.243   5.944  0.5637 -2.1662  1.2262
 7808SOL     OW35059   2.357   2.543   8.536 -0.3589 -0.2189 -0.0544
 7808SOL    HW135060   2.429   2.483   8.556  0.0716  0.2578 -0.1609
 7808SOL    HW235061   2.390   2.583   8.455 -2.8116 -0.0718 -0.9853
 7809SOL     OW35062   0.302   2.253   4.648  0.4545  0.2540 -0.5398
 7809SOL    HW135063   0.367   2.322   4.660  0.4619  0.2949 -0.8167
 7809SOL    HW235064   0.242   2.290   4.584 -1.5499  0.6620  1.5615
 7810SOL     OW35065   1.363   1.235  14.265 -0.1695 -0.2297 -0.5132
 7810SOL    HW135066   1.282   1.254  14.312  0.2712  3.0400 -1.0409
 7810SOL    HW235067   1.419   1.197  14.333 -0.1990  1.0825  0.2585
 7811SOL     OW35068   0.638   1.913   3.996  0.3430  0.1010  0.1912
 7811SOL    HW135069   0.721   1.960   3.987 -0.2716  1.3261  0.8834
 7811SOL    HW235070   0.659   1.829   4.035  1.0570  0.8632  1.4555
 7812SOL     OW35071   3.098   2.610   9.136 -0.6021  0.1765 -0.0757
 7812SOL    HW135072   3.078   2.681   9.075 -1.5646 -0.3638 -0.3921
 7812SOL    HW235073   3.029   2.545   9.121 -0.2490 -0.0617 -0.6425
 7813SOL     OW35074   0.508   2.176  15.473 -0.3353  0.1717 -0.0117
 7813SOL    HW135075   0.465   2.161  15.557 -0.6689 -0.1608 -0.2394
 7813SOL    HW235076   0.530   2.268  15.483  2.3048 -0.5346  0.5381
 7814SOL     OW35077   1.439   1.769  14.245 -0.2347 -0.4057 -0.0516
 7814SOL    HW135078   1.380   1.814  14.306  0.4911  1.7123 -0.8845
 7814SOL    HW235079   1.393   1.688  14.228  0.3226 -1.4087  3.1976
 7815SOL     OW35080   1.108   1.494   5.650 -0.2056 -0.1009 -0.1053
 7815SOL    HW135081   1.052   1.462   5.721  0.6415 -1.9095 -0.2357
 7815SOL    HW235082   1.149   1.415   5.615 -0.7628 -0.2507 -0.4288
 7816SOL     OW35083   3.691   0.019   8.036 -0.7076 -0.5268  0.0601
 7816SOL    HW135084   3.705   4.715   8.121  2.2127  0.5946  0.1292
 7816SOL    HW235085   3.625   4.705   7.991  0.1568 -1.8279  0.3078
 7817SOL     OW35086   0.474   1.455   7.177  0.2850 -0.3046  0.4870
 7817SOL    HW135087   0.438   1.407   7.252  0.3387 -1.1624 -0.0258
 7817SOL    HW235088   0.540   1.513   7.213  1.0739 -0.5653 -0.5493
 7818SOL     OW35089   1.435   4.385   5.543 -0.3000  0.1543  0.5024
 7818SOL    HW135090   1.492   4.421   5.475 -0.7209  1.0859  0.6504
 7818SOL    HW235091   1.467   4.295   5.548 -1.4083 -0.2440  0.3961
 7819SOL     OW35092   0.970   1.629   4.655 -0.1412  0.0490  0.2933
 7819SOL    HW135093   0.978   1.583   4.739 -3.2666 -1.7110 -0.4128
 7819SOL    HW235094   0.876   1.644   4.646 -0.1350 -0.9355 -1.3746
 7820SOL     OW35095   0.513   0.259   0.819  0.1614  0.5359 -0.4498
 7820SOL    HW135096   0.502   0.171   0.783  1.2381  1.3757 -2.8568
 7820SOL    HW235097   0.428   0.258   0.864  1.3963  1.7734  1.9346
 7821SOL     OW35098   1.707   1.263  11.198  0.0136  0.6485  0.0605
 7821SOL    HW135099   1.677   1.340  11.149  0.9762 -0.1659 -1.7674
 7821SOL    HW235100   1.786   1.234  11.153  0.0864 -0.8281  1.1565
 7822SOL     OW35101   1.158   1.826  17.382  0.2323  0.4867 -0.0268
 7822SOL    HW135102   1.222   1.767  17.423  1.1367  1.7852  0.4313
 7822SOL    HW235103   1.212   1.904  17.367 -0.2548  0.2237 -3.0860
 7823SOL     OW35104   0.503   0.882   8.278 -0.0397 -0.1152  0.5639
 7823SOL    HW135105   0.442   0.952   8.255 -0.4004 -0.3086  0.9412
 7823SOL    HW235106   0.541   0.861   8.193  2.2354  2.2741  0.9707
 7824SOL     OW35107   0.451   2.948   4.855  0.2626  0.0801 -0.0998
 7824SOL    HW135108   0.463   2.965   4.948 -1.6242 -2.2388  0.5767
 7824SOL    HW235109   0.520   2.886   4.830  0.6269  0.4591 -0.0391
 7825SOL     OW35110   2.689   3.714   3.946 -0.4976  0.0527  0.3279
 7825SOL    HW135111   2.635   3.728   3.868  2.7648  2.8821 -1.4646
 7825SOL    HW235112   2.776   3.734   3.912 -1.0538  1.9632  0.0069
 7826SOL     OW35113   4.316   3.315   8.058  0.3675  0.2133 -0.5515
 7826SOL    HW135114   4.333   3.409   8.067  0.9317  0.0591 -0.0613
 7826SOL    HW235115   4.402   3.274   8.053  0.5492  0.1584  3.2853
 7827SOL     OW35116   2.353   0.098   5.405 -0.5450  0.2949 -0.2069
 7827SOL    HW135117   2.413   0.041   5.357 -0.1131 -1.1892  2.0588
 7827SOL    HW235118   2.394   0.115   5.490  0.9473 -2.9688 -0.2752
 7828SOL     OW35119   0.692   0.443  17.577  0.0875  0.1167 -0.9897
 7828SOL    HW135120   0.610   0.428  17.530 -1.0434 -1.3504  1.4237
 7828SOL    HW235121   0.749   0.372  17.549  0.6697 -0.1264  0.7996
 7829SOL     OW35122   4.616   4.103  16.033 -0.1946 -0.0355 -0.7044
 7829SOL    HW135123   4.625   4.125  15.941 -2.0065  0.2212 -0.8254
 7829SOL    HW235124   4.573   4.176  16.078 -0.2826  0.1712 -1.1309
 7830SOL     OW35125   1.780   0.839   3.239 -0.3715 -0.4634 -0.8975
 7830SOL    HW135126   1.717   0.875   3.176  1.6000  3.2944 -0.7008
 7830SOL    HW235127   1.862   0.848   3.191 -1.4371  1.0073 -2.4810
 7831SOL     OW35128   2.576   0.943   3.025 -0.4367  0.7545  0.0392
 7831SOL    HW135129   2.486   0.959   3.054 -0.3588 -0.5150  0.9804
 7831SOL    HW235130   2.560   0.890   2.947  1.3794  1.5325 -0.8771
 7832SOL     OW35131   0.764   0.085  14.505  0.3216 -0.2269  0.0806
 7832SOL    HW135132   0.679   0.041  14.503 -0.4436  1.2848 -0.5999
 7832SOL    HW235133   0.754   0.116  14.415 -1.6779 -1.4125 -0.1057
 7833SOL     OW35134   4.180   1.065   5.645 -0.0536  0.0059  0.5855
 7833SOL    HW135135   4.092   1.039   5.672  0.2967 -2.1337 -0.3121
 7833SOL    HW235136   4.156   1.069   5.553 -1.4128  1.2729  0.9939
 7834SOL     OW35137   2.023   0.755   3.983  0.5612  0.7720  0.1225
 7834SOL    HW135138   1.982   0.815   3.920  1.0537  1.1132  0.1269
 7834SOL    HW235139   2.047   0.821   4.049  0.1558  1.3944 -0.3497
 7835SOL     OW35140   4.408   0.758   8.512  0.3392  0.5829 -0.4410
 7835SOL    HW135141   4.472   0.815   8.554 -1.3565  3.0592 -1.2385
 7835SOL    HW235142   4.331   0.772   8.568 -1.0023 -0.2764 -2.0733
 7836SOL     OW35143   0.849   2.724   6.744  0.3250 -0.0725  0.3316
 7836SOL    HW135144   0.938   2.757   6.758 -0.0916  0.4275  1.7695
 7836SOL    HW235145   0.809   2.795   6.693 -0.8838 -1.8427 -1.1947
 7837SOL     OW35146   4.368   3.007   6.657 -0.2472  0.3957  0.1003
 7837SOL    HW135147   4.321   3.084   6.623  0.4452 -0.0841 -1.9647
 7837SOL    HW235148   4.454   3.046   6.668 -0.3939  0.4679  0.9654
 7838SOL     OW35149   3.337   2.500   7.599  0.0215  0.1822  0.4583
 7838SOL    HW135150   3.401   2.560   7.561  1.6753 -0.3095  2.4774
 7838SOL    HW235151   3.400   2.463   7.660 -0.1377  1.2260  1.2503
 7839SOL     OW35152   3.852   4.384  17.177 -0.3890 -0.6686  0.2311
 7839SOL    HW135153   3.906   4.457  17.148 -0.3146  0.2169  2.5934
 7839SOL    HW235154   3.872   4.334  17.097 -2.1216  2.8096 -2.3580
 7840SOL     OW35155   0.986   0.170   1.978 -0.3153  0.6228 -0.3767
 7840SOL    HW135156   0.904   0.216   1.998 -0.4476 -1.1442  3.1237
 7840SOL    HW235157   1.048   0.241   1.966 -0.2677  0.9345  1.6492
 7841SOL     OW35158   0.122   2.700  14.952  0.2623  0.1886 -0.0733
 7841SOL    HW135159   0.040   2.749  14.958  0.0137 -0.2005 -0.2815
 7841SOL    HW235160   0.180   2.768  14.986 -0.3236 -0.3687  2.0028
 7842SOL     OW35161   3.501   1.149   3.567  0.1740  0.5720 -0.6343
 7842SOL    HW135162   3.551   1.081   3.522 -0.2227  0.2923 -0.6524
 7842SOL    HW235163   3.551   1.223   3.533  0.6629  0.6836  0.3338
 7843SOL     OW35164   0.669   3.099  11.500  0.0532  0.0888 -0.1486
 7843SOL    HW135165   0.683   3.053  11.583 -0.6162 -1.6511 -0.9870
 7843SOL    HW235166   0.633   3.023  11.454  1.0150 -0.7515  0.5028
 7844SOL     OW35167   3.407   4.539   4.239 -0.1383 -0.0327  0.2042
 7844SOL    HW135168   3.424   4.446   4.253 -3.2083 -0.7149 -0.5427
 7844SOL    HW235169   3.433   4.559   4.149  0.1245 -1.6837 -0.0854
 7845SOL     OW35170   3.416   0.542   1.428 -0.2364 -0.0210  0.4787
 7845SOL    HW135171   3.359   0.485   1.479 -0.6031 -1.2990 -1.3782
 7845SOL    HW235172   3.415   0.620   1.483  0.2346  0.4281 -0.1454
 7846SOL     OW35173   1.294   4.376   2.554  0.3207  0.1667 -0.2855
 7846SOL    HW135174   1.381   4.340   2.540 -0.0337 -0.6877 -0.2888
 7846SOL    HW235175   1.316   4.466   2.575 -1.6293 -0.0073  2.4883
 7847SOL     OW35176   2.040   2.035   2.868  0.2147  0.0917 -0.2829
 7847SOL    HW135177   2.087   2.065   2.946  1.0432  0.6870 -0.9985
 7847SOL    HW235178   1.953   2.074   2.876  0.9825  1.6343  0.5229
 7848SOL     OW35179   0.439   4.558   2.232 -0.2005  0.0511  0.2141
 7848SOL    HW135180   0.409   4.525   2.317  0.2372 -1.9524 -0.4116
 7848SOL    HW235181   0.370   4.516   2.180  1.1196  1.4937 -2.7213
 7849SOL     OW35182   2.597   3.954   3.005 -0.4762  0.2052  0.1856
 7849SOL    HW135183   2.615   3.924   3.094  1.3278 -2.1873 -0.9856
 7849SOL    HW235184   2.605   3.867   2.968  0.9635 -0.4188  1.9640
 7850SOL     OW35185   1.795   4.510   1.847 -0.2032 -0.1990 -0.0319
 7850SOL    HW135186   1.809   4.430   1.797 -1.6912 -0.0903 -0.6153
 7850SOL    HW235187   1.843   4.568   1.787 -0.8190  1.2760  0.9199
 7851SOL     OW35188   1.453   2.539   2.273  0.1873  0.9466 -0.2623
 7851SOL    HW135189   1.396   2.502   2.340  2.3296 -0.9035  0.5618
 7851SOL    HW235190   1.437   2.633   2.277 -2.0681  0.5063  0.9119
 7852SOL     OW35191   4.554   0.261   5.960  0.3293 -0.7855 -0.1947
 7852SOL    HW135192   4.633   0.252   5.908 -0.1150 -0.8068 -0.8581
 7852SOL    HW235193   4.587   0.316   6.031  0.1437 -1.2255  0.2347
 7853SOL     OW35194   1.246   1.436   2.484 -0.1791 -0.2494  0.1745
 7853SOL    HW135195   1.278   1.373   2.419  0.4995  0.3194 -0.0337
 7853SOL    HW235196   1.317   1.496   2.504 -0.2943  0.4549 -1.5502
 7854SOL     OW35197   1.263   1.651  10.521  0.0923 -0.5378  0.0829
 7854SOL    HW135198   1.202   1.680  10.452  0.1861 -1.2175 -0.2825
 7854SOL    HW235199   1.206   1.588  10.564  2.9851 -3.4219 -0.3724
 7855SOL     OW35200   1.408   0.894   7.834 -0.3282 -0.2310 -0.2488
 7855SOL    HW135201   1.387   0.929   7.921  2.2525  0.3079  0.1586
 7855SOL    HW235202   1.423   0.977   7.790 -0.0201  0.8989  1.9697
 7856SOL     OW35203   1.076   0.404   7.450 -0.2373  0.5640 -0.0316
 7856SOL    HW135204   1.105   0.351   7.377  0.0262  1.4282 -0.5592
 7856SOL    HW235205   1.146   0.393   7.514 -0.6156 -1.5588 -0.0037
 7857SOL     OW35206   0.273   1.655   5.338 -0.0355  0.6304  0.4477
 7857SOL    HW135207   0.232   1.733   5.373  0.3493  1.2105 -0.3897
 7857SOL    HW235208   0.354   1.646   5.389  1.2035  0.1445 -1.5729
 7858SOL     OW35209   4.017   4.601  11.501  0.1400 -0.1699  0.1902
 7858SOL    HW135210   4.051   4.654  11.573  1.4585 -1.3270  0.4146
 7858SOL    HW235211   4.086   4.619  11.436 -2.0474  3.3639 -1.1509
 7859SOL     OW35212   3.820   0.254   6.991 -0.2771 -0.3363 -0.1699
 7859SOL    HW135213   3.865   0.328   7.030  1.8353 -1.8825  0.3473
 7859SOL    HW235214   3.812   0.272   6.897 -0.6294 -0.8048 -0.2342
 7860SOL     OW35215   1.079   0.718   6.937  0.0543  0.3052 -0.0877
 7860SOL    HW135216   1.025   0.796   6.947 -1.4897 -0.6284 -1.0771
 7860SOL    HW235217   1.132   0.744   6.861  0.0984 -2.1163 -0.8825
 7861SOL     OW35218   4.503   4.586   3.657  0.1996 -0.2541 -0.1527
 7861SOL    HW135219   4.541   4.673   3.666  1.6736 -1.0198  0.9359
 7861SOL    HW235220   4.546   4.542   3.730  0.8798 -1.2855 -1.1905
 7862SOL     OW35221   3.724   2.840  10.152  0.6628  0.5520 -0.1101
 7862SOL    HW135222   3.705   2.908  10.088  1.8115  2.0088  1.0963
 7862SOL    HW235223   3.722   2.894  10.231 -0.0893 -0.0623  0.2973
 7863SOL     OW35224   3.872   0.467   3.072 -0.6885 -0.0340 -0.1829
 7863SOL    HW135225   3.940   0.415   3.114 -0.0708  1.2243  0.3663
 7863SOL    HW235226   3.822   0.492   3.149  1.4527  0.6999  0.9607
 7864SOL     OW35227   2.636   2.131   5.747  0.0435  0.1639  0.0633
 7864SOL    HW135228   2.607   2.049   5.787  1.8131 -1.3829 -1.8225
 7864SOL    HW235229   2.577   2.124   5.671  0.1062 -4.3425  0.4602
 7865SOL     OW35230   3.197   2.497   1.782  0.5359  0.2998 -0.5358
 7865SOL    HW135231   3.235   2.450   1.856  1.1737  0.1106 -0.9884
 7865SOL    HW235232   3.210   2.429   1.715 -0.1225 -1.9051  1.5579
 7866SOL     OW35233   0.014   4.462   5.624  0.1806 -0.2484  0.0430
 7866SOL    HW135234   4.689   4.481   5.693  0.1187 -0.8630  0.1509
 7866SOL    HW235235   0.081   4.529   5.639 -0.6862  0.0109  2.7660
 7867SOL     OW35236   2.199   3.718   1.420 -0.5840  0.4992 -0.1774
 7867SOL    HW135237   2.276   3.769   1.445 -0.1648  0.0850 -0.6162
 7867SOL    HW235238   2.223   3.626   1.434 -1.1419  0.4373  0.3532
 7868SOL     OW35239   0.712   4.261  10.132  0.1211 -0.0592 -0.5967
 7868SOL    HW135240   0.705   4.355  10.146 -1.4807  0.0631 -2.2139
 7868SOL    HW235241   0.806   4.248  10.119  0.4005  0.6457  0.6488
 7869SOL     OW35242   3.742   2.753   2.482  0.2675  0.4710  0.2298
 7869SOL    HW135243   3.714   2.754   2.573  0.7062 -0.3176  0.3669
 7869SOL    HW235244   3.836   2.769   2.486 -0.0188  2.3777 -0.2365
 7870SOL     OW35245   3.942   3.923   8.094 -0.0735 -0.4425 -0.2688
 7870SOL    HW135246   4.000   3.848   8.083 -0.4153 -0.9456  1.4003
 7870SOL    HW235247   3.894   3.893   8.171  0.7914 -0.9279  0.0810
 7871SOL     OW35248   3.310   1.420   7.429  0.1762  0.1138 -0.3117
 7871SOL    HW135249   3.286   1.495   7.375 -1.4660  0.9795  1.6299
 7871SOL    HW235250   3.404   1.436   7.435  0.1916  0.3165 -1.1283
 7872SOL     OW35251   0.417   1.102   6.368  0.1882 -0.1748 -0.0470
 7872SOL    HW135252   0.372   1.186   6.358 -1.6862 -1.2277 -0.4896
 7872SOL    HW235253   0.476   1.102   6.292  0.0511 -0.5340 -0.1518
 7873SOL     OW35254   3.549   2.851   5.430  0.1429 -0.1695 -0.5575
 7873SOL    HW135255   3.570   2.939   5.400 -1.0585  0.4304  0.3862
 7873SOL    HW235256   3.637   2.817   5.413  0.0226 -0.2329 -1.0523
 7874SOL     OW35257   0.520   3.862  11.587  0.0420 -0.1780 -0.0817
 7874SOL    HW135258   0.601   3.812  11.577  0.8236  1.2148 -0.6694
 7874SOL    HW235259   0.503   3.853  11.681  0.2593 -1.8635 -0.1943
 7875SOL     OW35260   0.888   1.687   4.034  0.2179 -0.4473  0.4000
 7875SOL    HW135261   0.902   1.763   4.090 -1.1165  1.4258 -1.8105
 7875SOL    HW235262   0.977   1.665   4.008  0.4268  2.0503 -0.9776
 7876SOL     OW35263   1.135   0.803  10.073  0.3459 -0.1995 -0.5731
 7876SOL    HW135264   1.165   0.829   9.985 -0.0965  1.0373 -0.3694
 7876SOL    HW235265   1.089   0.722  10.052  0.4162  0.3601 -2.8784
 7877SOL     OW35266   2.481   4.139   9.970 -0.6190 -0.0431 -0.2534
 7877SOL    HW135267   2.545   4.069   9.958  0.3507  0.6803  0.7493
 7877SOL    HW235268   2.425   4.110   9.898 -1.8517  1.3780  0.1489
 7878SOL     OW35269   0.435   1.236   4.492 -0.2744  0.2510 -0.1953
 7878SOL    HW135270   0.401   1.147   4.484 -0.7627  0.9094 -4.9347
 7878SOL    HW235271   0.453   1.262   4.402  1.6454  0.0425  0.1174
 7879SOL     OW35272   3.950   4.452   1.537 -0.0776  0.0450 -0.1785
 7879SOL    HW135273   3.900   4.532   1.550 -0.9441 -0.7155  1.2047
 7879SOL    HW235274   4.036   4.484   1.510 -0.6743  1.7473 -0.0508
 7880SOL     OW35275   0.915   3.608   4.087  0.0997  0.5525 -0.6230
 7880SOL    HW135276   0.867   3.526   4.100 -0.5910  1.1976  0.8605
 7880SOL    HW235277   1.002   3.588   4.121  0.1029 -2.2006 -2.2209
 7881SOL     OW35278   3.874   3.104   3.272 -0.4327 -0.5975  0.1138
 7881SOL    HW135279   3.969   3.119   3.264 -0.5238  0.2736  0.5750
 7881SOL    HW235280   3.844   3.170   3.334 -2.4535 -0.1866 -1.2908
 7882SOL     OW35281   3.985   0.277  15.238  0.7793  0.0018  0.4965
 7882SOL    HW135282   4.079   0.294  15.229  0.7555 -0.1594 -0.0465
 7882SOL    HW235283   3.957   0.262  15.148 -0.9692  0.6919  0.9250
 7883SOL     OW35284   1.807   3.257   4.947  0.0784  0.2206 -0.2665
 7883SOL    HW135285   1.828   3.330   4.888 -0.0341  0.1917 -0.3431
 7883SOL    HW235286   1.712   3.267   4.951  0.2638  0.7201  2.8649
 7884SOL     OW35287   3.203   4.263   6.953  0.0780 -0.3789  0.3566
 7884SOL    HW135288   3.264   4.211   7.005 -0.5190 -2.3137 -0.8654
 7884SOL    HW235289   3.207   4.217   6.869  0.8633 -0.0128  0.1986
 7885SOL     OW35290   4.445   4.501  14.396 -0.4672 -0.7422 -0.1638
 7885SOL    HW135291   4.481   4.417  14.424 -1.2228 -0.5048  1.5001
 7885SOL    HW235292   4.422   4.480  14.306 -0.1963  1.9642 -0.8591
 7886SOL     OW35293   0.297   3.434  14.422 -0.0721  0.1336  0.0452
 7886SOL    HW135294   0.220   3.475  14.461  1.4871  3.1501 -0.0570
 7886SOL    HW235295   0.349   3.514  14.414 -1.5067  1.0430 -0.1999
 7887SOL     OW35296   1.419   3.751   1.921 -0.6713  0.0921  0.2038
 7887SOL    HW135297   1.494   3.805   1.898 -0.7931  0.2903  0.2667
 7887SOL    HW235298   1.355   3.766   1.851 -0.5189  3.4778  0.8238
 7888SOL     OW35299   1.946   3.746  15.433 -0.3508  0.2723 -0.0830
 7888SOL    HW135300   1.902   3.804  15.496  0.5796  0.4999  0.3560
 7888SOL    HW235301   2.015   3.798  15.391 -0.2485 -0.9722 -1.4431
 7889SOL     OW35302   1.457   1.719   2.714  0.2029 -0.3592  0.0394
 7889SOL    HW135303   1.481   1.641   2.764  0.2643 -0.2468  0.1854
 7889SOL    HW235304   1.531   1.777   2.731  1.0283 -0.8253 -1.9390
 7890SOL     OW35305   1.023   1.177   3.606  0.1257  0.2728 -0.1099
 7890SOL    HW135306   0.932   1.204   3.614 -0.3738 -1.5347  0.3637
 7890SOL    HW235307   1.010   1.093   3.650 -0.5022  1.4344  1.9355
 7891SOL     OW35308   0.648   2.740  12.386 -0.1974 -0.2368  0.0238
 7891SOL    HW135309   0.618   2.824  12.420 -0.9935  0.5609 -2.6868
 7891SOL    HW235310   0.694   2.761  12.305  0.6083  1.1073  0.8325
 7892SOL     OW35311   3.498   4.446   3.977  0.4534  0.3094 -0.3777
 7892SOL    HW135312   3.591   4.425   3.978  0.2461 -0.4941  0.6958
 7892SOL    HW235313   3.460   4.359   3.978 -1.7716  1.2758  0.3010
 7893SOL     OW35314   0.622   1.812   8.644  0.3590  0.3916  0.1867
 7893SOL    HW135315   0.594   1.763   8.566 -0.8472  0.0554  0.8358
 7893SOL    HW235316   0.685   1.752   8.684  0.2834  0.3634  0.2626
 7894SOL     OW35317   1.789   4.667   7.561 -0.3216  0.6626  0.0239
 7894SOL    HW135318   1.806   4.600   7.628 -2.7600  2.0562  2.0626
 7894SOL    HW235319   1.703   4.699   7.589 -2.0208 -0.8204 -3.5408
 7895SOL     OW35320   4.080   3.863   5.527 -0.1499  0.2207 -0.3231
 7895SOL    HW135321   3.990   3.867   5.559  0.1992  2.9519  0.3007
 7895SOL    HW235322   4.135   3.816   5.590 -2.0537 -0.6329  0.7055
 7896SOL     OW35323   3.560   4.541  17.203 -0.2556 -0.6621  0.4715
 7896SOL    HW135324   3.566   4.474  17.135 -0.4952 -0.5749  0.3672
 7896SOL    HW235325   3.565   4.624  17.155 -0.3210  0.3299  2.1652
 7897SOL     OW35326   1.928   2.182   0.721 -0.1374 -0.4063 -0.0777
 7897SOL    HW135327   2.013   2.161   0.759 -0.0846 -0.2456 -0.1075
 7897SOL    HW235328   1.937   2.184   0.626 -1.0465 -0.4628 -0.1682
 7898SOL     OW35329   2.048   4.263   6.117  0.6255  0.4219  0.4197
 7898SOL    HW135330   2.010   4.244   6.202  1.3498  0.5960  0.7796
 7898SOL    HW235331   1.970   4.268   6.061  1.5112  4.2943 -0.5080
 7899SOL     OW35332   0.134   3.569   2.117  0.3684  0.0710  0.1989
 7899SOL    HW135333   0.171   3.632   2.055 -0.0611 -1.7086 -1.8812
 7899SOL    HW235334   0.076   3.523   2.057 -0.9596  1.3856  0.4647
 7900SOL     OW35335   4.675   3.678   1.213 -0.0117  0.2849 -0.5706
 7900SOL    HW135336   0.008   3.629   1.255 -3.0423 -2.8563  0.8636
 7900SOL    HW235337   4.598   3.640   1.254  1.1956  0.3011  1.7224
 7901SOL     OW35338   1.294   3.542   6.771  0.2345  0.0752 -0.2958
 7901SOL    HW135339   1.365   3.484   6.799  0.3667 -0.3165 -1.4503
 7901SOL    HW235340   1.215   3.507   6.812 -0.0255  0.2874 -0.6164
 7902SOL     OW35341   3.841   2.812  14.092  0.2475  0.2683 -0.0395
 7902SOL    HW135342   3.888   2.895  14.102  0.2988  0.2772 -0.3433
 7902SOL    HW235343   3.807   2.817  14.002  3.4494  1.3485 -1.1847
 7903SOL     OW35344   1.003   1.493   8.951  0.5366  0.0691 -0.3857
 7903SOL    HW135345   0.946   1.496   9.028  1.7000  1.6109  0.4271
 7903SOL    HW235346   1.077   1.442   8.983  1.2389  1.4146  0.1359
 7904SOL     OW35347   2.979   2.716   4.336  0.6287 -0.1297 -0.2709
 7904SOL    HW135348   3.032   2.637   4.341  1.0212  0.1564  0.0757
 7904SOL    HW235349   2.899   2.672   4.308  0.5541  0.0643 -0.3696
 7905SOL     OW35350   3.729   1.423   4.750 -0.6758 -0.4992  0.3053
 7905SOL    HW135351   3.635   1.433   4.761 -0.4894  1.4125  0.2118
 7905SOL    HW235352   3.769   1.499   4.792 -2.6132  0.7954 -0.1749
 7906SOL     OW35353   0.649   0.972   3.227  0.2275 -0.2668  0.0948
 7906SOL    HW135354   0.611   1.050   3.267  1.2593  0.3945 -0.2255
 7906SOL    HW235355   0.675   0.930   3.309 -1.7578  1.1896  1.4823
 7907SOL     OW35356   0.409   2.398   4.290 -0.2273  0.6295 -0.3071
 7907SOL    HW135357   0.326   2.445   4.281 -0.8903 -0.6581 -0.9107
 7907SOL    HW235358   0.381   2.317   4.247  0.9521  0.3277 -0.5188
 7908SOL     OW35359   3.940   0.610   2.859 -0.4770 -0.2494  0.7513
 7908SOL    HW135360   3.877   0.623   2.788  0.2748  1.7339  0.4705
 7908SOL    HW235361   3.892   0.559   2.925 -0.6326 -0.7948  0.2125
 7909SOL     OW35362   4.172   3.566  16.429 -0.2048  0.1222  0.1874
 7909SOL    HW135363   4.171   3.594  16.337 -1.1359  1.6541  0.6720
 7909SOL    HW235364   4.170   3.470  16.428  0.5970  0.0914  1.8412
 7910SOL     OW35365   2.997   4.450   2.662  0.4837  0.3307 -0.8650
 7910SOL    HW135366   3.083   4.436   2.702  0.0337  0.4354  0.1392
 7910SOL    HW235367   2.952   4.366   2.658  2.3619 -0.6380 -1.8201
 7911SOL     OW35368   2.821   0.155   3.879 -0.0500  0.3580 -0.3271
 7911SOL    HW135369   2.777   0.175   3.962 -0.4016  1.7681 -0.8528
 7911SOL    HW235370   2.878   0.083   3.906 -0.2637  0.2775 -0.0897
 7912SOL     OW35371   0.010   2.122   3.702  0.0132  0.0233  0.0271
 7912SOL    HW135372   0.032   2.058   3.770  0.8237 -1.7835 -1.9284
 7912SOL    HW235373   4.656   2.127   3.728  0.5825  0.0761  2.0798
 7913SOL     OW35374   3.766   2.828   3.955  0.0605 -0.0536  0.3990
 7913SOL    HW135375   3.678   2.854   3.928 -0.0936 -1.5395 -0.5657
 7913SOL    HW235376   3.767   2.732   3.950 -0.1349 -0.0054 -0.5323
 7914SOL     OW35377   4.718   4.638   2.687 -0.0175 -0.5443 -0.2218
 7914SOL    HW135378   4.663   4.659   2.611 -0.6095  1.9682  0.9299
 7914SOL    HW235379   0.068   4.633   2.649 -0.2538  0.2059 -0.8685
 7915SOL     OW35380   0.197   1.510  17.537 -0.0005 -0.1055  0.2547
 7915SOL    HW135381   0.159   1.426  17.513 -0.0808  0.1246 -0.4240
 7915SOL    HW235382   0.121   1.568  17.534  0.8339  0.9978  0.3600
 7916SOL     OW35383   3.745   4.169   3.474 -0.4726 -0.2431  0.2854
 7916SOL    HW135384   3.760   4.259   3.445 -2.0163 -0.1807 -0.3631
 7916SOL    HW235385   3.699   4.180   3.557 -3.0826 -0.4278 -1.1176
 7917SOL     OW35386   4.735   0.186   9.951 -0.4997 -0.4552 -0.8292
 7917SOL    HW135387   0.046   0.104   9.944  0.4448  0.3306 -3.2073
 7917SOL    HW235388   0.067   0.249   9.968 -0.8034 -0.3048 -0.1196
 7918SOL     OW35389   1.206   1.194  13.671  0.1509  0.1041 -0.8906
 7918SOL    HW135390   1.178   1.192  13.762  1.0329  0.1293 -0.6179
 7918SOL    HW235391   1.154   1.272  13.654  1.0400  0.5223 -1.7217
 7919SOL     OW35392   0.824   2.136   5.933 -0.4628 -0.5896 -0.8800
 7919SOL    HW135393   0.869   2.061   5.972  0.3585 -1.0093 -2.6524
 7919SOL    HW235394   0.822   2.190   6.012  1.2301 -1.1502 -0.4585
 7920SOL     OW35395   1.919   3.161   2.632  0.0700  0.4097 -0.0975
 7920SOL    HW135396   1.967   3.161   2.550 -0.3899 -1.6389 -0.3635
 7920SOL    HW235397   1.939   3.076   2.672  1.1443  0.7746  0.1351
 7921SOL     OW35398   3.212   4.599   8.462  0.6573 -0.2932  0.0022
 7921SOL    HW135399   3.258   4.648   8.395  0.0963  0.6250  0.2873
 7921SOL    HW235400   3.158   4.545   8.405 -0.9514  2.9770 -1.5851
 7922SOL     OW35401   3.678   1.147   7.033 -0.3610 -0.1426  0.0948
 7922SOL    HW135402   3.656   1.179   7.121 -0.9103 -0.6083  0.1289
 7922SOL    HW235403   3.696   1.056   7.055  0.0602 -0.4760 -1.6688
 7923SOL     OW35404   1.124   4.170   7.646  0.2340 -0.1057  0.0545
 7923SOL    HW135405   1.048   4.181   7.703  1.0413 -1.5917  1.3980
 7923SOL    HW235406   1.189   4.219   7.697  1.5984  0.5372 -2.2977
 7924SOL     OW35407   1.876   2.804   1.445 -0.8590  0.0673 -0.0020
 7924SOL    HW135408   1.791   2.775   1.411 -0.4595 -1.8037  0.5741
 7924SOL    HW235409   1.883   2.726   1.501  0.4741  0.4606  0.3674
 7925SOL     OW35410   3.690   0.016  11.560  0.0842 -0.5131  0.0384
 7925SOL    HW135411   3.767   0.069  11.541 -1.4644  1.6757 -0.1625
 7925SOL    HW235412   3.724   4.697  11.629 -2.5308  0.1345  1.8889
 7926SOL     OW35413   1.551   1.149  14.450 -0.1872  0.1082 -0.1682
 7926SOL    HW135414   1.565   1.180  14.539 -1.6871  2.2185 -0.6696
 7926SOL    HW235415   1.555   1.055  14.471  0.4025 -0.4920 -2.9811
 7927SOL     OW35416   2.526   3.487   6.027  0.0361  0.1989  0.0465
 7927SOL    HW135417   2.446   3.522   5.987  0.0680  0.3018  0.0718
 7927SOL    HW235418   2.537   3.418   5.962 -0.2505  1.9087 -1.8019
 7928SOL     OW35419   4.589   0.817  10.939  0.2672 -0.1620  0.2630
 7928SOL    HW135420   4.591   0.892  10.880 -3.2486  0.3394  0.7883
 7928SOL    HW235421   4.505   0.822  10.985  0.1397  2.0145 -0.2270
 7929SOL     OW35422   2.016   0.215   9.774 -0.3105  0.2416  0.5077
 7929SOL    HW135423   1.935   0.256   9.803 -0.2688  1.9420 -1.7885
 7929SOL    HW235424   2.062   0.206   9.858  0.6600  0.8210  0.0365
 7930SOL     OW35425   4.615   3.750   1.709 -0.7505  0.0195  0.5712
 7930SOL    HW135426   4.659   3.807   1.773 -1.4499  0.8831  0.2873
 7930SOL    HW235427   4.689   3.740   1.649 -1.0302 -1.2805  0.4527
 7931SOL     OW35428   3.252   0.508   5.721 -0.3896  0.2747 -0.1438
 7931SOL    HW135429   3.196   0.564   5.669 -0.4135 -1.1007 -1.5943
 7931SOL    HW235430   3.207   0.424   5.719 -0.9812  0.5802  0.5019
 7932SOL     OW35431   3.015   4.256   3.384 -0.4114 -0.3540 -0.0819
 7932SOL    HW135432   2.936   4.305   3.361 -1.1124 -1.4473  0.0475
 7932SOL    HW235433   3.042   4.316   3.454 -1.6887  1.5943 -1.2550
 7933SOL     OW35434   1.575   1.186  15.925 -0.0958 -0.3656 -0.4639
 7933SOL    HW135435   1.595   1.121  15.857 -1.8210  0.6287 -1.9363
 7933SOL    HW235436   1.619   1.160  16.006 -0.4172 -0.6804 -0.3928
 7934SOL     OW35437   0.811   2.857  17.118 -1.0199  0.3519 -0.1012
 7934SOL    HW135438   0.768   2.853  17.033  2.5854  2.0688 -1.9537
 7934SOL    HW235439   0.861   2.776  17.106  0.3540  1.2335 -0.2642
 7935SOL     OW35440   2.608   2.001   8.840  0.3134  0.0817 -0.4307
 7935SOL    HW135441   2.571   2.076   8.887  0.9655  0.3805 -0.4037
 7935SOL    HW235442   2.528   1.948   8.845  0.4179  0.1579  1.9818
 7936SOL     OW35443   4.426   0.878   3.717  0.0947  0.2330  0.1291
 7936SOL    HW135444   4.362   0.945   3.694 -0.0333  0.2374  0.5001
 7936SOL    HW235445   4.450   0.825   3.640 -1.5515  0.4266 -0.5124
 7937SOL     OW35446   4.442   3.678   4.591  0.6106  0.4915  0.0639
 7937SOL    HW135447   4.471   3.729   4.667  0.1093  0.8496  0.0134
 7937SOL    HW235448   4.405   3.755   4.548  2.3206 -0.6668 -3.4343
 7938SOL     OW35449   1.444   3.108   4.264  0.1434  0.1335 -0.1566
 7938SOL    HW135450   1.405   3.022   4.279  2.8711 -1.4667 -2.1838
 7938SOL    HW235451   1.370   3.142   4.214 -0.1446  0.0568  0.2169
 7939SOL     OW35452   0.354   1.359  14.026  0.2115  0.0084 -0.1382
 7939SOL    HW135453   0.383   1.450  14.027  1.4927 -0.4381  2.3097
 7939SOL    HW235454   0.258   1.361  14.026  0.2529  3.3966  1.2633
 7940SOL     OW35455   0.985   4.384  13.334 -0.6420 -0.0703  0.1091
 7940SOL    HW135456   0.913   4.387  13.271 -0.2840  2.8593 -0.1640
 7940SOL    HW235457   0.936   4.424  13.406  0.7360  1.7322  0.0545
 7941SOL     OW35458   0.002   0.153  11.373  0.8231 -0.0972  0.7758
 7941SOL    HW135459   4.725   0.144  11.467 -0.0382  1.4757  0.7912
 7941SOL    HW235460   0.066   0.224  11.362 -0.0896  0.8005  1.1811
 7942SOL     OW35461   2.467   1.374   8.415  0.1295 -0.7814  0.4768
 7942SOL    HW135462   2.464   1.365   8.319  0.9761 -2.4852  0.6155
 7942SOL    HW235463   2.532   1.443   8.430  0.6350 -0.4072 -3.3093
 7943SOL     OW35464   0.529   3.662   8.616 -0.0993  0.9175  0.0856
 7943SOL    HW135465   0.465   3.624   8.676  1.4080  0.3624  1.3208
 7943SOL    HW235466   0.500   3.754   8.618 -1.0561  0.6362 -0.5318
 7944SOL     OW35467   0.811   0.652  16.147  0.7625  0.5992 -0.1635
 7944SOL    HW135468   0.809   0.599  16.067  1.3453  2.5206 -1.4741
 7944SOL    HW235469   0.837   0.587  16.211 -2.2963  1.5248  1.9990
 7945SOL     OW35470   1.950   1.179  14.122  0.0710  0.0870  0.2942
 7945SOL    HW135471   1.965   1.270  14.149  1.1585 -0.2308  0.7682
 7945SOL    HW235472   2.013   1.166  14.051  0.8684  1.3780  0.7600
 7946SOL     OW35473   2.699   3.573   8.322 -0.6327  0.3307 -0.3899
 7946SOL    HW135474   2.629   3.534   8.270 -0.4727  1.2274 -1.2928
 7946SOL    HW235475   2.763   3.501   8.325 -2.7099 -1.5462 -1.3913
 7947SOL     OW35476   1.876   0.069   3.858  0.3592  0.6320  0.1909
 7947SOL    HW135477   1.814   0.016   3.807 -1.0003  2.0831  0.3625
 7947SOL    HW235478   1.809   0.107   3.913  0.4421 -1.6242  1.8538
 7948SOL     OW35479   2.517   0.886  10.386  0.4952 -0.2026 -0.1559
 7948SOL    HW135480   2.561   0.936  10.317  0.1700 -1.6596 -1.4079
 7948SOL    HW235481   2.592   0.882  10.446 -0.5407 -0.1361  1.1411
 7949SOL     OW35482   4.336   3.209   6.143 -0.3643  0.6982 -0.2428
 7949SOL    HW135483   4.372   3.211   6.232 -2.2090 -0.4563  0.5396
 7949SOL    HW235484   4.243   3.197   6.165 -0.3066 -2.1822 -1.6305
 7950SOL     OW35485   3.661   3.537   7.782  0.2197 -0.2012 -0.3568
 7950SOL    HW135486   3.650   3.572   7.870  0.7755  0.6304 -0.6157
 7950SOL    HW235487   3.661   3.444   7.802 -1.6054 -0.2261 -0.4377
 7951SOL     OW35488   1.963   0.653  15.492  0.0167  0.3608  0.1643
 7951SOL    HW135489   1.878   0.665  15.450  0.9866 -0.0907 -1.9041
 7951SOL    HW235490   1.929   0.666  15.581 -1.5303 -0.0891 -0.3663
 7952SOL     OW35491   3.015   3.548   7.163  0.0123 -0.5982  0.1907
 7952SOL    HW135492   3.029   3.613   7.232 -0.5114  2.0981 -2.2450
 7952SOL    HW235493   3.049   3.472   7.211  1.5607 -1.6696 -2.6152
 7953SOL     OW35494   0.054   2.079  12.929  0.1076 -0.4663  0.4572
 7953SOL    HW135495   4.714   2.059  12.980  0.4970 -1.7246  0.5540
 7953SOL    HW235496   0.121   2.026  12.974  0.5433  2.1893  2.9484
 7954SOL     OW35497   4.165   3.843   8.903 -0.1758  0.6936 -0.5391
 7954SOL    HW135498   4.202   3.756   8.890  0.6169  0.6802  1.9498
 7954SOL    HW235499   4.209   3.876   8.981  1.1674 -0.0799 -0.9634
 7955SOL     OW35500   2.859   3.745   1.938 -1.1361 -0.3472 -0.2260
 7955SOL    HW135501   2.951   3.763   1.921 -1.4594  2.5026  1.0833
 7955SOL    HW235502   2.850   3.768   2.031  1.0093  1.9940 -0.6089
 7956SOL     OW35503   0.222   0.888  10.029  0.4358  0.0351  0.4374
 7956SOL    HW135504   0.161   0.911   9.959  0.6875  2.2580  0.9417
 7956SOL    HW235505   0.233   0.963  10.087 -0.8753 -0.5189  1.4098
 7957SOL     OW35506   3.252   4.673   7.005  0.2402 -0.0271 -0.1011
 7957SOL    HW135507   3.172   4.727   7.005  1.3200  1.5854 -0.4322
 7957SOL    HW235508   3.236   4.614   6.931 -1.4536 -2.1062  1.9106
 7958SOL     OW35509   0.241   4.665   3.902 -0.6790 -0.0883 -0.1624
 7958SOL    HW135510   0.193   4.718   3.966 -0.0260 -0.3826  0.5649
 7958SOL    HW235511   0.296   4.610   3.957 -1.9485 -0.5984  0.6131
 7959SOL     OW35512   0.726   1.941   7.342 -0.6663  0.1089 -0.1215
 7959SOL    HW135513   0.822   1.937   7.342 -0.5766  2.1196  1.0778
 7959SOL    HW235514   0.693   1.943   7.432 -0.3978  0.4829 -0.0297
 7960SOL     OW35515   1.250   1.850   5.541 -0.2579  0.3143 -0.4773
 7960SOL    HW135516   1.292   1.861   5.455 -0.9822 -0.3046 -0.9129
 7960SOL    HW235517   1.324   1.830   5.599  0.0500  0.5557 -0.7784
 7961SOL     OW35518   0.877   2.510  16.039  0.3612 -0.0638  0.0898
 7961SOL    HW135519   0.823   2.502  15.960 -1.6788 -1.1829  1.6122
 7961SOL    HW235520   0.879   2.416  16.054  0.3568  0.2097  1.7534
 7962SOL     OW35521   0.602   4.735   8.124 -0.8081  0.3315 -0.1128
 7962SOL    HW135522   0.600   4.689   8.040 -1.5810 -2.0203  1.1942
 7962SOL    HW235523   0.516   4.716   8.162 -0.2015  2.2217  2.2203
 7963SOL     OW35524   3.923   0.498  12.169 -0.0033 -0.1025  0.0175
 7963SOL    HW135525   4.000   0.555  12.168  0.9828 -1.4690 -1.1981
 7963SOL    HW235526   3.866   0.534  12.102  0.8492  2.4120  0.6380
 7964SOL     OW35527   4.529   2.919   8.187  0.3318 -0.4076 -0.0550
 7964SOL    HW135528   4.439   2.938   8.213 -0.0840 -0.0893 -1.7354
 7964SOL    HW235529   4.532   2.823   8.185  0.6639 -0.3704 -1.1462
 7965SOL     OW35530   3.006   0.379   6.035 -0.0190  0.9714  0.1262
 7965SOL    HW135531   2.970   0.315   6.097 -0.3649  0.2927 -0.7712
 7965SOL    HW235532   2.931   0.434   6.011  0.1686  1.7072  1.2274
 7966SOL     OW35533   0.198   2.052  12.492 -0.1923  1.2268 -0.2452
 7966SOL    HW135534   0.106   2.043  12.518 -0.0788 -1.6290 -0.9174
 7966SOL    HW235535   0.231   1.963  12.504 -2.9508 -0.0642 -2.3024
 7967SOL     OW35536   3.178   3.282   3.123 -0.1320  0.0670  0.2078
 7967SOL    HW135537   3.114   3.350   3.102  0.1525  0.4763  0.6650
 7967SOL    HW235538   3.140   3.225   3.190  1.6981  0.3972  1.5321
 7968SOL     OW35539   2.630   4.141   1.963  0.4587 -1.1235  0.1245
 7968SOL    HW135540   2.572   4.213   1.987  1.1633  0.0759 -1.8093
 7968SOL    HW235541   2.631   4.154   1.869 -2.3804  0.3446  0.2854
 7969SOL     OW35542   3.491   0.390   2.791  0.2940 -0.3243 -0.0361
 7969SOL    HW135543   3.504   0.323   2.725 -0.0281  0.1877 -0.6194
 7969SOL    HW235544   3.405   0.361   2.821 -0.1009 -0.5557 -1.3893
 7970SOL     OW35545   1.646   2.483   4.072 -0.1355 -0.4415  0.3088
 7970SOL    HW135546   1.645   2.407   4.014 -3.2517  1.4124 -1.9862
 7970SOL    HW235547   1.666   2.444   4.158 -0.3576 -0.1399  0.4942
 7971SOL     OW35548   2.041   2.625   6.905  0.6504  0.3747  0.2788
 7971SOL    HW135549   2.076   2.633   6.994 -0.6671  1.3483  0.7087
 7971SOL    HW235550   2.107   2.573   6.859  0.6465  2.8737 -2.5363
 7972SOL     OW35551   4.257   0.800   4.496  0.0861  0.1035  0.2481
 7972SOL    HW135552   4.238   0.874   4.555  3.9151  0.2064  1.3500
 7972SOL    HW235553   4.340   0.828   4.458 -0.0109 -1.8288 -1.3913
 7973SOL     OW35554   3.693   3.281   7.869 -0.9497  0.6822 -0.1812
 7973SOL    HW135555   3.635   3.292   7.945 -0.8398 -0.5952  0.0833
 7973SOL    HW235556   3.680   3.188   7.851  2.6026  0.2258 -0.4174
 7974SOL     OW35557   0.791   2.565   7.281 -0.1708 -0.0823  0.4473
 7974SOL    HW135558   0.781   2.507   7.357 -0.7616 -0.0015  0.4343
 7974SOL    HW235559   0.706   2.609   7.278 -1.1436 -1.7951  2.5659
 7975SOL     OW35560   1.644   0.689   6.693 -0.5092  0.9496 -0.7672
 7975SOL    HW135561   1.600   0.605   6.687  1.2735 -0.1255  1.2845
 7975SOL    HW235562   1.642   0.698   6.788  0.2116 -2.8845 -0.3780
 7976SOL     OW35563   4.244   4.423   3.824 -0.6197  0.9823  0.8347
 7976SOL    HW135564   4.272   4.409   3.734 -0.7042  1.1009  0.7891
 7976SOL    HW235565   4.151   4.443   3.811 -0.9488 -0.8742  0.4143
 7977SOL     OW35566   2.642   4.621  15.562  0.2171  0.8087 -0.3209
 7977SOL    HW135567   2.634   4.560  15.489 -1.7296  2.0011 -1.0885
 7977SOL    HW235568   2.556   4.656  15.582 -0.4723 -1.0477 -0.1466
 7978SOL     OW35569   3.375   1.824   5.504 -0.1539 -0.4795 -0.0361
 7978SOL    HW135570   3.412   1.795   5.587 -0.3626  0.3442  0.3481
 7978SOL    HW235571   3.284   1.801   5.522 -0.3352 -1.1059 -1.7523
 7979SOL     OW35572   2.492   3.196  13.233 -0.2061  0.7009 -0.2656
 7979SOL    HW135573   2.532   3.208  13.319 -1.0378 -3.3035  0.6639
 7979SOL    HW235574   2.558   3.242  13.181  1.0735  0.4155  1.1367
 7980SOL     OW35575   2.877   3.135  15.079 -0.0543 -0.0264 -0.0498
 7980SOL    HW135576   2.823   3.124  15.001  0.4023 -1.1316 -0.2119
 7980SOL    HW235577   2.821   3.181  15.141 -2.2217 -0.0710 -1.9938
 7981SOL     OW35578   2.680   2.635   5.955  0.4892 -0.0609  0.0030
 7981SOL    HW135579   2.647   2.617   5.867  0.2813 -0.8657  0.2461
 7981SOL    HW235580   2.631   2.568   6.001  0.5503  0.5281  0.9233
 7982SOL     OW35581   3.273   3.932   4.382  0.1562  0.2795  0.1666
 7982SOL    HW135582   3.356   3.907   4.423 -0.1972  1.6465  1.7112
 7982SOL    HW235583   3.208   3.881   4.431  0.8091  0.7826  1.5734
 7983SOL     OW35584   3.560   1.084   8.726 -0.9783  0.8993 -0.1240
 7983SOL    HW135585   3.528   1.088   8.636 -0.8250  0.5487 -0.1944
 7983SOL    HW235586   3.483   1.079   8.783 -0.3137 -0.8421  0.6371
 7984SOL     OW35587   1.197   3.342  14.457 -0.3733  0.8691  0.0377
 7984SOL    HW135588   1.139   3.274  14.492 -0.2374 -0.4555 -2.3176
 7984SOL    HW235589   1.277   3.292  14.441 -1.4643 -0.5826 -0.8933
 7985SOL     OW35590   3.782   3.473   5.836 -0.2168 -0.2583  0.0112
 7985SOL    HW135591   3.840   3.546   5.814 -0.2766 -0.6244 -1.3816
 7985SOL    HW235592   3.706   3.512   5.880 -1.0407  0.3692 -1.9217
 7986SOL     OW35593   3.900   2.258   5.198  0.0874  0.1865 -0.2856
 7986SOL    HW135594   3.908   2.229   5.288  0.7278 -0.3090 -0.4986
 7986SOL    HW235595   3.963   2.328   5.180  1.7390 -1.1910  0.1141
 7987SOL     OW35596   1.954   4.065  14.232  0.8621  0.1834 -0.4511
 7987SOL    HW135597   1.979   3.979  14.266  1.7665  0.8385  0.5464
 7987SOL    HW235598   1.920   4.101  14.313  0.5738  1.2965 -1.0644
 7988SOL     OW35599   4.389   2.434   3.739 -0.4541 -0.2158  0.2593
 7988SOL    HW135600   4.360   2.396   3.656 -0.0818 -1.1673  0.5618
 7988SOL    HW235601   4.447   2.498   3.697 -0.1274 -1.4473 -1.1797
 7989SOL     OW35602   0.928   2.823   7.937 -0.0461  0.7205 -0.3934
 7989SOL    HW135603   0.945   2.732   7.960 -1.7484  0.8224  1.3077
 7989SOL    HW235604   1.014   2.839   7.898 -0.2372 -0.3448 -1.2303
 7990SOL     OW35605   0.228   2.309  12.907  0.1256 -0.0686 -0.1633
 7990SOL    HW135606   0.159   2.245  12.924  0.7540 -0.1102  2.2780
 7990SOL    HW235607   0.304   2.260  12.939 -0.8747 -2.4714 -1.4552
 7991SOL     OW35608   1.262   0.563   2.043  0.1121  0.5547 -0.0992
 7991SOL    HW135609   1.203   0.637   2.055  2.1960  2.0828  0.6159
 7991SOL    HW235610   1.345   0.598   2.073  0.3281  0.4784 -0.5957
 7992SOL     OW35611   2.020   4.685  16.178 -0.4649  0.3855 -0.9606
 7992SOL    HW135612   2.018   0.010  16.107 -1.0804  0.9457 -0.4442
 7992SOL    HW235613   1.987   4.609  16.130 -0.0213  2.6303 -4.8019
 7993SOL     OW35614   0.527   3.131   8.515  0.3915  0.0729  0.2558
 7993SOL    HW135615   0.488   3.050   8.483 -1.1215  0.1713  1.8451
 7993SOL    HW235616   0.508   3.115   8.607 -1.0153 -0.9001 -0.1980
 7994SOL     OW35617   0.328   0.978  11.724 -0.2271 -0.4363 -0.5040
 7994SOL    HW135618   0.422   0.965  11.737 -0.4220  0.3140  1.6286
 7994SOL    HW235619   0.283   0.900  11.758 -0.1326  0.2929  1.2863
 7995SOL     OW35620   0.893   1.477   2.164 -0.3856  0.2729 -0.1333
 7995SOL    HW135621   0.882   1.494   2.070  2.6202 -1.0056 -0.7355
 7995SOL    HW235622   0.931   1.561   2.190  1.0478  0.1250 -1.7177
 7996SOL     OW35623   1.388   3.600   3.847  1.0526 -0.6635  0.3938
 7996SOL    HW135624   1.360   3.675   3.794  0.2889 -0.0796  1.6441
 7996SOL    HW235625   1.446   3.561   3.781 -0.6267 -1.3020 -0.7305
 7997SOL     OW35626   2.697   0.194   2.270  0.2289  0.0384  0.2480
 7997SOL    HW135627   2.630   0.233   2.214  0.9471  0.9436  0.0180
 7997SOL    HW235628   2.768   0.257   2.264  1.0598 -0.6636  2.7569
 7998SOL     OW35629   3.437   3.364   0.658  0.6577  0.1443 -0.0146
 7998SOL    HW135630   3.384   3.303   0.710 -0.7590  2.6113  1.4133
 7998SOL    HW235631   3.449   3.317   0.576 -1.1766 -0.8476  0.2927
 7999SOL     OW35632   1.356   2.815   4.873  0.6806  0.5115  0.5199
 7999SOL    HW135633   1.433   2.838   4.925  1.7686 -1.4340 -0.2484
 7999SOL    HW235634   1.298   2.778   4.940 -0.2201 -0.8668 -1.0111
 8000SOL     OW35635   0.240   4.037   4.367 -0.1929 -0.1285  0.1922
 8000SOL    HW135636   0.208   4.081   4.446  1.1503 -3.8741  2.8156
 8000SOL    HW235637   0.314   4.093   4.346  0.5577 -0.6385  1.4497
 8001SOL     OW35638   0.210   4.657   7.963 -0.1599  0.5124  0.3089
 8001SOL    HW135639   0.140   4.718   7.937 -1.0373 -0.7788 -0.3808
 8001SOL    HW235640   0.161   4.613   8.033 -0.1386 -0.6641 -0.4096
 8002SOL     OW35641   3.321   3.637   2.503  0.0921 -0.3821 -0.1449
 8002SOL    HW135642   3.278   3.648   2.588 -0.0754 -0.1221 -0.2632
 8002SOL    HW235643   3.359   3.551   2.518 -1.2914 -0.7085  1.4520
 8003SOL     OW35644   0.464   0.322   9.147  0.4102 -0.3061 -0.2449
 8003SOL    HW135645   0.481   0.297   9.056  0.0176  1.0491 -0.6803
 8003SOL    HW235646   0.556   0.341   9.167 -0.6235  0.3000  3.9258
 8004SOL     OW35647   2.825   3.898   5.442  0.7842  0.1093  0.1796
 8004SOL    HW135648   2.881   3.826   5.471 -3.0834 -2.7366  0.6304
 8004SOL    HW235649   2.771   3.910   5.520  0.1937 -1.4573  0.0117
 8005SOL     OW35650   1.904   2.504   1.182 -0.0250  0.2923 -0.0024
 8005SOL    HW135651   1.953   2.567   1.128  3.5063 -0.4874  2.2787
 8005SOL    HW235652   1.814   2.534   1.172  0.4350  2.0509  1.2149
 8006SOL     OW35653   3.559   1.553   7.476 -0.5149  0.1262 -0.1677
 8006SOL    HW135654   3.551   1.648   7.490  0.3893  0.3936 -1.4431
 8006SOL    HW235655   3.644   1.546   7.433 -1.1335 -1.2529 -1.1602
 8007SOL     OW35656   4.326   4.144   5.486  0.1628  0.1572 -0.7748
 8007SOL    HW135657   4.412   4.182   5.469 -0.7556  2.2201 -0.6968
 8007SOL    HW235658   4.346   4.050   5.489 -1.2113 -0.1256 -0.6603
 8008SOL     OW35659   3.326   3.249   1.980 -0.3408  0.1811 -0.1315
 8008SOL    HW135660   3.412   3.225   1.947  0.3990  0.3994  1.6719
 8008SOL    HW235661   3.282   3.164   1.981 -0.0678  0.0189 -1.2416
 8009SOL     OW35662   1.158   4.072   3.979  0.1465  0.2883 -0.0905
 8009SOL    HW135663   1.093   4.061   3.909 -1.5863  0.2389  1.5189
 8009SOL    HW235664   1.111   4.107   4.054  0.1384  0.0444  0.0197
 8010SOL     OW35665   0.490   2.152   8.810 -0.6168  0.0010 -0.4751
 8010SOL    HW135666   0.566   2.185   8.857 -0.1539 -2.3499  0.4341
 8010SOL    HW235667   0.516   2.061   8.794  1.6263  0.8172 -1.4967
 8011SOL     OW35668   0.053   2.605   2.409  1.1830 -0.0191  0.0991
 8011SOL    HW135669   0.104   2.524   2.419  0.3452 -0.3829  1.4147
 8011SOL    HW235670   0.042   2.621   2.315  0.6960  1.8597  0.4819
 8012SOL     OW35671   2.952   3.855   4.221  0.2592  0.3487  0.0955
 8012SOL    HW135672   3.001   3.786   4.177  1.5748  0.8054  0.8539
 8012SOL    HW235673   3.018   3.890   4.280 -0.7860  1.1047  0.8122
 8013SOL     OW35674   1.689   0.709   4.349  0.5008  0.4542  0.1180
 8013SOL    HW135675   1.655   0.673   4.267  1.7572 -2.4497  0.8836
 8013SOL    HW235676   1.784   0.711   4.333  0.3037 -1.9783 -1.3106
 8014SOL     OW35677   3.625   0.527   9.658 -0.7643  0.7851 -0.2294
 8014SOL    HW135678   3.623   0.562   9.569 -0.8348  1.0361 -0.1295
 8014SOL    HW235679   3.578   0.599   9.700  0.5284  0.6671  1.4179
 8015SOL     OW35680   0.412   4.013  16.568  0.0058  0.6187 -0.6094
 8015SOL    HW135681   0.345   3.983  16.630  0.9255 -0.8032 -0.2907
 8015SOL    HW235682   0.379   4.000  16.479 -2.1200  0.7566  0.1450
 8016SOL     OW35683   0.740   4.251   4.116 -0.0650 -0.4089 -0.2639
 8016SOL    HW135684   0.679   4.194   4.069  0.3033  0.5111 -1.8290
 8016SOL    HW235685   0.795   4.287   4.047 -0.9454  0.4832 -0.5012
 8017SOL     OW35686   3.750   1.163  17.164 -0.6267  0.2945  0.0623
 8017SOL    HW135687   3.712   1.230  17.221 -0.8584 -1.0143  1.4641
 8017SOL    HW235688   3.676   1.138  17.109  0.4628 -0.1532 -1.2052
 8018SOL     OW35689   1.022   0.247   0.006  0.4053 -0.1374 -0.0270
 8018SOL    HW135690   0.974   0.319   0.047 -0.4270 -0.2611 -0.7831
 8018SOL    HW235691   1.102   0.250   0.059  0.1607 -0.5052  0.3687
 8019SOL     OW35692   2.287   3.720   4.088 -0.5158  0.2786 -0.1441
 8019SOL    HW135693   2.193   3.729   4.096 -0.4890 -3.4755  3.9373
 8019SOL    HW235694   2.297   3.638   4.040  0.8705 -0.0550  0.6930
 8020SOL     OW35695   3.133   0.675   6.789 -0.0960 -0.2375 -0.4555
 8020SOL    HW135696   3.099   0.585   6.795  1.8907 -0.8621  1.4539
 8020SOL    HW235697   3.215   0.658   6.741 -0.3646 -0.5444 -0.8130
 8021SOL     OW35698   1.913   1.748  15.457  0.3810  0.5306 -0.4161
 8021SOL    HW135699   1.976   1.676  15.448 -0.6733 -0.3727 -0.6383
 8021SOL    HW235700   1.976   1.802  15.504  1.3503 -1.4436  0.5979
 8022SOL     OW35701   0.461   0.274   0.278 -0.1989  0.6930  0.5230
 8022SOL    HW135702   0.402   0.348   0.291  0.3178  1.3033 -0.5428
 8022SOL    HW235703   0.525   0.307   0.342  0.1394 -1.5038  1.3072
 8023SOL     OW35704   4.447   0.945  16.366 -0.1536  0.3096  0.0522
 8023SOL    HW135705   4.371   0.895  16.395  0.4426 -0.7626 -0.2166
 8023SOL    HW235706   4.513   0.892  16.410  0.5878  0.9502 -0.2897
 8024SOL     OW35707   4.348   1.307   4.990 -0.0985  0.0443 -0.3838
 8024SOL    HW135708   4.264   1.352   4.981  0.2013  0.6673 -0.0637
 8024SOL    HW235709   4.396   1.351   4.920  1.1712  0.1771  0.5706
 8025SOL     OW35710   2.198   1.918  13.582 -0.1918  0.1957  0.1961
 8025SOL    HW135711   2.129   1.860  13.550 -0.9173  1.3035 -0.2506
 8025SOL    HW235712   2.259   1.935  13.511 -2.7396 -1.0816 -2.2968
 8026SOL     OW35713   2.621   2.532   1.370  0.1521 -0.1428 -0.3790
 8026SOL    HW135714   2.552   2.465   1.363  0.1039 -0.3669  2.0124
 8026SOL    HW235715   2.573   2.598   1.420 -0.7522  0.5272 -2.1545
 8027SOL     OW35716   3.230   2.640   8.395 -0.1190 -0.4500 -0.3197
 8027SOL    HW135717   3.177   2.577   8.444  1.6820 -0.5945  1.4002
 8027SOL    HW235718   3.260   2.590   8.319 -0.1216  0.4607 -0.9205
 8028SOL     OW35719   3.950   4.165  16.888 -0.3678 -0.2233 -0.2245
 8028SOL    HW135720   3.895   4.217  16.828 -1.8436 -0.3509  1.0207
 8028SOL    HW235721   3.896   4.090  16.911 -0.2687 -1.1544 -2.9868
 8029SOL     OW35722   2.128   2.286   5.610  0.6408 -0.0155 -0.3474
 8029SOL    HW135723   2.092   2.281   5.521 -1.4820 -2.9078  0.6728
 8029SOL    HW235724   2.169   2.372   5.609  0.7348 -0.0793 -2.3775
 8030SOL     OW35725   0.737   3.361   8.227 -0.4960 -0.1887  0.4031
 8030SOL    HW135726   0.660   3.318   8.189 -1.1123  2.3246 -1.1319
 8030SOL    HW235727   0.681   3.391   8.299  1.7579  0.3338  1.9298
 8031SOL     OW35728   3.517   2.757   3.031 -0.3074 -0.0259  0.5865
 8031SOL    HW135729   3.444   2.789   3.084 -1.6732 -1.8941 -0.1829
 8031SOL    HW235730   3.569   2.834   3.008  1.0829 -1.1360  0.0240
 8032SOL     OW35731   3.511   0.355   3.161  0.3527 -0.1361  0.1669
 8032SOL    HW135732   3.428   0.400   3.179  1.4442  1.0002  2.3492
 8032SOL    HW235733   3.479   0.321   3.077 -2.6567  0.6137  1.0051
 8033SOL     OW35734   3.798   0.454   1.101 -0.1881 -0.0258  0.0457
 8033SOL    HW135735   3.764   0.426   1.186  0.5578  0.9692  0.6719
 8033SOL    HW235736   3.883   0.411   1.091  0.2071  0.5759  0.8200
 8034SOL     OW35737   4.341   1.633   7.159  0.1095  0.0196  0.0100
 8034SOL    HW135738   4.387   1.670   7.083 -0.1487  1.0099  0.3342
 8034SOL    HW235739   4.332   1.707   7.220 -3.5351  0.5006 -1.1232
 8035SOL     OW35740   2.740   4.158   9.478 -0.1861  0.2364 -0.2194
 8035SOL    HW135741   2.785   4.199   9.552 -0.1185 -0.0267 -0.1153
 8035SOL    HW235742   2.747   4.237   9.424 -0.6644  2.3622  2.8517
 8036SOL     OW35743   3.776   0.980   7.746 -0.7048  0.3824 -0.2286
 8036SOL    HW135744   3.760   0.887   7.732 -1.0399 -0.0098  2.7127
 8036SOL    HW235745   3.719   1.006   7.819 -1.4193  0.4860 -0.8230
 8037SOL     OW35746   0.853   1.945   1.808  0.6390 -0.2947 -0.1296
 8037SOL    HW135747   0.934   1.993   1.823  0.5659  0.5492 -2.3794
 8037SOL    HW235748   0.819   1.991   1.731 -1.5840 -0.6060  0.6693
 8038SOL     OW35749   1.675   3.585   3.173 -0.1525  0.1376  0.1964
 8038SOL    HW135750   1.621   3.514   3.138  0.3833 -0.8415  1.3496
 8038SOL    HW235751   1.760   3.565   3.134 -1.3237 -3.8000 -0.3608
 8039SOL     OW35752   4.398   1.149  16.769 -0.3348  0.3047 -0.4866
 8039SOL    HW135753   4.456   1.083  16.730 -1.5000 -1.4257  0.7221
 8039SOL    HW235754   4.348   1.095  16.831 -0.1362 -1.9250 -2.2883
 8040SOL     OW35755   1.713   0.647  15.125  0.4041 -0.3822  0.4973
 8040SOL    HW135756   1.801   0.617  15.105  0.1498 -0.7665 -0.0509
 8040SOL    HW235757   1.705   0.722  15.066  0.9326  1.0015  2.1617
 8041SOL     OW35758   2.662   3.756  14.953  0.4964  0.6593 -0.1859
 8041SOL    HW135759   2.686   3.665  14.932  0.1696  0.5001  0.1283
 8041SOL    HW235760   2.699   3.799  14.876  0.2515 -1.3943 -1.4555
 8042SOL     OW35761   2.857   0.276   2.543 -0.4424  0.7876 -0.0898
 8042SOL    HW135762   2.828   0.316   2.625 -1.2096 -0.1063  0.0846
 8042SOL    HW235763   2.812   0.192   2.543  1.6525 -0.3340  0.8189
 8043SOL     OW35764   0.675   4.598   3.429 -0.6009 -0.2821  0.4372
 8043SOL    HW135765   0.690   4.532   3.362  1.3394  0.5990 -0.0060
 8043SOL    HW235766   0.673   4.684   3.388  0.3995 -0.2683  0.4165
 8044SOL     OW35767   3.928   2.246  13.785 -0.3331 -0.0127 -0.0909
 8044SOL    HW135768   3.834   2.248  13.766 -0.4596  0.0630  0.5492
 8044SOL    HW235769   3.948   2.171  13.729 -0.9288 -1.3836  1.5460
 8045SOL     OW35770   2.383   2.159   7.263 -0.3050  0.3026  0.0573
 8045SOL    HW135771   2.294   2.135   7.239 -0.8306  0.7576  1.5377
 8045SOL    HW235772   2.369   2.249   7.293  0.7445  0.1178  1.0947
 8046SOL     OW35773   1.784   4.592   8.308  0.1010 -0.1309  0.7414
 8046SOL    HW135774   1.733   4.628   8.235  1.0246 -0.1017  0.1200
 8046SOL    HW235775   1.707   4.553   8.351 -0.2987  0.0475  0.1903
 8047SOL     OW35776   3.532   0.960   4.908 -0.1262 -0.0028  0.1737
 8047SOL    HW135777   3.462   0.927   4.964  0.7561 -0.0152  1.2789
 8047SOL    HW235778   3.488   0.990   4.829 -1.0719 -1.3690  0.1772
 8048SOL     OW35779   3.957   0.069   1.491 -0.0901 -0.3286 -1.0001
 8048SOL    HW135780   3.913   0.063   1.576  0.2740 -0.6266 -0.8302
 8048SOL    HW235781   3.881   0.086   1.435 -1.4802  2.7198  1.7702
 8049SOL     OW35782   2.741   0.522   2.376  0.3925 -0.6816  0.3061
 8049SOL    HW135783   2.676   0.473   2.428 -0.7796 -0.5860 -1.0709
 8049SOL    HW235784   2.696   0.517   2.292  0.4882  1.3827  0.1383
 8050SOL     OW35785   1.812   2.273  13.448  0.0145 -0.7010  0.3489
 8050SOL    HW135786   1.890   2.218  13.447 -0.0931 -0.8292 -0.9328
 8050SOL    HW235787   1.744   2.209  13.469 -2.9603  2.5996  0.7996
 8051SOL     OW35788   1.606   1.647   7.340 -0.0074 -0.0191 -0.1847
 8051SOL    HW135789   1.696   1.645   7.307 -0.1451  0.6869 -0.5923
 8051SOL    HW235790   1.603   1.704   7.417 -0.2636  1.6434 -1.4308
 8052SOL     OW35791   1.766   4.020  11.512  0.0599 -0.3970 -0.1645
 8052SOL    HW135792   1.846   3.977  11.543  1.0427  1.1112 -0.5915
 8052SOL    HW235793   1.740   4.062  11.595  3.6823 -1.4823  1.5456
 8053SOL     OW35794   2.825   1.868   1.608  0.0771 -0.0391 -0.6753
 8053SOL    HW135795   2.838   1.885   1.514 -0.9803  1.2523 -0.5833
 8053SOL    HW235796   2.872   1.784   1.609  0.6951  0.3085 -0.2932
 8054SOL     OW35797   1.339   3.065   2.609  0.6402  0.1524  0.5783
 8054SOL    HW135798   1.425   3.073   2.651  0.9251 -1.1985  0.2565
 8054SOL    HW235799   1.353   2.988   2.554 -2.8986 -0.3773  0.4467
 8055SOL     OW35800   2.216   0.992   2.269  0.4046  0.5973  0.2890
 8055SOL    HW135801   2.223   1.087   2.278  0.7253  0.5315  0.7156
 8055SOL    HW235802   2.180   0.982   2.180  0.9951  1.3420 -0.0314
 8056SOL     OW35803   2.110   0.429   3.077  0.2635 -0.4778 -0.2657
 8056SOL    HW135804   2.052   0.354   3.089  1.1404 -1.1342 -0.1485
 8056SOL    HW235805   2.166   0.406   3.003  0.5989  1.7813 -0.7338
 8057SOL     OW35806   3.400   0.781   2.508  0.0002  0.4590 -1.0399
 8057SOL    HW135807   3.442   0.711   2.457  0.4430  1.0611 -1.5020
 8057SOL    HW235808   3.430   0.749   2.593  0.6057  0.3255 -1.3003
 8058SOL     OW35809   3.254   2.426  10.244 -0.4253 -0.4717  0.1557
 8058SOL    HW135810   3.161   2.405  10.237  0.3097 -2.4683 -3.4271
 8058SOL    HW235811   3.291   2.364  10.182  0.5047 -1.7717  2.0011
 8059SOL     OW35812   0.671   3.159  11.853  0.2216  0.2330  0.4576
 8059SOL    HW135813   0.576   3.162  11.861  0.1462  1.1508 -0.6497
 8059SOL    HW235814   0.693   3.081  11.802  2.4556  0.0174  1.7802
 8060SOL     OW35815   0.119   3.502  13.010  0.2833  0.5679 -0.1637
 8060SOL    HW135816   0.074   3.534  12.931  0.8092  1.5239 -0.0818
 8060SOL    HW235817   0.053   3.521  13.077  0.2485  0.1054 -0.0687
 8061SOL     OW35818   3.243   3.745   1.260  0.1461 -0.0977 -0.3569
 8061SOL    HW135819   3.253   3.684   1.332  1.7813 -1.6144 -1.9034
 8061SOL    HW235820   3.322   3.798   1.249 -0.7358  1.4142  0.5730
 8062SOL     OW35821   4.233   1.326   3.835  0.1770  0.3270  0.8119
 8062SOL    HW135822   4.235   1.414   3.872 -1.3121  0.1104  1.3889
 8062SOL    HW235823   4.312   1.288   3.873  0.7427  1.9244  1.2451
 8063SOL     OW35824   0.938   0.925   7.006  0.1189 -0.2664 -0.2711
 8063SOL    HW135825   0.981   0.956   7.086 -0.6245 -2.3106  0.9271
 8063SOL    HW235826   0.845   0.938   7.028  0.0651  0.9638 -1.2415
 8064SOL     OW35827   4.615   0.232   9.618  0.1840 -0.4839  0.5850
 8064SOL    HW135828   4.673   0.295   9.575  0.8600 -1.8130 -0.4178
 8064SOL    HW235829   4.586   0.277   9.697  0.5615 -1.9441  1.5421
 8065SOL     OW35830   3.484   3.509   7.579 -0.1630  0.4987 -0.0056
 8065SOL    HW135831   3.534   3.550   7.649  1.9700 -1.5108 -0.3665
 8065SOL    HW235832   3.505   3.417   7.590 -1.0502  0.5679  2.1168
 8066SOL     OW35833   4.200   1.038   3.747 -0.0527 -0.6621  0.0180
 8066SOL    HW135834   4.162   0.964   3.795 -2.4579  0.0149 -0.8332
 8066SOL    HW235835   4.180   1.112   3.803  1.5391  0.7010 -1.2059
 8067SOL     OW35836   4.414   4.466   6.076 -0.1481 -0.8179  0.4053
 8067SOL    HW135837   4.393   4.557   6.058  1.4338 -0.6955 -0.7917
 8067SOL    HW235838   4.464   4.473   6.157 -0.3402 -1.4668  0.5852
 8068SOL     OW35839   4.286   1.517  12.983  0.7352  0.3979  0.5938
 8068SOL    HW135840   4.254   1.429  12.963 -1.7101  1.7228 -1.3710
 8068SOL    HW235841   4.252   1.558  12.904 -0.2744 -1.8293 -0.1148
 8069SOL     OW35842   1.465   0.355   6.179 -0.0720  0.2724 -0.6665
 8069SOL    HW135843   1.422   0.272   6.156  3.3479 -1.7975  0.5386
 8069SOL    HW235844   1.389   0.413   6.181 -0.7856 -0.7273  1.8048
 8070SOL     OW35845   3.988   0.515  13.942  0.0810 -0.5583 -0.6169
 8070SOL    HW135846   3.942   0.556  13.870 -0.2023 -0.0065 -0.1246
 8070SOL    HW235847   3.915   0.457  13.964  0.9566 -1.6207 -0.5018
 8071SOL     OW35848   3.734   0.980   2.872  0.3919 -0.1117 -0.2770
 8071SOL    HW135849   3.811   1.026   2.838  1.2407 -0.3846  1.2797
 8071SOL    HW235850   3.675   1.055   2.871 -0.4200 -0.7454  2.4612
 8072SOL     OW35851   0.119   3.342   3.476 -0.0754  0.3351  0.5563
 8072SOL    HW135852   0.165   3.411   3.524  1.9660 -0.0638 -0.8120
 8072SOL    HW235853   0.037   3.338   3.525 -0.7973 -1.4952 -0.8300
 8073SOL     OW35854   3.373   0.662  11.689 -0.2616 -0.1624  0.1142
 8073SOL    HW135855   3.339   0.718  11.619 -0.4196  0.4791  0.7042
 8073SOL    HW235856   3.293   0.634  11.733 -0.0983  0.5498  0.8633
 8074SOL     OW35857   3.377   1.385   2.057  0.1894  0.0416  0.2939
 8074SOL    HW135858   3.322   1.463   2.072  0.6117  0.5315 -0.6929
 8074SOL    HW235859   3.319   1.311   2.076 -3.0669  2.3075 -0.7885
 8075SOL     OW35860   0.297   1.234   9.759 -0.1216 -0.8473 -1.1470
 8075SOL    HW135861   0.218   1.249   9.810  0.3208 -2.5958  0.0721
 8075SOL    HW235862   0.372   1.242   9.817  0.1592 -3.7349 -1.1140
 8076SOL     OW35863   1.183   1.371  11.020  0.3616  0.2445  0.4003
 8076SOL    HW135864   1.107   1.368  10.961 -0.3036  3.5348  1.0835
 8076SOL    HW235865   1.238   1.310  10.971  0.6421 -0.2027  1.2672
 8077SOL     OW35866   3.640   1.250   2.477 -0.3710 -0.6160 -0.1431
 8077SOL    HW135867   3.547   1.268   2.463  0.2842  1.5254 -1.6828
 8077SOL    HW235868   3.666   1.237   2.386  0.8980  0.5221  0.0547
 8078SOL     OW35869   1.835   1.948   2.005  0.4883 -0.6462  0.3286
 8078SOL    HW135870   1.809   1.869   2.054  0.6498 -1.6311 -1.1869
 8078SOL    HW235871   1.894   1.995   2.063 -1.4781  1.4504  0.6408
 8079SOL     OW35872   0.408   0.442   3.774 -0.1220  0.2371  0.2525
 8079SOL    HW135873   0.437   0.369   3.719 -1.8025  0.2214 -0.6089
 8079SOL    HW235874   0.420   0.403   3.860 -1.6805  0.9011  0.7718
 8080SOL     OW35875   0.577   2.907   4.077 -0.5165 -0.1077  0.4292
 8080SOL    HW135876   0.533   2.885   4.159 -0.5630 -0.1420  0.3956
 8080SOL    HW235877   0.665   2.870   4.076  0.2591  1.8192 -1.7986
 8081SOL     OW35878   1.864   1.015   6.031  0.5290 -0.4470 -0.6787
 8081SOL    HW135879   1.940   1.027   6.089  0.4389 -0.3169 -0.5873
 8081SOL    HW235880   1.820   0.944   6.078 -0.6747 -0.0965 -1.2771
 8082SOL     OW35881   1.898   2.641   1.795  0.0907  0.1659  0.5574
 8082SOL    HW135882   1.882   2.687   1.878 -0.3275 -2.5130  1.9720
 8082SOL    HW235883   1.979   2.592   1.809  0.1322  0.0211 -0.1989
 8083SOL     OW35884   4.191   1.139  17.520  0.4906  0.2778 -0.1038
 8083SOL    HW135885   4.222   1.198  17.450 -1.8262  1.6963  0.0672
 8083SOL    HW235886   4.096   1.142  17.521  0.4713 -0.2135 -0.3889
 8084SOL     OW35887   0.876   2.653  12.531 -0.3533  0.0930 -0.4241
 8084SOL    HW135888   0.794   2.679  12.489 -0.0191  1.3711 -0.3060
 8084SOL    HW235889   0.937   2.721  12.500  1.0961  0.3727  3.0817
 8085SOL     OW35890   0.992   0.946   3.393 -0.0094 -0.2526 -0.5327
 8085SOL    HW135891   0.904   0.956   3.429  1.6668  0.5711  3.3953
 8085SOL    HW235892   1.031   0.882   3.453  0.2535 -0.2663 -0.7172
 8086SOL     OW35893   0.823   3.783   0.073  0.1653  0.3276  0.2799
 8086SOL    HW135894   0.861   3.820  17.745  0.8243  1.1010  0.9622
 8086SOL    HW235895   0.875   3.703   0.073  0.3560  0.4538 -0.9072
 8087SOL     OW35896   1.062   3.967   5.771  0.1077 -0.0733 -0.1193
 8087SOL    HW135897   1.071   4.008   5.685  0.2868 -3.5341 -1.7564
 8087SOL    HW235898   1.076   4.045   5.825 -3.3995  1.2921 -1.1870
 8088SOL     OW35899   2.370   4.419   4.479 -0.4321  0.4874 -0.0552
 8088SOL    HW135900   2.308   4.376   4.421 -1.5115 -0.1649  1.5727
 8088SOL    HW235901   2.331   4.505   4.491  1.6751  1.8158 -2.7406
 8089SOL     OW35902   3.525   1.013  17.357 -0.0615  0.1931 -0.0552
 8089SOL    HW135903   3.480   1.053  17.432 -0.1807 -1.2289  0.6237
 8089SOL    HW235904   3.494   1.062  17.281  0.2537 -2.9198 -2.1825
 8090SOL     OW35905   4.343   2.779   8.428 -0.0163 -0.3434  0.4207
 8090SOL    HW135906   4.275   2.730   8.474  0.7942 -1.0111  0.8987
 8090SOL    HW235907   4.300   2.852   8.383  0.5727  0.2248  0.7872
 8091SOL     OW35908   0.606   0.701   6.146 -0.4606  0.7079 -0.3760
 8091SOL    HW135909   0.668   0.643   6.190  0.3552  1.1624 -0.9257
 8091SOL    HW235910   0.594   0.666   6.058  3.1730  0.5000 -0.7736
 8092SOL     OW35911   3.603   4.047   8.658  0.7497 -0.0795  0.1106
 8092SOL    HW135912   3.522   4.010   8.624 -0.3408 -1.5368  4.3544
 8092SOL    HW235913   3.596   4.042   8.753  1.4363  2.7707  0.3404
 8093SOL     OW35914   1.824   3.627   0.705 -0.3460 -0.1339  0.1338
 8093SOL    HW135915   1.909   3.603   0.670  1.5142  0.5031  4.1937
 8093SOL    HW235916   1.856   3.652   0.792  2.0875 -1.7572 -0.3180
 8094SOL     OW35917   0.262   2.184   6.417  0.7806 -0.4508 -0.3399
 8094SOL    HW135918   0.256   2.206   6.324  2.4669 -3.0606 -1.0372
 8094SOL    HW235919   0.190   2.236   6.454 -0.5805 -2.4079 -0.2855
 8095SOL     OW35920   0.659   4.074   6.640  0.6371 -0.4100  0.3991
 8095SOL    HW135921   0.719   4.091   6.713  0.1132 -0.5892  0.8696
 8095SOL    HW235922   0.668   3.979   6.633  1.7023 -0.2932  0.1294
 8096SOL     OW35923   1.751   4.336   3.526  0.4804 -0.1943 -0.6665
 8096SOL    HW135924   1.847   4.343   3.525  0.6678 -2.1740  1.9429
 8096SOL    HW235925   1.738   4.317   3.619 -1.1224  1.1915 -0.6239
 8097SOL     OW35926   2.874   2.042   8.812  0.2575 -0.2512 -0.2169
 8097SOL    HW135927   2.782   2.024   8.831  0.5072 -1.4648 -0.1720
 8097SOL    HW235928   2.895   1.965   8.760  0.4128 -0.4250  0.1048
 8098SOL     OW35929   0.273   0.873  10.514  0.2441  0.1765 -0.1065
 8098SOL    HW135930   0.212   0.857  10.587  0.3732  0.0609 -0.0239
 8098SOL    HW235931   0.304   0.784  10.503  0.1688 -0.0346  1.3707
 8099SOL     OW35932   2.423   2.219   4.374 -0.7398 -0.2690  0.2965
 8099SOL    HW135933   2.334   2.219   4.339 -0.7307  0.5779  0.2592
 8099SOL    HW235934   2.438   2.314   4.382  0.2027 -0.4516  0.7577
 8100SOL     OW35935   2.068   2.328   4.631  0.1337  0.7657  0.2934
 8100SOL    HW135936   2.096   2.418   4.615 -0.4683  0.3363 -3.0893
 8100SOL    HW235937   1.983   2.345   4.672 -1.0287 -0.1422 -1.7644
 8101SOL     OW35938   2.439   3.485  11.147  0.2804 -0.2834  0.1823
 8101SOL    HW135939   2.508   3.419  11.143  1.1833  0.5676  1.7962
 8101SOL    HW235940   2.414   3.484  11.054  0.1038  0.9647  0.2076
 8102SOL     OW35941   3.396   3.920  12.084  0.3841 -0.0746  0.2130
 8102SOL    HW135942   3.443   4.003  12.082 -1.6697  0.9993 -2.3537
 8102SOL    HW235943   3.461   3.869  12.036 -0.4568 -0.1623 -0.8349
 8103SOL     OW35944   2.418   1.938   4.352  0.2955  0.2326 -0.6433
 8103SOL    HW135945   2.504   1.905   4.326 -0.6864 -0.1785 -3.3301
 8103SOL    HW235946   2.441   2.030   4.361 -2.0388  0.7374  0.3531
 8104SOL     OW35947   4.105   0.031   6.522  0.0850  0.2448 -0.0988
 8104SOL    HW135948   4.036   4.707   6.547 -2.0933  1.8327 -2.1097
 8104SOL    HW235949   4.177   0.008   6.580 -1.8443 -0.6463  1.9824
 8105SOL     OW35950   3.672   3.000   3.080 -0.0476 -0.1484  0.5821
 8105SOL    HW135951   3.597   3.025   3.135 -0.1346  0.5391  0.1515
 8105SOL    HW235952   3.746   3.022   3.137  0.2019  2.2292 -0.6830
 8106SOL     OW35953   4.555   3.585  14.544  0.1660 -0.8072 -0.2357
 8106SOL    HW135954   4.540   3.539  14.626 -1.0590 -0.1100 -0.0610
 8106SOL    HW235955   4.567   3.671  14.584  1.8883 -1.5980  0.9366
 8107SOL     OW35956   2.201   4.378   3.130 -0.2328 -0.1198  0.0486
 8107SOL    HW135957   2.130   4.384   3.066  0.6992 -0.5604 -1.0431
 8107SOL    HW235958   2.163   4.425   3.204  1.0817  1.0316  0.0017
 8108SOL     OW35959   2.304   2.009  12.521 -0.0131 -0.3099 -0.4946
 8108SOL    HW135960   2.299   1.921  12.558 -1.3335  0.1807  0.5156
 8108SOL    HW235961   2.302   2.058  12.604  2.3524 -0.3962 -0.4044
 8109SOL     OW35962   3.825   2.758   0.773  0.3764 -1.0397  0.3671
 8109SOL    HW135963   3.812   2.849   0.797 -0.9215 -0.9954 -0.5460
 8109SOL    HW235964   3.917   2.750   0.801  0.3807 -1.6676  0.1811
 8110SOL     OW35965   1.424   1.756   5.970  0.3886  0.0087  0.8793
 8110SOL    HW135966   1.351   1.695   5.975  0.8790 -0.5548  1.2425
 8110SOL    HW235967   1.373   1.837   5.973  0.8702  0.3548 -0.3535
 8111SOL     OW35968   1.783   2.041   3.283  0.4432 -0.4699 -0.2440
 8111SOL    HW135969   1.868   2.013   3.315  0.1624 -0.9670  0.0601
 8111SOL    HW235970   1.721   1.974   3.312 -0.9214  0.5987 -0.7295
 8112SOL     OW35971   3.731   2.522  16.560  0.2704 -0.1482  0.0313
 8112SOL    HW135972   3.657   2.531  16.620  1.0830  1.3653  0.7902
 8112SOL    HW235973   3.752   2.433  16.589 -0.5862 -0.2676  0.2992
 8113SOL     OW35974   2.751   1.802  14.688  0.4434 -0.3842  0.5059
 8113SOL    HW135975   2.748   1.891  14.720  0.8394 -0.2351  0.1320
 8113SOL    HW235976   2.706   1.756  14.759 -0.8221  2.3387  1.4352
 8114SOL     OW35977   0.088   2.327   6.847  0.2866 -0.2825  0.0686
 8114SOL    HW135978   0.180   2.342   6.827 -0.0634  0.2687 -1.1930
 8114SOL    HW235979   0.044   2.412   6.837  0.3306 -0.3340 -0.5691
 8115SOL     OW35980   0.092   0.654   5.816  0.0990 -0.2245 -0.4289
 8115SOL    HW135981   0.184   0.662   5.840 -0.0745 -0.9321  0.4644
 8115SOL    HW235982   0.082   0.690   5.728  0.4761  3.0065  0.8707
 8116SOL     OW35983   2.833   4.141   3.076  0.4403 -0.6815 -0.0700
 8116SOL    HW135984   2.831   4.213   3.139 -0.4316 -1.0740  0.3478
 8116SOL    HW235985   2.760   4.088   3.108  0.7920 -0.9422  0.3156
 8117SOL     OW35986   2.182   2.250   8.817  0.1321 -0.1911 -0.3140
 8117SOL    HW135987   2.276   2.235   8.830 -0.3501 -1.2870  1.8881
 8117SOL    HW235988   2.148   2.163   8.835 -1.3198  0.4172 -0.1012
 8118SOL     OW35989   2.047   3.113   6.341  0.2969 -0.2392 -0.7635
 8118SOL    HW135990   2.123   3.159   6.306  0.0981  0.9302  0.3373
 8118SOL    HW235991   2.081   3.024   6.346  2.5435  0.5314 -2.2836
 8119SOL     OW35992   1.663   1.511   5.080 -0.0559  0.1755  0.2558
 8119SOL    HW135993   1.624   1.524   4.993 -0.8262  0.6608  0.6724
 8119SOL    HW235994   1.753   1.538   5.060 -0.8645  1.0309 -2.2878
 8120SOL     OW35995   3.328   2.751  10.682  0.0073 -0.1968  0.0761
 8120SOL    HW135996   3.319   2.810  10.607 -0.0362 -1.7828 -1.1721
 8120SOL    HW235997   3.377   2.677  10.644 -0.6984 -1.2418  1.2255
 8121SOL     OW35998   0.993   2.411   0.897  0.5137 -0.1302  0.1833
 8121SOL    HW135999   0.993   2.398   0.802 -2.3049 -1.2937  0.3476
 8121SOL    HW236000   1.079   2.452   0.902 -0.0250  0.9806  0.5686
 8122SOL     OW36001   4.118   2.603   7.293  0.0839 -0.1644  0.3018
 8122SOL    HW136002   4.120   2.636   7.203 -1.7078 -1.3659 -0.1728
 8122SOL    HW236003   4.210   2.603   7.320 -0.1931  1.0202  1.2574
 8123SOL     OW36004   1.008   0.675   6.645 -0.3999 -0.0063 -0.2941
 8123SOL    HW136005   0.932   0.657   6.700 -0.2031 -0.4785 -0.1742
 8123SOL    HW236006   1.004   0.596   6.591 -1.2139  0.0217 -0.2783
 8124SOL     OW36007   3.987   3.895  15.334 -0.4129  0.7633  0.1463
 8124SOL    HW136008   4.004   3.983  15.367  1.3930  0.7173 -0.6490
 8124SOL    HW236009   3.894   3.882  15.352  0.2378 -1.0810  2.1995
 8125SOL     OW36010   2.432   1.929   4.930 -0.0866  0.0159  0.0984
 8125SOL    HW136011   2.382   1.855   4.895  0.9599 -0.6697  0.0605
 8125SOL    HW236012   2.457   1.967   4.846 -0.1553 -1.6628 -0.6877
 8126SOL     OW36013   1.393   1.353   8.496  0.1873  0.3830 -0.0950
 8126SOL    HW136014   1.447   1.432   8.508  0.0869  0.3621  0.4821
 8126SOL    HW236015   1.315   1.395   8.533 -0.3724 -1.3876  0.7148
 8127SOL     OW36016   0.823   4.129   4.599  0.0614 -0.0117  0.3770
 8127SOL    HW136017   0.861   4.212   4.631 -1.2673  0.4055  0.8685
 8127SOL    HW236018   0.803   4.153   4.509 -0.0278  1.6501  0.8264
 8128SOL     OW36019   0.786   4.127  13.064  0.2518  0.6545  0.3954
 8128SOL    HW136020   0.858   4.188  13.045  1.2707 -0.3931  0.9082
 8128SOL    HW236021   0.783   4.133  13.160 -0.9729  2.1630  0.2770
 8129SOL     OW36022   2.126   2.413  16.950  0.4851  0.7501 -0.1566
 8129SOL    HW136023   2.038   2.411  16.913  0.6917 -2.0528 -0.4966
 8129SOL    HW236024   2.103   2.407  17.043 -0.6009 -1.5493 -0.5620
 8130SOL     OW36025   0.622   3.923  16.330  0.7075 -0.2285 -0.0368
 8130SOL    HW136026   0.659   3.835  16.327 -0.1558 -0.6300  0.8808
 8130SOL    HW236027   0.620   3.954  16.421  2.2624  0.1034 -0.1281
 8131SOL     OW36028   1.276   2.222  13.415 -0.2484  0.5459  0.3706
 8131SOL    HW136029   1.259   2.177  13.498  3.5115 -1.6139 -0.0020
 8131SOL    HW236030   1.369   2.202  13.408 -0.0064  0.6087  3.7016
 8132SOL     OW36031   4.364   1.014   9.310 -0.6199 -0.2045 -0.1653
 8132SOL    HW136032   4.303   0.947   9.340 -0.0501 -1.2360 -1.2835
 8132SOL    HW236033   4.303   1.057   9.250  0.3042  3.2746  1.3928
 8133SOL     OW36034   0.630   1.471   0.071  0.1569  0.5614  0.1473
 8133SOL    HW136035   0.690   1.411   0.027  0.7711  1.0186  0.3720
 8133SOL    HW236036   0.676   1.554   0.083  1.6276 -0.2672  0.2065
 8134SOL     OW36037   2.030   3.183   8.292  0.1929 -0.0733  0.1014
 8134SOL    HW136038   1.965   3.120   8.324  1.3896 -0.0363  2.6215
 8134SOL    HW236039   2.006   3.198   8.201  0.9313 -0.0388 -0.0888
 8135SOL     OW36040   4.232   0.520   1.949 -0.4783  0.3800 -0.0622
 8135SOL    HW136041   4.253   0.610   1.924  0.4463 -0.0906 -0.9840
 8135SOL    HW236042   4.141   0.509   1.922  0.0459 -0.8398 -1.3555
 8136SOL     OW36043   2.152   1.595   1.935 -0.6084  0.4323 -0.2431
 8136SOL    HW136044   2.245   1.600   1.956 -1.2068 -0.9970  2.8151
 8136SOL    HW236045   2.146   1.526   1.869  0.0128 -0.6992  0.8933
 8137SOL     OW36046   4.570   0.483   2.467 -0.3191  0.2828 -0.3029
 8137SOL    HW136047   4.657   0.512   2.494 -0.0187 -0.6112 -0.3047
 8137SOL    HW236048   4.521   0.476   2.549  1.9095 -0.0433  0.9979
 8138SOL     OW36049   2.044   1.385   6.365 -0.2445  0.1108 -0.2090
 8138SOL    HW136050   2.045   1.304   6.416  0.0472  0.8077  0.8662
 8138SOL    HW236051   1.977   1.377   6.296 -0.5161  1.5016 -0.1063
 8139SOL     OW36052   3.414   2.613   2.091  0.0502  0.0028  0.6106
 8139SOL    HW136053   3.430   2.659   2.008 -1.7090 -1.0075 -0.2955
 8139SOL    HW236054   3.438   2.675   2.159 -2.6663 -0.0367  1.5785
 8140SOL     OW36055   0.559   4.325   5.244 -0.0832 -0.1346 -0.0861
 8140SOL    HW136056   0.492   4.281   5.192 -0.8042  0.6386  0.1961
 8140SOL    HW236057   0.539   4.280   5.326  0.3870  1.1565  0.7237
 8141SOL     OW36058   4.621   2.866   7.843  0.0152 -0.2612 -0.3690
 8141SOL    HW136059   4.566   2.939   7.812 -0.7286 -1.0789 -0.9767
 8141SOL    HW236060   4.692   2.869   7.779  0.7082 -1.0140  0.3689
 8142SOL     OW36061   1.597   4.098   4.622  0.0730  0.1744  0.6913
 8142SOL    HW136062   1.508   4.065   4.610  0.2543 -0.4317  1.0173
 8142SOL    HW236063   1.593   4.192   4.602 -0.5558 -0.3117 -1.4555
 8143SOL     OW36064   0.598   4.621   6.502 -0.7274  0.8929  0.1942
 8143SOL    HW136065   0.510   4.635   6.537 -0.3180  1.3425  1.0311
 8143SOL    HW236066   0.647   4.590   6.577 -0.5460 -2.2661 -1.2272
 8144SOL     OW36067   4.056   2.234   3.417  0.5127  0.1104  0.4167
 8144SOL    HW136068   4.020   2.273   3.338  0.8980 -0.7516 -0.1855
 8144SOL    HW236069   4.026   2.298   3.482 -1.6550  0.0840 -0.5764
 8145SOL     OW36070   4.663   2.837   6.055 -0.0525 -0.0860 -0.4684
 8145SOL    HW136071   4.622   2.776   5.993  1.6608 -0.3457 -1.3335
 8145SOL    HW236072   4.711   2.903   6.005  3.2567 -2.2838 -0.1778
 8146SOL     OW36073   0.277   0.328  13.070 -0.4015 -0.3651  0.0063
 8146SOL    HW136074   0.202   0.384  13.091  1.3120  1.2444  1.9402
 8146SOL    HW236075   0.234   0.249  13.038  0.1369 -0.9491  0.7184
 8147SOL     OW36076   2.180   1.581   9.302  0.4135 -0.1246  0.3371
 8147SOL    HW136077   2.180   1.501   9.355  0.6606 -0.0545  0.4457
 8147SOL    HW236078   2.204   1.641   9.373 -1.5550 -0.3430  1.1925
 8148SOL     OW36079   3.386   0.038   3.358  0.2456 -0.2253  0.5648
 8148SOL    HW136080   3.372   4.707   3.294  1.1338  0.3450 -0.2582
 8148SOL    HW236081   3.299   0.063   3.390  1.2357  2.7800  0.9432
 8149SOL     OW36082   1.661   2.349  17.485  0.0900 -0.4714  0.4559
 8149SOL    HW136083   1.605   2.383  17.554  1.0154 -2.2338  2.0860
 8149SOL    HW236084   1.743   2.395  17.506 -0.0923 -0.1534  0.4676
 8150SOL     OW36085   0.310   1.082   4.152  0.7028 -0.3765  0.4619
 8150SOL    HW136086   0.405   1.072   4.161  0.5727  0.3258  2.7752
 8150SOL    HW236087   0.294   0.987   4.157 -0.2005 -0.2742 -0.5468
 8151SOL     OW36088   0.068   2.054   2.647  0.0020  0.2062 -0.4239
 8151SOL    HW136089   0.145   2.062   2.703 -0.4655 -0.4182  0.3061
 8151SOL    HW236090   4.735   2.073   2.709 -0.8589 -0.4770 -1.2027
 8152SOL     OW36091   4.311   3.777   0.845  0.1779  0.0785 -0.2602
 8152SOL    HW136092   4.352   3.864   0.840  1.4645 -0.5820 -0.9178
 8152SOL    HW236093   4.276   3.788   0.934  1.2932  2.2634 -0.0812
 8153SOL     OW36094   0.733   3.013   3.517  0.0812  0.3057 -0.1548
 8153SOL    HW136095   0.642   3.021   3.545  0.2172 -0.5333  0.5145
 8153SOL    HW236096   0.771   3.075   3.579 -0.6772  2.0446 -1.4299
 8154SOL     OW36097   3.827   1.237   5.287  0.1818 -0.5890 -0.1590
 8154SOL    HW136098   3.811   1.208   5.197 -1.2890 -0.0687 -0.0693
 8154SOL    HW236099   3.853   1.157   5.333 -0.0925  0.3519  1.6338
 8155SOL     OW36100   1.090   2.792   6.517 -0.2142  0.2767  0.3548
 8155SOL    HW136101   1.182   2.796   6.491  0.0712  0.5373  1.4041
 8155SOL    HW236102   1.088   2.800   6.612  1.4032  1.0894  0.3215
 8156SOL     OW36103   4.053   0.411  10.620  0.2081 -0.6690 -0.3680
 8156SOL    HW136104   3.995   0.336  10.633 -1.4997  0.2851 -2.4531
 8156SOL    HW236105   4.076   0.408  10.527  2.2538  0.3585  0.1017
 8157SOL     OW36106   1.766   3.315   9.762  0.1739 -0.3496 -0.0803
 8157SOL    HW136107   1.767   3.383   9.830 -0.0682 -2.1958  1.7996
 8157SOL    HW236108   1.847   3.268   9.786 -0.0714 -0.1048  1.2405
 8158SOL     OW36109   3.427   4.575   1.351  0.1111  0.0811 -0.2891
 8158SOL    HW136110   3.349   4.625   1.375  1.2544  0.2657  3.0520
 8158SOL    HW236111   3.391   4.520   1.282 -0.9293 -0.9747  1.0844
 8159SOL     OW36112   4.326   2.837   8.841  0.1374  0.0783 -0.4832
 8159SOL    HW136113   4.382   2.765   8.811 -2.3440 -1.7859 -0.6089
 8159SOL    HW236114   4.370   2.898   8.782 -0.7088  0.2556 -0.9141
 8160SOL     OW36115   3.676   3.991   4.967 -0.3126  0.3826 -0.6785
 8160SOL    HW136116   3.741   3.974   5.034 -1.1053  0.8335  0.2039
 8160SOL    HW236117   3.619   3.915   4.984 -0.1157 -0.1175 -2.2291
 8161SOL     OW36118   2.025   1.233   8.232  0.1703  0.0492  0.5069
 8161SOL    HW136119   2.005   1.314   8.184  0.1234 -0.9718 -1.2297
 8161SOL    HW236120   2.063   1.186   8.157 -1.2344 -0.4929  0.1365
 8162SOL     OW36121   3.838   3.881  16.648  0.5382 -0.2319  0.6422
 8162SOL    HW136122   3.769   3.891  16.582  1.1092  1.6129  0.3251
 8162SOL    HW236123   3.911   3.924  16.604  1.1641 -1.0290  0.9267
 8163SOL     OW36124   1.888   0.108   7.358  0.6403  0.1705 -0.4109
 8163SOL    HW136125   1.855   0.020   7.377 -0.9362  1.5060  2.9716
 8163SOL    HW236126   1.983   0.097   7.355  0.6416  0.6028 -1.6804
 8164SOL     OW36127   1.243   2.525   0.967  0.0289 -0.8767 -0.4313
 8164SOL    HW136128   1.187   2.585   1.017 -0.3438 -2.2328  0.7713
 8164SOL    HW236129   1.297   2.579   0.909  0.2315 -0.2452  0.3411
 8165SOL     OW36130   3.776   2.925  17.090 -0.4751 -0.5253  0.3050
 8165SOL    HW136131   3.734   2.899  17.172 -0.9341 -0.5118  0.0689
 8165SOL    HW236132   3.803   2.840  17.055  0.2610 -0.3109  0.3440
 8166SOL     OW36133   3.333   1.029   3.009 -0.0265  0.0925  0.5086
 8166SOL    HW136134   3.252   0.981   3.027 -1.6285  2.5778 -0.1095
 8166SOL    HW236135   3.352   1.060   3.097 -1.0927  0.4214  0.6203
 8167SOL     OW36136   0.818   4.247   7.485 -0.0721  0.4680 -0.1697
 8167SOL    HW136137   0.858   4.174   7.531 -2.0526 -0.1472  0.6014
 8167SOL    HW236138   0.735   4.205   7.463  0.1633  0.5280 -1.1827
 8168SOL     OW36139   4.264   3.398   1.423 -0.4506  1.2107  0.0257
 8168SOL    HW136140   4.245   3.380   1.331  2.0756  1.3847 -0.5351
 8168SOL    HW236141   4.179   3.432   1.451 -0.2877  2.2962 -0.7714
 8169SOL     OW36142   3.992   4.423   4.320  0.0339  0.0047 -0.0856
 8169SOL    HW136143   4.002   4.517   4.307  2.3982 -0.0153  1.5748
 8169SOL    HW236144   3.899   4.410   4.302 -0.5814 -1.5523  4.1542
 8170SOL     OW36145   3.034   1.686   8.182 -0.2262 -0.6119  0.2116
 8170SOL    HW136146   3.035   1.591   8.169  3.6599 -0.4595 -0.7149
 8170SOL    HW236147   2.965   1.700   8.246 -0.1144  0.7439  0.0351
 8171SOL     OW36148   1.426   3.912  10.713  0.0574  0.2506 -0.5344
 8171SOL    HW136149   1.347   3.966  10.714 -1.2339 -1.5935 -0.9326
 8171SOL    HW236150   1.450   3.922  10.621  1.8831 -1.1207 -0.2023
 8172SOL     OW36151   3.100   4.385   3.133  0.6692 -0.0142  0.1957
 8172SOL    HW136152   3.033   4.448   3.107  2.1482  1.1714 -0.6930
 8172SOL    HW236153   3.054   4.336   3.201  2.3576 -0.2328  1.1710
 8173SOL     OW36154   3.100   0.725  11.447  0.2878 -0.1382  0.3383
 8173SOL    HW136155   3.194   0.707  11.441  0.4116 -0.1543  2.4686
 8173SOL    HW236156   3.104   0.819  11.461 -1.5278  0.0410 -0.3618
 8174SOL     OW36157   3.872   3.304   1.808  0.4710  0.7252 -1.0854
 8174SOL    HW136158   3.929   3.354   1.866 -0.6967 -1.6420  2.1594
 8174SOL    HW236159   3.809   3.372   1.784 -1.1118  1.2028  4.4995
 8175SOL     OW36160   1.407   3.149  14.460  0.2773  0.4568 -0.4272
 8175SOL    HW136161   1.439   3.197  14.383  2.6160 -1.0251 -0.3724
 8175SOL    HW236162   1.425   3.059  14.432 -1.1644  0.5914 -1.8143
 8176SOL     OW36163   2.800   3.830  14.732  0.3142  0.3466  0.2619
 8176SOL    HW136164   2.788   3.901  14.669  0.4944  0.4921  0.3909
 8176SOL    HW236165   2.788   3.751  14.679 -0.1230  1.0589 -0.7092
 8177SOL     OW36166   0.466   2.431   3.429  0.1788 -0.0332  0.1999
 8177SOL    HW136167   0.491   2.350   3.473 -1.5286 -0.4056  0.4686
 8177SOL    HW236168   0.443   2.408   3.339  0.5865  1.7688 -0.3805
 8178SOL     OW36169   4.435   4.121   3.005 -0.1453 -0.2618 -0.1101
 8178SOL    HW136170   4.399   4.068   3.076 -1.2192  0.7235  0.0827
 8178SOL    HW236171   4.369   4.188   2.987 -0.2577  0.1235  1.7556
 8179SOL     OW36172   1.481   0.346   0.754  0.3286 -0.0183 -0.4427
 8179SOL    HW136173   1.520   0.366   0.839 -0.4468  0.7041 -0.2569
 8179SOL    HW236174   1.518   0.259   0.735  1.0813  0.0964  0.5463
 8180SOL     OW36175   0.534   0.812   6.385  0.0043  0.2119  0.7643
 8180SOL    HW136176   0.442   0.832   6.368 -0.3607  0.7890  3.5653
 8180SOL    HW236177   0.560   0.756   6.312 -0.7679  1.0356 -0.1444
 8181SOL     OW36178   2.554   1.362   1.312  0.4318 -0.3459 -0.2713
 8181SOL    HW136179   2.617   1.292   1.323  1.6269  0.7983  0.1396
 8181SOL    HW236180   2.540   1.354   1.217  0.7785  0.7446 -0.4222
 8182SOL     OW36181   3.156   4.486   6.827 -0.0073  0.1255 -0.4405
 8182SOL    HW136182   3.147   4.400   6.868 -0.9195 -0.0394 -0.9920
 8182SOL    HW236183   3.232   4.472   6.770  0.3308  0.1174  0.0140
 8183SOL     OW36184   3.662   2.900   8.903  0.0978  0.2141  0.2686
 8183SOL    HW136185   3.648   2.931   8.993  0.5605 -0.8107  0.6949
 8183SOL    HW236186   3.650   2.983   8.858  0.1961 -0.9013 -1.8259
 8184SOL     OW36187   3.806   3.663   8.949 -0.2561 -0.0928  0.1144
 8184SOL    HW136188   3.838   3.749   8.977 -1.0355 -0.7907  3.1891
 8184SOL    HW236189   3.816   3.608   9.027 -0.1176  1.5266  1.2453
 8185SOL     OW36190   0.131   1.059  11.313 -0.3481 -0.3001 -0.2806
 8185SOL    HW136191   0.099   1.090  11.397 -2.8322 -2.6216 -0.3775
 8185SOL    HW236192   0.226   1.066  11.322 -0.3774 -0.1344 -0.1061
 8186SOL     OW36193   0.040   4.055   1.587 -0.2673 -0.1646 -0.2740
 8186SOL    HW136194   0.115   4.083   1.535 -0.8771 -0.3701 -1.2790
 8186SOL    HW236195   4.736   4.003   1.518 -0.4023  0.2567 -0.5109
 8187SOL     OW36196   3.241   0.159  11.534  1.0807 -0.0639  0.1813
 8187SOL    HW136197   3.186   0.153  11.456  0.1750 -2.8814  1.0562
 8187SOL    HW236198   3.200   0.222  11.594  0.2809 -0.1013 -0.3367
 8188SOL     OW36199   0.138   2.300  12.413 -0.0174  0.3872 -0.0614
 8188SOL    HW136200   0.065   2.324  12.470  0.3610  0.5971  0.3379
 8188SOL    HW236201   0.160   2.212  12.443 -0.5596 -0.4656 -2.1186
 8189SOL     OW36202   2.836   0.625   4.559 -0.0064  0.1833 -0.2126
 8189SOL    HW136203   2.908   0.683   4.536 -1.2754  2.0323  0.4356
 8189SOL    HW236204   2.856   0.609   4.652  0.8367  1.5328 -0.1632
 8190SOL     OW36205   1.782   2.335   5.674  0.3423 -0.2994 -0.2752
 8190SOL    HW136206   1.708   2.393   5.693  0.4023 -1.0099  2.0705
 8190SOL    HW236207   1.738   2.291   5.601  0.7954 -1.2421  0.0258
 8191SOL     OW36208   1.587   0.985   0.274  0.0612  0.1850  0.6841
 8191SOL    HW136209   1.655   0.985   0.342  0.1692 -1.1798  0.5802
 8191SOL    HW236210   1.608   1.072   0.241  2.6352 -0.1996  1.2883
 8192SOL     OW36211   4.504   0.034   7.490  0.2192 -0.0496  0.0875
 8192SOL    HW136212   4.436   0.052   7.425 -1.6007  0.0194  2.0419
 8192SOL    HW236213   4.541   0.122   7.493  0.3100 -0.0760 -0.2184
 8193SOL     OW36214   2.775   1.458  15.000 -0.5074  0.6106  0.1206
 8193SOL    HW136215   2.754   1.547  14.973 -2.7216 -1.2782 -4.3302
 8193SOL    HW236216   2.707   1.403  14.960  0.6118 -0.1996 -0.6633
 8194SOL     OW36217   4.137   2.125  16.082 -0.0370 -0.5118  0.8572
 8194SOL    HW136218   4.128   2.142  16.176 -0.4423 -1.5438  1.0016
 8194SOL    HW236219   4.192   2.199  16.058 -2.7717  0.4662 -2.4606
 8195SOL     OW36220   3.163   4.371   7.564  0.0196  0.3843  0.4889
 8195SOL    HW136221   3.135   4.456   7.529 -0.8406 -1.4531 -3.2739
 8195SOL    HW236222   3.253   4.380   7.532  0.3870  0.3429  1.5106
 8196SOL     OW36223   1.895   0.848   0.575  0.0091  0.4360  0.5701
 8196SOL    HW136224   1.910   0.753   0.567 -0.7291  0.4277 -0.7433
 8196SOL    HW236225   1.981   0.885   0.597  0.6459 -0.8845  0.3636
 8197SOL     OW36226   1.137   0.161   3.772 -0.4858  0.2575  0.1861
 8197SOL    HW136227   1.108   0.135   3.860  1.0236  1.1358  0.9391
 8197SOL    HW236228   1.221   0.203   3.786 -1.6837  2.4319  0.8458
 8198SOL     OW36229   4.230   3.195   8.458  0.6208  0.0057 -0.7333
 8198SOL    HW136230   4.222   3.287   8.432  1.6263  0.5191  0.7839
 8198SOL    HW236231   4.255   3.214   8.548 -0.2161 -0.2740 -0.4402
 8199SOL     OW36232   4.285   0.559   7.438 -0.0039  0.2786  0.5330
 8199SOL    HW136233   4.293   0.544   7.343  2.0638 -2.3985  1.1519
 8199SOL    HW236234   4.308   0.651   7.447  2.8047 -0.5336  1.3615
 8200SOL     OW36235   0.768   0.270   6.554  0.2152 -0.0377 -0.2241
 8200SOL    HW136236   0.842   0.317   6.517 -0.6272  1.6607  0.2456
 8200SOL    HW236237   0.794   0.259   6.646  0.5782 -0.2189 -0.3501
 8201SOL     OW36238   4.390   1.410  14.295  0.5789 -0.3683  0.2233
 8201SOL    HW136239   4.298   1.408  14.269  0.7322 -0.4179 -0.3177
 8201SOL    HW236240   4.396   1.485  14.354 -0.4643  1.2816 -1.7321
 8202SOL     OW36241   3.416   1.342  17.480 -0.7062  0.2501 -0.1320
 8202SOL    HW136242   3.343   1.394  17.516 -2.0626 -0.2604 -2.1561
 8202SOL    HW236243   3.407   1.256  17.521 -3.2643 -0.1098 -1.4366
 8203SOL     OW36244   1.079   4.688   3.601  0.9176 -0.0109 -0.5372
 8203SOL    HW136245   1.098   0.031   3.648  2.6367 -0.5949 -0.2214
 8203SOL    HW236246   1.042   4.702   3.513  2.1731 -0.9438 -1.2154
 8204SOL     OW36247   2.153   2.279   0.533  0.4133 -0.1401 -0.3741
 8204SOL    HW136248   2.071   2.305   0.492  1.5330 -0.9170 -3.0974
 8204SOL    HW236249   2.217   2.319   0.475  0.5347 -1.4310 -1.1483
 8205SOL     OW36250   1.505   2.592  10.427  0.4370  0.1247 -0.0260
 8205SOL    HW136251   1.434   2.654  10.406  1.5291  1.4301  0.1225
 8205SOL    HW236252   1.462   2.533  10.489 -0.4778  2.7671  1.8409
 8206SOL     OW36253   1.737   2.495   0.147  0.6487 -0.3523  0.0117
 8206SOL    HW136254   1.782   2.484   0.230 -2.3907  2.2177  1.9759
 8206SOL    HW236255   1.727   2.590   0.144 -1.4983 -0.5505  1.0188
 8207SOL     OW36256   4.054   1.402   1.966  0.4249 -0.1071 -0.3968
 8207SOL    HW136257   3.994   1.358   2.027  1.2636  1.1684  1.3503
 8207SOL    HW236258   4.063   1.492   1.995 -0.7831  0.3478 -1.4362
 8208SOL     OW36259   3.708   1.271  12.619 -0.4715  0.5399  0.2260
 8208SOL    HW136260   3.724   1.325  12.542  1.0624 -1.4926 -0.8730
 8208SOL    HW236261   3.762   1.319  12.681  0.9292 -2.5199  1.3610
 8209SOL     OW36262   4.128   2.252   2.405 -0.3345 -0.1668 -0.1125
 8209SOL    HW136263   4.042   2.294   2.399  0.6427  1.9675  0.7851
 8209SOL    HW236264   4.173   2.304   2.339  0.6338  0.9807  1.4620
 8210SOL     OW36265   4.201   1.754   0.282  0.7422 -0.5834  0.4223
 8210SOL    HW136266   4.214   1.661   0.263 -0.6858 -0.9086  1.0867
 8210SOL    HW236267   4.273   1.768   0.343  1.4859 -1.1542 -0.3083
 8211SOL     OW36268   3.580   4.253   7.035 -0.0936 -0.5212 -0.2020
 8211SOL    HW136269   3.536   4.329   7.072 -0.1815 -2.8923  4.5171
 8211SOL    HW236270   3.520   4.184   7.062  0.7609 -1.2911 -0.2429
 8212SOL     OW36271   0.240   4.227   0.853  0.2174  0.3656  0.0154
 8212SOL    HW136272   0.262   4.172   0.929  0.2884 -0.0917 -0.3396
 8212SOL    HW236273   0.167   4.277   0.889  0.5294 -0.4833  1.8472
 8213SOL     OW36274   1.569   1.500   2.254  0.1030  0.4569 -0.4513
 8213SOL    HW136275   1.497   1.439   2.240  0.5276  0.0021 -0.6252
 8213SOL    HW236276   1.568   1.513   2.349 -1.9537  0.8352 -0.5329
 8214SOL     OW36277   0.229   4.552   7.113 -0.3239 -0.3640  0.0735
 8214SOL    HW136278   0.211   4.518   7.025  1.7064 -1.1652 -0.0230
 8214SOL    HW236279   0.142   4.586   7.136  0.2481  1.5696 -0.6505
 8215SOL     OW36280   3.596   3.001   1.465  0.2496  0.4680 -0.1562
 8215SOL    HW136281   3.646   3.015   1.545 -0.9528 -0.9984  0.8579
 8215SOL    HW236282   3.612   2.908   1.453 -3.4329 -0.0461 -1.1643
 8216SOL     OW36283   3.679   1.452   2.731 -0.4226 -0.6140  0.1044
 8216SOL    HW136284   3.651   1.407   2.651 -0.0886  2.4317 -1.7014
 8216SOL    HW236285   3.738   1.518   2.694 -1.2150 -0.4820 -0.9319
 8217SOL     OW36286   0.670   3.258  15.804  0.2849  0.1154 -0.7525
 8217SOL    HW136287   0.595   3.236  15.859 -0.5443 -0.7517 -2.2080
 8217SOL    HW236288   0.645   3.225  15.717 -1.4775  3.6840 -1.6337
 8218SOL     OW36289   0.081   0.203   2.315 -0.1181 -0.6861 -0.0539
 8218SOL    HW136290   4.736   0.227   2.274 -0.4107 -1.4472  0.0771
 8218SOL    HW236291   0.075   0.230   2.406 -2.3109 -1.0961 -0.0783
 8219SOL     OW36292   3.826   2.170   1.786 -0.7151 -0.1208  0.1573
 8219SOL    HW136293   3.892   2.238   1.770 -0.5017 -0.7245 -1.5965
 8219SOL    HW236294   3.874   2.106   1.839 -0.2451 -0.1945 -0.3562
 8220SOL     OW36295   1.937   2.017   3.779  0.0349 -0.2788  0.6498
 8220SOL    HW136296   1.920   2.041   3.870 -0.2915 -1.4707  0.9067
 8220SOL    HW236297   1.988   2.093   3.752  1.1511 -1.1071  0.4242
 8221SOL     OW36298   0.032   4.350   6.625 -0.3386 -0.0572  0.4453
 8221SOL    HW136299   4.676   4.365   6.621 -0.4146 -1.3718 -2.4099
 8221SOL    HW236300   0.052   4.297   6.548 -0.7466 -2.1358  1.7697
 8222SOL     OW36301   3.499   3.264   5.044  0.6161  0.0506  0.0562
 8222SOL    HW136302   3.450   3.187   5.016 -2.8381  1.7750  1.3016
 8222SOL    HW236303   3.512   3.229   5.132 -0.4669 -2.7956 -0.9131
 8223SOL     OW36304   1.597   3.925   7.810  0.1441 -0.0115 -0.2018
 8223SOL    HW136305   1.659   3.855   7.831  0.2409 -0.2697 -1.3861
 8223SOL    HW236306   1.524   3.888   7.860  0.3192  0.8544  0.7082
 8224SOL     OW36307   3.971   3.049   8.344 -0.2284 -0.4176 -0.2851
 8224SOL    HW136308   4.038   3.099   8.390 -1.5240  0.2160  0.9140
 8224SOL    HW236309   3.950   3.100   8.265 -0.3216  1.1875  0.7649
 8225SOL     OW36310   1.478   1.441   2.767  0.3180  0.0425  0.1124
 8225SOL    HW136311   1.551   1.384   2.792 -0.2862 -0.9612 -0.3882
 8225SOL    HW236312   1.406   1.378   2.770 -0.5898  1.0081 -1.7258
 8226SOL     OW36313   4.411   0.531   9.240  0.5190  0.0462 -0.3214
 8226SOL    HW136314   4.425   0.606   9.181  0.0252  0.3503 -0.0516
 8226SOL    HW236315   4.479   0.552   9.305  0.7583  1.2078 -0.9516
 8227SOL     OW36316   2.538   0.703   4.036 -0.1565  0.2095  0.2170
 8227SOL    HW136317   2.611   0.645   4.058 -1.2277 -1.5451 -0.8099
 8227SOL    HW236318   2.489   0.721   4.117 -0.3829  1.0322 -0.1062
 8228SOL     OW36319   3.988   2.325  16.983  0.1027 -0.1991  0.5817
 8228SOL    HW136320   3.922   2.394  16.980 -0.0133 -0.3369 -0.1876
 8228SOL    HW236321   3.939   2.247  16.957  0.3127 -0.9742  2.5423
 8229SOL     OW36322   3.774   0.090  17.590 -0.0653 -0.6066  0.7293
 8229SOL    HW136323   3.717   0.167  17.582  1.3164  0.3107 -0.2468
 8229SOL    HW236324   3.739   0.029  17.525  0.3958 -1.6948  1.4983
 8230SOL     OW36325   0.066   3.661  12.768 -0.0808 -0.2099 -0.4029
 8230SOL    HW136326   0.120   3.650  12.690  2.9438 -2.4212  1.9934
 8230SOL    HW236327   4.720   3.643  12.725 -0.6041 -1.3813  1.1158
 8231SOL     OW36328   4.614   1.161  16.962 -0.1426  0.9697 -0.2101
 8231SOL    HW136329   4.571   1.137  16.880 -0.8898  0.2956  0.3778
 8231SOL    HW236330   4.545   1.201  17.015 -0.7223  0.9901 -0.9734
 8232SOL     OW36331   2.413   4.221   1.220 -0.2690 -0.1088  0.4277
 8232SOL    HW136332   2.429   4.224   1.314 -1.0868 -0.5211  0.5828
 8232SOL    HW236333   2.317   4.223   1.217 -0.2308  0.0607 -0.8107
 8233SOL     OW36334   2.090   2.811   2.429  0.8445  0.3922 -0.2738
 8233SOL    HW136335   2.166   2.795   2.373 -0.5584 -1.0762 -1.7412
 8233SOL    HW236336   2.039   2.738   2.395 -1.5587  2.0447 -0.2020
 8234SOL     OW36337   1.405   0.381  11.988  0.4252  0.2241 -0.3775
 8234SOL    HW136338   1.495   0.369  11.960 -0.0968 -2.3314 -1.0008
 8234SOL    HW236339   1.401   0.352  12.080  0.4887 -2.5087 -1.2417
 8235SOL     OW36340   0.247   0.205  14.952  0.5038 -0.2531 -0.5052
 8235SOL    HW136341   0.253   0.296  14.922  1.2173 -0.1336 -0.0066
 8235SOL    HW236342   0.172   0.213  15.011  1.8493  0.7398  1.0918
 8236SOL     OW36343   3.762   1.346  13.041 -0.2089  0.5556  0.0902
 8236SOL    HW136344   3.786   1.421  13.096  1.7998 -1.1951  1.6250
 8236SOL    HW236345   3.844   1.307  13.012  0.0453  1.0178  0.2009
 8237SOL     OW36346   2.993   4.323  16.544  0.2074 -0.2366  0.2523
 8237SOL    HW136347   2.942   4.288  16.471  1.1450 -1.2272  0.0526
 8237SOL    HW236348   3.073   4.269  16.541 -0.3958 -1.1487  0.6039
 8238SOL     OW36349   4.711   0.283  15.038  0.7138  0.0126  0.0775
 8238SOL    HW136350   4.639   0.300  15.098  1.3139  2.5408  0.1161
 8238SOL    HW236351   4.668   0.223  14.977 -1.6967  0.6704  1.1636
 8239SOL     OW36352   4.154   1.419  12.594 -0.3973 -0.6787  0.0568
 8239SOL    HW136353   4.247   1.421  12.618 -0.8728  0.7530  1.7581
 8239SOL    HW236354   4.164   1.426  12.499 -0.4748  2.6034  0.2872
 8240SOL     OW36355   3.447   1.610  15.103 -0.9658 -0.0906  0.1132
 8240SOL    HW136356   3.535   1.647  15.112 -0.3073 -2.2820  2.9388
 8240SOL    HW236357   3.413   1.632  15.190  0.2111  2.9602 -0.1911
 8241SOL     OW36358   2.263   3.977   8.570  0.1902 -0.4062  0.0140
 8241SOL    HW136359   2.287   4.031   8.644  0.3621  0.1774 -0.4693
 8241SOL    HW236360   2.169   3.990   8.579  0.4159 -0.9565  3.0247
 8242SOL     OW36361   1.963   3.689  13.045  0.0748  0.4101 -0.3561
 8242SOL    HW136362   1.874   3.670  13.074  0.4921  0.2590  0.8415
 8242SOL    HW236363   2.008   3.609  13.074 -0.1884  0.1113 -0.7780
 8243SOL     OW36364   0.985   2.552   7.985 -0.7712  0.8090 -0.2996
 8243SOL    HW136365   0.953   2.467   8.015 -0.2123  0.9125  0.5742
 8243SOL    HW236366   1.078   2.539   7.999 -0.7947 -0.9312 -1.7445
 8244SOL     OW36367   3.309   1.412   6.908 -0.1669  0.3087  0.0676
 8244SOL    HW136368   3.222   1.444   6.884 -0.9768 -3.0639 -1.5731
 8244SOL    HW236369   3.348   1.492   6.942  0.4132 -0.8086  1.9943
 8245SOL     OW36370   4.382   3.840  15.119  0.5642 -0.8907  0.4940
 8245SOL    HW136371   4.336   3.832  15.202 -0.1408 -1.5564  0.0434
 8245SOL    HW236372   4.416   3.751  15.126  0.2453 -0.9574  1.1691
 8246SOL     OW36373   4.025   0.311   4.313 -0.4737  0.4330  0.7410
 8246SOL    HW136374   4.088   0.380   4.335  2.6533 -2.6280  1.4119
 8246SOL    HW236375   3.959   0.334   4.378  0.1937  1.8260  0.9283
 8247SOL     OW36376   2.288   1.932   8.422 -0.4021 -0.4377 -0.6953
 8247SOL    HW136377   2.371   1.885   8.429 -0.3732 -0.7593 -3.1981
 8247SOL    HW236378   2.304   1.999   8.489 -1.6580 -0.7686 -0.0621
 8248SOL     OW36379   4.471   1.008  15.907 -0.2424  1.0219  0.6461
 8248SOL    HW136380   4.394   1.039  15.858  0.0308  0.6981  0.0052
 8248SOL    HW236381   4.542   1.019  15.843 -0.5027  0.5590  0.2787
 8249SOL     OW36382   0.367   2.363  14.424 -0.2183 -0.4051 -0.0770
 8249SOL    HW136383   0.325   2.449  14.436  3.0553  0.9565  1.8606
 8249SOL    HW236384   0.358   2.355  14.329  1.9433 -0.7087 -0.2631
 8250SOL     OW36385   0.727   2.794   4.411 -0.0377 -0.1192 -0.0675
 8250SOL    HW136386   0.805   2.757   4.370  0.0117 -2.4873  2.1599
 8250SOL    HW236387   0.655   2.775   4.352 -0.7034 -1.1511  1.0781
 8251SOL     OW36388   1.484   1.389  13.326 -0.0276 -0.4613 -0.6937
 8251SOL    HW136389   1.434   1.311  13.348  0.5633 -0.3699  0.9899
 8251SOL    HW236390   1.546   1.388  13.399 -0.3866 -0.8893 -0.3966
 8252SOL     OW36391   4.015   4.377   4.772 -0.0970 -0.0716  0.0786
 8252SOL    HW136392   4.064   4.347   4.696  0.3151  2.7502 -0.7466
 8252SOL    HW236393   4.060   4.458   4.796 -1.2920  0.6717 -0.1962
 8253SOL     OW36394   3.928   0.697   0.873 -0.0852 -0.2748  0.2027
 8253SOL    HW136395   4.004   0.640   0.883  0.5938  0.4511 -0.8017
 8253SOL    HW236396   3.951   0.773   0.926  2.2178 -1.0607  0.2984
 8254SOL     OW36397   4.686   2.914   1.572 -0.3694  0.5626  0.0714
 8254SOL    HW136398   4.711   2.971   1.499 -0.1152 -1.0560 -1.0945
 8254SOL    HW236399   4.736   2.939   1.650 -0.0026  1.8522 -0.5788
 8255SOL     OW36400   1.782   0.923   2.705  0.0467  0.1646 -0.2013
 8255SOL    HW136401   1.774   1.017   2.692 -0.5994  0.0207 -0.8526
 8255SOL    HW236402   1.708   0.902   2.763 -0.2887 -1.3094 -1.1709
 8256SOL     OW36403   2.822   4.422   2.051 -0.0204  0.2295  0.4392
 8256SOL    HW136404   2.733   4.393   2.028  0.4735  0.4294 -1.6496
 8256SOL    HW236405   2.809   4.517   2.057  0.3213  0.2859  0.2654
 8257SOL     OW36406   4.049   3.007  11.480 -0.7211  0.3568 -0.3131
 8257SOL    HW136407   4.070   3.095  11.510  0.5056  0.0176 -0.1708
 8257SOL    HW236408   4.115   2.996  11.412 -1.3033 -1.1710 -0.6342
 8258SOL     OW36409   0.805   4.052  15.630 -0.4634 -0.1340 -0.6718
 8258SOL    HW136410   0.867   4.100  15.686  2.1728 -2.3006 -1.7712
 8258SOL    HW236411   0.826   4.078  15.541  1.3467  1.7496  0.3016
 8259SOL     OW36412   3.442   4.141  13.193  0.2418 -0.0901  0.1617
 8259SOL    HW136413   3.382   4.171  13.125  3.2142  3.7696 -0.7622
 8259SOL    HW236414   3.481   4.224  13.220 -1.8550  0.6783  0.8370
 8260SOL     OW36415   3.230   0.483   0.145 -0.5139 -0.3058  0.3991
 8260SOL    HW136416   3.157   0.536   0.177 -0.1015  1.7903 -2.1527
 8260SOL    HW236417   3.195   0.396   0.167  0.2615 -0.5663  0.6030
 8261SOL     OW36418   3.620   3.870   7.193 -0.3592  0.5261  0.1192
 8261SOL    HW136419   3.684   3.812   7.152 -0.2583  0.0705  0.9208
 8261SOL    HW236420   3.558   3.802   7.217 -1.7013  1.6656 -0.0966
 8262SOL     OW36421   2.080   0.324  13.247 -0.3118  0.2619  0.5903
 8262SOL    HW136422   2.114   0.379  13.176 -1.0142 -2.1401 -1.5805
 8262SOL    HW236423   2.144   0.322  13.319  2.3067 -1.2382 -1.7976
 8263SOL     OW36424   3.439   2.041   0.089 -0.2456 -0.6353 -0.1253
 8263SOL    HW136425   3.387   2.116   0.117  0.4634 -0.1848 -0.0139
 8263SOL    HW236426   3.411   2.042  17.748 -0.0592 -1.1226 -0.1871
 8264SOL     OW36427   2.283   4.065   4.285  0.3339  0.0727  0.4958
 8264SOL    HW136428   2.273   4.019   4.202 -1.5633  3.9367 -1.4273
 8264SOL    HW236429   2.357   4.014   4.318 -0.0744  0.3693  1.8981
 8265SOL     OW36430   1.434   3.059  16.845  0.4745  0.7823 -0.2776
 8265SOL    HW136431   1.376   3.106  16.784 -1.3458  0.6593  1.3409
 8265SOL    HW236432   1.511   3.116  16.842  0.6545  0.6052  1.0973
 8266SOL     OW36433   3.796   3.459   4.106  0.1553  0.5968 -0.3874
 8266SOL    HW136434   3.869   3.412   4.066 -1.3108 -0.1171 -2.2165
 8266SOL    HW236435   3.750   3.385   4.148  2.3149  0.1366  1.1573
 8267SOL     OW36436   4.545   4.542  14.982  0.2505 -0.0390 -0.2749
 8267SOL    HW136437   4.615   4.482  14.953 -0.4688 -0.4766 -1.1367
 8267SOL    HW236438   4.490   4.515  14.908  1.5777 -2.4818 -0.3693
 8268SOL     OW36439   1.157   0.165  16.891  0.6596 -0.6347 -0.4447
 8268SOL    HW136440   1.206   0.126  16.819 -0.0233  0.2949 -1.4070
 8268SOL    HW236441   1.109   0.236  16.849  1.1966  0.9769  1.6808
 8269SOL     OW36442   3.027   4.473   4.061  0.1055  0.2753 -0.3656
 8269SOL    HW136443   2.939   4.450   4.030  1.1990 -0.9679 -2.5836
 8269SOL    HW236444   3.027   4.445   4.152  2.1855  0.8466 -0.2043
 8270SOL     OW36445   3.015   2.887   8.373 -0.2049 -0.6058  0.1645
 8270SOL    HW136446   2.938   2.849   8.414  0.7997 -0.6432  2.0360
 8270SOL    HW236447   3.031   2.822   8.305  1.8375 -1.0066  1.0056
 8271SOL     OW36448   4.042   3.840   6.481 -0.6950 -0.3541  0.1707
 8271SOL    HW136449   4.115   3.889   6.443  0.3689 -0.2628  2.3834
 8271SOL    HW236450   3.979   3.911   6.488  1.2726  1.2197  1.8209
 8272SOL     OW36451   2.840   2.969   7.933 -0.1911  0.2057  0.2935
 8272SOL    HW136452   2.841   3.051   7.884 -0.1194 -0.2522 -0.4679
 8272SOL    HW236453   2.918   2.989   7.985  0.2783 -0.1631 -0.2645
 8273SOL     OW36454   4.556   4.573   6.283  0.4425 -0.4592 -0.0560
 8273SOL    HW136455   4.554   4.540   6.373 -0.5799 -1.7570 -0.5594
 8273SOL    HW236456   4.580   4.666   6.290 -0.0830 -0.2901 -0.4728
 8274SOL     OW36457   4.030   1.406   8.338 -0.3732  0.1999 -0.3528
 8274SOL    HW136458   4.083   1.416   8.418  0.4289 -2.2687 -0.5887
 8274SOL    HW236459   4.041   1.496   8.308  0.1320 -0.1377 -1.1667
 8275SOL     OW36460   0.205   2.290   8.124 -0.2538 -0.5671 -0.3135
 8275SOL    HW136461   0.167   2.299   8.212  3.3855  1.8055  1.0302
 8275SOL    HW236462   0.237   2.200   8.127 -2.1246 -1.1818  1.6254
 8276SOL     OW36463   3.612   4.615   1.908  0.2196 -0.1127  0.1865
 8276SOL    HW136464   3.524   4.652   1.919  0.6183  0.4819  1.4666
 8276SOL    HW236465   3.596   4.535   1.957 -2.1651  0.3944  0.2429
 8277SOL     OW36466   0.926   0.311  10.643 -0.1393  0.2108 -0.1450
 8277SOL    HW136467   0.895   0.379  10.583  0.0587  0.4067 -0.0242
 8277SOL    HW236468   0.880   0.229  10.628  1.1847 -0.7680  1.2069
 8278SOL     OW36469   0.269   1.905   5.766 -0.0864  0.0746  0.0427
 8278SOL    HW136470   0.202   1.903   5.698 -0.5451  0.6953  0.4731
 8278SOL    HW236471   0.294   1.996   5.781 -0.6617  0.0317  1.2345
 8279SOL     OW36472   0.537   3.599   5.930 -0.0262 -0.0413 -0.3851
 8279SOL    HW136473   0.631   3.609   5.948 -0.3992  1.3347  0.7475
 8279SOL    HW236474   0.511   3.686   5.901 -2.2538 -0.8120 -0.7090
 8280SOL     OW36475   1.396   1.028   2.616  0.7153 -0.1184  0.2840
 8280SOL    HW136476   1.444   0.957   2.573 -1.2672 -0.8548 -0.7505
 8280SOL    HW236477   1.308   0.997   2.597 -0.0513  0.3563  3.1382
 8281SOL     OW36478   0.794   3.457   3.770 -0.5184  0.2990 -0.2513
 8281SOL    HW136479   0.733   3.406   3.824  0.0881  0.0124  0.1571
 8281SOL    HW236480   0.804   3.394   3.699  0.7811 -0.6649  0.7894
 8282SOL     OW36481   0.894   3.660   3.301  0.5135  0.2824 -0.0116
 8282SOL    HW136482   0.804   3.631   3.317  0.1904  1.6750  0.7222
 8282SOL    HW236483   0.886   3.733   3.363 -1.6946  0.6501 -0.7305
 8283SOL     OW36484   1.367   2.700   5.178  0.3644 -0.0037 -0.0473
 8283SOL    HW136485   1.343   2.625   5.232  0.7442 -0.7904 -0.9647
 8283SOL    HW236486   1.314   2.763   5.228 -0.7715 -0.1858 -1.0128
 8284SOL     OW36487   2.399   2.026   7.905  0.2216 -0.0139 -0.2849
 8284SOL    HW136488   2.400   2.079   7.825 -1.4204  0.4710  0.0229
 8284SOL    HW236489   2.417   2.093   7.971 -0.4660 -0.2907  0.1800
 8285SOL     OW36490   0.555   2.611   7.778 -0.0638  0.4362  0.6284
 8285SOL    HW136491   0.488   2.560   7.733 -0.4046 -0.0192  1.6487
 8285SOL    HW236492   0.529   2.602   7.870 -0.1310 -0.2894  0.5384
 8286SOL     OW36493   1.968   3.613   3.523  0.2150 -0.3851  0.1563
 8286SOL    HW136494   1.987   3.646   3.436 -2.7472 -1.0615 -0.7244
 8286SOL    HW236495   1.975   3.518   3.510  0.4506 -0.2419 -0.7547
 8287SOL     OW36496   2.812   1.026   7.184 -0.1012  0.2775 -0.2645
 8287SOL    HW136497   2.893   1.059   7.145 -1.4753  1.7989 -1.8701
 8287SOL    HW236498   2.752   1.077   7.129  2.1858 -0.7365 -3.7164
 8288SOL     OW36499   1.135   1.735   8.843  0.1978  0.3747  0.0577
 8288SOL    HW136500   1.069   1.796   8.876 -1.7115 -1.1039 -1.0057
 8288SOL    HW236501   1.076   1.660   8.837  1.7443 -0.9964  2.4562
 8289SOL     OW36502   4.077   3.306   2.780  0.3543 -0.1653 -0.1057
 8289SOL    HW136503   4.026   3.386   2.773 -0.6401 -0.7183  0.8001
 8289SOL    HW236504   4.065   3.273   2.691  1.3547 -0.7287 -0.0443
 8290SOL     OW36505   3.815   1.799   5.671  0.5863 -0.1557 -0.0267
 8290SOL    HW136506   3.803   1.709   5.699 -2.0131  0.1837 -0.1120
 8290SOL    HW236507   3.761   1.787   5.593  1.4727 -0.4033 -0.6136
 8291SOL     OW36508   4.706   0.662   0.395  0.2503 -0.0838  0.5396
 8291SOL    HW136509   0.044   0.706   0.358 -0.0131 -0.2860 -0.2582
 8291SOL    HW236510   4.642   0.703   0.337  0.9160  0.4442  0.1880
 8292SOL     OW36511   2.435   2.283   3.486 -0.6820 -0.0175  0.4846
 8292SOL    HW136512   2.427   2.250   3.396 -0.5848  0.6539  0.2278
 8292SOL    HW236513   2.342   2.295   3.503 -1.2226 -0.3820 -2.1740
 8293SOL     OW36514   3.385   2.806  10.950  0.4924 -0.5489  0.0746
 8293SOL    HW136515   3.468   2.758  10.950  1.1148  0.5014  2.0143
 8293SOL    HW236516   3.358   2.789  10.860  0.5285  1.0054 -0.2324
 8294SOL     OW36517   4.600   0.965  15.594 -0.4165 -0.1347  0.3394
 8294SOL    HW136518   4.571   0.880  15.626 -1.1399  0.5929  1.6447
 8294SOL    HW236519   4.644   1.002  15.671 -1.3640  0.4023  0.6280
 8295SOL     OW36520   0.828   1.615   5.795 -0.3426  0.2926 -0.3495
 8295SOL    HW136521   0.777   1.696   5.785  1.7786  1.5287 -1.2506
 8295SOL    HW236522   0.884   1.640   5.868 -1.3881  2.3239 -0.2201
 8296SOL     OW36523   1.583   3.119  14.899 -0.1277  0.0088  0.9027
 8296SOL    HW136524   1.514   3.123  14.833 -0.0838 -1.1267  0.7825
 8296SOL    HW236525   1.663   3.105  14.848  0.6905 -0.4957  2.3435
 8297SOL     OW36526   1.315   1.174   0.156  0.6183  0.2346  0.3638
 8297SOL    HW136527   1.222   1.193   0.167  0.7119 -0.3216  1.9860
 8297SOL    HW236528   1.315   1.079   0.143 -3.2306  0.4670 -1.2884
 8298SOL     OW36529   2.552   2.376   5.012 -0.0717  0.1308 -0.1456
 8298SOL    HW136530   2.545   2.449   5.074  0.9077  0.1488 -0.0447
 8298SOL    HW236531   2.462   2.354   4.987 -0.5496  0.5589  1.1917
 8299SOL     OW36532   3.758   0.762   0.675 -0.0179  0.4267 -0.1422
 8299SOL    HW136533   3.825   0.745   0.740 -1.5966 -1.4344  0.9954
 8299SOL    HW236534   3.683   0.793   0.725  0.0578 -0.4711  0.5290
 8300SOL     OW36535   2.905   3.412   3.420  0.4965 -0.7260  0.2557
 8300SOL    HW136536   2.888   3.457   3.503 -0.6496  1.7640 -1.3381
 8300SOL    HW236537   2.874   3.479   3.359  1.1341  0.1581  0.9004
 8301SOL     OW36538   2.920   0.072  13.510  0.3197 -0.0827 -0.1859
 8301SOL    HW136539   2.960   0.159  13.515 -1.4461  0.5488  2.7393
 8301SOL    HW236540   2.974   0.033  13.578  1.6810  0.3125 -1.0389
 8302SOL     OW36541   4.478   4.094  14.722 -0.2755 -0.7084 -0.5883
 8302SOL    HW136542   4.435   4.123  14.641 -0.0781  1.3929  0.0678
 8302SOL    HW236543   4.548   4.158  14.733 -0.6899  0.1274 -2.9260
 8303SOL     OW36544   0.315   1.692   1.492 -0.5408  0.7019  0.0635
 8303SOL    HW136545   0.377   1.677   1.563  0.4271  2.3195 -0.4275
 8303SOL    HW236546   0.359   1.639   1.425 -1.4388 -0.5579  0.4910
 8304SOL     OW36547   1.069   1.265   2.128 -0.4841 -0.1031  0.0630
 8304SOL    HW136548   0.990   1.319   2.116 -1.4058 -1.2987  0.7428
 8304SOL    HW236549   1.113   1.323   2.190 -1.9654  2.6094 -1.4623
 8305SOL     OW36550   2.447   0.716   8.317  0.1028 -0.0971  0.0314
 8305SOL    HW136551   2.419   0.678   8.400 -0.1580 -0.7141 -0.3336
 8305SOL    HW236552   2.389   0.791   8.312 -2.0602 -1.7577  0.0444
 8306SOL     OW36553   0.859   1.932   8.144 -0.1917 -0.3365 -0.7007
 8306SOL    HW136554   0.902   2.015   8.125  0.0365 -0.5489 -1.0928
 8306SOL    HW236555   0.858   1.946   8.239  1.4136 -0.6134 -0.6454
 8307SOL     OW36556   0.230   2.204   5.761 -0.0621  0.3032 -0.4314
 8307SOL    HW136557   0.175   2.202   5.682 -0.2109 -0.1204 -0.3158
 8307SOL    HW236558   0.218   2.299   5.758 -1.8185  0.0731 -0.1850
 8308SOL     OW36559   1.229   2.205   8.724 -0.2936  0.6363  0.1172
 8308SOL    HW136560   1.210   2.225   8.816  2.8548  2.3009  0.4049
 8308SOL    HW236561   1.155   2.148   8.704 -0.7246  0.5907  1.8277
 8309SOL     OW36562   0.807   3.986   1.315 -0.0472  0.6352  0.9902
 8309SOL    HW136563   0.865   3.978   1.239 -2.0607  2.9654 -0.7710
 8309SOL    HW236564   0.768   3.899   1.302 -0.3114  0.9311 -0.1577
 8310SOL     OW36565   2.535   3.720   7.568 -0.5296 -0.2447  0.1249
 8310SOL    HW136566   2.477   3.724   7.645 -0.2788  3.2775  0.0907
 8310SOL    HW236567   2.604   3.777   7.601 -0.5693 -0.0756 -0.0864
 8311SOL     OW36568   4.211   3.905   3.911  0.0670  0.4837 -0.0427
 8311SOL    HW136569   4.284   3.965   3.897  0.2361  0.3687  0.3251
 8311SOL    HW236570   4.216   3.887   4.005 -1.5334 -3.4906 -0.7054
 8312SOL     OW36571   2.919   2.557   8.675 -0.4170  0.0145  0.4200
 8312SOL    HW136572   2.958   2.507   8.604 -0.4165  0.6193 -0.0070
 8312SOL    HW236573   2.863   2.503   8.730  2.0665 -1.4887  1.4615
 8313SOL     OW36574   1.675   3.407   2.178 -0.2856 -0.0003  0.2135
 8313SOL    HW136575   1.769   3.393   2.192 -0.1430  0.0648 -0.6712
 8313SOL    HW236576   1.673   3.474   2.110 -1.3805  0.0889  0.3291
 8314SOL     OW36577   4.046   1.682   5.315 -0.1855 -0.9292 -0.3687
 8314SOL    HW136578   4.003   1.759   5.353  0.5746 -1.1449  0.9058
 8314SOL    HW236579   4.075   1.626   5.386 -0.0950 -0.1173  0.2336
 8315SOL     OW36580   2.960   3.757   3.105 -0.0676 -0.2729 -0.1969
 8315SOL    HW136581   2.937   3.830   3.046  1.3266 -0.9613 -1.5967
 8315SOL    HW236582   3.046   3.784   3.137 -0.6950 -0.6954  1.8167
 8316SOL     OW36583   2.899   1.754   8.697 -0.0077  0.0464  0.1604
 8316SOL    HW136584   2.817   1.739   8.744  0.6976  0.6546  1.5800
 8316SOL    HW236585   2.948   1.672   8.709 -2.8217 -1.5656  0.5142
 8317SOL     OW36586   3.761   2.598  15.785 -0.3449 -0.0587 -0.1277
 8317SOL    HW136587   3.752   2.521  15.841  1.4387 -0.2739 -0.1117
 8317SOL    HW236588   3.670   2.625  15.777 -0.9954 -2.8833 -2.0465
 8318SOL     OW36589   4.682   4.344   6.013 -0.2958  0.2846  0.2151
 8318SOL    HW136590   4.731   4.348   6.094  1.4694  1.8027 -0.9323
 8318SOL    HW236591   0.006   4.375   5.947 -1.2217 -1.0235 -1.2749
 8319SOL     OW36592   2.083   3.913   3.788 -0.2774 -0.1058  0.0297
 8319SOL    HW136593   2.003   3.899   3.738 -0.2102  0.0928 -0.1337
 8319SOL    HW236594   2.109   3.825   3.816 -3.2451 -0.1622  2.5317
 8320SOL     OW36595   3.572   2.262   2.847 -0.0487  0.0351 -0.2381
 8320SOL    HW136596   3.497   2.302   2.890  2.1566  0.6253  3.0596
 8320SOL    HW236597   3.526   2.211   2.780  2.8831  0.3253 -2.4915
 8321SOL     OW36598   3.395   0.786   8.380 -0.1651 -0.2776  0.8126
 8321SOL    HW136599   3.443   0.710   8.413 -1.8115 -2.7855 -2.4935
 8321SOL    HW236600   3.324   0.743   8.331  0.0015  0.2820  0.0877
 8322SOL     OW36601   1.560   2.895   6.567  0.2508 -0.3739  0.0919
 8322SOL    HW136602   1.570   2.979   6.523  1.6549 -0.5589  0.0506
 8322SOL    HW236603   1.614   2.920   6.642  1.4066  0.0224 -0.8699
 8323SOL     OW36604   4.113   1.803  11.391  0.2673 -0.0979 -0.3942
 8323SOL    HW136605   4.092   1.818  11.299 -0.2425  0.0374 -0.2565
 8323SOL    HW236606   4.038   1.847  11.431 -2.1707 -0.8686 -4.1177
 8324SOL     OW36607   2.128   4.581  13.620 -0.1591  0.1138  0.3782
 8324SOL    HW136608   2.178   4.510  13.580  1.8227  1.8464 -0.1686
 8324SOL    HW236609   2.075   4.529  13.682  0.3877 -1.5832 -0.5801
 8325SOL     OW36610   3.347   2.965  16.468  0.5091 -0.5810 -0.0377
 8325SOL    HW136611   3.361   3.038  16.529 -2.3223 -0.5258  0.5239
 8325SOL    HW236612   3.252   2.977  16.466  0.6045  0.2780  0.3746
 8326SOL     OW36613   3.770   4.737   6.838 -0.0834 -0.4810  0.1441
 8326SOL    HW136614   3.823   0.060   6.888 -0.9544 -0.7285  1.3574
 8326SOL    HW236615   3.684   0.002   6.879 -0.5314 -0.6362 -0.7778
 8327SOL     OW36616   1.298   3.609  15.594 -0.2892 -0.1265 -0.2328
 8327SOL    HW136617   1.263   3.544  15.655 -1.0421  0.0575 -0.4668
 8327SOL    HW236618   1.223   3.669  15.582 -1.0257 -0.6630  1.7109
 8328SOL     OW36619   0.663   0.277   3.047  0.2498 -0.1360  0.2820
 8328SOL    HW136620   0.695   0.336   2.979  1.5085 -1.9907 -0.7365
 8328SOL    HW236621   0.630   0.349   3.100 -1.4898 -1.1353  0.5465
 8329SOL     OW36622   1.792   4.561   3.713 -0.5332  0.1853 -0.4817
 8329SOL    HW136623   1.717   4.620   3.718 -0.1266  0.6954 -0.5131
 8329SOL    HW236624   1.821   4.567   3.621  1.4972 -0.6964  0.0962
 8330SOL     OW36625   1.024   0.890  11.375 -0.0666 -0.1051 -0.2806
 8330SOL    HW136626   1.027   0.895  11.279 -1.6010 -0.5395 -0.3643
 8330SOL    HW236627   1.058   0.801  11.388  1.6981  0.4188 -1.3771
 8331SOL     OW36628   4.588   1.523  11.536 -0.3866  0.0192  0.2929
 8331SOL    HW136629   4.645   1.594  11.507  0.5255 -0.8482 -0.0402
 8331SOL    HW236630   4.652   1.472  11.586  1.2682  0.9218 -0.9132
 8332SOL     OW36631   1.571   0.110   5.887 -0.4904  0.1757  0.3713
 8332SOL    HW136632   1.555   0.104   5.793  0.0894  0.5108  0.2476
 8332SOL    HW236633   1.661   0.143   5.884 -0.4817  0.1726  0.5890
 8333SOL     OW36634   2.935   1.530  12.220 -0.7080 -0.2577  0.1323
 8333SOL    HW136635   2.965   1.445  12.252 -1.9393 -0.1713  1.5277
 8333SOL    HW236636   2.868   1.506  12.156 -0.1066 -0.9234 -0.2454
 8334SOL     OW36637   1.666   2.370   7.514  0.4392 -0.2025 -0.5756
 8334SOL    HW136638   1.659   2.466   7.507  1.0897  0.0720  2.5751
 8334SOL    HW236639   1.695   2.368   7.605 -0.8448 -1.2323 -0.1921
 8335SOL     OW36640   0.374   1.225   5.974 -0.0813  0.3157 -0.0491
 8335SOL    HW136641   0.375   1.242   6.068  0.1240  1.8444 -0.3408
 8335SOL    HW236642   0.339   1.136   5.966  2.2886 -0.3890 -2.5467
 8336SOL     OW36643   1.213   1.635   0.172 -0.0808 -0.1442 -0.1478
 8336SOL    HW136644   1.145   1.585   0.217  0.0557  0.3144  0.5697
 8336SOL    HW236645   1.290   1.579   0.184 -1.3149 -1.9306 -0.4392
 8337SOL     OW36646   3.896   2.282   6.528  0.1660 -0.4573  0.0732
 8337SOL    HW136647   3.867   2.197   6.495  3.8964 -1.8103  0.2867
 8337SOL    HW236648   3.823   2.336   6.498 -0.1760 -1.1093 -0.2805
 8338SOL     OW36649   2.106   2.460   7.973  0.8444  0.4089  0.1457
 8338SOL    HW136650   2.124   2.403   8.048 -0.4551 -0.4723 -0.2249
 8338SOL    HW236651   2.088   2.396   7.904 -0.7102  2.5933 -1.4760
 8339SOL     OW36652   4.363   4.441   2.316 -0.0937  0.0164  0.2895
 8339SOL    HW136653   4.319   4.427   2.232 -2.4971  1.5970  1.3014
 8339SOL    HW236654   4.303   4.395   2.374  1.7695 -1.8908  0.6967
 8340SOL     OW36655   0.088   1.001   0.051 -0.0463  0.1724  0.4666
 8340SOL    HW136656   0.134   0.999  17.718  2.3414  1.6744  1.7219
 8340SOL    HW236657   0.074   1.096   0.052  0.3001  0.2189  1.5458
 8341SOL     OW36658   1.426   3.364   6.136  0.0600  0.4919  0.0324
 8341SOL    HW136659   1.467   3.337   6.054  0.0545 -0.0133  0.1964
 8341SOL    HW236660   1.355   3.303   6.155  1.0339 -0.7460 -0.2471
 8342SOL     OW36661   1.717   2.250   6.017  0.1487 -0.0971 -1.0579
 8342SOL    HW136662   1.774   2.205   6.080  0.5564  0.9036 -0.7275
 8342SOL    HW236663   1.770   2.237   5.938  1.1750  1.0042 -0.5488
 8343SOL     OW36664   3.322   4.568  17.009 -0.0175  0.0691 -0.0495
 8343SOL    HW136665   3.265   4.556  17.085 -1.1634  2.4658 -0.5516
 8343SOL    HW236666   3.372   4.487  17.022  0.9344  0.5638 -0.6299
 8344SOL     OW36667   1.843   3.851  15.694 -0.1322 -0.2498  0.1287
 8344SOL    HW136668   1.757   3.851  15.653 -0.3122  3.5769  0.4621
 8344SOL    HW236669   1.830   3.925  15.754  0.7026 -1.0149  1.2547
 8345SOL     OW36670   4.709   0.045   3.179  0.0627  0.4641 -0.0410
 8345SOL    HW136671   0.031   4.712   3.198  2.4927  2.6567  0.5996
 8345SOL    HW236672   4.726   0.042   3.085 -0.9333  2.4306 -0.2843
 8346SOL     OW36673   4.042   3.951   1.645 -0.2750 -0.1361  0.2680
 8346SOL    HW136674   4.078   3.966   1.558 -1.7908  3.2760  0.2567
 8346SOL    HW236675   4.057   4.035   1.688 -1.9889 -1.0532  2.6988
 8347SOL     OW36676   3.230   1.685   6.159 -0.0775  0.1407  0.0972
 8347SOL    HW136677   3.268   1.642   6.083 -1.0861  0.5061 -0.6105
 8347SOL    HW236678   3.289   1.661   6.231 -0.7113 -0.9744  0.2322
 8348SOL     OW36679   3.223   1.549   5.899  0.0883  0.1565  0.2188
 8348SOL    HW136680   3.257   1.555   5.810  0.6489  0.2626  0.4388
 8348SOL    HW236681   3.160   1.477   5.894  0.1755  0.2631 -2.4870
 8349SOL     OW36682   1.948   2.935  17.384  0.0856 -0.2270 -0.3038
 8349SOL    HW136683   2.018   2.930  17.319  0.0409  1.3245 -0.4615
 8349SOL    HW236684   1.955   3.027  17.410  3.2405 -0.5292 -0.1194
 8350SOL     OW36685   0.476   0.653   1.513 -0.1204  0.3392  0.3113
 8350SOL    HW136686   0.561   0.695   1.514  0.5945 -1.1343  1.8530
 8350SOL    HW236687   0.430   0.709   1.451  2.0326  1.2961 -0.4082
 8351SOL     OW36688   0.014   1.383   8.312 -0.6730 -0.4495 -0.4048
 8351SOL    HW136689   4.733   1.455   8.371 -0.3757 -0.3888 -0.3852
 8351SOL    HW236690   0.039   1.319   8.379 -2.0956  0.3523  0.8784
 8352SOL     OW36691   3.757   3.930   4.385  0.3452  0.3582 -0.2463
 8352SOL    HW136692   3.754   3.898   4.475 -0.6735  2.2023  0.3736
 8352SOL    HW236693   3.805   3.861   4.338  0.4766 -0.4572  1.0776
 8353SOL     OW36694   2.508   1.086   5.394 -0.3660  0.0137 -0.2104
 8353SOL    HW136695   2.529   0.993   5.405 -1.3860 -0.3384 -1.1952
 8353SOL    HW236696   2.569   1.120   5.460 -0.7257  0.3425 -0.0461
 8354SOL     OW36697   0.534   2.829  17.593  0.4084  0.3664  0.0634
 8354SOL    HW136698   0.612   2.844  17.541  1.9425 -0.7329  2.0366
 8354SOL    HW236699   0.462   2.819  17.530 -0.3645  0.0717  0.9894
 8355SOL     OW36700   4.041   1.175  16.211 -0.1656  0.2755 -0.2156
 8355SOL    HW136701   4.120   1.141  16.170  0.3104  1.3083 -0.1447
 8355SOL    HW236702   3.994   1.200  16.132 -4.0860 -2.2753  1.2643
 8356SOL     OW36703   3.053   4.589   8.025  0.5363  0.6874 -0.0083
 8356SOL    HW136704   3.079   4.609   7.935  0.2047 -1.3627 -0.5656
 8356SOL    HW236705   3.085   4.668   8.068  1.2303  1.1028 -1.2987
 8357SOL     OW36706   1.593   2.692  12.643  0.0256  0.0684 -0.2960
 8357SOL    HW136707   1.628   2.690  12.731 -1.4569  1.2193  0.3237
 8357SOL    HW236708   1.668   2.729  12.597  1.2483  0.0805  1.7197
 8358SOL     OW36709   3.843   0.690   5.467  0.5943 -0.1566 -0.1565
 8358SOL    HW136710   3.869   0.613   5.518  2.6628  0.7088  0.1190
 8358SOL    HW236711   3.827   0.640   5.387  1.9620 -0.1494 -0.4447
 8359SOL     OW36712   1.352   3.406   3.282 -0.4972  0.1490 -0.5188
 8359SOL    HW136713   1.312   3.325   3.313 -1.0051  1.8331  3.1348
 8359SOL    HW236714   1.272   3.459   3.287 -1.2308 -0.9414 -0.8113
 8360SOL     OW36715   1.300   2.483   5.838 -1.1124  0.2378  0.2933
 8360SOL    HW136716   1.280   2.464   5.929  1.9597 -0.7932  0.7797
 8360SOL    HW236717   1.393   2.458   5.843 -1.7548 -1.9669  1.0033
 8361SOL     OW36718   0.679   3.878   8.868  0.2388  0.5987 -0.1149
 8361SOL    HW136719   0.729   3.935   8.811  1.1560 -1.1325 -1.0486
 8361SOL    HW236720   0.608   3.853   8.808 -0.6730  0.0863  1.1853
 8362SOL     OW36721   3.342   3.202   4.312 -0.5601 -0.2518 -0.2045
 8362SOL    HW136722   3.376   3.266   4.250  1.4293 -2.2302 -1.1336
 8362SOL    HW236723   3.389   3.121   4.294 -0.5672 -1.1899  3.8517
 8363SOL     OW36724   3.312   2.181   7.821  0.3047  0.0980 -0.5666
 8363SOL    HW136725   3.362   2.127   7.882 -1.2574 -0.0461  0.5729
 8363SOL    HW236726   3.372   2.253   7.799  0.8163 -0.0310  0.4155
 8364SOL     OW36727   0.935   3.701   6.731 -0.1414 -0.1601 -0.5134
 8364SOL    HW136728   1.028   3.710   6.710 -0.0350  0.4016  0.2308
 8364SOL    HW236729   0.914   3.771   6.792 -2.0751 -0.2986 -1.0338
 8365SOL     OW36730   4.084   2.608   4.010 -0.2564 -0.7432 -0.4057
 8365SOL    HW136731   4.031   2.531   3.989  0.4862 -1.0593 -1.1002
 8365SOL    HW236732   4.174   2.577   4.019 -0.9065 -2.3429  0.6914
 8366SOL     OW36733   3.410   3.830   2.064  0.1772 -0.1854  0.0969
 8366SOL    HW136734   3.323   3.795   2.044  0.4536  0.0886 -1.5677
 8366SOL    HW236735   3.445   3.758   2.115  0.2326 -0.1659  0.0862
 8367SOL     OW36736   2.799   3.491   5.186 -0.3201 -0.3172 -0.2629
 8367SOL    HW136737   2.890   3.461   5.196 -0.0768  1.5497  3.0421
 8367SOL    HW236738   2.762   3.459   5.268  1.9959  0.2592  1.0056
 8368SOL     OW36739   2.876   3.225   4.182  0.3436 -0.0071  0.4230
 8368SOL    HW136740   2.818   3.160   4.222 -2.0731  1.7336 -0.2267
 8368SOL    HW236741   2.947   3.173   4.144 -0.3939 -0.2324 -0.6459
 8369SOL     OW36742   0.427   3.727   1.358  0.6066  0.7449 -0.5139
 8369SOL    HW136743   0.411   3.645   1.405 -2.5713  1.8957  0.3595
 8369SOL    HW236744   0.523   3.728   1.360  0.6597 -0.7238 -2.3845
 8370SOL     OW36745   2.810   3.365   1.400  0.3636 -0.2406 -0.0835
 8370SOL    HW136746   2.774   3.453   1.407 -0.6894 -0.5950 -1.0397
 8370SOL    HW236747   2.902   3.381   1.379  0.5932 -0.8652  0.4680
 8371SOL     OW36748   3.661   0.007  12.370  0.3264  0.5860  0.0627
 8371SOL    HW136749   3.580   4.700  12.345  0.6644  1.0597 -1.8881
 8371SOL    HW236750   3.704   4.669  12.408 -0.7072 -1.0412 -2.0478
 8372SOL     OW36751   4.579   2.435   7.954  0.0030  0.3070 -0.3279
 8372SOL    HW136752   4.613   2.525   7.944  1.5989 -0.3423 -0.7980
 8372SOL    HW236753   4.522   2.440   7.878  1.6836  0.2941 -1.5908
 8373SOL     OW36754   4.067   1.515   7.893  0.0947 -0.0442 -0.4061
 8373SOL    HW136755   4.122   1.584   7.856 -0.9964  1.1227  0.1509
 8373SOL    HW236756   4.000   1.570   7.933 -1.9609 -0.6161 -3.0352
 8374SOL     OW36757   3.123   0.039  14.864 -0.0295 -0.2013 -0.6751
 8374SOL    HW136758   3.061   4.727  14.918  2.1168 -0.2927  1.7085
 8374SOL    HW236759   3.103   0.124  14.904  1.2649  0.6538 -1.8690
 8375SOL     OW36760   3.254   0.129   4.987  0.2092 -0.0404  0.4624
 8375SOL    HW136761   3.325   0.068   4.967 -0.5418 -1.3706  1.9545
 8375SOL    HW236762   3.196   0.124   4.911 -1.0462  0.4320  1.3882
 8376SOL     OW36763   2.892   2.316   3.967  0.0943 -0.4785  0.3531
 8376SOL    HW136764   2.825   2.332   3.900  1.8090  0.4457 -1.1490
 8376SOL    HW236765   2.890   2.225   3.996 -0.8004 -0.1809  1.1997
 8377SOL     OW36766   1.873   3.817   3.681 -0.3179  0.2977  0.4367
 8377SOL    HW136767   1.882   3.737   3.630  1.7970 -0.8863  2.6847
 8377SOL    HW236768   1.832   3.788   3.762  1.4804  1.8792  1.9135
 8378SOL     OW36769   1.001   0.594   5.912  0.4728 -0.0097  0.2221
 8378SOL    HW136770   0.978   0.511   5.953  0.3458 -0.0071  0.1552
 8378SOL    HW236771   1.059   0.562   5.843  1.1083  1.0436  0.2678
 8379SOL     OW36772   3.541   2.666   5.925  0.6523  0.0101 -0.8809
 8379SOL    HW136773   3.461   2.613   5.925  0.1881  0.7096  1.3394
 8379SOL    HW236774   3.555   2.661   5.830 -0.6059  1.3993 -1.1434
 8380SOL     OW36775   1.463   1.469   3.586  0.3575  0.2941  0.3553
 8380SOL    HW136776   1.405   1.538   3.618  2.4316  1.1666  2.2596
 8380SOL    HW236777   1.425   1.444   3.502  0.9651 -0.0920  0.1942
 8381SOL     OW36778   2.177   0.871   8.018 -0.1240  0.3014  0.3060
 8381SOL    HW136779   2.090   0.831   8.011 -0.3043  1.3090 -3.1576
 8381SOL    HW236780   2.231   0.830   7.951 -1.4702  0.1926 -0.6999
 8382SOL     OW36781   0.689   0.709   8.066  0.0943  0.2163  0.6741
 8382SOL    HW136782   0.714   0.618   8.079 -2.3208 -0.5458  0.0734
 8382SOL    HW236783   0.696   0.705   7.971 -1.8292 -2.5079  0.6435
 8383SOL     OW36784   3.484   2.649  15.750 -0.4930  0.5154  0.2001
 8383SOL    HW136785   3.447   2.568  15.716 -0.8525  0.8489 -0.1989
 8383SOL    HW236786   3.442   2.723  15.706 -0.9075  0.1397 -0.0345
 8384SOL     OW36787   2.657   2.924   5.895 -0.2356  0.1982  0.2471
 8384SOL    HW136788   2.668   2.942   5.802 -1.0465  3.6301  0.7909
 8384SOL    HW236789   2.654   2.829   5.895 -0.2881  0.1941  1.0930
 8385SOL     OW36790   1.261   3.535  12.689  0.0588 -0.2114  0.2540
 8385SOL    HW136791   1.351   3.503  12.687 -0.5372 -1.8467 -0.1947
 8385SOL    HW236792   1.219   3.449  12.689  0.3283 -0.3413  0.9985
 8386SOL     OW36793   1.909   0.621   3.780 -0.1504 -0.3087  0.1071
 8386SOL    HW136794   1.978   0.646   3.841 -0.3521  1.5440 -0.4452
 8386SOL    HW236795   1.950   0.626   3.693  0.9934  2.6913  0.8458
 8387SOL     OW36796   0.319   3.182   2.931  0.0900  0.1691  0.4005
 8387SOL    HW136797   0.370   3.166   2.851  1.0002  1.8349  0.6502
 8387SOL    HW236798   0.237   3.211   2.891 -0.1922  0.5460  1.2694
 8388SOL     OW36799   2.171   3.851   9.633 -0.6505 -0.1626  0.0939
 8388SOL    HW136800   2.079   3.827   9.625 -0.8148 -0.2029  2.2334
 8388SOL    HW236801   2.185   3.831   9.725  1.9316 -1.2798 -0.5309
 8389SOL     OW36802   1.094   0.058   7.569  0.1778  0.2863 -0.1288
 8389SOL    HW136803   1.041   0.122   7.617  1.4961  0.3511  1.2385
 8389SOL    HW236804   1.142   0.018   7.641  2.1780  1.8831 -0.5693
 8390SOL     OW36805   0.323   4.161   6.368 -0.3322 -0.5258  0.0955
 8390SOL    HW136806   0.360   4.101   6.433 -1.0078 -2.1375 -0.9933
 8390SOL    HW236807   0.312   4.242   6.417 -2.3478 -0.6297 -0.1633
 8391SOL     OW36808   2.848   1.560  17.070  0.4766 -0.5955 -0.0626
 8391SOL    HW136809   2.869   1.467  17.083  0.0061 -0.6608  0.2444
 8391SOL    HW236810   2.927   1.584  17.023 -0.0811 -0.1148 -0.7462
 8392SOL     OW36811   3.021   4.160   2.562 -0.3312  0.3719 -0.8794
 8392SOL    HW136812   2.932   4.124   2.557 -0.1504 -0.7012  4.0571
 8392SOL    HW236813   3.076   4.086   2.536  1.2982  2.1929 -2.5582
 8393SOL     OW36814   2.002   4.268  12.968 -0.2440 -0.0083  0.1456
 8393SOL    HW136815   2.047   4.234  12.891  0.0423 -0.3772  0.4757
 8393SOL    HW236816   2.010   4.363  12.954  0.1696  0.2692  2.2163
 8394SOL     OW36817   0.756   3.761   9.984  0.2044 -0.6155  0.2752
 8394SOL    HW136818   0.785   3.724   9.901 -1.0790  0.1236 -0.4918
 8394SOL    HW236819   0.782   3.852   9.968 -3.3821  0.5461  1.1395
 8395SOL     OW36820   0.213   3.044   6.220 -0.1863 -0.3756 -0.3334
 8395SOL    HW136821   0.143   3.016   6.279  0.6176  1.3627  1.4557
 8395SOL    HW236822   0.268   2.966   6.221 -0.8707 -0.8356  2.1562
 8396SOL     OW36823   3.665   0.245   4.279  1.0996 -0.1497  0.1628
 8396SOL    HW136824   3.707   0.159   4.280 -0.1035 -0.7586 -2.3936
 8396SOL    HW236825   3.573   0.218   4.284  1.2697 -0.4332  1.7275
 8397SOL     OW36826   1.237   2.004  15.295 -0.0317  0.1919 -0.5620
 8397SOL    HW136827   1.244   2.097  15.313 -2.1398  0.6814 -2.3912
 8397SOL    HW236828   1.249   1.966  15.382 -0.0156 -0.4039 -0.8229
 8398SOL     OW36829   4.357   4.062   9.295  0.1242  0.2894 -0.1171
 8398SOL    HW136830   4.416   4.047   9.369  0.6259 -1.6460 -0.8969
 8398SOL    HW236831   4.351   4.157   9.290 -1.6374  0.1575 -0.6906
 8399SOL     OW36832   0.534   0.982  14.721  0.6189  0.2160  0.3703
 8399SOL    HW136833   0.501   0.920  14.656  2.4857 -0.8982  0.4667
 8399SOL    HW236834   0.466   1.048  14.733 -1.1330 -1.6296  0.5584
 8400SOL     OW36835   0.091   1.913  11.272  0.0874 -0.5016 -0.6863
 8400SOL    HW136836   0.001   1.883  11.259 -0.8023  1.5883  0.8118
 8400SOL    HW236837   0.137   1.897  11.189 -0.4296  1.0765 -1.2808
 8401SOL     OW36838   2.697   4.431  15.353  0.7164 -0.2162  0.2489
 8401SOL    HW136839   2.749   4.351  15.363  2.1754  0.5692 -0.9635
 8401SOL    HW236840   2.607   4.398  15.345  0.8981 -0.9334  1.0651
 8402SOL     OW36841   0.168   1.477  15.847 -0.3829 -0.7990 -0.2910
 8402SOL    HW136842   0.124   1.558  15.823  1.2137 -0.5226 -2.2801
 8402SOL    HW236843   0.254   1.473  15.804 -0.8029 -3.8446 -0.9007
 8403SOL     OW36844   2.342   2.599   2.562  0.3004  0.6130  0.1606
 8403SOL    HW136845   2.258   2.580   2.520 -0.1100 -0.1413  1.3438
 8403SOL    HW236846   2.408   2.547   2.515 -0.2118 -0.0060  0.1405
 8404SOL     OW36847   1.248   1.626   3.664 -0.0536 -0.5307 -0.3612
 8404SOL    HW136848   1.195   1.607   3.741  0.3323 -1.7850 -0.4118
 8404SOL    HW236849   1.178   1.637   3.601 -0.3340 -0.4818 -0.0434
 8405SOL     OW36850   0.377   4.342   8.011 -0.4455 -0.3535  0.3770
 8405SOL    HW136851   0.299   4.287   8.019 -0.1463 -0.9105 -0.6286
 8405SOL    HW236852   0.347   4.401   7.943  0.3104 -1.6113 -1.0391
 8406SOL     OW36853   0.092   1.402   6.287  0.4771  0.1699  0.0125
 8406SOL    HW136854   0.034   1.409   6.211  0.2375 -1.4329  0.0560
 8406SOL    HW236855   0.035   1.412   6.363  1.9018 -1.1220  1.2415
 8407SOL     OW36856   2.816   0.116   4.854 -0.5330  0.0199  0.1000
 8407SOL    HW136857   2.895   0.063   4.867 -1.1646 -1.3593 -1.7566
 8407SOL    HW236858   2.824   0.185   4.920 -1.3783 -1.2882  1.5815
 8408SOL     OW36859   2.785   0.014  14.708 -0.0316  0.0095  0.4717
 8408SOL    HW136860   2.760   4.664  14.736  0.1183 -0.4113 -0.6956
 8408SOL    HW236861   2.855   4.719  14.652  0.7163  1.0118  0.8196
 8409SOL     OW36862   1.293   2.057   8.281 -0.1245 -0.0236 -0.4606
 8409SOL    HW136863   1.286   2.006   8.361 -0.4256 -1.5144 -1.4353
 8409SOL    HW236864   1.221   2.120   8.279 -0.1841 -0.0704  0.4302
 8410SOL     OW36865   2.193   1.314   8.571  0.2873  0.6389 -0.2047
 8410SOL    HW136866   2.270   1.337   8.519 -0.3661  2.9606 -0.1235
 8410SOL    HW236867   2.130   1.377   8.537  0.4929  0.3873 -1.0581
 8411SOL     OW36868   2.750   0.664  11.479  0.3329 -0.1841 -0.3389
 8411SOL    HW136869   2.769   0.585  11.531 -1.7139 -0.1267  0.5272
 8411SOL    HW236870   2.832   0.680  11.434  0.0837  1.0814 -0.3314
 8412SOL     OW36871   1.220   4.264   6.765 -0.5834 -0.5449 -0.4570
 8412SOL    HW136872   1.162   4.333   6.798 -1.5778 -1.1265 -0.9895
 8412SOL    HW236873   1.233   4.211   6.844 -1.1635 -0.3557 -0.2354
 8413SOL     OW36874   2.169   4.735   8.019 -0.1547  0.4816  0.3523
 8413SOL    HW136875   2.262   0.002   8.038  0.9351 -0.7204 -4.6013
 8413SOL    HW236876   2.132   4.677   8.085  0.6972 -0.5647 -0.0902
 8414SOL     OW36877   3.161   3.406  12.962  0.2234  0.2047 -0.1597
 8414SOL    HW136878   3.213   3.327  12.981 -0.5639  0.4164  2.9424
 8414SOL    HW236879   3.084   3.380  13.012  0.4665 -0.6283 -0.2126
 8415SOL     OW36880   1.821   2.443  13.232  0.0071  0.1980 -0.3827
 8415SOL    HW136881   1.827   2.394  13.314  0.2556  1.7798  0.5447
 8415SOL    HW236882   1.793   2.379  13.167  0.4661 -2.4232  2.0215
 8416SOL     OW36883   2.212   4.662   8.578  0.2830  0.4378 -0.5992
 8416SOL    HW136884   2.130   4.616   8.566  0.9382 -1.3752  2.0508
 8416SOL    HW236885   2.232   4.695   8.490 -3.4169  0.7620 -1.2994
 8417SOL     OW36886   0.414   1.052  11.401  0.0578 -0.2097 -0.1809
 8417SOL    HW136887   0.420   0.960  11.425  0.5001 -0.5578 -1.6750
 8417SOL    HW236888   0.400   1.095  11.486  1.7442 -0.4946  0.2387
 8418SOL     OW36889   1.452   1.708   4.148  0.0307 -0.1231 -0.3214
 8418SOL    HW136890   1.493   1.781   4.195  2.1332  0.5946 -3.2898
 8418SOL    HW236891   1.491   1.629   4.186 -1.8163 -1.7708 -1.8184
 8419SOL     OW36892   2.164   2.676   3.421  0.9969 -0.2448  0.0422
 8419SOL    HW136893   2.074   2.643   3.424  0.7239  0.5619  0.7579
 8419SOL    HW236894   2.206   2.629   3.349 -0.0599 -0.9562 -0.1105
 8420SOL     OW36895   2.824   0.192   6.174 -0.2795 -0.0290  0.5883
 8420SOL    HW136896   2.817   0.146   6.258  1.3882 -1.3880 -0.0264
 8420SOL    HW236897   2.875   0.132   6.120 -2.0534 -1.3843  0.4153
 8421SOL     OW36898   0.237   3.199   8.671  0.2072  0.8078  0.1830
 8421SOL    HW136899   0.300   3.266   8.697  0.6655  0.3071  0.3625
 8421SOL    HW236900   0.175   3.214   8.742  0.2930  2.0795 -0.0131
 8422SOL     OW36901   1.019   0.985  13.093  0.5313 -0.1077  0.2701
 8422SOL    HW136902   1.098   1.036  13.105 -0.3970  1.6260 -0.9496
 8422SOL    HW236903   0.953   1.029  13.147 -1.0825 -2.8231  0.5490
 8423SOL     OW36904   3.508   0.524  12.835  0.0807  0.1918 -0.3457
 8423SOL    HW136905   3.526   0.465  12.909 -2.2126 -1.3990 -1.0634
 8423SOL    HW236906   3.474   0.605  12.873 -2.8178 -0.4652 -1.5828
 8424SOL     OW36907   3.070   2.273   0.013 -0.4364 -0.2946 -0.1687
 8424SOL    HW136908   3.162   2.278   0.037 -1.2504  0.5785  2.7065
 8424SOL    HW236909   3.046   2.190   0.054  0.3915 -0.9048 -0.9147
 8425SOL     OW36910   1.866   2.287   0.473 -0.1008  0.3373  0.5323
 8425SOL    HW136911   1.822   2.207   0.446  0.7463  0.5242 -1.4158
 8425SOL    HW236912   1.802   2.358   0.471 -0.4850 -0.0450 -1.0222
 8426SOL     OW36913   0.653   0.119  13.622 -0.1016  0.1611  0.1132
 8426SOL    HW136914   0.606   0.085  13.545 -1.3523 -0.1185  0.9949
 8426SOL    HW236915   0.729   0.159  13.580  0.0796  0.4689  0.7331
 8427SOL     OW36916   3.244   3.713   2.957 -0.5084 -0.4301 -0.6291
 8427SOL    HW136917   3.222   3.714   2.864  0.7195 -2.1009 -0.9364
 8427SOL    HW236918   3.301   3.790   2.962 -1.4120  0.1948  0.1382
 8428SOL     OW36919   4.558   2.203   4.671  0.1087 -0.7088  0.1696
 8428SOL    HW136920   4.608   2.280   4.698 -0.0719 -0.9475  1.1577
 8428SOL    HW236921   4.636   2.153   4.644  1.5310  1.8405 -0.4969
 8429SOL     OW36922   2.235   0.902   7.180  0.3941 -0.1917  0.0263
 8429SOL    HW136923   2.242   0.911   7.085 -0.6351  0.5479  0.0311
 8429SOL    HW236924   2.156   0.952   7.201  1.8645  2.3017 -0.3555
 8430SOL     OW36925   0.047   2.722  11.497 -0.0366  0.2530  0.4997
 8430SOL    HW136926   4.707   2.749  11.448  0.4976 -0.7035 -0.8711
 8430SOL    HW236927   0.060   2.629  11.477  1.3436  0.3486  0.9296
 8431SOL     OW36928   3.976   2.049   0.112  0.1863 -0.5349  0.2838
 8431SOL    HW136929   3.906   2.083   0.167  0.5848  0.3642  0.2346
 8431SOL    HW236930   3.998   2.117   0.048 -0.3019 -0.7942 -0.1703
 8432SOL     OW36931   2.812   4.033   7.445 -0.2728  0.4610 -0.2029
 8432SOL    HW136932   2.897   4.071   7.466  0.2655 -0.7554 -0.1883
 8432SOL    HW236933   2.744   4.100   7.439 -0.0320  0.6513 -0.8226
 8433SOL     OW36934   1.965   4.419  10.870 -0.2715 -0.3372  0.1391
 8433SOL    HW136935   1.870   4.412  10.880 -0.4594 -1.7493 -2.6592
 8433SOL    HW236936   1.986   4.345  10.927 -1.3767 -0.8756 -0.1508
 8434SOL     OW36937   4.256   4.676   4.157 -0.0827 -0.3700 -0.0299
 8434SOL    HW136938   4.169   4.687   4.196 -0.3857 -0.5691 -0.6496
 8434SOL    HW236939   4.282   4.593   4.196  0.3241 -0.6460 -0.8902
 8435SOL     OW36940   3.253   2.100   6.516 -0.4510 -0.2707  0.3068
 8435SOL    HW136941   3.294   2.077   6.432  0.7441  0.7704  0.6024
 8435SOL    HW236942   3.178   2.140   6.473  0.4919  0.0109 -1.1124
 8436SOL     OW36943   1.440   4.045  17.137 -0.1410 -0.0277 -0.4273
 8436SOL    HW136944   1.403   3.957  17.130  0.3462 -0.3310  0.7317
 8436SOL    HW236945   1.479   4.042  17.224 -0.9596 -1.2939 -0.1073
 8437SOL     OW36946   3.678   1.264  10.749  0.3248 -0.0298  0.0491
 8437SOL    HW136947   3.612   1.284  10.815 -0.6479  0.1078 -0.9717
 8437SOL    HW236948   3.695   1.351  10.713 -0.6139  1.1963  2.5354
 8438SOL     OW36949   0.833   0.221  13.450 -0.3571 -0.1742 -0.1744
 8438SOL    HW136950   0.775   0.289  13.416 -1.2776 -0.7011  0.3399
 8438SOL    HW236951   0.920   0.251  13.425 -0.3434  0.6842  0.8983
 8439SOL     OW36952   0.337   4.735   3.667 -0.6129 -0.5128 -0.2677
 8439SOL    HW136953   0.258   0.034   3.627 -1.2234 -1.5505 -0.0229
 8439SOL    HW236954   0.295   4.736   3.753 -3.5293  0.9874 -1.6944
 8440SOL     OW36955   1.323   0.923   1.834 -0.6409  0.0683  0.5882
 8440SOL    HW136956   1.269   0.847   1.855 -0.4464 -1.0605 -2.9202
 8440SOL    HW236957   1.261   0.976   1.782 -0.7443 -0.3733  0.2565
 8441SOL     OW36958   4.154   0.656  10.900 -0.4636  0.2972  1.0234
 8441SOL    HW136959   4.072   0.705  10.895 -1.2386 -0.8903  1.8327
 8441SOL    HW236960   4.207   0.718  10.851  2.2861 -1.9272  1.1398
 8442SOL     OW36961   1.643   4.244   1.539  0.2802  0.3918  0.0158
 8442SOL    HW136962   1.617   4.155   1.561  0.2087  0.5490  0.5541
 8442SOL    HW236963   1.718   4.247   1.598  1.2962  0.9210 -1.2988
 8443SOL     OW36964   4.535   0.089   4.566 -0.2673 -0.4833 -0.0422
 8443SOL    HW136965   4.463   0.149   4.543  1.3602  1.0644 -1.1419
 8443SOL    HW236966   4.611   0.147   4.570 -0.2209 -0.5168 -0.4362
 8444SOL     OW36967   1.121   0.693   8.691 -0.2204 -0.1094  0.2082
 8444SOL    HW136968   1.092   0.642   8.616 -1.8653 -0.8627  1.3666
 8444SOL    HW236969   1.113   0.785   8.663 -0.7166 -0.3594 -0.4673
 8445SOL     OW36970   2.219   2.391  16.703  0.1921 -0.7366 -0.4751
 8445SOL    HW136971   2.163   2.389  16.781  1.8110 -1.8865  0.6643
 8445SOL    HW236972   2.211   2.298  16.683  0.3770 -0.6097 -1.1269
 8446SOL     OW36973   0.166   1.361   3.566  0.1198  0.2469  0.0785
 8446SOL    HW136974   0.105   1.419   3.521 -1.2895 -0.1897  1.4333
 8446SOL    HW236975   0.186   1.404   3.649 -0.5553 -1.4459  1.1272
 8447SOL     OW36976   1.045   4.598   6.569 -0.5311 -0.5935  0.6204
 8447SOL    HW136977   1.035   4.692   6.556 -1.4197 -0.5455  1.6611
 8447SOL    HW236978   1.095   4.592   6.651 -1.2169  0.6498  1.1198
 8448SOL     OW36979   1.281   4.697   6.729 -0.2775 -0.1310  0.1327
 8448SOL    HW136980   1.353   4.678   6.790  0.1577 -1.4723 -0.7873
 8448SOL    HW236981   1.330   4.716   6.649 -0.6456 -0.1513 -0.0985
 8449SOL     OW36982   3.116   1.418   5.637 -0.7796  0.3211 -0.5161
 8449SOL    HW136983   3.073   1.354   5.580  0.0680 -1.1933  0.5652
 8449SOL    HW236984   3.069   1.413   5.720  0.3196  0.4934  0.1151
 8450SOL     OW36985   0.324   4.568   3.458  0.2226  0.8033  0.5200
 8450SOL    HW136986   0.365   4.653   3.476 -0.3948  0.9527  1.1943
 8450SOL    HW236987   0.331   4.511   3.534  0.2363 -1.9010 -1.5100
 8451SOL     OW36988   2.187   2.958   9.251 -0.3303  0.4176 -0.2119
 8451SOL    HW136989   2.121   3.019   9.219  1.3207  2.1201 -0.3599
 8451SOL    HW236990   2.258   3.022   9.255 -1.2818  1.4059  1.1390
 8452SOL     OW36991   2.579   4.174   6.492  0.0686 -0.0019  0.0203
 8452SOL    HW136992   2.548   4.150   6.405 -2.0158  0.8458  0.5375
 8452SOL    HW236993   2.597   4.267   6.482  0.3486 -0.1496 -0.8559
 8453SOL     OW36994   3.279   2.909   5.430  0.6467  0.7308  0.4174
 8453SOL    HW136995   3.289   2.999   5.463 -0.2964  0.9356  0.1405
 8453SOL    HW236996   3.374   2.900   5.420  0.2249 -1.8222 -1.2356
 8454SOL     OW36997   1.674   4.284   7.484 -0.1164  0.1847  0.8974
 8454SOL    HW136998   1.662   4.275   7.579  0.2909  0.5761  0.9810
 8454SOL    HW236999   1.675   4.190   7.465 -0.2849  0.6315 -1.2394
 8455SOL     OW37000   2.912   2.851   1.112  0.3487  0.1652 -0.2924
 8455SOL    HW137001   2.920   2.889   1.199 -0.1220  4.2482 -1.9934
 8455SOL    HW237002   2.904   2.757   1.130  2.8362  0.3154  1.5538
 8456SOL     OW37003   3.275   1.505   2.926  0.1495 -0.0459  0.2714
 8456SOL    HW137004   3.253   1.595   2.950  1.7095  0.1387  0.9771
 8456SOL    HW237005   3.244   1.503   2.835  1.0842 -2.1149 -0.0048
 8457SOL     OW37006   2.598   3.760   6.064 -0.0118  0.3910  0.2023
 8457SOL    HW137007   2.553   3.678   6.041  1.3530  0.3152 -2.2409
 8457SOL    HW237008   2.554   3.782   6.146 -0.3251 -2.4224  0.8020
 8458SOL     OW37009   2.216   1.199  12.522  0.5063 -0.1712  0.0483
 8458SOL    HW137010   2.285   1.231  12.465  1.9629  0.4862  2.2090
 8458SOL    HW237011   2.146   1.201  12.456  0.5667  2.8152  0.0735
 8459SOL     OW37012   3.397   0.985  16.468  0.4295  0.4159  0.0639
 8459SOL    HW137013   3.376   0.924  16.539  2.4869 -0.2315  0.1190
 8459SOL    HW237014   3.352   0.952  16.390  2.8888  2.2352 -2.1064
 8460SOL     OW37015   1.054   1.012   6.653  0.2216  0.4960 -0.2420
 8460SOL    HW137016   1.006   1.079   6.605 -1.9803 -0.6800  0.3435
 8460SOL    HW237017   1.013   0.929   6.627 -0.8736  0.8307  0.4367
 8461SOL     OW37018   0.359   0.052   5.146 -0.2509  0.5659 -0.1605
 8461SOL    HW137019   0.335   4.703   5.116  1.6076  0.4490 -1.3180
 8461SOL    HW237020   0.339   0.046   5.239 -1.5747 -2.0183 -0.6135
 8462SOL     OW37021   1.325   2.121   2.221 -0.3493  0.4665  0.1739
 8462SOL    HW137022   1.395   2.177   2.189  0.9671  0.1668  2.4938
 8462SOL    HW237023   1.253   2.146   2.163  0.1967  0.0545 -0.6907
 8463SOL     OW37024   1.720   4.559   7.016 -0.1098  0.0473  0.1937
 8463SOL    HW137025   1.680   4.472   7.008 -0.5445  0.4219 -1.6992
 8463SOL    HW237026   1.812   4.546   6.993 -0.8956 -0.8724 -2.4673
 8464SOL     OW37027   2.727   1.453  10.627  0.0632  0.3442 -0.4588
 8464SOL    HW137028   2.815   1.485  10.606  1.0250 -1.6206  0.5856
 8464SOL    HW237029   2.669   1.498  10.565  0.7273  0.2525 -1.1479
 8465SOL     OW37030   2.049   3.237  12.304  0.4648  0.0484 -0.1422
 8465SOL    HW137031   2.121   3.178  12.283  0.3469 -0.1629  0.0420
 8465SOL    HW237032   2.013   3.250  12.216  0.4531  1.3220  0.0637
 8466SOL     OW37033   1.178   2.539   6.346  0.1893  0.4335  0.1693
 8466SOL    HW137034   1.247   2.591   6.305 -0.2229  0.7792 -0.0853
 8466SOL    HW237035   1.112   2.604   6.371 -0.7228  0.5900 -2.5728
 8467SOL     OW37036   4.349   2.550   4.017 -0.7627  0.0054  0.1554
 8467SOL    HW137037   4.416   2.485   4.038 -1.9117 -2.0177 -2.4016
 8467SOL    HW237038   4.367   2.558   3.924 -0.4006 -0.9580  0.1442
 8468SOL     OW37039   2.769   2.630   9.722 -0.0218 -0.1317 -0.2957
 8468SOL    HW137040   2.790   2.538   9.739  1.3532 -0.4010 -3.4237
 8468SOL    HW237041   2.778   2.630   9.626  0.4393 -2.2582 -0.2366
 8469SOL     OW37042   1.012   3.508  17.333 -0.3994  0.4583 -0.3990
 8469SOL    HW137043   1.070   3.582  17.350 -1.2668  1.0290  0.0756
 8469SOL    HW237044   0.972   3.521  17.247 -0.8981 -1.1139 -0.3952
 8470SOL     OW37045   4.283   2.652  11.135 -0.1404  0.3736  0.0177
 8470SOL    HW137046   4.308   2.605  11.055  0.7579 -2.7722  2.1498
 8470SOL    HW237047   4.309   2.582  11.195  1.0512  0.4863 -0.3591
 8471SOL     OW37048   2.997   0.462   7.073  0.3853  0.5349  0.4359
 8471SOL    HW137049   2.918   0.516   7.070  1.4558  2.0387 -0.2510
 8471SOL    HW237050   3.050   0.534   7.106 -0.0261  0.4524  1.2924
 8472SOL     OW37051   1.372   4.195   5.987 -0.4156 -0.1777  0.0374
 8472SOL    HW137052   1.387   4.121   5.928 -0.7944  1.8064 -2.5443
 8472SOL    HW237053   1.461   4.214   6.014  0.0743 -1.3765 -0.7334
 8473SOL     OW37054   4.449   4.696   1.267 -0.1000 -0.5086 -0.0456
 8473SOL    HW137055   4.523   4.639   1.289 -0.5960 -2.7935 -4.1573
 8473SOL    HW237056   4.477   0.045   1.294  0.0679 -1.0396  1.4811
 8474SOL     OW37057   4.707   4.027   4.575  0.6511  0.1250  0.1572
 8474SOL    HW137058   0.053   3.993   4.606  1.9919  2.7762 -0.5372
 8474SOL    HW237059   4.655   4.002   4.651 -0.4011  1.5182 -0.1088
 8475SOL     OW37060   3.116   3.929   5.712 -0.0303  0.4275  0.0123
 8475SOL    HW137061   3.095   3.923   5.805  3.4157  0.3373  0.8024
 8475SOL    HW237062   3.052   3.874   5.668 -0.1157 -0.3730  1.1339
 8476SOL     OW37063   4.635   0.796   0.154 -0.2241  0.4754 -0.7133
 8476SOL    HW137064   4.705   0.846   0.111  0.2657 -0.8930 -1.5110
 8476SOL    HW237065   4.575   0.860   0.192 -1.3296 -0.8132 -0.3099
 8477SOL     OW37066   1.820   0.181  11.027  0.3890  0.4086 -0.1005
 8477SOL    HW137067   1.828   0.267  11.068 -2.1024  1.3630 -1.5998
 8477SOL    HW237068   1.767   0.207  10.952  0.8765 -1.3887 -1.0650
 8478SOL     OW37069   2.939   0.796   7.370 -0.3612 -0.2518 -0.1290
 8478SOL    HW137070   3.005   0.727   7.364  1.4301  1.7657 -3.3278
 8478SOL    HW237071   2.858   0.748   7.351 -1.1431  1.1888 -0.4279
 8479SOL     OW37072   0.406   1.728   6.845 -0.1067 -0.2876 -0.1047
 8479SOL    HW137073   0.360   1.671   6.784 -1.5108 -0.4391  1.1089
 8479SOL    HW237074   0.491   1.683   6.844  0.3843  0.6466 -0.5193
 8480SOL     OW37075   3.952   1.222   8.971 -0.4630 -0.7758  0.0839
 8480SOL    HW137076   3.857   1.237   8.965 -0.6493 -1.1668  2.1259
 8480SOL    HW237077   3.981   1.299   8.923  4.3339 -1.1142  2.4908
 8481SOL     OW37078   3.932   0.968   5.703 -0.2791 -0.4818 -0.0058
 8481SOL    HW137079   3.850   0.937   5.664 -0.8515 -0.1684  0.9269
 8481SOL    HW237080   3.900   1.014   5.781 -2.1552  0.3542 -1.2555
 8482SOL     OW37081   2.897   4.259   9.689 -0.2517  0.4705  0.0702
 8482SOL    HW137082   2.921   4.332   9.631  0.3281  1.1755  1.1972
 8482SOL    HW237083   2.951   4.276   9.766  1.1979  0.0177 -0.8434
 8483SOL     OW37084   2.341   1.099   3.872 -0.1692 -0.1575 -0.1531
 8483SOL    HW137085   2.304   1.011   3.870  0.4777 -0.3685 -2.8818
 8483SOL    HW237086   2.262   1.152   3.862  0.2143  0.1841 -1.3737
 8484SOL     OW37087   1.460   3.656   6.451  0.2398  0.1529  0.9132
 8484SOL    HW137088   1.485   3.745   6.425 -0.3694 -0.1510 -0.7184
 8484SOL    HW237089   1.509   3.658   6.533  0.8709  1.6279  0.4942
 8485SOL     OW37090   1.584   0.647   4.618  0.1151  0.1046 -0.0521
 8485SOL    HW137091   1.509   0.704   4.601  0.4363  0.1149 -1.4227
 8485SOL    HW237092   1.625   0.639   4.532  0.4876  1.4018  0.0082
 8486SOL     OW37093   2.324   2.097   6.047  0.2557 -0.0051 -0.2036
 8486SOL    HW137094   2.264   2.023   6.043 -0.1507  0.4189 -2.0324
 8486SOL    HW237095   2.267   2.164   6.083  1.3247  0.1533  1.1929
 8487SOL     OW37096   3.755   4.582   6.310  0.3557 -0.0101 -0.0943
 8487SOL    HW137097   3.811   4.660   6.305  1.9825 -1.1902 -0.1166
 8487SOL    HW237098   3.750   4.582   6.405  0.5087 -0.3082 -0.0867
 8488SOL     OW37099   3.433   0.447   1.787  0.5556 -0.0217  0.0685
 8488SOL    HW137100   3.373   0.520   1.775 -1.4742 -1.4926  1.1598
 8488SOL    HW237101   3.501   0.480   1.729  0.0936 -0.3105 -0.6464
 8489SOL     OW37102   3.201   0.550  10.377  0.4773 -0.0379  0.2236
 8489SOL    HW137103   3.152   0.503  10.310  2.2733 -0.0099 -1.0971
 8489SOL    HW237104   3.263   0.486  10.413  0.5258  0.3918  0.9050
 8490SOL     OW37105   2.813   3.081   6.897 -0.3007 -0.6813 -0.7222
 8490SOL    HW137106   2.904   3.099   6.920 -1.3370  1.4821  1.7265
 8490SOL    HW237107   2.772   3.039   6.972 -1.0509  0.9371 -0.2277
 8491SOL     OW37108   2.888   3.623   6.601 -0.7215 -0.4013 -1.0718
 8491SOL    HW137109   2.820   3.658   6.658 -0.9547 -3.0975  0.3279
 8491SOL    HW237110   2.910   3.706   6.558 -1.5396  0.3810  0.0324
 8492SOL     OW37111   2.301   0.993   6.361  0.4958  0.0907  0.0532
 8492SOL    HW137112   2.282   1.086   6.375  1.9930  0.7674 -2.3428
 8492SOL    HW237113   2.391   0.989   6.393 -0.4283 -1.1663  2.4963
 8493SOL     OW37114   1.127   4.625  16.651  0.0698 -0.3861  0.0208
 8493SOL    HW137115   1.124   4.572  16.731 -0.8558 -2.1768 -1.1990
 8493SOL    HW237116   1.188   4.694  16.677 -0.9768  0.4434  0.2573
 8494SOL     OW37117   4.484   4.135  13.856 -0.2099 -0.1266  0.3856
 8494SOL    HW137118   4.542   4.092  13.793 -1.1726 -1.0751  0.1521
 8494SOL    HW237119   4.458   4.222  13.824 -2.5771  0.1234  3.0081
 8495SOL     OW37120   2.810   2.874  13.949 -0.2146  0.0838  0.3348
 8495SOL    HW137121   2.758   2.802  13.912  1.0792  0.1265 -1.5419
 8495SOL    HW237122   2.763   2.893  14.030 -0.4789 -0.4134  0.2992
 8496SOL     OW37123   3.940   0.898   2.100 -0.1127  0.2379 -0.2477
 8496SOL    HW137124   4.019   0.936   2.139 -0.3147  1.4745 -1.0205
 8496SOL    HW237125   3.947   0.807   2.127 -0.7391  0.0665 -0.6773
 8497SOL     OW37126   1.054   0.857   5.672  0.1724 -0.2013 -0.3985
 8497SOL    HW137127   1.011   0.877   5.589 -1.6455 -0.5537  0.4558
 8497SOL    HW237128   1.003   0.912   5.733  0.3029  0.1147 -0.5787
 8498SOL     OW37129   4.174   1.831   1.258  0.4716 -0.2083 -0.1229
 8498SOL    HW137130   4.261   1.844   1.220  1.3826 -0.4790  1.8486
 8498SOL    HW237131   4.112   1.874   1.199  1.4996  1.5710  0.0865
 8499SOL     OW37132   4.664   0.689   3.690 -0.5694  0.5133 -0.1792
 8499SOL    HW137133   4.725   0.615   3.685 -1.7653 -0.3798 -1.3696
 8499SOL    HW237134   4.716   0.769   3.687 -1.4308  1.0764  0.0158
 8500SOL     OW37135   1.210   1.525   4.384  0.3844  0.2130 -0.1724
 8500SOL    HW137136   1.125   1.487   4.407  0.8970 -0.3901  0.7658
 8500SOL    HW237137   1.250   1.441   4.362  1.0938 -0.1643  2.4998
 8501SOL     OW37138   2.674   1.583   8.449  0.1049 -0.0305  0.2479
 8501SOL    HW137139   2.752   1.635   8.430 -0.0473  0.5215  1.0994
 8501SOL    HW237140   2.712   1.517   8.508  0.4672 -1.2219 -1.3315
 8502SOL     OW37141   1.996   0.059   9.544  0.6855 -0.6050  0.1221
 8502SOL    HW137142   2.082   0.085   9.513 -0.3378  0.9709 -1.3837
 8502SOL    HW237143   1.971   0.108   9.623 -1.6283  0.1618 -1.0699
 8503SOL     OW37144   0.651   0.612   5.390  0.1570  0.8535  0.7659
 8503SOL    HW137145   0.741   0.582   5.404 -0.4461 -1.8317 -0.9325
 8503SOL    HW237146   0.610   0.537   5.346  2.1585  0.5809 -0.6573
 8504SOL     OW37147   0.860   3.931  10.669  0.0116 -0.4599  0.0485
 8504SOL    HW137148   0.859   3.886  10.584  1.7889  0.2131 -0.3158
 8504SOL    HW237149   0.777   3.979  10.661  1.7176  2.6975  1.4152
 8505SOL     OW37150   0.480   1.407   4.295 -0.1581 -0.0356 -0.1791
 8505SOL    HW137151   0.428   1.487   4.292  1.2376  0.8445 -0.8470
 8505SOL    HW237152   0.482   1.379   4.204 -0.2192 -1.8549  0.3760
 8506SOL     OW37153   2.676   2.667  13.835  0.0879 -0.0756  0.1354
 8506SOL    HW137154   2.653   2.609  13.908 -0.7660  0.7501  0.5235
 8506SOL    HW237155   2.593   2.703  13.805  1.0183  2.3489  0.4853
 8507SOL     OW37156   2.855   2.029   3.948  0.5242 -0.0557 -0.4743
 8507SOL    HW137157   2.883   1.984   3.868 -2.7117 -0.2274 -1.5269
 8507SOL    HW237158   2.764   2.053   3.929  0.9900 -0.0284 -2.7129
 8508SOL     OW37159   2.908   1.749   8.413  0.5145 -0.1813 -0.0941
 8508SOL    HW137160   2.935   1.840   8.404 -1.4840  0.3378 -0.8156
 8508SOL    HW237161   2.897   1.746   8.508  1.4467 -0.0722  0.0247
 8509SOL     OW37162   4.670   0.814   7.067  0.1957  0.4542  0.4127
 8509SOL    HW137163   0.022   0.844   7.078  0.4114  0.7535 -2.2376
 8509SOL    HW237164   4.653   0.867   6.989 -1.4944 -1.3814 -0.4904
 8510SOL     OW37165   2.268   0.361   2.261 -1.1041 -0.1773 -0.4802
 8510SOL    HW137166   2.267   0.424   2.333  2.2010 -1.2209  0.4426
 8510SOL    HW237167   2.264   0.281   2.313 -2.2230 -0.0147 -0.3125
 8511SOL     OW37168   1.361   3.015   3.071  0.0597 -0.8347  0.7591
 8511SOL    HW137169   1.266   3.011   3.059  0.1523  0.4624 -0.4418
 8511SOL    HW237170   1.377   2.994   3.163  0.9579  1.1680  1.0635
 8512SOL     OW37171   0.123   2.143   6.013 -0.3733  0.1176 -0.4319
 8512SOL    HW137172   0.155   2.175   5.929  0.7173 -1.3486 -0.5750
 8512SOL    HW237173   0.195   2.167   6.072 -0.3082  0.2571 -0.5683
 8513SOL     OW37174   2.072   0.202   2.520 -0.8164 -0.2040 -0.5591
 8513SOL    HW137175   1.983   0.237   2.517 -0.8918 -0.3495 -0.0294
 8513SOL    HW237176   2.065   0.112   2.490  1.6321 -0.2967 -0.9229
 8514SOL     OW37177   1.044   4.720   4.290  0.0545  0.1384 -0.2043
 8514SOL    HW137178   1.134   4.711   4.256  0.1025  3.6010 -0.9750
 8514SOL    HW237179   0.987   4.716   4.213  0.5249  1.1527 -0.5999
 8515SOL     OW37180   4.625   1.845   6.650  0.1203 -0.6527  0.4909
 8515SOL    HW137181   4.669   1.837   6.735  0.2072 -1.7219  0.3400
 8515SOL    HW237182   4.620   1.939   6.668 -0.9326 -0.3434 -1.4158
 8516SOL     OW37183   3.660   4.010   8.055  0.2869  0.0102 -0.3781
 8516SOL    HW137184   3.652   4.093   8.101  2.7849  1.5428 -2.7208
 8516SOL    HW237185   3.755   4.003   8.045  0.4508 -0.5056  1.5508
 8517SOL     OW37186   4.521   0.910   5.605 -0.0848  0.3449 -0.3512
 8517SOL    HW137187   4.485   0.823   5.623 -1.3350  1.1992  1.3520
 8517SOL    HW237188   4.580   0.884   5.535 -1.1615 -2.1913 -0.3363
 8518SOL     OW37189   0.976   1.066  15.646 -0.6507 -0.1095 -0.2350
 8518SOL    HW137190   1.021   1.005  15.704 -1.2786 -2.2358 -1.9983
 8518SOL    HW237191   1.027   1.060  15.565 -1.4133 -0.5140 -0.6858
 8519SOL     OW37192   4.009   2.645   6.970 -0.4472 -0.0053  0.2010
 8519SOL    HW137193   4.009   2.740   6.956  2.8082 -0.0356 -0.0514
 8519SOL    HW237194   3.918   2.618   6.981 -0.4893  0.7507  1.7806
 8520SOL     OW37195   1.104   2.269   7.073 -0.5863 -0.5156  0.4259
 8520SOL    HW137196   1.079   2.361   7.060  1.1684 -0.2743 -1.0909
 8520SOL    HW237197   1.067   2.225   6.996  1.9350  1.5560 -1.9327
 8521SOL     OW37198   4.462   1.141   0.262 -0.2046  0.6415 -0.1156
 8521SOL    HW137199   4.514   1.221   0.258  0.1348  0.3380 -1.7384
 8521SOL    HW237200   4.510   1.083   0.321 -1.0647 -2.0031 -2.0194
 8522SOL     OW37201   1.663   3.843  10.840  0.2578 -0.0487  0.1651
 8522SOL    HW137202   1.687   3.900  10.767 -0.6876 -0.4246 -0.4322
 8522SOL    HW237203   1.570   3.831  10.824  0.1541  0.8188  0.1075
 8523SOL     OW37204   2.162   3.041  14.890 -0.3731  0.6989 -0.4987
 8523SOL    HW137205   2.072   3.038  14.924 -0.1242  0.0368  0.1108
 8523SOL    HW237206   2.144   3.113  14.830 -2.7088  1.6476  1.3177
 8524SOL     OW37207   4.077   2.814  11.039  0.0700 -0.5149  0.3212
 8524SOL    HW137208   4.160   2.766  11.042 -0.1987 -0.9290  1.1646
 8524SOL    HW237209   4.052   2.787  10.951 -0.1267  0.2631  0.1401
 8525SOL     OW37210   2.013   3.810  17.731 -0.5176 -0.3570 -0.4813
 8525SOL    HW137211   2.104   3.799  17.704 -0.5435  2.6962 -1.7904
 8525SOL    HW237212   2.035   3.797   0.073  1.3969 -1.6362 -1.1355
 8526SOL     OW37213   1.072   4.533  13.036  0.0765  0.2838  0.0512
 8526SOL    HW137214   1.038   4.448  13.006 -1.1322  1.3627 -1.6584
 8526SOL    HW237215   1.068   4.525  13.131  1.1836 -3.6858 -0.2442
 8527SOL     OW37216   2.372   3.186   3.962 -0.5967 -0.5863 -0.2282
 8527SOL    HW137217   2.426   3.113   3.932  0.0000  0.2098 -1.0515
 8527SOL    HW237218   2.415   3.213   4.043 -0.2033 -0.8479 -0.3482
 8528SOL     OW37219   3.341   2.579   3.407  0.6078  0.3424  0.0916
 8528SOL    HW137220   3.406   2.514   3.380  0.3236  1.0736 -2.3253
 8528SOL    HW237221   3.314   2.553   3.496 -0.9349 -1.1657 -0.8145
 8529SOL     OW37222   3.851   1.274   4.176  0.1804  0.8366 -0.5462
 8529SOL    HW137223   3.835   1.230   4.259 -1.2027  0.8987 -0.7788
 8529SOL    HW237224   3.820   1.210   4.112  3.3099  1.1587 -2.4243
 8530SOL     OW37225   2.525   2.931   3.898 -0.0529 -0.0593 -0.3712
 8530SOL    HW137226   2.538   2.919   3.804  0.7440  0.4931 -0.3397
 8530SOL    HW237227   2.482   2.850   3.927 -2.1810  1.0928 -0.3464
 8531SOL     OW37228   3.958   0.312   5.937 -0.0091  0.2446  0.2638
 8531SOL    HW137229   3.997   0.384   5.887  1.2367 -0.2944  0.4480
 8531SOL    HW237230   3.956   0.248   5.867  1.8357  2.2137 -1.5886
 8532SOL     OW37231   1.386   1.831   8.829  0.3084 -0.3153  0.5136
 8532SOL    HW137232   1.448   1.777   8.877 -0.3597 -0.2439  1.4614
 8532SOL    HW237233   1.301   1.790   8.843 -0.2749 -0.1739 -2.5332
 8533SOL     OW37234   1.898   1.589   3.180 -0.1766  0.2162  0.0209
 8533SOL    HW137235   1.962   1.537   3.228 -1.2808 -1.5920 -0.4553
 8533SOL    HW237236   1.833   1.612   3.246  0.0146 -0.3800  0.4095
 8534SOL     OW37237   2.575   0.208   8.571 -0.3950  0.1379 -0.0420
 8534SOL    HW137238   2.488   0.193   8.609 -0.3246 -0.3247 -0.0552
 8534SOL    HW237239   2.546   0.263   8.499  0.9941  1.4740  0.4279
 8535SOL     OW37240   2.849   4.721   1.246 -0.0799 -0.1056  0.0684
 8535SOL    HW137241   2.826   4.664   1.173  2.1985 -0.7447 -0.1337
 8535SOL    HW237242   2.919   0.034   1.205  0.2292 -0.5388  0.0611
 8536SOL     OW37243   1.326   1.184   9.753  0.3812  0.3495  0.2209
 8536SOL    HW137244   1.271   1.242   9.805  1.4238  0.6154  1.0148
 8536SOL    HW237245   1.409   1.230   9.759  0.5578  0.3514 -2.2090
 8537SOL     OW37246   2.812   2.902   7.107 -0.1511  0.1093  0.2375
 8537SOL    HW137247   2.876   2.913   7.177 -0.6434 -0.2490  0.7552
 8537SOL    HW237248   2.827   2.814   7.073  1.9644  0.3183  0.6521
 8538SOL     OW37249   0.512   4.579   4.167  0.4594  0.0147 -0.0000
 8538SOL    HW137250   0.483   4.639   4.236  3.7725 -1.3731  2.5719
 8538SOL    HW237251   0.474   4.497   4.199  1.1308 -0.0748  0.5646
 8539SOL     OW37252   4.125   4.178   3.213 -0.0746 -0.0417  0.3086
 8539SOL    HW137253   4.103   4.266   3.244 -1.2110 -0.6875  1.3189
 8539SOL    HW237254   4.145   4.206   3.123  0.3412  0.2716  0.5006
 8540SOL     OW37255   0.547   0.476  11.308 -0.3016  0.2479 -0.6443
 8540SOL    HW137256   0.499   0.499  11.388  0.3247 -0.9194  0.0583
 8540SOL    HW237257   0.548   0.549  11.246 -1.3889  1.9878  1.3747
 8541SOL     OW37258   2.670   1.920   2.079  0.1633 -0.0318 -0.3763
 8541SOL    HW137259   2.712   1.905   1.994 -0.0199  0.6929 -0.5967
 8541SOL    HW237260   2.709   2.003   2.108 -3.3019  1.0544  1.1470
 8542SOL     OW37261   3.986   2.455   6.074 -0.2991  0.2086 -0.1258
 8542SOL    HW137262   4.015   2.467   6.164 -0.1304  0.4288 -0.2080
 8542SOL    HW237263   4.070   2.468   6.030  0.4815  1.2018  1.6593
 8543SOL     OW37264   1.753   3.414  15.426 -0.8303  0.4242  0.6927
 8543SOL    HW137265   1.711   3.413  15.512 -0.2924 -2.5810  0.9479
 8543SOL    HW237266   1.693   3.453  15.363  0.6402  0.9154 -0.3985
 8544SOL     OW37267   3.212   3.288  11.597 -0.9231 -0.1336  0.1870
 8544SOL    HW137268   3.241   3.209  11.552 -2.0921 -0.4839  0.0636
 8544SOL    HW237269   3.141   3.250  11.648 -0.9968 -0.8671 -0.4766
 8545SOL     OW37270   2.109   1.051   9.361  0.1337  0.3515  0.2944
 8545SOL    HW137271   2.184   1.100   9.327 -0.3328  0.1310 -1.0304
 8545SOL    HW237272   2.076   1.016   9.278  1.9809 -1.4819  0.3335
 8546SOL     OW37273   0.852   2.862   4.105 -1.0443 -0.1180 -0.9887
 8546SOL    HW137274   0.917   2.886   4.039  0.5732 -1.7749 -0.0012
 8546SOL    HW237275   0.901   2.839   4.184 -1.1871 -0.0518 -0.8801
 8547SOL     OW37276   1.518   1.940   1.698  0.1187  0.0147 -0.4301
 8547SOL    HW137277   1.437   1.959   1.651  2.1866  0.8979 -3.5970
 8547SOL    HW237278   1.535   2.025   1.740 -1.5299  0.2381 -0.2287
 8548SOL     OW37279   2.769   1.540   1.950 -0.7810  0.0108  0.2054
 8548SOL    HW137280   2.725   1.494   1.878 -1.0259  1.9914 -0.8891
 8548SOL    HW237281   2.853   1.566   1.911 -0.4613  0.0747  0.9339
 8549SOL     OW37282   2.280   0.737   7.802 -0.2855 -0.1866 -0.2776
 8549SOL    HW137283   2.287   0.758   7.709 -2.4336  0.6743 -0.2530
 8549SOL    HW237284   2.266   0.642   7.794 -1.8635  0.1565 -1.6315
 8550SOL     OW37285   0.004   4.028   0.779  0.2139  0.0641  0.3275
 8550SOL    HW137286   0.070   4.096   0.764 -1.1573  1.0549 -1.1408
 8550SOL    HW237287   0.024   3.960   0.715 -1.3671  0.5100 -0.6517
 8551SOL     OW37288   4.379   3.129   9.686 -0.2504  0.0817 -0.3501
 8551SOL    HW137289   4.323   3.155   9.613  0.9832  0.9959 -0.9553
 8551SOL    HW237290   4.453   3.188   9.678 -0.4870  0.2920 -0.9321
 8552SOL     OW37291   3.707   4.159   0.391  0.3107  0.4650  0.7884
 8552SOL    HW137292   3.618   4.160   0.427 -0.3870  3.3079 -0.9686
 8552SOL    HW237293   3.738   4.069   0.400 -0.9181 -0.0035  0.2787
 8553SOL     OW37294   1.509   2.877   8.660  0.0691  0.2946 -0.5186
 8553SOL    HW137295   1.550   2.914   8.738 -0.7373  2.0510 -0.9324
 8553SOL    HW237296   1.572   2.810   8.633 -1.3991 -0.9722 -0.7961
 8554SOL     OW37297   4.513   2.785   5.274 -0.4342  0.2411 -0.0819
 8554SOL    HW137298   4.530   2.848   5.204  0.2460 -1.2690 -1.2842
 8554SOL    HW237299   4.551   2.703   5.242  0.6367 -0.3699  2.7536
 8555SOL     OW37300   4.167   2.590   9.059  0.0358  0.1664  0.0858
 8555SOL    HW137301   4.211   2.537   8.993  1.5363  1.2517  0.2013
 8555SOL    HW237302   4.174   2.525   9.129  0.6487  0.3001  0.1505
 8556SOL     OW37303   1.070   4.164   5.567  0.2121  0.2090  0.6221
 8556SOL    HW137304   1.121   4.133   5.493  0.8160 -1.3431  1.6815
 8556SOL    HW237305   1.125   4.216   5.625  3.3957 -0.6557 -1.6384
 8557SOL     OW37306   4.430   2.807   2.674 -0.5151  0.1133  0.5710
 8557SOL    HW137307   4.474   2.784   2.592 -0.7459 -0.7104  0.6772
 8557SOL    HW237308   4.476   2.753   2.738 -0.0005 -0.8897 -0.6504
 8558SOL     OW37309   1.161   4.623   5.085  0.2171 -0.1156  0.0960
 8558SOL    HW137310   1.247   4.599   5.120  0.2281  0.0496  0.1827
 8558SOL    HW237311   1.127   4.661   5.166  0.5098 -0.1168  0.2182
 8559SOL     OW37312   3.271   2.644   5.389 -0.4862  0.5782 -0.0899
 8559SOL    HW137313   3.358   2.644   5.429  0.2225  1.0613 -1.6029
 8559SOL    HW237314   3.247   2.736   5.397  0.0190  0.4609  2.6143
 8560SOL     OW37315   2.569   2.928   5.208 -1.1087  0.3860  0.3748
 8560SOL    HW137316   2.652   2.896   5.173  0.4142  0.3214  4.0643
 8560SOL    HW237317   2.564   3.020   5.182  0.4626  0.7238  1.3064
 8561SOL     OW37318   1.767   2.409   7.810  0.8685  0.0176 -0.2989
 8561SOL    HW137319   1.743   2.467   7.882  2.3849 -0.5947  0.6924
 8561SOL    HW237320   1.837   2.361   7.853  0.0148 -2.3738 -1.5864
 8562SOL     OW37321   0.051   3.758   4.379 -0.2033  0.2467 -0.7752
 8562SOL    HW137322   0.138   3.720   4.386 -0.5527 -0.4618 -0.2189
 8562SOL    HW237323   0.070   3.822   4.310  0.8176  1.8186  0.9569
 8563SOL     OW37324   1.795   2.872   0.382  0.6980  0.3124  0.1861
 8563SOL    HW137325   1.742   2.884   0.461  0.1203  1.5806 -0.3863
 8563SOL    HW237326   1.874   2.916   0.412  1.6765 -0.2315 -1.5620
 8564SOL     OW37327   2.303   3.780   6.467  0.1070 -0.0970  0.8340
 8564SOL    HW137328   2.335   3.693   6.494  1.0193  0.3913  1.3380
 8564SOL    HW237329   2.278   3.809   6.555  2.7363  0.7334  1.3141
 8565SOL     OW37330   2.811   3.051   0.934  0.1353  0.5102 -0.3859
 8565SOL    HW137331   2.747   3.056   1.004  0.6896 -1.2302  0.2572
 8565SOL    HW237332   2.880   3.005   0.983 -1.1738 -0.6033  0.4048
 8566SOL     OW37333   1.203   4.432   1.351  0.0647 -0.9256  0.4425
 8566SOL    HW137334   1.234   4.456   1.263 -0.4907 -1.7836  0.0056
 8566SOL    HW237335   1.134   4.372   1.323  0.2488 -0.7729 -0.3395
 8567SOL     OW37336   4.052   4.731  16.417  0.1857 -0.2711 -0.1534
 8567SOL    HW137337   4.063   4.641  16.386 -1.3068 -0.8510  1.0138
 8567SOL    HW237338   3.978   4.732  16.477  0.5682  1.8576  0.2630
 8568SOL     OW37339   3.051   3.039   5.833 -0.4847  0.2608 -0.1459
 8568SOL    HW137340   3.051   3.113   5.894  0.7003  1.6070 -1.8171
 8568SOL    HW237341   3.004   2.973   5.885  0.6339  0.3049  0.9111
 8569SOL     OW37342   1.198   1.993   9.693  0.7793  0.1429 -0.4095
 8569SOL    HW137343   1.264   2.061   9.678  1.6378  0.1928  3.6704
 8569SOL    HW237344   1.195   1.945   9.610 -3.9991 -1.2832  0.6233
 8570SOL     OW37345   1.401   3.703   8.864 -0.5032 -0.0224  0.1474
 8570SOL    HW137346   1.367   3.657   8.787 -1.7679  2.3922 -0.7210
 8570SOL    HW237347   1.495   3.692   8.850 -0.3933  1.3340 -0.1358
 8571SOL     OW37348   1.111   1.273  13.912 -0.5901  0.4349  0.0460
 8571SOL    HW137349   1.117   1.320  13.995  2.5866 -2.8848  1.6915
 8571SOL    HW237350   1.017   1.264  13.896 -0.3140  1.0302 -1.8899
 8572SOL     OW37351   1.270   4.573  11.331 -0.1992  0.4236 -0.5362
 8572SOL    HW137352   1.300   4.490  11.293 -0.1220 -0.0667  0.5885
 8572SOL    HW237353   1.175   4.570  11.320 -0.3840  2.1271  0.6313
 8573SOL     OW37354   4.654   3.038   3.315  0.3600  0.1485  0.0939
 8573SOL    HW137355   4.705   2.976   3.367  0.3531  0.0059 -0.0665
 8573SOL    HW237356   4.583   2.977   3.296 -0.0185  0.9147 -0.9350
 8574SOL     OW37357   1.935   0.390   4.561  0.5376  1.0490 -0.2045
 8574SOL    HW137358   1.969   0.301   4.550  0.3565  0.7617  1.5519
 8574SOL    HW237359   1.906   0.391   4.652  1.3365  1.1629  0.0540
 8575SOL     OW37360   4.112   2.288  10.479  0.0974  0.5567  0.0037
 8575SOL    HW137361   4.055   2.216  10.507  0.5305 -0.0347 -0.6494
 8575SOL    HW237362   4.058   2.346  10.426 -0.7735 -0.5784 -0.3550
 8576SOL     OW37363   0.948   4.431   4.838  0.2710 -0.3206 -0.3443
 8576SOL    HW137364   0.970   4.523   4.821  0.3109 -0.2938 -0.1414
 8576SOL    HW237365   0.867   4.444   4.887  1.0188  0.7616  0.6078
 8577SOL     OW37366   2.650   3.162   3.549  0.2860 -0.1227 -0.4183
 8577SOL    HW137367   2.610   3.095   3.604 -1.1933  1.1801  0.0927
 8577SOL    HW237368   2.661   3.234   3.610 -1.8590 -0.8198  0.7974
 8578SOL     OW37369   4.363   0.680   2.852 -0.5774 -0.1302  0.7125
 8578SOL    HW137370   4.313   0.741   2.906 -0.9745  0.8555 -0.7860
 8578SOL    HW237371   4.447   0.724   2.854 -0.7780  0.3041 -0.2041
 8579SOL     OW37372   3.313   4.579   8.726  0.0542 -1.1478  0.1406
 8579SOL    HW137373   3.284   4.550   8.639 -0.5809 -0.4042  0.1016
 8579SOL    HW237374   3.345   4.495   8.757  1.2038 -1.0581 -0.7994
 8580SOL     OW37375   1.661   0.258   6.844  0.2095  0.0937  0.4296
 8580SOL    HW137376   1.630   0.283   6.931 -1.9637 -0.5256 -0.1799
 8580SOL    HW237377   1.756   0.251   6.855  0.3900  0.7297 -0.7934
 8581SOL     OW37378   3.040   2.894  16.580 -0.2560 -1.0327  0.6438
 8581SOL    HW137379   2.955   2.890  16.536  0.0496 -1.9614  0.1325
 8581SOL    HW237380   3.074   2.814  16.539  0.3609 -1.4307  1.9450
 8582SOL     OW37381   0.840   2.677   3.855 -0.0140 -0.7783 -0.6843
 8582SOL    HW137382   0.757   2.691   3.808 -1.6195 -0.4634  2.2394
 8582SOL    HW237383   0.829   2.720   3.940  2.0670 -1.5079 -0.0421
 8583SOL     OW37384   3.659   1.220   8.943 -0.2248  0.2108 -0.4794
 8583SOL    HW137385   3.663   1.311   8.915 -1.7348  0.2956 -0.4499
 8583SOL    HW237386   3.626   1.175   8.866 -0.9753  0.0443 -0.0620
 8584SOL     OW37387   1.959   4.506   9.229  0.2510  0.3013  0.5078
 8584SOL    HW137388   2.002   4.555   9.300 -0.3255  0.2459  0.8933
 8584SOL    HW237389   1.866   4.509   9.252  0.1133 -1.9628  0.1864
 8585SOL     OW37390   0.123   1.155   7.828  0.4264  0.0819  0.0597
 8585SOL    HW137391   0.203   1.105   7.849  0.1157 -0.4924 -0.1179
 8585SOL    HW237392   0.078   1.154   7.912 -0.5104  0.7018 -0.4472
 8586SOL     OW37393   3.429   0.416  13.798 -0.0984  0.4351  0.1531
 8586SOL    HW137394   3.380   0.376  13.869 -1.6948  1.6951 -0.2095
 8586SOL    HW237395   3.362   0.389  13.735 -0.3234 -0.6766  0.8666
 8587SOL     OW37396   3.306   2.846   1.529  0.0821 -0.2702 -0.3398
 8587SOL    HW137397   3.259   2.763   1.532 -1.7532  0.7006 -2.1670
 8587SOL    HW237398   3.312   2.854   1.624 -1.6238  1.9983 -0.4354
 8588SOL     OW37399   4.422   3.837  10.367  0.5260 -0.2496 -0.1077
 8588SOL    HW137400   4.370   3.765  10.401  0.0313  0.2263  0.1522
 8588SOL    HW237401   4.440   3.893  10.443  0.2715 -1.3318  0.7399
 8589SOL     OW37402   4.497   2.768   6.634  0.2298  0.1384  0.6962
 8589SOL    HW137403   4.448   2.848   6.618  1.3431  0.3869 -1.3904
 8589SOL    HW237404   4.533   2.788   6.721 -0.6962 -0.5359  1.2392
 8590SOL     OW37405   0.075   0.766   6.158  0.1758  0.4510  0.0783
 8590SOL    HW137406   0.017   0.771   6.083 -0.8078 -0.6970  0.7561
 8590SOL    HW237407   0.010   0.751   6.227  1.5946 -1.1086  1.0745
 8591SOL     OW37408   2.171   1.754  14.715 -0.4407  0.3322 -0.1683
 8591SOL    HW137409   2.126   1.671  14.699  0.2644 -0.3615  1.3473
 8591SOL    HW237410   2.221   1.734  14.795 -0.4293  1.4698  0.1056
 8592SOL     OW37411   2.548   4.209  16.595 -0.0460 -0.7329  0.3636
 8592SOL    HW137412   2.538   4.304  16.597 -0.6444 -0.7767 -0.7034
 8592SOL    HW237413   2.544   4.192  16.689  0.4408 -0.3132  0.4556
 8593SOL     OW37414   2.182   3.332  14.518  0.0470  0.6487  0.3270
 8593SOL    HW137415   2.258   3.324  14.461  0.1949  0.0145  0.6043
 8593SOL    HW237416   2.149   3.244  14.498  0.3204  1.1598 -2.2754
 8594SOL     OW37417   1.698   0.225  10.783 -0.5137 -0.2253 -0.0646
 8594SOL    HW137418   1.619   0.276  10.764 -0.1217  0.4760  0.1772
 8594SOL    HW237419   1.758   0.284  10.737  0.8006  0.2943  2.3164
 8595SOL     OW37420   2.850   1.507  10.321  0.6366  0.3324  0.0765
 8595SOL    HW137421   2.912   1.475  10.387  1.4491 -1.2772 -1.4702
 8595SOL    HW237422   2.805   1.423  10.313  1.3479 -0.0405 -0.0785
 8596SOL     OW37423   3.362   1.172   6.403 -0.2373 -0.2018  0.3617
 8596SOL    HW137424   3.446   1.167   6.450 -0.9304 -0.2065  1.5915
 8596SOL    HW237425   3.299   1.182   6.475 -1.2647  0.4114 -0.6239
 8597SOL     OW37426   4.177   2.831   4.411  0.0590  0.2732  0.2736
 8597SOL    HW137427   4.132   2.791   4.486 -0.5733 -0.7934 -0.6885
 8597SOL    HW237428   4.224   2.757   4.373 -1.2029  0.3441 -1.3944
 8598SOL     OW37429   4.262   3.882  12.448 -0.2755  0.1792  0.5253
 8598SOL    HW137430   4.265   3.977  12.440 -0.9570  0.2437  0.9969
 8598SOL    HW237431   4.176   3.857  12.413 -0.5053 -0.7861  1.7773
 8599SOL     OW37432   3.871   3.706   2.261  0.0987 -0.4525  0.4062
 8599SOL    HW137433   3.920   3.662   2.330  1.0143 -1.7562 -1.0787
 8599SOL    HW237434   3.869   3.791   2.303  1.4318  0.5154 -1.4780
 8600SOL     OW37435   0.291   3.963  11.449  0.2724 -0.3945 -0.1495
 8600SOL    HW137436   0.325   3.931  11.533  1.3921 -0.8590 -0.7799
 8600SOL    HW237437   0.230   3.890  11.438 -1.4233  0.8901  0.7660
 8601SOL     OW37438   2.376   3.010   4.856 -0.6392  0.6044  0.2848
 8601SOL    HW137439   2.452   3.029   4.911  1.1462 -1.2234 -1.5361
 8601SOL    HW237440   2.381   3.076   4.787  1.9609 -2.3248 -2.3849
 8602SOL     OW37441   0.619   4.165   2.719  0.0725 -0.3982  0.0742
 8602SOL    HW137442   0.705   4.176   2.759  0.0139 -2.4962  0.7964
 8602SOL    HW237443   0.580   4.122   2.795  1.5284 -2.8218 -0.5323
 8603SOL     OW37444   2.343   0.865  15.561  0.1382 -0.0291  0.1800
 8603SOL    HW137445   2.297   0.819  15.491  1.5852  0.0178 -0.8105
 8603SOL    HW237446   2.389   0.796  15.607  1.8294  0.8983 -0.0949
 8604SOL     OW37447   0.482   0.055  14.485 -0.2185 -0.0617 -0.3833
 8604SOL    HW137448   0.420   0.125  14.506  1.7096  1.1294  1.4506
 8604SOL    HW237449   0.432   4.719  14.452 -0.3915 -0.2737  0.3633
 8605SOL     OW37450   1.824   2.055   9.511 -0.2004  0.6183  0.3212
 8605SOL    HW137451   1.881   1.994   9.466 -0.0749  1.9778 -1.3503
 8605SOL    HW237452   1.775   2.079   9.433 -0.1183 -0.5578 -0.0786
 8606SOL     OW37453   4.134   3.629   5.036  0.1751 -0.1523 -0.1552
 8606SOL    HW137454   4.092   3.662   5.115 -0.2956 -3.0084  0.7728
 8606SOL    HW237455   4.217   3.676   5.029 -0.0200 -0.1389 -2.4163
 8607SOL     OW37456   1.115   1.578  10.287  0.2595  0.0577  0.5416
 8607SOL    HW137457   1.160   1.587  10.203 -0.8373 -2.3345 -0.3110
 8607SOL    HW237458   1.081   1.665  10.307 -1.6821 -0.7113  0.5907
 8608SOL     OW37459   3.721   2.484   6.400  0.0258  0.3388  0.3814
 8608SOL    HW137460   3.705   2.465   6.307 -0.8464 -0.5044  0.7055
 8608SOL    HW237461   3.774   2.559   6.375 -2.5152  2.2791  0.8518
 8609SOL     OW37462   3.122   1.009   4.704 -0.3477  0.5427  0.3307
 8609SOL    HW137463   3.154   1.093   4.671 -1.0207  0.6239 -0.1007
 8609SOL    HW237464   3.084   1.041   4.787  0.1200  1.1563  0.3126
 8610SOL     OW37465   2.271   2.904   9.534 -0.3940 -0.2977  0.0280
 8610SOL    HW137466   2.362   2.893   9.507 -0.8382  0.6383 -1.8299
 8610SOL    HW237467   2.230   2.905   9.448  1.1553  0.4977 -0.6898
 8611SOL     OW37468   4.491   1.666   3.293 -0.0313 -0.7094  0.1609
 8611SOL    HW137469   4.472   1.618   3.212  1.7239  0.4044 -0.9114
 8611SOL    HW237470   4.414   1.631   3.338 -0.4911 -0.1203 -0.1637
 8612SOL     OW37471   1.816   3.229   5.870 -0.0767  0.4308  0.2583
 8612SOL    HW137472   1.826   3.193   5.958 -1.5427  0.2834  0.3692
 8612SOL    HW237473   1.908   3.256   5.870 -0.1340  0.6259 -0.9471
 8613SOL     OW37474   4.387   3.620  12.518 -0.2250  0.1765 -0.1426
 8613SOL    HW137475   4.308   3.576  12.486  0.2996  1.3836 -3.0682
 8613SOL    HW237476   4.348   3.707  12.530  0.4559  0.3097  1.2021
 8614SOL     OW37477   1.825   0.893   4.566  0.7027  0.5000 -0.0418
 8614SOL    HW137478   1.863   0.809   4.540 -0.5357 -0.5728  1.6334
 8614SOL    HW237479   1.893   0.926   4.625 -1.8641  0.8400  2.7020
 8615SOL     OW37480   0.698   3.113   2.437 -0.0380 -0.0006  0.6334
 8615SOL    HW137481   0.752   3.147   2.366 -0.6810  2.8609  1.5451
 8615SOL    HW237482   0.647   3.192   2.455 -0.6738  0.4854 -3.1931
 8616SOL     OW37483   1.826   3.931   6.842  1.0719 -0.3966 -0.0777
 8616SOL    HW137484   1.909   3.885   6.853  0.6689  0.0464  4.9005
 8616SOL    HW237485   1.801   3.918   6.934  0.9795  1.1728  0.1227
 8617SOL     OW37486   2.805   0.584   3.600  0.3188 -0.0047  0.0825
 8617SOL    HW137487   2.734   0.526   3.627 -0.9780  1.4883 -0.1162
 8617SOL    HW237488   2.766   0.671   3.603  1.0166  0.3075 -0.0255
 8618SOL     OW37489   4.159   2.132   5.094 -0.1456  0.4005  0.2364
 8618SOL    HW137490   4.079   2.097   5.134 -0.5835 -0.0677 -1.0689
 8618SOL    HW237491   4.141   2.131   5.001  0.9263  1.6179  0.0174
 8619SOL     OW37492   1.049   1.369   9.351  0.4140 -0.2934  0.1102
 8619SOL    HW137493   1.021   1.461   9.348 -0.9772 -0.6957  0.5081
 8619SOL    HW237494   1.128   1.371   9.404  1.0067  1.6265 -0.8140
 8620SOL     OW37495   3.594   3.291   8.564  0.2605 -0.1822 -0.4086
 8620SOL    HW137496   3.665   3.230   8.540 -0.4093 -0.6520 -1.2091
 8620SOL    HW237497   3.539   3.229   8.611 -1.7200 -0.2972 -2.8608
 8621SOL     OW37498   2.930   3.096   8.191  0.3878  0.1927  0.1852
 8621SOL    HW137499   2.972   3.020   8.231  0.5072 -0.6393 -1.5481
 8621SOL    HW237500   2.920   3.151   8.269  0.0401 -1.0094  0.9996
 8622SOL     OW37501   2.188   3.722   4.532  0.3632  0.2430 -0.1225
 8622SOL    HW137502   2.122   3.743   4.466 -0.1072 -0.3858  0.1545
 8622SOL    HW237503   2.152   3.763   4.611 -0.3836  0.2821 -0.4874
 8623SOL     OW37504   1.740   2.586   0.461 -0.4952  0.6535  0.2623
 8623SOL    HW137505   1.702   2.659   0.412  1.6295  0.6722 -1.3690
 8623SOL    HW237506   1.709   2.603   0.550 -0.1765 -1.1332  0.7225
 8624SOL     OW37507   0.248   3.004  17.061 -0.6839 -0.6339 -0.1004
 8624SOL    HW137508   0.228   3.093  17.089  1.3806 -0.2305  0.0863
 8624SOL    HW237509   0.339   3.008  17.089 -0.9194  0.9808  0.4315
 8625SOL     OW37510   1.954   2.426  15.281  0.0453  0.0612 -0.4760
 8625SOL    HW137511   1.954   2.506  15.334 -0.0252  0.1397 -0.5921
 8625SOL    HW237512   1.872   2.431  15.231 -0.6593 -3.0549  0.3888
 8626SOL     OW37513   1.523   0.121   1.853 -0.2225  0.4462 -0.3197
 8626SOL    HW137514   1.571   0.042   1.878 -0.6431 -0.4054 -2.2262
 8626SOL    HW237515   1.444   0.083   1.816 -0.8237  0.0060  1.4070
 8627SOL     OW37516   3.868   4.330   8.277  0.4255 -0.0485  0.1975
 8627SOL    HW137517   3.805   4.287   8.336  0.5189  0.8455  0.9433
 8627SOL    HW237518   3.824   4.322   8.192 -0.7560 -0.9514  0.8746
 8628SOL     OW37519   1.385   4.549  12.793  0.1981 -0.3786 -0.1751
 8628SOL    HW137520   1.404   4.505  12.710  2.2917 -0.2681  0.2469
 8628SOL    HW237521   1.451   4.503  12.845  0.1282 -0.1384  0.1264
 8629SOL     OW37522   1.817   2.182   2.929  0.0211 -0.3196 -0.0181
 8629SOL    HW137523   1.810   2.252   2.865  0.7851 -0.8310 -0.6532
 8629SOL    HW237524   1.741   2.204   2.984 -0.1597 -1.5424  0.2249
 8630SOL     OW37525   3.635   3.647  10.606 -0.1850  0.3876 -0.2177
 8630SOL    HW137526   3.693   3.612  10.673 -1.5603 -0.5588  0.4583
 8630SOL    HW237527   3.694   3.682  10.539  0.7447  1.6342  1.2479
 8631SOL     OW37528   3.748   4.269   2.388  0.2921  0.6353 -0.3070
 8631SOL    HW137529   3.812   4.247   2.321 -0.8719 -0.7063 -0.9824
 8631SOL    HW237530   3.716   4.353   2.352 -0.2554  0.5176 -0.1012
 8632SOL     OW37531   3.356   3.962   4.771  0.1866  0.3568 -0.1876
 8632SOL    HW137532   3.399   3.938   4.688  4.4397 -1.0953  2.4045
 8632SOL    HW237533   3.371   4.056   4.777 -0.1230  0.4480 -0.7695
 8633SOL     OW37534   2.704   2.082   8.406  0.1801  0.9221 -0.3628
 8633SOL    HW137535   2.787   2.041   8.383 -0.6115  0.2817 -2.1380
 8633SOL    HW237536   2.662   2.011   8.456  0.6687  0.8690 -0.0286
 8634SOL     OW37537   1.959   1.369   4.378 -0.2311  0.5837  0.2441
 8634SOL    HW137538   1.901   1.444   4.367 -1.0949  0.0118  0.8442
 8634SOL    HW237539   1.969   1.388   4.471  0.3474  3.4037 -0.4109
 8635SOL     OW37540   1.752   0.894   7.088  0.0055  0.1189 -0.1646
 8635SOL    HW137541   1.656   0.886   7.082 -0.0410 -0.2080  1.0436
 8635SOL    HW237542   1.782   0.817   7.136 -1.0343  1.2448  2.2821
 8636SOL     OW37543   1.842   3.163   4.593 -0.2678 -0.2512  0.3644
 8636SOL    HW137544   1.835   3.075   4.629 -0.0262  0.1048  1.2888
 8636SOL    HW237545   1.757   3.202   4.615 -0.1665 -1.6571  3.1894
 8637SOL     OW37546   3.752   3.265   4.871  0.3211  0.1435 -0.1708
 8637SOL    HW137547   3.679   3.211   4.901  0.7302 -1.6495 -2.4300
 8637SOL    HW237548   3.718   3.306   4.792  0.0616  1.3260  0.5561
 8638SOL     OW37549   0.205   0.837   2.983 -0.4625  0.1864 -0.3863
 8638SOL    HW137550   0.134   0.881   3.031 -0.7385  0.7038 -1.2580
 8638SOL    HW237551   0.182   0.853   2.892 -0.9436  0.4068 -0.2305
 8639SOL     OW37552   1.857   1.923  10.239  0.4529 -0.2895  0.1587
 8639SOL    HW137553   1.796   1.855  10.211  0.1482 -0.2388  0.7131
 8639SOL    HW237554   1.808   2.005  10.227  3.3401  1.0845 -2.2800
 8640SOL     OW37555   3.098   4.195   9.906 -0.2609  0.2158 -0.2601
 8640SOL    HW137556   3.026   4.233   9.957 -0.1673 -1.7754  1.3408
 8640SOL    HW237557   3.140   4.150   9.979 -0.3099 -0.4077 -0.6226
 8641SOL     OW37558   3.875   1.176   3.562  0.3455 -0.1687  0.0960
 8641SOL    HW137559   3.817   1.115   3.607 -0.4355 -0.1706 -0.9102
 8641SOL    HW237560   3.929   1.105   3.527  2.1541  1.0697  0.3702
 8642SOL     OW37561   2.013   0.929   9.138 -0.5703 -0.1893 -0.9836
 8642SOL    HW137562   2.041   0.964   9.053 -1.3632  3.6590  0.3265
 8642SOL    HW237563   1.980   0.846   9.104 -1.2518 -0.4535  0.3436
 8643SOL     OW37564   4.238   0.255   1.794  0.2600 -0.0133  0.2777
 8643SOL    HW137565   4.174   0.255   1.865 -0.1063  3.2611 -0.0153
 8643SOL    HW237566   4.324   0.270   1.834 -0.5660  0.2466  1.9279
 8644SOL     OW37567   1.093   0.248   2.579 -0.0669  0.0398  0.2259
 8644SOL    HW137568   1.031   0.280   2.645 -0.1759  2.2532 -0.9617
 8644SOL    HW237569   1.032   0.263   2.507 -1.2780  2.4528  1.7469
 8645SOL     OW37570   1.252   4.735   7.308 -0.8319  0.1326  0.5467
 8645SOL    HW137571   1.315   4.675   7.347  0.7475 -0.2178 -2.5075
 8645SOL    HW237572   1.198   0.032   7.379  1.2570  0.2388  2.0740
 8646SOL     OW37573   3.550   0.547   8.383  0.1169  0.3375  0.8587
 8646SOL    HW137574   3.545   0.543   8.287  2.2331  0.8799  0.7211
 8646SOL    HW237575   3.514   0.461   8.405 -2.3898  1.2444  0.3078
 8647SOL     OW37576   3.630   1.925   5.857  0.2420 -0.0792  0.0008
 8647SOL    HW137577   3.617   2.017   5.877 -1.4880  0.1650 -2.2473
 8647SOL    HW237578   3.710   1.931   5.805  0.4763 -1.2784  0.2061
 8648SOL     OW37579   2.521   2.562  12.597  0.4154  1.0328  0.4687
 8648SOL    HW137580   2.613   2.535  12.593  0.2551  0.1719  2.6316
 8648SOL    HW237581   2.488   2.485  12.643 -1.2125  0.7842 -1.1504
 8649SOL     OW37582   1.955   3.345  13.344 -0.2288  0.2585  0.0534
 8649SOL    HW137583   1.990   3.334  13.256 -0.1858  0.3524  0.0593
 8649SOL    HW237584   1.971   3.436  13.368  3.4313 -0.4140  0.1945
 8650SOL     OW37585   0.159   4.116  10.304  0.3917 -0.5483  0.3233
 8650SOL    HW137586   0.197   4.050  10.362 -1.0165 -2.4985 -0.9260
 8650SOL    HW237587   0.097   4.162  10.360  1.7472  0.3396  1.0921
 8651SOL     OW37588   4.010   2.780   8.163 -0.4353 -0.2782  0.4271
 8651SOL    HW137589   4.093   2.781   8.210 -0.7344 -0.0221  0.9453
 8651SOL    HW237590   3.999   2.867   8.125 -3.0554 -0.4865  0.6995
 8652SOL     OW37591   3.550   1.950   3.983  0.0222  0.2575  0.4335
 8652SOL    HW137592   3.561   1.900   3.902  0.2103 -0.9581  1.2081
 8652SOL    HW237593   3.630   1.943   4.036  1.1883 -1.8039 -1.5894
 8653SOL     OW37594   2.913   0.622  10.630  0.4320  0.0398 -0.5509
 8653SOL    HW137595   3.002   0.618  10.666  0.4459  1.5256 -0.4141
 8653SOL    HW237596   2.919   0.611  10.535  1.7185  2.2783 -0.7262
 8654SOL     OW37597   2.039   1.800   2.707 -0.4396 -0.9336  0.0926
 8654SOL    HW137598   1.951   1.765   2.694 -1.0928 -0.1964  2.5030
 8654SOL    HW237599   2.023   1.874   2.766  0.9143 -1.6524  1.3610
 8655SOL     OW37600   0.562   2.972   6.612  0.3285 -0.3950  0.8071
 8655SOL    HW137601   0.580   2.878   6.606  0.7941 -0.2462 -0.1407
 8655SOL    HW237602   0.638   2.987   6.669  1.6325  1.7553 -1.5084
 8656SOL     OW37603   1.783   0.341   3.653 -0.3781  0.0165  0.1584
 8656SOL    HW137604   1.743   0.425   3.630 -2.2087 -1.3689 -1.6279
 8656SOL    HW237605   1.860   0.372   3.700 -1.0700  0.9379  0.6985
 8657SOL     OW37606   1.160   4.096   6.135  0.1062  0.3831 -0.4317
 8657SOL    HW137607   1.249   4.114   6.106  0.2676  2.2920  1.2470
 8657SOL    HW237608   1.107   4.120   6.058  1.0905 -1.3302 -1.6471
 8658SOL     OW37609   4.395   1.366   5.891 -0.1650  0.5248  0.3894
 8658SOL    HW137610   4.421   1.315   5.814  0.0221  3.1138 -1.2566
 8658SOL    HW237611   4.360   1.440   5.843 -0.0391 -1.3100 -2.5075
 8659SOL     OW37612   0.830   1.483   9.192 -0.0474 -0.1749 -0.3208
 8659SOL    HW137613   0.805   1.439   9.273 -1.5254 -2.5361 -2.0908
 8659SOL    HW237614   0.755   1.467   9.135 -0.8001  1.8235  0.0910
 8660SOL     OW37615   2.579   2.726   1.907 -0.3739 -0.2386 -0.0109
 8660SOL    HW137616   2.484   2.734   1.917 -0.4537 -1.7452  0.4101
 8660SOL    HW237617   2.607   2.810   1.871  0.3123  0.3113  1.8248
 8661SOL     OW37618   0.009   1.928   5.364  0.2417 -0.5707  0.3909
 8661SOL    HW137619   0.030   1.837   5.384 -1.2963 -0.7215  1.3459
 8661SOL    HW237620   4.664   1.916   5.319  0.4336  1.9927 -0.6090
 8662SOL     OW37621   3.125   0.991   3.677  0.1017  0.3510  0.3152
 8662SOL    HW137622   3.193   0.925   3.676 -0.3608 -0.1103 -0.9185
 8662SOL    HW237623   3.136   1.031   3.590  2.1997 -0.7844  0.0660
 8663SOL     OW37624   0.989   2.136   7.267  0.2700 -0.0447 -0.4403
 8663SOL    HW137625   1.058   2.189   7.228 -1.0267  2.6214  0.9360
 8663SOL    HW237626   0.956   2.088   7.190 -1.4540  1.9360 -0.9269
 8664SOL     OW37627   0.812   3.644  12.127 -0.0078 -0.7419 -0.4231
 8664SOL    HW137628   0.815   3.548  12.128 -1.2384 -0.7794  0.0912
 8664SOL    HW237629   0.893   3.668  12.171 -0.3267 -0.6526  0.1121
 8665SOL     OW37630   2.352   0.400  16.910 -0.3939 -0.0508  0.5154
 8665SOL    HW137631   2.358   0.481  16.960 -1.0634  0.6003 -0.4401
 8665SOL    HW237632   2.267   0.367  16.938 -1.9329  0.8117 -3.0180
 8666SOL     OW37633   2.479   1.223   8.686 -0.4129  0.2076 -0.1325
 8666SOL    HW137634   2.478   1.296   8.623  0.4634  0.7035  0.4229
 8666SOL    HW237635   2.568   1.193   8.667 -0.0043  3.1762 -3.0563
 8667SOL     OW37636   0.232   2.117   7.576  0.5502  0.4350  0.4620
 8667SOL    HW137637   0.247   2.195   7.523 -1.2429  0.5049  0.0874
 8667SOL    HW237638   0.268   2.051   7.517  2.2804  1.0387  0.8103
 8668SOL     OW37639   1.092   3.554  14.606 -0.5882 -0.3227 -0.1429
 8668SOL    HW137640   1.138   3.498  14.543  1.9275  0.0965  1.3176
 8668SOL    HW237641   1.008   3.509  14.613 -0.5527 -0.2780  0.6492
 8669SOL     OW37642   4.552   2.678   5.875  0.0979 -0.3128 -0.1198
 8669SOL    HW137643   4.506   2.740   5.819  0.6438 -0.3203 -0.5777
 8669SOL    HW237644   4.592   2.616   5.813 -0.4315  0.6708 -1.4377
 8670SOL     OW37645   0.941   3.991   2.289  0.5792 -0.1124  0.7321
 8670SOL    HW137646   1.025   4.015   2.248  0.5581 -0.3810  0.5299
 8670SOL    HW237647   0.946   4.038   2.373  0.7011 -1.0675  1.2528
 8671SOL     OW37648   0.776   0.613   7.733 -0.2962 -0.5524 -0.3482
 8671SOL    HW137649   0.839   0.662   7.680 -1.9234  1.5653 -0.3105
 8671SOL    HW237650   0.790   0.526   7.694  0.7347 -0.2452 -0.6708
 8672SOL     OW37651   0.254   1.085  14.667 -0.3847 -0.2261  0.0411
 8672SOL    HW137652   0.281   1.112  14.580  1.2140  1.2898  1.0064
 8672SOL    HW237653   0.283   1.163  14.714  2.2158 -0.0178 -1.9071
 8673SOL     OW37654   2.629   4.685   2.740 -0.2294  0.2585  0.3263
 8673SOL    HW137655   2.564   4.617   2.726 -1.6306  1.6781 -0.0171
 8673SOL    HW237656   2.645   4.714   2.651  1.3377 -1.6960 -0.0501
 8674SOL     OW37657   3.963   1.189   3.108 -0.6481  0.4784 -0.2574
 8674SOL    HW137658   3.891   1.243   3.141 -0.8154  1.3035 -1.9769
 8674SOL    HW237659   4.023   1.253   3.071  0.4382 -0.0170  0.6598
 8675SOL     OW37660   3.060   2.140   8.956  0.4027  0.9856  0.6846
 8675SOL    HW137661   3.087   2.071   8.896 -0.8912  1.5577 -0.5540
 8675SOL    HW237662   2.967   2.122   8.943  0.5501  0.8382 -0.1270
 8676SOL     OW37663   0.348   0.758   8.026 -0.3428  0.3710 -0.2207
 8676SOL    HW137664   0.347   0.702   7.949  0.3411 -2.0737  1.5714
 8676SOL    HW237665   0.377   0.705   8.100 -1.3000 -1.1819 -0.9635
 8677SOL     OW37666   4.065   0.687   4.070  0.1423  0.0215 -0.0243
 8677SOL    HW137667   4.071   0.664   4.162 -0.9207 -1.6740 -0.3739
 8677SOL    HW237668   4.149   0.670   4.026 -0.2787 -0.9032 -0.4605
 8678SOL     OW37669   3.277   1.593   7.230 -0.1085 -0.5728  0.2138
 8678SOL    HW137670   3.357   1.645   7.237 -0.5021  0.3122 -1.9807
 8678SOL    HW237671   3.251   1.615   7.141 -1.3251  4.5733  1.7988
 8679SOL     OW37672   1.646   2.763   0.173  0.8226  0.2873 -0.6372
 8679SOL    HW137673   1.569   2.780   0.228  1.4177  0.8079  0.0332
 8679SOL    HW237674   1.704   2.806   0.236  0.0764  1.2014 -0.5597
 8680SOL     OW37675   0.837   0.198   6.828 -0.3251  0.1191 -0.1682
 8680SOL    HW137676   0.806   0.250   6.902 -0.6566 -1.9424  1.1448
 8680SOL    HW237677   0.921   0.163   6.858 -1.3226 -2.6349 -0.5732
 8681SOL     OW37678   1.355   1.606  12.365  0.1846 -0.7815  0.0179
 8681SOL    HW137679   1.376   1.525  12.412  2.9148 -1.2736 -2.1120
 8681SOL    HW237680   1.442   1.622  12.329  0.3452 -2.3282 -0.2844
 8682SOL     OW37681   3.642   1.445   1.588  0.2285 -0.3566  0.2896
 8682SOL    HW137682   3.568   1.506   1.585  1.0207  0.4354 -2.8554
 8682SOL    HW237683   3.704   1.476   1.522 -1.7783  2.0173 -0.4991
 8683SOL     OW37684   3.513   4.059   5.699  0.6514 -0.0137  0.5059
 8683SOL    HW137685   3.589   4.067   5.641 -0.2387 -2.6712 -1.0046
 8683SOL    HW237686   3.552   4.033   5.782 -2.1322 -1.9519  1.1704
 8684SOL     OW37687   3.631   4.523   5.005  0.5113  0.0749 -0.4029
 8684SOL    HW137688   3.630   4.457   5.074  1.4187 -0.4457 -0.8997
 8684SOL    HW237689   3.674   4.472   4.937  1.0030 -0.3176  0.1966
 8685SOL     OW37690   1.750   2.016   8.985  0.1805 -0.3625 -0.2278
 8685SOL    HW137691   1.717   1.936   9.026 -0.2569 -1.1342 -2.0786
 8685SOL    HW237692   1.726   1.995   8.895  1.3294 -0.2103 -0.5655
 8686SOL     OW37693   1.080   4.482   6.907  0.5221  0.3270 -0.1697
 8686SOL    HW137694   1.001   4.493   6.960  0.4299 -2.0287  0.1708
 8686SOL    HW237695   1.151   4.519   6.960 -1.3120  3.9596 -0.2789
 8687SOL     OW37696   1.821   1.581  10.407  0.3752 -0.1932 -0.1706
 8687SOL    HW137697   1.910   1.607  10.432  0.4380 -0.4830 -0.0957
 8687SOL    HW237698   1.838   1.507  10.349  0.5736 -1.3059  1.3065
 8688SOL     OW37699   2.401   4.435  13.920 -0.8011  0.5009 -0.1509
 8688SOL    HW137700   2.456   4.485  13.860  0.4006  0.9168  1.2991
 8688SOL    HW237701   2.427   4.468  14.006 -1.2827  0.5536 -0.0248
 8689SOL     OW37702   0.019   1.428   2.638  0.5343  0.4701  0.2005
 8689SOL    HW137703   0.042   1.517   2.612  0.3898  0.8422  1.3684
 8689SOL    HW237704   0.061   1.375   2.570 -1.5698  2.2454 -2.5153
 8690SOL     OW37705   4.452   3.920   5.200  0.1394  0.5355 -1.2064
 8690SOL    HW137706   4.427   3.897   5.290  0.3220  0.9714 -1.0419
 8690SOL    HW237707   4.515   3.991   5.213 -0.9282  1.5016 -1.3624
 8691SOL     OW37708   0.179   0.038   6.328  0.0615 -0.2871 -0.0608
 8691SOL    HW137709   0.089   0.072   6.327  0.4961  0.8648  0.9226
 8691SOL    HW237710   0.159   4.702   6.270 -3.1652 -0.8930  1.8038
 8692SOL     OW37711   2.344   3.317   6.608  0.5380 -0.1897 -0.1693
 8692SOL    HW137712   2.304   3.281   6.687 -0.0038  2.5677  0.8100
 8692SOL    HW237713   2.346   3.236   6.557  1.1624 -0.8708  0.9362
 8693SOL     OW37714   0.739   1.042  16.397 -0.3455 -0.5376  0.2652
 8693SOL    HW137715   0.656   1.004  16.369 -0.3830  0.8818 -1.5169
 8693SOL    HW237716   0.802   0.984  16.353 -0.6822 -2.2485  2.0401
 8694SOL     OW37717   4.298   0.424   7.195  0.1335 -0.2363  0.1716
 8694SOL    HW137718   4.391   0.444   7.196 -0.5244  2.8094 -0.6556
 8694SOL    HW237719   4.272   0.422   7.103 -2.2448  1.1010  0.8010
 8695SOL     OW37720   2.228   3.222   7.485 -0.2294 -0.5087  0.3733
 8695SOL    HW137721   2.158   3.229   7.421 -1.5148 -1.8382  1.6182
 8695SOL    HW237722   2.230   3.313   7.515  1.9397 -0.6341  0.6338
 8696SOL     OW37723   1.395   2.421   9.395 -0.2187  0.2195  0.6241
 8696SOL    HW137724   1.435   2.414   9.482 -0.0027 -1.5965  0.3768
 8696SOL    HW237725   1.474   2.424   9.341 -2.0203  0.3139 -1.9496
 8697SOL     OW37726   4.160   2.984   6.847  0.3929  0.3258 -0.6837
 8697SOL    HW137727   4.222   2.935   6.903  0.9498  1.3175 -0.4270
 8697SOL    HW237728   4.221   3.003   6.776 -0.1110  1.1594 -0.8920
 8698SOL     OW37729   1.730   2.777  16.223 -0.1214  0.0330  0.9495
 8698SOL    HW137730   1.783   2.697  16.219  1.6953  1.2898  0.0911
 8698SOL    HW237731   1.796   2.845  16.241  0.3277 -0.7374  2.2773
 8699SOL     OW37732   0.097   2.270   2.437  0.1633 -0.4325  0.0700
 8699SOL    HW137733   0.071   2.183   2.468  0.4247  1.4440  5.5397
 8699SOL    HW237734   0.173   2.288   2.493  1.2925 -1.0481 -1.2681
 8700SOL     OW37735   2.951   3.945  16.849  0.3573  0.1045  0.4736
 8700SOL    HW137736   2.941   3.876  16.784  0.3142 -0.0963  0.6942
 8700SOL    HW237737   2.986   4.015  16.794  0.8597 -1.0922 -0.7231
 8701SOL     OW37738   2.225   4.377   6.446  0.0628 -0.3864 -0.0721
 8701SOL    HW137739   2.294   4.433   6.412 -0.0927 -1.1122 -1.5714
 8701SOL    HW237740   2.144   4.427   6.435  1.3195  1.2362 -1.8737
 8702SOL     OW37741   4.483   1.478   8.141  0.0323  0.2094 -0.3633
 8702SOL    HW137742   4.566   1.456   8.099 -0.2829 -1.4536 -0.1296
 8702SOL    HW237743   4.481   1.573   8.128  0.3109  0.3866  0.9541
 8703SOL     OW37744   3.877   3.287  12.144 -0.0591 -0.0881 -0.2996
 8703SOL    HW137745   3.829   3.207  12.164 -0.6469  0.5212  0.7071
 8703SOL    HW237746   3.860   3.302  12.051 -2.4825  2.0584  0.5050
 8704SOL     OW37747   1.256   2.522   7.765  0.9015  0.3328  0.4935
 8704SOL    HW137748   1.244   2.519   7.860 -0.7506 -2.3918  0.2018
 8704SOL    HW237749   1.335   2.575   7.755  0.6818  0.0944 -2.5043
 8705SOL     OW37750   3.161   1.145   1.718  0.8195 -0.6116  0.2954
 8705SOL    HW137751   3.079   1.194   1.726  1.4828  0.3502  1.2466
 8705SOL    HW237752   3.218   1.221   1.731 -0.1971 -0.1971  2.3219
 8706SOL     OW37753   2.008   3.522   8.028 -0.2297 -0.4546 -0.3528
 8706SOL    HW137754   1.991   3.602   7.978  1.7456 -0.8751 -1.7116
 8706SOL    HW237755   2.094   3.499   7.992  0.0005  0.2444 -0.2614
 8707SOL     OW37756   0.707   0.683   4.158  0.3760 -0.1372  0.1219
 8707SOL    HW137757   0.788   0.670   4.207  2.0464  0.4390 -2.4877
 8707SOL    HW237758   0.729   0.753   4.096  1.2724  0.5191  1.1731
 8708SOL     OW37759   1.197   1.748   7.345 -0.5529 -0.3435  0.3939
 8708SOL    HW137760   1.113   1.761   7.388 -1.1842  1.8892 -1.5128
 8708SOL    HW237761   1.186   1.656   7.318  0.0474 -0.2477 -0.2036
 8709SOL     OW37762   0.680   4.511   7.447  0.3348 -0.0784 -0.1062
 8709SOL    HW137763   0.717   4.424   7.464 -0.4868 -0.4750 -0.3385
 8709SOL    HW237764   0.626   4.508   7.369  0.0251  3.7923 -0.0110
 8710SOL     OW37765   0.995   4.073   6.354  0.3292 -0.0825 -0.5769
 8710SOL    HW137766   1.061   4.047   6.289  2.6102 -0.4416  1.8672
 8710SOL    HW237767   1.036   4.152   6.387 -1.6926  1.1423 -0.9892
 8711SOL     OW37768   0.625   1.655  13.267 -0.4365 -0.0910 -0.3931
 8711SOL    HW137769   0.675   1.658  13.186  0.6052 -0.1787  0.2475
 8711SOL    HW237770   0.698   1.662  13.329  1.5468  0.0900 -2.7494
 8712SOL     OW37771   0.406   4.399   6.679  0.2615  0.4791 -0.2376
 8712SOL    HW137772   0.377   4.460   6.610  1.2076  0.9331 -0.2300
 8712SOL    HW237773   0.493   4.372   6.652 -0.1216 -0.2325 -0.7583
 8713SOL     OW37774   2.099   1.637   4.054  0.2792 -0.4261 -0.5649
 8713SOL    HW137775   2.005   1.622   4.067  0.2090  1.2547  0.8001
 8713SOL    HW237776   2.134   1.586   4.126 -0.1888  0.5921  0.3818
 8714SOL     OW37777   1.823   1.441  11.625 -0.2917  0.4708 -0.0314
 8714SOL    HW137778   1.842   1.370  11.565  1.0796 -1.1791  2.3572
 8714SOL    HW237779   1.903   1.492  11.611 -0.2410 -0.0924 -1.6956
 8715SOL     OW37780   2.790   3.448  17.085 -0.3220  0.0600 -0.9448
 8715SOL    HW137781   2.707   3.457  17.132 -0.4410  0.4788 -1.2334
 8715SOL    HW237782   2.829   3.534  17.095  0.5207 -0.4239 -0.1059
 8716SOL     OW37783   3.838   0.180   5.117  0.2719 -0.2012  0.2240
 8716SOL    HW137784   3.919   0.229   5.101  0.5670  0.2100  2.9837
 8716SOL    HW237785   3.787   0.238   5.173  0.5367 -0.8336  1.1228
 8717SOL     OW37786   3.122   3.995   7.183  0.7812 -0.2931 -0.1374
 8717SOL    HW137787   3.057   4.063   7.162  0.8835 -0.9244 -2.4644
 8717SOL    HW237788   3.060   3.926   7.207  1.4731 -0.4512  1.2103
 8718SOL     OW37789   1.745   2.848   3.714 -0.7031  0.1860  0.0494
 8718SOL    HW137790   1.739   2.815   3.804 -0.3997  0.6127  0.2300
 8718SOL    HW237791   1.827   2.897   3.717 -2.3378  2.8967  1.5545
 8719SOL     OW37792   0.868   2.715   2.524  0.5458 -0.4665 -0.0711
 8719SOL    HW137793   0.853   2.755   2.610  1.5370  0.8424 -0.5213
 8719SOL    HW237794   0.961   2.736   2.519  0.6791 -1.0236  0.0438
 8720SOL     OW37795   1.289   0.087   4.836 -0.7516 -0.0573 -0.5466
 8720SOL    HW137796   1.368   0.083   4.889 -0.3066 -2.3667 -1.4090
 8720SOL    HW237797   1.314   0.168   4.792  0.6109  0.0890  0.5060
 8721SOL     OW37798   2.698   1.520   5.095  0.4259 -0.0078  0.1428
 8721SOL    HW137799   2.672   1.605   5.131  0.9440  0.1799  0.0834
 8721SOL    HW237800   2.793   1.529   5.082  0.4302 -0.3365 -0.0525
 8722SOL     OW37801   0.778   4.547   1.784 -0.3642  0.1774 -0.2845
 8722SOL    HW137802   0.762   4.575   1.875 -0.7852  1.0037 -0.6095
 8722SOL    HW237803   0.853   4.603   1.764 -2.4085  1.9109 -3.0968
 8723SOL     OW37804   3.890   4.406  17.468  0.5959 -0.2137 -0.6434
 8723SOL    HW137805   3.929   4.440  17.548  1.3052 -0.0475 -1.0570
 8723SOL    HW237806   3.944   4.446  17.400  1.6275  0.9060  0.8301
 8724SOL     OW37807   0.265   0.406   6.748 -0.1403  0.1033  0.0192
 8724SOL    HW137808   0.196   0.457   6.791 -0.2145 -0.5131  0.6339
 8724SOL    HW237809   0.340   0.460   6.775 -0.3253  0.0600  0.6137
 8725SOL     OW37810   4.528   4.419   7.367 -0.0627 -0.5375  0.6002
 8725SOL    HW137811   4.534   4.340   7.422 -2.8564 -0.1475  1.4659
 8725SOL    HW237812   4.495   4.486   7.427  0.2484 -0.9647  1.2587
 8726SOL     OW37813   2.131   1.137  13.920  0.1577  0.3356  0.3223
 8726SOL    HW137814   2.099   1.135  13.830  2.2526  0.5296 -0.4339
 8726SOL    HW237815   2.201   1.073  13.908  1.0042  1.8652 -2.7589
 8727SOL     OW37816   2.666   3.426   5.604 -0.3467 -0.1027  0.5527
 8727SOL    HW137817   2.708   3.376   5.534  0.2245  0.2323  0.6636
 8727SOL    HW237818   2.637   3.508   5.564 -3.3944 -1.0933  0.7263
 8728SOL     OW37819   3.621   3.971   8.917  0.1392 -0.9512 -0.4863
 8728SOL    HW137820   3.595   3.987   9.008  0.7011 -2.6354 -0.0145
 8728SOL    HW237821   3.708   3.933   8.930 -0.3235 -1.4459  1.1974
 8729SOL     OW37822   2.143   3.303  11.097 -0.3541 -0.7625 -0.1751
 8729SOL    HW137823   2.071   3.241  11.085  0.6661 -1.8262 -0.6885
 8729SOL    HW237824   2.191   3.297  11.015  0.3165  1.5706  0.0494
 8730SOL     OW37825   0.588   3.042   5.700 -0.0665 -0.3131  0.9431
 8730SOL    HW137826   0.607   3.135   5.688 -0.5022 -0.6178 -2.2230
 8730SOL    HW237827   0.676   3.003   5.702 -0.0316 -0.4276 -2.1215
 8731SOL     OW37828   0.028   4.677   7.244  0.0497 -0.1912 -0.4683
 8731SOL    HW137829   0.032   4.704   7.336  0.8070  0.5786 -0.7205
 8731SOL    HW237830   0.014   0.023   7.201 -0.6463 -1.2750 -2.3245
 8732SOL     OW37831   2.834   2.046   4.745 -0.5128  0.3062 -0.2196
 8732SOL    HW137832   2.801   2.127   4.784  1.8309  1.4304 -0.5570
 8732SOL    HW237833   2.849   2.078   4.656 -2.2013 -1.4053 -1.1188
 8733SOL     OW37834   3.983   3.762  11.979  0.5465 -0.0655  0.2048
 8733SOL    HW137835   3.911   3.824  11.991  1.6476  1.2917 -0.1148
 8733SOL    HW237836   3.929   3.684  11.969 -1.8003  1.8868 -2.3363
 8734SOL     OW37837   1.289   4.642   4.184 -0.1742 -0.0100  0.2197
 8734SOL    HW137838   1.286   4.559   4.135  1.1936 -0.6085  1.1591
 8734SOL    HW237839   1.360   4.624   4.246  1.2654  2.7335 -0.6324
 8735SOL     OW37840   2.249   0.571   5.319  0.1213 -0.2548 -0.4596
 8735SOL    HW137841   2.297   0.490   5.299 -0.9417 -0.8016 -0.7996
 8735SOL    HW237842   2.172   0.558   5.263 -2.0605 -2.1318  2.9925
 8736SOL     OW37843   0.230   2.272   7.131  0.0384  0.4118  0.7292
 8736SOL    HW137844   0.188   2.324   7.062 -1.5061 -2.6858 -0.6640
 8736SOL    HW237845   0.320   2.301   7.119 -0.2149  0.8567 -0.1211
 8737SOL     OW37846   0.664   0.619  15.625  0.3191  0.3297 -0.4249
 8737SOL    HW137847   0.572   0.642  15.632  0.2311 -0.0309 -0.4069
 8737SOL    HW237848   0.665   0.532  15.663  0.5176  1.1349  1.4123
 8738SOL     OW37849   1.314   0.852   2.330 -0.3522 -0.1305  0.1016
 8738SOL    HW137850   1.266   0.768   2.332  0.4630 -0.6098 -0.5861
 8738SOL    HW237851   1.402   0.824   2.354 -1.3975 -1.7721  2.0512
 8739SOL     OW37852   2.090   3.423  17.306  0.4662  0.1487  0.2834
 8739SOL    HW137853   2.063   3.513  17.324 -1.3155 -0.5133  0.9254
 8739SOL    HW237854   2.176   3.424  17.347 -0.3643  1.5542  1.9723
 8740SOL     OW37855   4.094   0.668   7.206  0.1560  0.2316  0.2832
 8740SOL    HW137856   4.067   0.684   7.296  0.5211 -0.9787  0.6097
 8740SOL    HW237857   4.061   0.747   7.163 -4.2755 -1.4409  0.6201
 8741SOL     OW37858   0.305   2.210   4.113  0.3277 -0.4876 -0.5878
 8741SOL    HW137859   0.299   2.139   4.050 -0.0571 -0.2100 -0.8619
 8741SOL    HW237860   0.216   2.214   4.148 -0.3319 -0.3688 -2.3055
 8742SOL     OW37861   1.031   4.231   1.237  0.0211  0.0799 -0.3818
 8742SOL    HW137862   1.059   4.246   1.147  3.1208  1.1318  0.7886
 8742SOL    HW237863   0.936   4.244   1.237  0.0253  0.1620  3.2527
 8743SOL     OW37864   0.508   1.225  17.596  0.6202 -0.2585  0.7737
 8743SOL    HW137865   0.525   1.151  17.654 -0.6479 -1.2245 -0.0838
 8743SOL    HW237866   0.592   1.269  17.584  0.8119 -0.9277 -0.3231
 8744SOL     OW37867   0.376   1.030   7.834 -0.1797 -0.7122  0.3948
 8744SOL    HW137868   0.395   1.051   7.742  0.2424 -0.7265  0.4788
 8744SOL    HW237869   0.347   0.939   7.837 -0.5079 -0.6126  0.3065
 8745SOL     OW37870   4.238   4.612   2.563  0.3194  0.1656  0.2730
 8745SOL    HW137871   4.259   4.574   2.649  0.6728  2.4366  1.1968
 8745SOL    HW237872   4.187   4.539   2.528  2.3691 -2.4900  2.7925
 8746SOL     OW37873   4.333   0.521  13.477 -0.0054 -0.0233 -0.6579
 8746SOL    HW137874   4.377   0.604  13.462 -2.0021  0.8011 -1.7957
 8746SOL    HW237875   4.254   0.525  13.424 -0.6959 -1.2203  0.2775
 8747SOL     OW37876   2.528   0.338  12.830  0.3105  0.0298 -0.1898
 8747SOL    HW137877   2.480   0.376  12.904  1.1592 -0.5056  0.6461
 8747SOL    HW237878   2.585   0.413  12.815  1.0299 -0.7102 -1.1213
 8748SOL     OW37879   1.464   0.243   3.802  0.0598  0.0434 -0.1465
 8748SOL    HW137880   1.487   0.154   3.775  2.4144 -0.0698  2.3261
 8748SOL    HW237881   1.467   0.277   3.712 -1.2620 -0.1160 -0.2558
 8749SOL     OW37882   4.517   1.311   3.392  1.0640 -0.3239 -0.2933
 8749SOL    HW137883   4.544   1.219   3.391  1.8973 -0.0582 -2.5106
 8749SOL    HW237884   4.469   1.313   3.475 -3.7010  0.0500 -3.0604
 8750SOL     OW37885   2.091   3.042   5.852 -0.1035  0.2805 -0.4569
 8750SOL    HW137886   2.124   3.016   5.938  0.2444  0.4731 -0.5322
 8750SOL    HW237887   2.165   3.019   5.796 -0.2986  0.8198 -0.9356
 8751SOL     OW37888   4.211   0.153   4.012 -0.1309 -0.1921 -0.0917
 8751SOL    HW137889   4.268   0.228   4.029  2.3497 -1.9327 -0.6594
 8751SOL    HW237890   4.246   0.090   4.076  2.7891 -0.4117 -1.9179
 8752SOL     OW37891   1.692   1.857   4.735 -0.3467 -0.0922  0.3775
 8752SOL    HW137892   1.702   1.851   4.830 -0.0795  2.4647  0.5106
 8752SOL    HW237893   1.748   1.786   4.703 -0.7432 -0.0036 -0.5175
 8753SOL     OW37894   0.678   0.007  13.869 -0.1798  0.2059  0.2129
 8753SOL    HW137895   0.683   0.004  13.773  0.7966 -0.0737  0.2686
 8753SOL    HW237896   0.625   0.083  13.891  0.5002  1.2623 -1.7968
 8754SOL     OW37897   4.064   0.227   6.155  0.3230  0.2033  0.1111
 8754SOL    HW137898   4.156   0.251   6.145  0.0445  1.2903  0.1011
 8754SOL    HW237899   4.028   0.264   6.074 -2.1331 -0.1272  1.0714
 8755SOL     OW37900   3.712   1.840   2.866 -0.8344 -0.0732 -0.5586
 8755SOL    HW137901   3.784   1.801   2.818  0.1921  0.0931  0.8326
 8755SOL    HW237902   3.689   1.763   2.918  0.5223 -1.0960 -1.4858
 8756SOL     OW37903   3.332   0.839   3.677  0.4086  0.1795  0.1297
 8756SOL    HW137904   3.405   0.789   3.715 -1.6776 -2.5260  0.5607
 8756SOL    HW237905   3.326   0.795   3.593  0.9927 -1.9975  1.2372
 8757SOL     OW37906   3.629   2.292  11.336  0.0454 -0.3662  0.0362
 8757SOL    HW137907   3.715   2.258  11.311 -0.1375 -2.4003  2.1899
 8757SOL    HW237908   3.659   2.345  11.409  1.5394 -1.2319  0.0636
 8758SOL     OW37909   3.303   2.879   2.367  0.3875 -0.1081 -0.3499
 8758SOL    HW137910   3.213   2.846   2.373  0.0173  1.0212  0.3251
 8758SOL    HW237911   3.298   2.971   2.341 -2.2415  0.2024  1.2489
 8759SOL     OW37912   0.787   3.454  10.027  0.3622  0.3733 -0.2754
 8759SOL    HW137913   0.704   3.435  10.072  0.1869  0.9272 -0.3683
 8759SOL    HW237914   0.788   3.549  10.022 -0.8772  0.4268  0.4132
 8760SOL     OW37915   0.408   1.527  13.341  0.0012  0.5904  0.0638
 8760SOL    HW137916   0.477   1.593  13.337  1.5227 -0.7820  3.4783
 8760SOL    HW237917   0.458   1.447  13.323 -1.4904 -0.5977  1.1867
 8761SOL     OW37918   1.018   0.044   1.510  0.3365 -0.1451 -0.1466
 8761SOL    HW137919   0.929   0.040   1.475 -0.1719 -0.2528  1.1890
 8761SOL    HW237920   1.042   0.137   1.506 -1.2662  0.3215  1.5062
 8762SOL     OW37921   1.146   4.257   8.651 -0.5267 -0.0760 -0.0451
 8762SOL    HW137922   1.208   4.302   8.594 -0.9249  0.0191 -0.4042
 8762SOL    HW237923   1.211   4.254   8.721 -1.2996 -0.9394  0.6457
 8763SOL     OW37924   1.937   3.977   8.849 -0.0708  0.1412  0.3999
 8763SOL    HW137925   1.875   4.039   8.886 -0.7651 -0.3009 -0.0142
 8763SOL    HW237926   1.993   3.948   8.922 -1.0533 -0.0141  1.0879
 8764SOL     OW37927   0.874   1.227   4.569 -0.3956 -0.1796 -0.0764
 8764SOL    HW137928   0.780   1.241   4.579 -0.1087  0.3082  1.9337
 8764SOL    HW237929   0.899   1.244   4.660 -2.9796  2.2673  0.1799
 8765SOL     OW37930   1.960   0.293   8.865 -0.3419 -0.3472  0.3037
 8765SOL    HW137931   1.985   0.385   8.866 -0.0848 -0.4111 -0.0445
 8765SOL    HW237932   1.942   0.270   8.956  0.3361 -0.3343  0.4459
 8766SOL     OW37933   2.203   3.972   3.025  0.2083 -0.2337  0.1948
 8766SOL    HW137934   2.123   3.963   3.076  0.5111 -0.5344  0.6121
 8766SOL    HW237935   2.249   3.997   3.105  0.3631 -2.7265  0.8627
 8767SOL     OW37936   3.515   1.686   0.991 -0.0836  0.6432  0.3279
 8767SOL    HW137937   3.445   1.621   0.987 -1.6662  2.3032  0.8930
 8767SOL    HW237938   3.531   1.700   0.898 -1.2012 -0.8565 -0.0767
 8768SOL     OW37939   3.816   3.680   6.682 -0.1195 -0.3778  0.1189
 8768SOL    HW137940   3.892   3.666   6.626  1.2616 -0.6583  2.0411
 8768SOL    HW237941   3.760   3.606   6.660  0.0930  0.0343 -1.7526
 8769SOL     OW37942   2.944   3.178   9.412  0.0676 -0.5455 -0.0586
 8769SOL    HW137943   2.963   3.084   9.408  0.1846 -0.5268  0.0462
 8769SOL    HW237944   2.963   3.190   9.319  0.6149 -0.9436 -0.0030
 8770SOL     OW37945   1.292   3.287   9.196 -0.2519  0.3217 -0.1856
 8770SOL    HW137946   1.276   3.218   9.261  2.1125  1.6683  1.8284
 8770SOL    HW237947   1.365   3.247   9.148  0.4310 -1.5074  2.3669
 8771SOL     OW37948   3.822   0.882  14.692  0.5747  0.5789  0.6482
 8771SOL    HW137949   3.886   0.927  14.637 -0.1471 -0.2260 -0.8606
 8771SOL    HW237950   3.791   0.952  14.749  0.3629  1.4118 -0.4756
 8772SOL     OW37951   1.242   0.631   5.021 -0.7581 -0.4384 -0.4475
 8772SOL    HW137952   1.303   0.557   5.024 -1.7103 -1.1474  2.0370
 8772SOL    HW237953   1.302   0.695   4.984 -0.4516 -0.3558  0.2011
 8773SOL     OW37954   1.159   1.801  12.375  0.0037  0.2297 -0.2909
 8773SOL    HW137955   1.168   1.759  12.290  1.1431 -2.4673  1.1692
 8773SOL    HW237956   1.244   1.763  12.395  0.6478  1.8186 -0.0112
 8774SOL     OW37957   1.862   1.531   9.069  0.2455  0.2601  0.7263
 8774SOL    HW137958   1.874   1.436   9.068 -1.2710  0.0662 -0.8623
 8774SOL    HW237959   1.805   1.528   8.992  0.4640 -1.2602  0.6099
 8775SOL     OW37960   1.065   3.147   8.588  0.3150  0.1822  0.1174
 8775SOL    HW137961   1.082   3.094   8.509 -2.7146 -1.1560  0.3866
 8775SOL    HW237962   0.989   3.195   8.557  0.3062 -1.5987 -2.6618
 8776SOL     OW37963   3.383   0.306   8.778  0.1586  0.3741 -0.1125
 8776SOL    HW137964   3.468   0.282   8.815  0.2101  0.7301  0.0023
 8776SOL    HW237965   3.375   0.249   8.701 -0.6142 -0.1035  0.3232
 8777SOL     OW37966   0.555   1.281  13.726  0.1320  0.0252 -0.0252
 8777SOL    HW137967   0.504   1.306  13.803  0.5570  0.4953  0.1075
 8777SOL    HW237968   0.497   1.253  13.655  1.3019  0.5199 -1.1761
 8778SOL     OW37969   0.910   3.315   7.665  0.1842 -0.1211  0.6813
 8778SOL    HW137970   0.984   3.259   7.643  2.3262  2.7099  0.7526
 8778SOL    HW237971   0.849   3.263   7.612  1.6957 -1.0457 -0.1497
 8779SOL     OW37972   1.888   3.786   7.414  0.5936  0.1267 -0.5426
 8779SOL    HW137973   1.960   3.727   7.395  0.4643  0.9723 -3.5819
 8779SOL    HW237974   1.851   3.747   7.493  2.1714  0.4715  0.3673
 8780SOL     OW37975   2.756   2.729   3.510  0.0111  0.2573  0.1014
 8780SOL    HW137976   2.738   2.635   3.521 -1.0868  0.0721 -3.3001
 8780SOL    HW237977   2.714   2.733   3.424  2.2976  2.2399 -0.9093
 8781SOL     OW37978   0.247   1.588   0.407  0.2720 -0.4797 -0.4735
 8781SOL    HW137979   0.185   1.657   0.431  3.2721  2.0004  0.1456
 8781SOL    HW237980   0.285   1.565   0.492 -0.0975  0.2782 -0.1018
 8782SOL     OW37981   2.145   3.142  17.364  0.9141 -0.0386 -0.2239
 8782SOL    HW137982   2.154   3.220  17.418  1.3285  0.0443 -0.4168
 8782SOL    HW237983   2.224   3.169  17.317  1.5735  0.4263  1.1741
 8783SOL     OW37984   0.224   4.595  10.909  0.1223  0.0254  0.3058
 8783SOL    HW137985   0.310   4.586  10.867 -1.6083 -2.0399 -2.8192
 8783SOL    HW237986   0.219   4.677  10.959  0.5206  1.3806 -1.8566
 8784SOL     OW37987   1.387   1.738  14.961  0.1481 -0.2493  0.0709
 8784SOL    HW137988   1.481   1.728  14.975  0.1303 -2.9551 -1.6832
 8784SOL    HW237989   1.376   1.832  14.974 -1.7698 -0.1404 -2.4372
 8785SOL     OW37990   1.136   2.985   2.278 -0.4533 -0.2111  0.7027
 8785SOL    HW137991   1.144   3.013   2.187 -0.9073 -0.8886  0.4509
 8785SOL    HW237992   1.176   3.057   2.326 -1.0690 -0.1266  1.0862
 8786SOL     OW37993   4.034   0.776  11.906 -0.3003 -0.4594  0.6273
 8786SOL    HW137994   3.948   0.815  11.887  0.5193  0.2232 -1.6709
 8786SOL    HW237995   4.037   0.697  11.853  0.1644 -0.0165 -0.0112
 8787SOL     OW37996   3.771   0.983   6.297 -0.1303 -0.2504  0.1780
 8787SOL    HW137997   3.696   0.982   6.357 -0.4367 -0.8009 -0.2083
 8787SOL    HW237998   3.839   1.034   6.340  2.2307 -0.6478 -3.1009
 8788SOL     OW37999   1.332   4.266  11.513  0.0596  0.0022  0.3802
 8788SOL    HW138000   1.281   4.195  11.552  0.0386 -0.8329 -1.1932
 8788SOL    HW238001   1.297   4.330  11.576 -0.0452 -2.1821  2.5359
 8789SOL     OW38002   4.184   4.470   8.690 -0.0088 -0.0786 -0.2717
 8789SOL    HW138003   4.234   4.462   8.609 -2.4789 -0.9258 -1.7191
 8789SOL    HW238004   4.244   4.427   8.751 -0.6510 -0.9255 -0.2266
 8790SOL     OW38005   4.361   1.289   8.312  0.7630 -0.2004 -0.1750
 8790SOL    HW138006   4.365   1.333   8.397 -1.3442  0.0033 -0.1822
 8790SOL    HW238007   4.386   1.354   8.246 -0.4787  1.3560  0.8635
 8791SOL     OW38008   4.084   2.353  11.072  0.1566  0.2594  0.0145
 8791SOL    HW138009   4.135   2.434  11.079  3.2663 -1.9015  2.2649
 8791SOL    HW238010   4.026   2.366  10.997 -0.5724 -1.3894  0.2886
 8792SOL     OW38011   0.998   0.604   6.280  0.7647 -0.6395 -0.3553
 8792SOL    HW138012   1.008   0.532   6.342  0.5777  1.3684  1.9788
 8792SOL    HW238013   0.905   0.590   6.265  0.4497  1.0390  0.0895
 8793SOL     OW38014   4.313   2.009   6.208 -0.5047  0.2284  0.0175
 8793SOL    HW138015   4.406   1.984   6.210 -0.1575  1.5657  0.4568
 8793SOL    HW238016   4.314   2.104   6.223 -1.0784  0.4568 -1.4284
 8794SOL     OW38017   0.967   3.326   5.096 -0.0640 -0.0191  0.3289
 8794SOL    HW138018   1.007   3.353   5.013  1.5933 -0.5446  0.9575
 8794SOL    HW238019   0.931   3.412   5.118  0.0279  0.4682 -1.3856
 8795SOL     OW38020   4.200   3.869   3.618 -0.1426 -0.2988  0.6834
 8795SOL    HW138021   4.207   3.846   3.710 -0.3589 -0.4315  0.6651
 8795SOL    HW238022   4.118   3.919   3.623  0.7129  1.2477 -0.5917
 8796SOL     OW38023   1.432   1.857  12.753  0.1763 -0.4055  0.1318
 8796SOL    HW138024   1.404   1.896  12.670  2.8719  1.4052  0.0665
 8796SOL    HW238025   1.390   1.916  12.816 -1.9593 -1.5594 -0.2208
 8797SOL     OW38026   3.702   4.600   5.698  0.2764 -0.0521 -0.6042
 8797SOL    HW138027   3.703   4.516   5.742 -1.3559  0.7876  1.0121
 8797SOL    HW238028   3.713   4.656   5.775 -0.8293  0.0392 -0.5125
 8798SOL     OW38029   1.274   1.500   4.790 -0.2931 -0.5818  0.3617
 8798SOL    HW138030   1.190   1.509   4.836  1.3500 -2.4993  3.7757
 8798SOL    HW238031   1.261   1.420   4.740  2.2494 -0.5808 -0.2802
 8799SOL     OW38032   2.482   0.836   8.584  0.3751 -0.3704  0.0870
 8799SOL    HW138033   2.470   0.745   8.557 -2.9408  0.1260 -0.0683
 8799SOL    HW238034   2.389   0.859   8.578  0.1469 -1.2381  0.2708
 8800SOL     OW38035   4.088   2.456   5.219  0.1314  0.7573  0.0781
 8800SOL    HW138036   4.080   2.476   5.312  1.2436  0.2177  0.2879
 8800SOL    HW238037   4.178   2.426   5.210  0.1849  1.4154 -1.5290
 8801SOL     OW38038   2.546   0.581   5.284 -0.1508  0.3755 -0.2548
 8801SOL    HW138039   2.516   0.490   5.274  3.5984 -1.0194  1.0859
 8801SOL    HW238040   2.625   0.578   5.231 -1.1717  1.4825 -1.8471
 8802SOL     OW38041   3.901   1.949   8.727  0.0040  0.1555  0.4758
 8802SOL    HW138042   3.885   1.989   8.642 -0.6251  0.1088  0.5695
 8802SOL    HW238043   3.966   1.886   8.696  0.6313  1.0834 -0.0796
 8803SOL     OW38044   3.889   3.307   7.522  0.4631 -0.2567 -0.0515
 8803SOL    HW138045   3.834   3.315   7.444  0.3382 -0.2136  0.0405
 8803SOL    HW238046   3.973   3.348   7.503  0.8175 -1.1521 -0.4199
 8804SOL     OW38047   3.212   0.363   8.125  0.3912  0.4826 -0.0779
 8804SOL    HW138048   3.273   0.425   8.165 -0.0366  1.6732 -1.2664
 8804SOL    HW238049   3.137   0.422   8.113  1.2200  1.8821  1.5095
 8805SOL     OW38050   0.450   1.540   6.028  0.3245 -0.3300 -0.7689
 8805SOL    HW138051   0.455   1.530   5.933  1.6072 -1.3498 -0.5964
 8805SOL    HW238052   0.521   1.485   6.061 -0.3881  0.0311  1.3770
 8806SOL     OW38053   0.108   0.120   0.951  0.1076  0.7760  0.4935
 8806SOL    HW138054   0.048   0.048   0.971  0.1952  0.3599 -0.7512
 8806SOL    HW238055   0.095   0.137   0.858  0.2475 -1.5704  0.0258
 8807SOL     OW38056   1.518   1.600   4.864  0.4182 -0.2767 -0.3538
 8807SOL    HW138057   1.500   1.692   4.846 -0.8210 -0.4229  0.1306
 8807SOL    HW238058   1.429   1.563   4.859  1.0672 -1.7076 -1.3744
 8808SOL     OW38059   3.351   0.381   2.301  0.1949 -0.2215  0.1150
 8808SOL    HW138060   3.265   0.408   2.334 -0.2505 -0.5736 -0.7742
 8808SOL    HW238061   3.405   0.459   2.315  1.3245 -1.7175  4.3950
 8809SOL     OW38062   1.582   0.043   5.615 -0.3135 -0.0926  0.3570
 8809SOL    HW138063   1.610   4.689   5.619 -0.7817 -0.1210  2.5699
 8809SOL    HW238064   1.618   0.048   5.526 -0.7913 -0.5224  0.1383
 8810SOL     OW38065   2.700   1.465   5.832 -0.0390 -0.0807  0.3589
 8810SOL    HW138066   2.707   1.533   5.899  4.5944  0.8823 -1.0883
 8810SOL    HW238067   2.617   1.480   5.787  1.1082  0.8847 -1.4406
 8811SOL     OW38068   3.161   2.201  15.685 -0.3833  0.1585  0.7239
 8811SOL    HW138069   3.106   2.124  15.673  0.8922 -0.6886  0.3415
 8811SOL    HW238070   3.107   2.253  15.744  0.4158 -0.1651  1.7239
 8812SOL     OW38071   1.315   3.468  16.781  0.2730  0.3846 -0.5443
 8812SOL    HW138072   1.316   3.381  16.740 -0.8834 -0.5568  1.4049
 8812SOL    HW238073   1.398   3.495  16.742  1.2408  1.1854  2.1140
 8813SOL     OW38074   3.366   0.852   6.744 -0.0891 -0.0586  0.2989
 8813SOL    HW138075   3.461   0.865   6.748  0.1384 -0.7908 -2.7886
 8813SOL    HW238076   3.356   0.842   6.649  0.9203 -0.6099  0.2534
 8814SOL     OW38077   3.571   2.731  16.136 -0.2437  0.3457 -0.3624
 8814SOL    HW138078   3.646   2.682  16.170 -0.7852 -0.5798 -0.4869
 8814SOL    HW238079   3.609   2.779  16.062  0.6082  1.5620  0.8656
 8815SOL     OW38080   1.116   1.068   4.233 -0.3295  0.1988  0.4381
 8815SOL    HW138081   1.101   1.110   4.148  1.3272  1.2056  0.6425
 8815SOL    HW238082   1.135   0.978   4.205  0.8435  0.4962  0.2708
 8816SOL     OW38083   3.010   2.863   1.399 -0.2312  0.5000  0.2437
 8816SOL    HW138084   2.972   2.884   1.484  1.3687  0.6018  0.9297
 8816SOL    HW238085   3.083   2.808   1.428  0.2855  0.9593 -0.1764
 8817SOL     OW38086   4.712   0.595   8.189  0.1332 -0.2567  0.6009
 8817SOL    HW138087   0.045   0.657   8.173  0.5353 -1.0939 -0.7865
 8817SOL    HW238088   0.020   0.514   8.170  0.3083 -0.5563  2.3063
 8818SOL     OW38089   2.907   0.898   7.770 -0.1413 -0.2160  0.4156
 8818SOL    HW138090   2.853   0.951   7.828 -3.0554 -2.6263 -0.1114
 8818SOL    HW238091   2.845   0.845   7.719  0.8886 -0.1013 -0.9737
 8819SOL     OW38092   2.057   2.452  10.390  0.0034  0.2762  0.0876
 8819SOL    HW138093   2.001   2.512  10.440 -0.2196 -0.1119  0.2991
 8819SOL    HW238094   2.030   2.364  10.415  0.0036  1.1838  3.3930
 8820SOL     OW38095   4.290   2.975   3.175  0.3774  0.5229 -0.2362
 8820SOL    HW138096   4.347   3.033   3.125 -0.3280  0.1320 -1.4812
 8820SOL    HW238097   4.255   2.924   3.103  1.9983  0.0086 -0.6487
 8821SOL     OW38098   0.616   1.834   9.749  0.3145 -0.2897 -0.6012
 8821SOL    HW138099   0.596   1.882   9.669 -1.5303  0.1845  0.1560
 8821SOL    HW238100   0.551   1.765   9.737  1.7286 -2.1045  1.9723
 8822SOL     OW38101   3.783   2.346   3.809 -0.7922 -0.5104 -0.2929
 8822SOL    HW138102   3.807   2.260   3.845  2.5140  0.2514 -0.6732
 8822SOL    HW238103   3.848   2.362   3.740  0.7476 -1.4666  0.9080
 8823SOL     OW38104   0.564   3.706  14.796 -0.5425 -0.0016  0.1607
 8823SOL    HW138105   0.586   3.672  14.882  1.3660 -0.0466 -0.3477
 8823SOL    HW238106   0.631   3.767  14.765  2.6569 -2.9222  1.4260
 8824SOL     OW38107   4.442   3.692   6.166  0.3421 -0.2417 -0.0644
 8824SOL    HW138108   4.450   3.603   6.133  1.4744  0.4547 -1.6949
 8824SOL    HW238109   4.348   3.705   6.179  0.2441 -1.1407  0.1379
 8825SOL     OW38110   2.804   0.387   7.815  0.7019  0.6604  0.0276
 8825SOL    HW138111   2.851   0.308   7.786 -2.7907 -0.6710 -1.9455
 8825SOL    HW238112   2.760   0.357   7.895  0.2478 -0.1704 -0.5280
 8826SOL     OW38113   4.565   3.953   8.821  0.1641  0.0108 -0.3155
 8826SOL    HW138114   4.643   3.927   8.772  0.6782 -1.2633  1.1518
 8826SOL    HW238115   4.505   3.966   8.748 -0.4527 -0.1788  0.1608
 8827SOL     OW38116   1.237   0.621   1.335 -0.2305 -0.4666 -0.1139
 8827SOL    HW138117   1.326   0.642   1.306  0.1964 -0.6080  1.1276
 8827SOL    HW238118   1.247   0.543   1.389 -0.3476  1.5568  2.8151
 8828SOL     OW38119   3.976   4.240  17.713  0.7001  0.3055  0.9262
 8828SOL    HW138120   3.997   4.325   0.001  0.2477  0.7760  0.1518
 8828SOL    HW238121   3.972   4.190   0.043  0.8229  2.5530  2.3121
 8829SOL     OW38122   0.135   3.348   1.849 -0.1075 -0.1872  0.6366
 8829SOL    HW138123   0.133   3.300   1.766  0.5363  0.0999  0.4589
 8829SOL    HW238124   0.163   3.433   1.817 -1.6782  0.1255  0.0783
 8830SOL     OW38125   2.701   1.420   6.240 -0.6018  0.1144  0.3633
 8830SOL    HW138126   2.640   1.430   6.167 -1.0904  1.0774  0.9039
 8830SOL    HW238127   2.783   1.442   6.195 -0.0019 -0.3734  1.2085
 8831SOL     OW38128   0.059   1.650   0.072 -0.1223  0.4935  0.0655
 8831SOL    HW138129   0.076   1.560   0.099 -1.0777  0.6480  1.1830
 8831SOL    HW238130   4.720   1.680   0.120 -1.0059 -1.6431 -0.0330
 8832SOL     OW38131   1.851   4.163   4.516 -0.4168 -0.1082 -0.0369
 8832SOL    HW138132   1.908   4.118   4.453  0.8093 -0.4409  1.3081
 8832SOL    HW238133   1.770   4.113   4.512 -1.0508  1.0354 -1.4733
 8833SOL     OW38134   1.197   1.186   6.088  0.5395 -0.7284 -0.3048
 8833SOL    HW138135   1.270   1.123   6.082 -0.2625 -1.5090 -1.9506
 8833SOL    HW238136   1.234   1.254   6.033 -1.6232  2.5738  2.3492
 8834SOL     OW38137   3.043   0.772   0.188 -0.2927  0.0875 -0.0612
 8834SOL    HW138138   2.996   0.726   0.257  1.0223 -2.1233 -0.6271
 8834SOL    HW238139   2.966   0.800   0.138 -1.0589 -2.3832 -0.2280
 8835SOL     OW38140   3.290   4.637  11.530 -0.0894  0.0820 -0.3919
 8835SOL    HW138141   3.229   4.633  11.456  0.2475 -2.0942 -0.5427
 8835SOL    HW238142   3.292   4.726  11.565 -0.8059  0.3367 -0.9795
 8836SOL     OW38143   0.747   1.749   3.493  0.3651  0.7193 -0.5478
 8836SOL    HW138144   0.792   1.769   3.575 -1.7922  2.1814  0.2640
 8836SOL    HW238145   0.660   1.786   3.503  1.1183  2.9557 -2.2297
 8837SOL     OW38146   0.188   3.328  12.642 -0.1075 -0.5506  0.1317
 8837SOL    HW138147   0.185   3.419  12.674  2.2916 -0.9543  1.5102
 8837SOL    HW238148   0.097   3.302  12.658 -0.6644  1.0327 -0.4151
 8838SOL     OW38149   1.667   4.006   5.486 -0.0693  0.6182 -0.4533
 8838SOL    HW138150   1.691   4.010   5.578 -0.6582  1.7534 -0.3514
 8838SOL    HW238151   1.704   4.084   5.446  0.4426 -0.0820 -1.3580
 8839SOL     OW38152   0.300   2.945   3.048  0.4230  0.9335 -0.0763
 8839SOL    HW138153   0.302   3.028   3.001 -1.8368  0.4165 -1.0899
 8839SOL    HW238154   0.220   2.899   3.022  0.7842  0.9306 -1.1836
 8840SOL     OW38155   3.150   3.677   2.285 -0.0649  0.2787 -0.0977
 8840SOL    HW138156   3.200   3.664   2.366  2.0160 -0.9732 -1.5929
 8840SOL    HW238157   3.062   3.654   2.316  0.4822 -3.0197 -0.9928
 8841SOL     OW38158   0.942   0.081   8.531  0.8306 -0.3883 -0.0543
 8841SOL    HW138159   0.996   0.050   8.604  1.3904 -0.7655 -0.6240
 8841SOL    HW238160   0.943   0.176   8.533  0.5053 -0.4210  1.8470
 8842SOL     OW38161   0.533   0.711   1.783  0.5619  0.1908 -0.6671
 8842SOL    HW138162   0.491   0.787   1.744 -0.2688  0.4639  0.7591
 8842SOL    HW238163   0.518   0.648   1.713 -1.7380 -0.8678  0.7806
 8843SOL     OW38164   4.449   4.668   8.278  0.3028 -0.2071 -0.1144
 8843SOL    HW138165   4.435   4.638   8.188 -0.3643  2.0100 -0.7688
 8843SOL    HW238166   4.397   0.011   8.278 -0.1983 -0.5459  2.5080
 8844SOL     OW38167   3.047   2.508   0.772 -0.2563 -0.6328  0.2327
 8844SOL    HW138168   2.998   2.446   0.825 -1.5467  0.9636  0.9089
 8844SOL    HW238169   2.984   2.575   0.746  0.9080 -0.8236 -3.1005
 8845SOL     OW38170   1.573   1.171  15.134 -0.3605 -0.4859  0.0751
 8845SOL    HW138171   1.616   1.248  15.171 -0.4443 -0.7292  0.6785
 8845SOL    HW238172   1.498   1.214  15.093  1.1166  1.7918 -0.2023
 8846SOL     OW38173   4.056   1.360   4.746  0.1348  0.1318 -0.1059
 8846SOL    HW138174   4.124   1.311   4.699 -0.1785  1.6432 -2.1446
 8846SOL    HW238175   3.992   1.372   4.676 -0.6620 -0.0415  0.6024
 8847SOL     OW38176   1.077   2.847  12.489  0.6487 -0.2819  0.5648
 8847SOL    HW138177   1.097   2.931  12.530  2.5368 -1.2146  1.5867
 8847SOL    HW238178   1.152   2.798  12.525 -0.6528 -2.1455  0.7593
 8848SOL     OW38179   3.808   2.510  17.067  0.3348 -0.4830  0.4658
 8848SOL    HW138180   3.752   2.480  17.138  0.3087 -1.1689  0.1523
 8848SOL    HW238181   3.868   2.560  17.122  1.1946  0.9507 -1.7310
 8849SOL     OW38182   1.332   3.179   2.321  0.0952 -0.3762 -0.4291
 8849SOL    HW138183   1.358   3.239   2.391 -3.4319  2.0461 -1.2378
 8849SOL    HW238184   1.394   3.203   2.252  0.5727 -0.1408  0.0778
 8850SOL     OW38185   3.177   0.264   1.478 -0.0403  0.4880  0.3815
 8850SOL    HW138186   3.150   0.355   1.493 -1.6076 -0.0769  1.0165
 8850SOL    HW238187   3.166   0.232   1.568 -1.1765  1.7972  0.7209
 8851SOL     OW38188   2.011   3.180   9.198 -0.1927  0.4755  0.4425
 8851SOL    HW138189   2.025   3.274   9.189 -2.7587  1.2136  4.0220
 8851SOL    HW238190   1.932   3.185   9.252  0.1577 -1.2883  1.1463
 8852SOL     OW38191   1.205   1.712   6.344  0.1017 -0.1767 -0.0542
 8852SOL    HW138192   1.110   1.701   6.345  0.0345  0.4631  1.4148
 8852SOL    HW238193   1.235   1.624   6.364 -1.0432 -0.6355 -0.3667
 8853SOL     OW38194   0.818   0.933   7.820  0.5058  0.7969 -0.4213
 8853SOL    HW138195   0.754   0.950   7.889  0.0700 -1.2952 -0.3031
 8853SOL    HW238196   0.874   1.010   7.827  0.2201  0.9775 -0.1199
 8854SOL     OW38197   0.684   0.885   6.758 -0.3880 -0.7344  0.0016
 8854SOL    HW138198   0.724   0.968   6.731 -1.8547 -0.3074 -0.8449
 8854SOL    HW238199   0.614   0.887   6.693 -0.4810  0.7768  0.1591
 8855SOL     OW38200   1.092   2.723  17.033 -0.0767  0.0387 -0.5357
 8855SOL    HW138201   1.103   2.687  16.945  0.0942 -1.0474 -0.0655
 8855SOL    HW238202   1.142   2.804  17.020 -3.0378  1.9645  0.0876
 8856SOL     OW38203   0.393   0.699  15.614  0.6259  0.3580  0.1921
 8856SOL    HW138204   0.413   0.683  15.522  4.1918  0.5733  0.9270
 8856SOL    HW238205   0.416   0.791  15.623  0.1324  0.3843  1.2340
 8857SOL     OW38206   1.587   0.019   3.230 -0.0136  0.1684 -0.1126
 8857SOL    HW138207   1.560   4.708   3.152 -2.6929  0.2776  0.7572
 8857SOL    HW238208   1.516   0.013   3.293  1.0455  2.2546  1.2796
 8858SOL     OW38209   4.607   2.081   8.564 -0.3192  0.4283  0.2011
 8858SOL    HW138210   4.657   2.005   8.591 -0.1637 -0.3305 -2.2309
 8858SOL    HW238211   4.688   2.129   8.545  0.4268 -0.2355  1.7874
 8859SOL     OW38212   2.679   4.428   6.122 -0.6378  0.0366  0.3651
 8859SOL    HW138213   2.595   4.382   6.124  0.6718 -2.3921  0.1309
 8859SOL    HW238214   2.671   4.481   6.043 -0.6389 -1.7019 -0.7994
 8860SOL     OW38215   2.864   2.462   8.255 -0.1291  0.1536 -0.4577
 8860SOL    HW138216   2.802   2.393   8.232  0.1191 -0.9230  2.0620
 8860SOL    HW238217   2.855   2.527   8.186  0.3523  1.6567  0.8785
 8861SOL     OW38218   1.002   3.241   5.821  1.0926  0.5022  0.7826
 8861SOL    HW138219   1.071   3.284   5.769 -1.2705 -1.3654 -3.9506
 8861SOL    HW238220   1.056   3.176   5.867  2.4084  0.6639 -0.5131
 8862SOL     OW38221   1.926   4.594  14.819 -0.2140  0.2883 -0.2483
 8862SOL    HW138222   1.917   4.555  14.732 -3.5812  1.8837 -0.6039
 8862SOL    HW238223   2.011   4.561  14.849 -1.4263 -2.4449  0.1345
 8863SOL     OW38224   4.630   3.820   3.013  0.1909 -0.3478 -0.0692
 8863SOL    HW138225   4.670   3.835   3.098  1.1221  1.1244 -0.7559
 8863SOL    HW238226   4.600   3.731   3.030  1.1312 -1.2479 -2.9841
 8864SOL     OW38227   0.438   2.025   1.627 -0.8131  0.1894 -0.2249
 8864SOL    HW138228   0.482   1.960   1.682  0.0448  1.1246  0.1856
 8864SOL    HW238229   0.429   1.986   1.540 -0.4619 -1.1486  0.3334
 8865SOL     OW38230   4.557   0.282   8.478  0.0068 -0.1562 -0.6336
 8865SOL    HW138231   4.496   0.234   8.534  2.6394 -2.4444  0.2567
 8865SOL    HW238232   4.500   0.358   8.465  0.3534  0.7541  3.0183
 8866SOL     OW38233   3.596   4.082   4.192  0.0767 -0.7031 -0.4286
 8866SOL    HW138234   3.623   4.056   4.103  0.9821 -0.6235 -0.1731
 8866SOL    HW238235   3.674   4.054   4.241 -0.8858 -1.4193  0.6889
 8867SOL     OW38236   2.746   2.706   9.089 -0.0873 -0.1148  0.0815
 8867SOL    HW138237   2.670   2.722   9.144  1.0975  2.4320  0.9858
 8867SOL    HW238238   2.779   2.796   9.084 -1.4781  0.1706 -3.4479
 8868SOL     OW38239   3.044   3.217   2.585  0.1370  0.5238  0.1826
 8868SOL    HW138240   3.037   3.279   2.657  2.0139  1.8944 -0.8262
 8868SOL    HW238241   3.019   3.135   2.629 -0.4558 -0.1300 -1.3893
 8869SOL     OW38242   3.870   2.028   7.528 -0.0905 -0.1689 -0.4520
 8869SOL    HW138243   3.884   1.998   7.438  0.3771 -0.4269 -0.2954
 8869SOL    HW238244   3.854   1.945   7.573  0.9170 -0.4397 -0.5886
 8870SOL     OW38245   2.803   1.413   3.717  0.0265  0.2620 -0.3981
 8870SOL    HW138246   2.722   1.391   3.762  0.2184  3.0013  1.2771
 8870SOL    HW238247   2.771   1.414   3.626 -3.5182  2.5324  0.8500
 8871SOL     OW38248   3.672   4.179   8.434 -0.5515  0.5020  0.3784
 8871SOL    HW138249   3.677   4.162   8.528  1.0411  0.4783  0.2791
 8871SOL    HW238250   3.619   4.103   8.409  1.1532 -0.6261  0.2084
 8872SOL     OW38251   1.963   2.571   5.396  0.1424 -0.8494 -0.7013
 8872SOL    HW138252   1.941   2.652   5.443 -1.1664 -1.5323 -0.1552
 8872SOL    HW238253   1.976   2.609   5.308 -3.7455 -1.0365 -1.3552
 8873SOL     OW38254   0.138   1.161   1.783  0.5287 -0.4865 -0.8455
 8873SOL    HW138255   0.047   1.152   1.755  0.7515 -0.7968 -1.4744
 8873SOL    HW238256   0.155   1.077   1.825  2.9816 -0.1475 -1.1256
 8874SOL     OW38257   4.414   2.031   8.376 -0.1819  0.0976 -0.3231
 8874SOL    HW138258   4.482   2.067   8.433  0.6631 -2.1397  0.0629
 8874SOL    HW238259   4.435   1.938   8.372 -1.6548 -0.2139 -0.8434
 8875SOL     OW38260   3.939   1.954   0.832 -0.0942  0.3846  0.0447
 8875SOL    HW138261   4.005   1.977   0.897 -0.3815  0.9151  0.1511
 8875SOL    HW238262   3.891   1.886   0.880 -0.0261 -0.9034 -1.6919
 8876SOL     OW38263   4.252   2.807   1.882 -0.0063 -0.3025  0.0537
 8876SOL    HW138264   4.300   2.838   1.806 -1.7050  0.8955 -0.5308
 8876SOL    HW238265   4.257   2.883   1.939  2.1196 -1.0232  0.8258
 8877SOL     OW38266   0.414   4.004   6.563  0.2199 -0.5988  0.4746
 8877SOL    HW138267   0.366   4.069   6.615  0.8376 -0.0730  0.3914
 8877SOL    HW238268   0.505   4.028   6.576  0.7853 -2.6112  0.2091
 8878SOL     OW38269   4.012   0.408   1.347 -0.4846  0.1998 -0.1436
 8878SOL    HW138270   4.071   0.357   1.402  0.8880 -0.3745 -2.1613
 8878SOL    HW238271   4.066   0.412   1.268  0.1383 -0.0403  0.2727
 8879SOL     OW38272   2.812   1.288   5.653 -0.4442 -0.2619 -0.0004
 8879SOL    HW138273   2.754   1.340   5.709  0.3821 -0.6702  1.2320
 8879SOL    HW238274   2.790   1.198   5.678  1.1993 -0.8325 -0.6375
 8880SOL     OW38275   1.342   2.824   4.039  0.2421 -0.1221  0.2790
 8880SOL    HW138276   1.308   2.826   4.129  1.3103 -1.1498  0.7115
 8880SOL    HW238277   1.274   2.868   3.988  0.9233  0.4896 -0.0969
 8881SOL     OW38278   0.644   1.978   2.654  0.7834  0.1898  0.3756
 8881SOL    HW138279   0.666   2.042   2.722 -0.4064  1.3705 -0.3688
 8881SOL    HW238280   0.615   1.909   2.714 -1.7994  0.6674 -0.3195
 8882SOL     OW38281   3.454   1.036  14.894  0.7642 -0.2335  0.0522
 8882SOL    HW138282   3.448   0.941  14.908  0.4216 -0.0067  1.4314
 8882SOL    HW238283   3.377   1.048  14.839  1.1939  1.9095 -0.0890
 8883SOL     OW38284   1.109   1.008   3.138 -0.0594  0.0912 -0.3872
 8883SOL    HW138285   1.187   0.953   3.133  0.2636  0.6554 -1.6024
 8883SOL    HW238286   1.063   0.963   3.208 -0.0314  0.5669 -0.0626
 8884SOL     OW38287   2.937   0.373   4.950  0.3034  0.2125 -0.1478
 8884SOL    HW138288   2.938   0.426   4.870  0.0457 -0.8171 -0.8282
 8884SOL    HW238289   3.022   0.391   4.991 -0.0859 -0.2124  0.8459
 8885SOL     OW38290   3.431   4.292   8.062  0.0272 -0.1163  0.6076
 8885SOL    HW138291   3.344   4.302   8.023  0.5829 -1.9823 -1.0826
 8885SOL    HW238292   3.406   4.307   8.154 -3.9928  1.3892 -0.7435
 8886SOL     OW38293   1.836   2.813   5.386  0.0715  0.2230 -0.3834
 8886SOL    HW138294   1.877   2.866   5.454 -3.1066 -0.5316  2.0840
 8886SOL    HW238295   1.757   2.866   5.376  0.0444  0.1104 -0.8083
 8887SOL     OW38296   3.804   0.001   4.225  0.8608  0.0444  0.2536
 8887SOL    HW138297   3.775   4.649   4.213 -0.3875  0.5744 -0.7408
 8887SOL    HW238298   3.803   0.024   4.132  1.6938 -0.1287  0.2020
 8888SOL     OW38299   2.760   1.442   8.643 -0.1525 -0.3196 -0.6591
 8888SOL    HW138300   2.748   1.350   8.666  0.9542 -0.4314 -0.5018
 8888SOL    HW238301   2.820   1.468   8.713 -1.8569  0.8156  0.3747
 8889SOL     OW38302   1.446   0.097   6.552 -0.0924 -0.2017  0.2324
 8889SOL    HW138303   1.473   0.189   6.551  0.1822 -0.2536  2.2210
 8889SOL    HW238304   1.425   0.086   6.460  0.9857 -1.1902  0.1006
 8890SOL     OW38305   3.661   3.296   0.920  0.5399 -0.0308 -0.3968
 8890SOL    HW138306   3.580   3.280   0.968  0.3710 -2.4442 -1.4917
 8890SOL    HW238307   3.724   3.314   0.990  0.2988 -1.6367  0.2124
 8891SOL     OW38308   2.412   0.114   6.279 -0.1364 -0.4182 -0.1179
 8891SOL    HW138309   2.346   0.151   6.220  1.1446  2.6771  0.3838
 8891SOL    HW238310   2.461   0.190   6.311 -1.9752 -0.0201  1.8140
 8892SOL     OW38311   2.680   1.775   2.305 -0.1224 -0.5599 -0.1183
 8892SOL    HW138312   2.680   1.830   2.226  1.1035 -0.1056  0.1906
 8892SOL    HW238313   2.652   1.693   2.264 -2.1022 -0.4488  1.0035
 8893SOL     OW38314   1.312   0.445   1.662  0.3245  0.2849 -0.5178
 8893SOL    HW138315   1.298   0.418   1.572 -0.1848  1.6707 -0.8353
 8893SOL    HW238316   1.396   0.490   1.656  0.4797  0.0989  0.1648
 8894SOL     OW38317   3.502   3.915   5.296 -0.2665  0.1107  0.3939
 8894SOL    HW138318   3.451   3.935   5.217 -0.8405  2.5862  1.4224
 8894SOL    HW238319   3.449   3.959   5.362  0.4953  1.6048 -0.0107
 8895SOL     OW38320   3.662   1.879   6.722  0.0236  0.0390 -0.1665
 8895SOL    HW138321   3.684   1.839   6.638  0.0219  0.2271 -0.2559
 8895SOL    HW238322   3.581   1.919   6.693 -0.5057 -0.2827  0.8656
 8896SOL     OW38323   1.059   4.077   1.475  0.1945 -0.1776 -0.1651
 8896SOL    HW138324   1.010   4.024   1.413  1.7678  0.5366 -1.9965
 8896SOL    HW238325   1.083   4.146   1.413  1.4753 -1.2479 -0.8407
 8897SOL     OW38326   1.079   4.200   3.664  0.2508 -0.1156  0.3875
 8897SOL    HW138327   1.067   4.107   3.685  0.9040 -0.3208 -0.1564
 8897SOL    HW238328   1.119   4.189   3.578  0.2255  1.7452  0.1395
 8898SOL     OW38329   4.092   2.484  15.837 -0.2370  0.2990 -0.1377
 8898SOL    HW138330   4.143   2.406  15.860  3.7564  1.9515 -3.2601
 8898SOL    HW238331   4.034   2.500  15.911 -0.0598 -3.2310  0.7420
 8899SOL     OW38332   2.860   0.221  12.440  0.3391 -0.5237  0.1019
 8899SOL    HW138333   2.837   0.293  12.382 -2.0531 -1.9074 -0.6413
 8899SOL    HW238334   2.777   0.209  12.485  0.2855 -0.6877 -0.0394
 8900SOL     OW38335   3.191   1.640   2.594  0.1254 -0.3494 -0.4867
 8900SOL    HW138336   3.287   1.646   2.589  0.0550 -0.1309 -1.5515
 8900SOL    HW238337   3.189   1.552   2.556  1.0834  0.3927 -2.2268
 8901SOL     OW38338   1.735   2.121   9.267  0.2037 -0.6088 -0.8780
 8901SOL    HW138339   1.737   2.093   9.176 -0.2175  2.2436 -1.7496
 8901SOL    HW238340   1.781   2.204   9.261 -3.5977  1.6998  1.9051
 8902SOL     OW38341   1.938   4.427   7.962  0.4527 -0.1479  0.6938
 8902SOL    HW138342   1.884   4.390   8.033 -0.5436 -2.2110 -1.1488
 8902SOL    HW238343   2.024   4.406   7.999  0.8159  2.8504  1.5850
 8903SOL     OW38344   2.161   3.416  13.946  0.4539 -0.0130 -0.4860
 8903SOL    HW138345   2.238   3.365  13.970 -1.6672 -3.2364 -0.6425
 8903SOL    HW238346   2.158   3.405  13.851 -2.4289 -0.4922 -0.3146
 8904SOL     OW38347   3.075   0.153  12.578 -0.1502  0.4923  0.5422
 8904SOL    HW138348   3.053   0.060  12.572  1.2990  0.1461  0.6470
 8904SOL    HW238349   3.002   0.186  12.527  0.7462 -0.5024 -1.3763
 8905SOL     OW38350   3.767   0.546  12.814 -0.0563 -0.2552  0.9343
 8905SOL    HW138351   3.675   0.521  12.822  0.3768 -1.5771  1.6594
 8905SOL    HW238352   3.768   0.620  12.753  1.5366 -0.0109  1.2483
 8906SOL     OW38353   4.144   3.657   6.224  0.1168 -0.0664  0.0631
 8906SOL    HW138354   4.113   3.669   6.314 -0.1510 -1.0924  0.1018
 8906SOL    HW238355   4.064   3.615   6.191 -0.6619  0.3922  1.3457
 8907SOL     OW38356   2.585   1.080   6.409  0.4885 -0.0739 -0.2659
 8907SOL    HW138357   2.611   1.099   6.319  2.4856  1.8663  0.6963
 8907SOL    HW238358   2.556   1.168   6.434  1.0414  0.4467 -1.4617
 8908SOL     OW38359   3.899   4.575   7.168  0.5809 -0.1403 -0.7746
 8908SOL    HW138360   3.971   4.613   7.218 -0.4377 -0.2810  0.7889
 8908SOL    HW238361   3.949   4.523   7.105 -1.2365 -0.5484 -1.8661
 8909SOL     OW38362   1.355   2.773   4.607  0.3483 -0.1690 -0.5997
 8909SOL    HW138363   1.436   2.820   4.587  0.1226  0.1792 -0.6950
 8909SOL    HW238364   1.334   2.797   4.697  3.2737 -1.2345  0.3827
 8910SOL     OW38365   2.059   2.904   2.675 -0.0607 -0.4123  0.4021
 8910SOL    HW138366   2.065   2.819   2.718  1.5569  0.5004  1.9742
 8910SOL    HW238367   2.056   2.873   2.584  1.5867 -1.0862  0.5702
 8911SOL     OW38368   2.821   3.369   2.199 -0.6157  0.2815  0.1067
 8911SOL    HW138369   2.881   3.433   2.237  2.4281 -1.7272 -1.3040
 8911SOL    HW238370   2.867   3.285   2.203 -1.3705 -0.1136  0.4611
 8912SOL     OW38371   3.479   3.674   7.346 -0.1083  0.2689  0.1626
 8912SOL    HW138372   3.473   3.614   7.420 -1.0320 -1.4028 -1.2556
 8912SOL    HW238373   3.473   3.754   7.397 -0.4518  0.6363 -0.4519
 8913SOL     OW38374   4.141   3.371  16.100 -0.0638  0.1622 -0.1914
 8913SOL    HW138375   4.145   3.333  16.188 -1.1095  1.6580  0.5148
 8913SOL    HW238376   4.154   3.463  16.126  0.4640  0.3695 -1.1994
 8914SOL     OW38377   3.055   0.021   2.075  0.4285 -0.1103  0.3491
 8914SOL    HW138378   3.108   4.720   2.144 -2.6028 -3.2318  0.9300
 8914SOL    HW238379   3.069   0.113   2.096 -0.9337 -0.1190  1.2961
 8915SOL     OW38380   1.038   3.412   2.335  0.9672  0.2733 -0.3547
 8915SOL    HW138381   1.036   3.449   2.423 -1.3981 -1.1148  0.1820
 8915SOL    HW238382   1.126   3.415   2.299  1.2895 -1.3781  0.3115
 8916SOL     OW38383   0.944   2.519   9.263  0.5500 -0.0493  0.5171
 8916SOL    HW138384   1.025   2.469   9.264  1.7189  1.8026 -0.7543
 8916SOL    HW238385   0.881   2.453   9.291 -2.1081  1.7149 -1.3496
 8917SOL     OW38386   2.423   3.241   9.588  0.4059  0.0398  0.2241
 8917SOL    HW138387   2.433   3.162   9.534 -0.9336 -0.2113  0.3573
 8917SOL    HW238388   2.340   3.278   9.558  0.6752 -0.6209 -1.3554
 8918SOL     OW38389   3.085   2.835   8.093  0.2563 -0.2542 -0.2924
 8918SOL    HW138390   3.123   2.749   8.076 -0.9281 -0.5470 -1.3745
 8918SOL    HW238391   3.165   2.874   8.129 -1.1836  0.4247  2.1867
 8919SOL     OW38392   3.783   1.845   7.161  0.5414 -0.2842 -0.1669
 8919SOL    HW138393   3.693   1.864   7.137  0.8044 -0.0678 -0.9940
 8919SOL    HW238394   3.833   1.888   7.092  2.9118 -1.3208  0.9015
 8920SOL     OW38395   1.730   3.780   4.406  0.2784 -0.1784  0.1564
 8920SOL    HW138396   1.697   3.847   4.346 -2.4148  0.5528  2.4371
 8920SOL    HW238397   1.681   3.797   4.487 -2.3375 -0.6471 -1.3075
 8921SOL     OW38398   1.363   1.155  13.463  0.2973 -0.1809  0.2254
 8921SOL    HW138399   1.317   1.176  13.544  0.7617 -2.9672  1.2279
 8921SOL    HW238400   1.405   1.073  13.489  0.3844  0.1096  1.0013
 8922SOL     OW38401   3.994   2.942   3.661 -0.5713 -0.8159 -0.1761
 8922SOL    HW138402   3.969   2.993   3.738  0.8234 -1.1546  0.4820
 8922SOL    HW238403   3.991   3.017   3.602  0.1648 -1.7371 -1.3794
 8923SOL     OW38404   3.227   2.512   2.814  0.0057 -0.1161 -0.0488
 8923SOL    HW138405   3.142   2.478   2.844 -1.3063  0.9314 -2.5752
 8923SOL    HW238406   3.232   2.464   2.731 -1.8714  1.5424 -1.1365
 8924SOL     OW38407   0.646   0.856   0.577 -0.0403 -0.2635 -0.6488
 8924SOL    HW138408   0.568   0.801   0.572 -0.7499  1.0472 -3.5523
 8924SOL    HW238409   0.695   0.806   0.643 -1.0423 -0.3797  0.0017
 8925SOL     OW38410   1.055   0.370   4.701  0.3205  0.3508 -0.0617
 8925SOL    HW138411   1.036   0.296   4.643 -0.4058 -1.0186  1.9113
 8925SOL    HW238412   1.132   0.405   4.656  0.8309  0.6277  1.0374
 8926SOL     OW38413   0.547   4.063   2.953  0.2184  0.0788  0.0871
 8926SOL    HW138414   0.604   4.014   3.013 -0.8352 -0.0812  0.9669
 8926SOL    HW238415   0.499   4.115   3.018 -0.6798  0.9672 -1.2993
 8927SOL     OW38416   2.291   3.686   3.138  0.0940 -0.1560 -0.1656
 8927SOL    HW138417   2.303   3.734   3.057  2.0481  1.3297  1.0117
 8927SOL    HW238418   2.361   3.723   3.192  1.3297  1.6942 -3.0945
 8928SOL     OW38419   1.804   2.911   2.073  0.3101 -0.0625 -0.2052
 8928SOL    HW138420   1.847   2.825   2.081 -1.1849 -0.5770  2.1661
 8928SOL    HW238421   1.827   2.945   2.159  1.2183  1.9193 -1.2264
 8929SOL     OW38422   2.874   3.522   2.598 -0.3788 -0.3392  0.4682
 8929SOL    HW138423   2.925   3.472   2.661  1.1189  1.2959  0.5758
 8929SOL    HW238424   2.865   3.608   2.640  1.0073 -1.3264  2.7099
 8930SOL     OW38425   4.539   4.163  10.837 -0.0906 -0.1203  0.1137
 8930SOL    HW138426   4.449   4.185  10.862 -0.8865 -2.1076 -1.0768
 8930SOL    HW238427   4.575   4.158  10.925 -0.0817 -1.3711  0.0349
 8931SOL     OW38428   1.137   3.590   6.155 -0.3005  0.7971 -0.7441
 8931SOL    HW138429   1.096   3.511   6.120 -2.2649  0.8229  1.4456
 8931SOL    HW238430   1.173   3.642   6.084 -0.9990  1.7830 -0.3742
 8932SOL     OW38431   0.716   4.448   4.640  0.1894 -0.4217  0.1618
 8932SOL    HW138432   0.796   4.494   4.616  0.3193 -0.3504  0.7301
 8932SOL    HW238433   0.659   4.523   4.622 -0.1929 -0.7371  0.0386
 8933SOL     OW38434   3.742   4.164  11.416  0.0640 -0.2206 -0.3500
 8933SOL    HW138435   3.785   4.249  11.425 -0.5605  0.1604 -0.9871
 8933SOL    HW238436   3.793   4.111  11.478 -1.0510 -1.0483 -0.1272
 8934SOL     OW38437   2.383   1.879   2.127 -0.1031  0.2662  0.0146
 8934SOL    HW138438   2.456   1.894   2.067  1.5029  0.1293  1.9646
 8934SOL    HW238439   2.343   1.798   2.095  0.8014 -0.3667  0.5108
 8935SOL     OW38440   4.390   2.131   4.140 -1.0460 -0.1274  0.7102
 8935SOL    HW138441   4.323   2.087   4.192  0.5372 -0.7203  2.2444
 8935SOL    HW238442   4.422   2.061   4.082 -2.5904  0.9864 -1.4920
 8936SOL     OW38443   1.060   3.381  15.308  0.1769  0.3966  0.3797
 8936SOL    HW138444   1.098   3.297  15.332 -1.0962  0.3331  2.1460
 8936SOL    HW238445   0.975   3.377  15.351  0.8157  0.7885  1.6666
 8937SOL     OW38446   0.329   2.833   4.609  0.0048 -0.2794  0.3163
 8937SOL    HW138447   0.400   2.777   4.642 -1.3546 -1.1362  1.7629
 8937SOL    HW238448   0.325   2.902   4.675 -1.7095 -1.3809  1.3632
 8938SOL     OW38449   3.796   3.966  12.000  0.2731  0.0741  0.3601
 8938SOL    HW138450   3.745   4.046  11.987  1.8264  1.1079  0.5766
 8938SOL    HW238451   3.750   3.899  11.949  0.4969 -0.1474  0.4474
 8939SOL     OW38452   1.159   2.800   7.479 -0.0718  0.0980  0.1267
 8939SOL    HW138453   1.064   2.796   7.494 -0.4178  0.8022 -1.8580
 8939SOL    HW238454   1.176   2.891   7.455  0.0062 -0.3734 -1.6132
 8940SOL     OW38455   2.167   1.556   8.416 -0.4293  0.2884 -0.1332
 8940SOL    HW138456   2.089   1.611   8.405 -0.0847  0.4350 -1.9161
 8940SOL    HW238457   2.235   1.594   8.359 -0.3574 -1.6207 -1.3344
 8941SOL     OW38458   0.881   0.096   5.867  0.0969 -0.6779  0.4090
 8941SOL    HW138459   0.872   0.056   5.954 -1.4202 -3.5109 -1.0458
 8941SOL    HW238460   0.960   0.051   5.837  0.8317  1.2603 -0.5657
 8942SOL     OW38461   2.993   1.824   4.640 -0.0496  0.4276 -0.6508
 8942SOL    HW138462   2.994   1.844   4.546  0.7911 -1.1471 -0.9672
 8942SOL    HW238463   2.937   1.899   4.662 -0.4170  0.0657 -0.3588
 8943SOL     OW38464   2.559   0.145   5.966 -0.1396 -0.2674 -0.0209
 8943SOL    HW138465   2.639   0.143   6.019  0.4555  1.1507 -0.8481
 8943SOL    HW238466   2.521   0.227   5.998  0.7695 -0.3735  1.3157
 8944SOL     OW38467   2.678   2.501   7.600 -0.3767  1.2352 -0.3371
 8944SOL    HW138468   2.608   2.558   7.568 -1.4950 -0.3708 -0.7204
 8944SOL    HW238469   2.672   2.435   7.531  0.7884 -0.8944  1.5968
 8945SOL     OW38470   2.145   2.085   7.163 -0.1917  0.5830  0.0170
 8945SOL    HW138471   2.187   2.002   7.141  1.0410  0.6944  1.9134
 8945SOL    HW238472   2.056   2.055   7.141 -0.5076  0.5140  1.4066
 8946SOL     OW38473   2.402   2.197   0.740 -0.2130  0.0220 -0.2265
 8946SOL    HW138474   2.313   2.221   0.713  0.3016  0.5709 -1.4565
 8946SOL    HW238475   2.396   2.179   0.834 -1.7138 -1.9615 -0.6985
 8947SOL     OW38476   1.617   3.809  13.585  0.1225  0.1846 -0.2256
 8947SOL    HW138477   1.617   3.897  13.622 -0.6731 -0.5802  1.5480
 8947SOL    HW238478   1.536   3.770  13.619 -0.4927 -0.8424 -2.7749
 8948SOL     OW38479   0.967   1.725  13.281 -0.1252  0.2283 -0.2218
 8948SOL    HW138480   1.062   1.736  13.279 -0.3140  1.3961 -2.1715
 8948SOL    HW238481   0.955   1.690  13.193  1.5769  1.4550 -0.9405
 8949SOL     OW38482   2.445   4.034   5.595 -0.4138 -0.0037  0.4795
 8949SOL    HW138483   2.525   4.075   5.628  0.9823 -1.1986 -1.4100
 8949SOL    HW238484   2.442   3.949   5.638  0.5669  1.0837  2.6884
 8950SOL     OW38485   4.109   2.115   4.821 -0.1540  0.1128  0.3410
 8950SOL    HW138486   4.157   2.182   4.773  1.5500 -1.4705 -0.1726
 8950SOL    HW238487   4.152   2.036   4.788 -0.9897 -0.1304 -0.1761
 8951SOL     OW38488   3.524   2.436   0.554 -0.3030 -0.3293 -0.5032
 8951SOL    HW138489   3.449   2.462   0.607 -0.0330 -2.4899  0.9396
 8951SOL    HW238490   3.592   2.440   0.621 -1.3403  2.7601  0.3364
 8952SOL     OW38491   0.045   2.460   7.349  0.4449  0.4424  0.1456
 8952SOL    HW138492   0.035   2.475   7.443 -0.7067 -1.2605  0.2958
 8952SOL    HW238493   0.078   2.549   7.340  2.8085 -0.2061  2.5038
 8953SOL     OW38494   1.348   0.129   8.107 -0.1968  0.0438 -0.6202
 8953SOL    HW138495   1.350   0.160   8.198 -1.3889 -0.9575 -0.2548
 8953SOL    HW238496   1.254   0.123   8.090 -0.6803  0.6694  1.8526
 8954SOL     OW38497   1.202   2.104   6.416 -0.4687 -0.2015 -0.2240
 8954SOL    HW138498   1.178   2.056   6.336  0.6247 -3.7243  1.5336
 8954SOL    HW238499   1.200   2.036   6.483  2.9273  2.1478  2.2467
 8955SOL     OW38500   0.518   3.258  10.285  0.2310 -0.7754  0.0147
 8955SOL    HW138501   0.520   3.282  10.378  0.7966 -0.1853 -0.1450
 8955SOL    HW238502   0.424   3.251  10.267  0.0083  0.0282  0.8594
 8956SOL     OW38503   0.103   3.128   5.016  0.2447  0.3715  0.1939
 8956SOL    HW138504   0.021   3.109   4.970  1.5909  1.0454 -2.4624
 8956SOL    HW238505   0.115   3.215   4.977  1.2349 -0.1024 -0.5338
 8957SOL     OW38506   1.645   1.309  17.673 -0.6354 -0.1024 -0.2380
 8957SOL    HW138507   1.613   1.399  17.673 -2.9001 -0.9264 -0.6790
 8957SOL    HW238508   1.631   1.296  17.579 -2.0601 -2.6685  0.3350
 8958SOL     OW38509   3.778   1.539   3.801 -0.5097 -0.2004 -0.0626
 8958SOL    HW138510   3.713   1.474   3.776 -1.0992 -0.1577  1.3066
 8958SOL    HW238511   3.856   1.487   3.783 -0.0696  0.4953 -0.1734
 8959SOL     OW38512   3.326   3.566   4.522  0.1163  0.2931 -0.3971
 8959SOL    HW138513   3.393   3.502   4.546 -1.1217 -0.3559  1.3100
 8959SOL    HW238514   3.251   3.547   4.578  0.8579 -0.5017  0.3275
 8960SOL     OW38515   3.796   0.744   4.031 -0.7104  0.3551 -0.5706
 8960SOL    HW138516   3.809   0.697   3.949 -1.2451  1.6174 -1.3824
 8960SOL    HW238517   3.882   0.731   4.071 -2.4994 -0.4233  3.0537
 8961SOL     OW38518   4.713   0.364  13.465 -0.4645  0.1041 -0.0519
 8961SOL    HW138519   0.028   0.337  13.539  0.6890  3.1814  0.2707
 8961SOL    HW238520   4.630   0.320  13.484 -0.5996 -0.5508 -2.0876
 8962SOL     OW38521   3.550   0.257   7.078  0.3183  0.2474  0.8375
 8962SOL    HW138522   3.564   0.217   7.164  0.1218 -2.4986 -0.3975
 8962SOL    HW238523   3.635   0.281   7.041 -0.8661 -0.5515 -2.4419
 8963SOL     OW38524   0.838   1.281  13.767  0.3371  0.9721 -0.1001
 8963SOL    HW138525   0.871   1.333  13.694 -0.2804  0.3020 -0.8501
 8963SOL    HW238526   0.744   1.273  13.751 -0.0622  2.2480  1.6762
 8964SOL     OW38527   1.411   3.608   5.078 -0.5208  0.2691 -0.1267
 8964SOL    HW138528   1.321   3.592   5.106 -0.3200  1.1451  0.9961
 8964SOL    HW238529   1.415   3.701   5.101  0.1257 -0.0151  0.9284
 8965SOL     OW38530   4.096   1.321   3.427 -0.2617  0.1916  0.0389
 8965SOL    HW138531   4.041   1.345   3.353  0.4627  1.6889 -0.0164
 8965SOL    HW238532   4.039   1.306   3.502 -2.1966 -1.2263 -1.7302
 8966SOL     OW38533   4.169   3.741   1.416  0.4943 -0.4569 -0.3401
 8966SOL    HW138534   4.133   3.829   1.399  0.6522 -0.6813 -1.8215
 8966SOL    HW238535   4.243   3.769   1.469  0.1664  1.2105 -0.7662
 8967SOL     OW38536   3.466   3.671   3.095 -0.3092 -0.1147  0.2149
 8967SOL    HW138537   3.380   3.708   3.116 -1.2315 -1.9838 -0.1933
 8967SOL    HW238538   3.455   3.580   3.124 -0.4582 -0.1310  0.1076
 8968SOL     OW38539   1.011   3.900  11.524 -0.5211  0.3194 -0.2439
 8968SOL    HW138540   0.977   3.828  11.578 -1.9064 -0.0718 -1.6438
 8968SOL    HW238541   1.106   3.901  11.534 -0.4110 -0.5315 -1.1656
 8969SOL     OW38542   0.122   4.502   5.314  0.4211  0.2791  0.2312
 8969SOL    HW138543   0.098   4.446   5.388 -1.8801  0.0257 -0.7227
 8969SOL    HW238544   0.205   4.460   5.289  0.6755  1.7615 -1.4022
 8970SOL     OW38545   3.172   3.056   6.118 -0.6808  0.3357  0.8785
 8970SOL    HW138546   3.105   3.001   6.077 -1.1759  1.2266  0.4973
 8970SOL    HW238547   3.116   3.086   6.189 -1.2064  0.0847  0.5751
 8971SOL     OW38548   4.538   1.287   5.428 -0.3769 -0.5540  0.5831
 8971SOL    HW138549   4.501   1.236   5.500 -0.9794  1.6298  1.8265
 8971SOL    HW238550   4.574   1.218   5.371  1.5182 -0.2639  1.4132
 8972SOL     OW38551   4.719   3.262   6.164  0.6080  0.0921  0.1393
 8972SOL    HW138552   4.712   3.235   6.073 -1.3858 -2.3760  1.0293
 8972SOL    HW238553   0.065   3.231   6.197  1.1853  0.5498 -0.9343
 8973SOL     OW38554   2.967   0.236  17.008 -0.1486 -0.1403 -0.0203
 8973SOL    HW138555   2.918   0.237  16.926 -1.4463  0.0656  0.7584
 8973SOL    HW238556   2.971   0.328  17.034 -2.7222  0.1692 -0.7690
 8974SOL     OW38557   3.117   2.257   9.181  0.0103  0.1124  0.3305
 8974SOL    HW138558   3.197   2.292   9.143 -1.5518  2.1558 -1.0123
 8974SOL    HW238559   3.082   2.189   9.124  1.9251 -0.6737  0.0853
 8975SOL     OW38560   3.089   2.715   3.340 -0.0157  0.7923  0.3994
 8975SOL    HW138561   3.035   2.653   3.291 -0.5336  1.8067 -0.3121
 8975SOL    HW238562   3.175   2.675   3.328  0.0503  1.4846 -1.3641
 8976SOL     OW38563   0.466   4.699  11.143  0.2992  0.0972 -0.1486
 8976SOL    HW138564   0.498   0.048  11.167 -0.7948  0.0993  1.3526
 8976SOL    HW238565   0.543   4.654  11.110 -0.6126 -3.4449  2.5090
 8977SOL     OW38566   3.491   3.349  10.927  0.6960  0.4435  0.3816
 8977SOL    HW138567   3.412   3.389  10.964 -0.2042  0.9691 -2.0986
 8977SOL    HW238568   3.477   3.258  10.954  2.3980  0.3886  1.0468
 8978SOL     OW38569   1.887   0.085  11.307  0.0630  0.3178 -0.7022
 8978SOL    HW138570   1.968   0.035  11.300  0.3282  0.7498 -0.6730
 8978SOL    HW238571   1.871   0.110  11.216 -1.6280 -0.5662 -0.6541
 8979SOL     OW38572   4.476   2.535  10.433  0.4536 -0.0421 -0.0997
 8979SOL    HW138573   4.479   2.447  10.472  0.8961  0.6595  1.4506
 8979SOL    HW238574   4.565   2.545  10.401  0.7271 -1.2364  0.2792
 8980SOL     OW38575   3.736   4.262  15.459  0.6964 -0.8973  0.0693
 8980SOL    HW138576   3.652   4.244  15.417  1.1542 -1.6331 -0.5236
 8980SOL    HW238577   3.797   4.266  15.385 -1.3389  1.4904 -1.4401
 8981SOL     OW38578   3.963   4.388   2.056  0.1178 -0.7828 -0.2255
 8981SOL    HW138579   3.892   4.377   1.993 -1.2643 -0.7401  1.3204
 8981SOL    HW238580   3.973   4.301   2.095 -0.1496 -0.7906 -0.1690
 8982SOL     OW38581   0.469   3.215  10.559  0.0972  0.0444  0.8897
 8982SOL    HW138582   0.387   3.166  10.563 -0.2605  0.5134 -0.7429
 8982SOL    HW238583   0.476   3.253  10.647 -0.3924 -0.9836  1.3684
 8983SOL     OW38584   1.232   2.410   2.423 -0.4251 -0.0048  0.2448
 8983SOL    HW138585   1.203   2.320   2.415  0.6997 -0.6575  3.4599
 8983SOL    HW238586   1.165   2.450   2.368 -1.0273 -0.7478  0.4540
 8984SOL     OW38587   3.538   2.043   7.220  0.5087  0.3329  0.4194
 8984SOL    HW138588   3.463   2.100   7.236 -0.9215 -1.4583  0.0901
 8984SOL    HW238589   3.581   2.099   7.156 -0.5858  1.1989  0.4529
 8985SOL     OW38590   2.671   0.091   4.606  0.2731  0.1765  0.2445
 8985SOL    HW138591   2.711   0.133   4.682  0.0926 -0.2428  0.5697
 8985SOL    HW238592   2.682   0.156   4.537  0.2435 -2.2065 -1.9903
 8986SOL     OW38593   1.434   1.971  11.703  0.5783 -0.0556 -0.3101
 8986SOL    HW138594   1.340   1.966  11.720  0.4841 -0.2418 -0.8797
 8986SOL    HW238595   1.436   2.003  11.613  1.7015 -0.5188 -0.4476
 8987SOL     OW38596   2.606   3.181  15.263 -0.3164 -0.2593 -0.1451
 8987SOL    HW138597   2.534   3.241  15.243  1.0370  0.8695 -1.6529
 8987SOL    HW238598   2.562   3.102  15.293  0.8272 -0.3914  1.2341
 8988SOL     OW38599   1.411   2.721  13.368  0.3758 -0.2781  0.0547
 8988SOL    HW138600   1.349   2.742  13.438 -2.0258 -1.1145 -1.8060
 8988SOL    HW238601   1.448   2.642  13.407  2.2154 -0.0147 -1.1309
 8989SOL     OW38602   0.719   3.947   5.269 -0.0843 -0.2167  0.0758
 8989SOL    HW138603   0.757   3.915   5.351 -1.1948 -1.7754 -0.0262
 8989SOL    HW238604   0.795   3.993   5.233 -0.3620  0.3886  0.2623
 8990SOL     OW38605   3.335   1.339   1.794 -0.3217  0.0604 -0.1214
 8990SOL    HW138606   3.398   1.399   1.755  0.4198  0.8629  2.2638
 8990SOL    HW238607   3.333   1.368   1.885 -2.3944  1.8601 -0.7701
 8991SOL     OW38608   1.599   0.899  14.487  0.1250  0.4369 -0.3406
 8991SOL    HW138609   1.568   0.830  14.546 -1.3835 -0.5911 -2.3507
 8991SOL    HW238610   1.666   0.852  14.438  0.7172 -0.2975  1.1678
 8992SOL     OW38611   4.145   0.611   6.218 -0.2341 -0.8788 -0.3114
 8992SOL    HW138612   4.073   0.668   6.189 -0.7911 -1.7006 -0.5612
 8992SOL    HW238613   4.216   0.640   6.161 -0.7347  0.4040 -0.2772
 8993SOL     OW38614   3.296   3.338   1.248  0.5160 -0.3963  0.0022
 8993SOL    HW138615   3.223   3.280   1.272  0.8095 -0.5540  0.5064
 8993SOL    HW238616   3.361   3.269   1.265  0.5625  0.0034  1.4216
 8994SOL     OW38617   3.714   2.188   7.676 -0.1788  0.7023  0.3841
 8994SOL    HW138618   3.769   2.141   7.613  0.8326  1.4778  0.7050
 8994SOL    HW238619   3.628   2.157   7.645 -0.5829  2.6522 -0.4259
 8995SOL     OW38620   1.357   2.536   0.266 -0.7187 -0.6232  0.6758
 8995SOL    HW138621   1.272   2.582   0.262  1.2378  3.2003  2.5017
 8995SOL    HW238622   1.424   2.600   0.290  1.0253 -0.5825 -4.2880
 8996SOL     OW38623   4.527   3.767   8.126  0.4156 -0.3085 -0.2742
 8996SOL    HW138624   4.460   3.699   8.121  0.7757 -0.6399 -0.5816
 8996SOL    HW238625   4.588   3.749   8.054 -0.3986 -0.6513 -0.8766
 8997SOL     OW38626   3.937   0.131   7.956  0.1742 -0.0075  0.2517
 8997SOL    HW138627   3.891   0.214   7.943  0.3874 -0.0039 -0.5103
 8997SOL    HW238628   3.857   0.080   7.972 -0.6557  0.0643 -3.4996
 8998SOL     OW38629   4.118   2.649   6.655  0.4374  0.0095 -0.3558
 8998SOL    HW138630   4.046   2.708   6.679  0.0065 -0.4148 -0.6063
 8998SOL    HW238631   4.181   2.704   6.609  1.1407 -0.6084 -0.1291
 8999SOL     OW38632   3.310   2.531   0.655  0.4922  0.1188  0.0052
 8999SOL    HW138633   3.232   2.496   0.697 -0.7431  1.6193 -1.0309
 8999SOL    HW238634   3.267   2.604   0.610  0.8420  0.2845 -0.0637
 9000SOL     OW38635   4.211   3.178   6.534  0.6299  0.3528 -0.1337
 9000SOL    HW138636   4.221   3.146   6.445  0.4991  0.8991 -0.3457
 9000SOL    HW238637   4.117   3.174   6.547  0.9691 -0.2671  2.1879
 9001SOL     OW38638   1.379   0.779   4.055  0.0320  0.5464 -1.0448
 9001SOL    HW138639   1.435   0.856   4.054  0.8949 -0.0614 -0.0869
 9001SOL    HW238640   1.399   0.757   3.964 -0.9334  1.3255 -1.4454
 9002SOL     OW38641   2.462   0.424   3.733  0.1872  0.1042 -0.2804
 9002SOL    HW138642   2.407   0.442   3.810 -0.2795 -0.8831 -0.3778
 9002SOL    HW238643   2.508   0.506   3.719  2.7929 -1.4088 -0.5167
 9003SOL     OW38644   3.791   4.313   2.932  0.7218 -0.5690 -0.1143
 9003SOL    HW138645   3.817   4.322   2.840 -0.9144 -2.8218 -0.8234
 9003SOL    HW238646   3.820   4.401   2.954  2.3235 -1.7152  2.3613
 9004SOL     OW38647   1.552   0.633   9.589  0.1513 -0.3279 -0.6411
 9004SOL    HW138648   1.618   0.649   9.656  2.0561  2.5894 -3.2523
 9004SOL    HW238649   1.553   0.722   9.555  1.3493  0.0919  0.5055
 9005SOL     OW38650   2.625   3.143  15.921  0.7282 -0.8092 -0.6580
 9005SOL    HW138651   2.591   3.185  16.000  0.1082 -0.0962 -1.3008
 9005SOL    HW238652   2.707   3.189  15.904  0.4434  0.3799  1.2100
 9006SOL     OW38653   0.780   1.020  14.244 -1.1482 -0.3165 -0.0311
 9006SOL    HW138654   0.876   1.013  14.247 -1.0597  0.9800  0.0390
 9006SOL    HW238655   0.757   1.067  14.164  0.1313 -0.6838 -0.6235
 9007SOL     OW38656   4.331   0.405   0.904  0.4829  0.1377  0.1020
 9007SOL    HW138657   4.403   0.413   0.966  0.7708 -3.2974  0.2530
 9007SOL    HW238658   4.335   0.310   0.890 -0.5999  0.4115 -2.1434
 9008SOL     OW38659   3.640   3.070  11.660  0.5012 -0.2012  0.0307
 9008SOL    HW138660   3.682   3.042  11.579  0.3762 -3.9689  1.2737
 9008SOL    HW238661   3.661   3.163  11.655  1.6169 -0.4867 -0.8464
 9009SOL     OW38662   2.403   0.019   4.607  0.0043 -0.0957  0.9631
 9009SOL    HW138663   2.407   0.108   4.572  0.3097 -0.9826 -1.2353
 9009SOL    HW238664   2.496   4.736   4.598  0.1916  1.7326 -1.3091
 9010SOL     OW38665   3.004   3.074   3.242 -0.2611  0.3112  0.6607
 9010SOL    HW138666   3.010   3.022   3.162 -0.2834 -0.6690  1.3034
 9010SOL    HW238667   2.963   3.002   3.290  0.2531 -0.0359  0.5830
 9011SOL     OW38668   3.420   3.745  11.845 -0.4579 -0.0376 -0.1672
 9011SOL    HW138669   3.401   3.758  11.752  4.0159  2.3231 -0.7551
 9011SOL    HW238670   3.338   3.714  11.884  0.3880 -1.6834  0.3153
 9012SOL     OW38671   4.554   4.316   8.094  0.5419 -0.1745 -0.3042
 9012SOL    HW138672   4.564   4.317   7.999 -2.2239  0.2920 -0.5922
 9012SOL    HW238673   4.580   4.226   8.111 -0.7942 -0.5330 -0.1575
 9013SOL     OW38674   2.958   2.619  14.050  0.5041  0.0204 -0.1794
 9013SOL    HW138675   2.982   2.671  13.973 -1.4863 -0.6300 -1.2326
 9013SOL    HW238676   2.922   2.537  14.016 -0.0284  0.0966  0.1936
 9014SOL     OW38677   3.328   4.226   8.489  0.2965 -0.1051 -0.0557
 9014SOL    HW138678   3.309   4.304   8.437 -0.1531 -1.6870 -2.2530
 9014SOL    HW238679   3.302   4.145   8.445  0.4515 -0.9086  1.3274
 9015SOL     OW38680   2.843   2.188   7.133  0.0409 -0.4870  0.2263
 9015SOL    HW138681   2.749   2.209   7.137 -0.1124 -1.4165  1.4608
 9015SOL    HW238682   2.876   2.266   7.089  1.7959 -0.1570  2.1230
 9016SOL     OW38683   3.838   1.964   8.097 -0.1409  0.1024 -0.0225
 9016SOL    HW138684   3.831   2.038   8.036  0.3658  0.8381  0.8145
 9016SOL    HW238685   3.745   1.951   8.118  0.1786 -0.9314  0.7850
 9017SOL     OW38686   4.417   2.982  15.132  0.1203  0.3662  0.9062
 9017SOL    HW138687   4.481   3.044  15.098 -0.1320 -1.0736 -2.1687
 9017SOL    HW238688   4.333   3.024  15.111  0.8920  0.4878 -1.9806
 9018SOL     OW38689   1.523   0.313   5.615 -0.3029  0.2984  0.2153
 9018SOL    HW138690   1.569   0.228   5.615 -0.1315  0.3899 -1.9587
 9018SOL    HW238691   1.600   0.362   5.645  0.9880 -1.3164 -0.4156
 9019SOL     OW38692   0.722   0.903   3.456  0.3525 -0.5865  0.3202
 9019SOL    HW138693   0.666   0.960   3.508  1.9455 -1.0285  2.5178
 9019SOL    HW238694   0.729   0.826   3.512 -0.2892  0.6787  2.1208
 9020SOL     OW38695   3.052   0.074   4.158 -0.1959  0.1917  0.0795
 9020SOL    HW138696   3.033   0.141   4.093  0.7972  0.2388 -0.1662
 9020SOL    HW238697   2.981   0.066   4.221  1.4654  0.0738  1.9656
 9021SOL     OW38698   3.050   3.729   6.280  0.8952 -0.1098 -0.5922
 9021SOL    HW138699   2.970   3.769   6.246 -0.4583 -0.0503  2.6819
 9021SOL    HW238700   3.042   3.746   6.374 -1.3809  0.5115 -0.8957
 9022SOL     OW38701   3.574   1.964   8.368 -0.1435  0.5515 -0.1842
 9022SOL    HW138702   3.563   1.892   8.430 -0.3935  0.8621  0.1268
 9022SOL    HW238703   3.491   2.011   8.358  1.5481  3.1750 -2.0266
 9023SOL     OW38704   1.003   3.124   4.300  0.4285  0.3441 -0.5486
 9023SOL    HW138705   1.064   3.130   4.373  1.0297 -0.3987 -0.9910
 9023SOL    HW238706   0.926   3.097   4.349  0.8868  0.5295  0.2802
 9024SOL     OW38707   3.573   2.890  14.103 -0.4377  0.3162 -0.2226
 9024SOL    HW138708   3.590   2.984  14.094  0.9899  0.0284 -0.5245
 9024SOL    HW238709   3.662   2.858  14.117 -0.2501  0.9556  0.0455
 9025SOL     OW38710   0.595   4.248   4.778 -0.0496 -0.1129 -0.3279
 9025SOL    HW138711   0.637   4.308   4.716  0.4477 -1.4581 -1.2736
 9025SOL    HW238712   0.652   4.261   4.853 -0.0682 -1.7180 -0.0363
 9026SOL     OW38713   2.498   3.283   2.162 -0.3399  0.6067  0.1047
 9026SOL    HW138714   2.566   3.307   2.225  1.1919  1.3468 -1.8467
 9026SOL    HW238715   2.536   3.283   2.074  1.8785 -0.3755  1.0620
 9027SOL     OW38716   1.874   1.541   5.712  0.0375  0.1415  0.4822
 9027SOL    HW138717   1.792   1.582   5.738  0.7344  1.1280  1.1255
 9027SOL    HW238718   1.853   1.496   5.630  0.5315  0.1317  0.3619
 9028SOL     OW38719   3.381   4.033  12.819 -0.2278 -0.2472  0.0034
 9028SOL    HW138720   3.353   4.108  12.871 -2.1032 -0.6028 -0.4805
 9028SOL    HW238721   3.319   4.027  12.747 -0.8839  0.0532  0.5430
 9029SOL     OW38722   0.945   2.016   9.801  0.5038  0.4859  0.1095
 9029SOL    HW138723   1.033   1.996   9.770  0.0246  1.4350 -1.8465
 9029SOL    HW238724   0.897   1.975   9.729  2.0674 -2.3756  0.6867
 9030SOL     OW38725   0.007   1.068   4.179 -0.0620 -0.4920  0.6449
 9030SOL    HW138726   0.025   1.028   4.093  0.0496  0.5916  0.1654
 9030SOL    HW238727   0.090   1.114   4.191 -0.9020  1.4100 -0.8071
 9031SOL     OW38728   2.434   1.601   1.879 -0.0130 -0.4148  0.0327
 9031SOL    HW138729   2.405   1.523   1.832 -1.6110  1.0259 -1.3460
 9031SOL    HW238730   2.529   1.604   1.868 -0.0147 -2.6165 -0.5471
 9032SOL     OW38731   4.592   2.657   6.964  0.0836 -0.0435 -0.6669
 9032SOL    HW138732   4.679   2.644   7.000 -0.7829  0.1992  1.5335
 9032SOL    HW238733   4.620   2.731   6.912  0.3658 -0.2692 -0.8365
 9033SOL     OW38734   1.780   3.396   1.188 -0.6342  0.2675 -0.6181
 9033SOL    HW138735   1.702   3.347   1.213 -0.0479 -1.7210 -2.6057
 9033SOL    HW238736   1.768   3.397   1.093 -0.5354 -1.0364 -0.6463
 9034SOL     OW38737   3.063   3.099   1.272  0.3713 -0.0413  0.6074
 9034SOL    HW138738   3.068   3.011   1.310  0.4982 -0.3040 -0.0051
 9034SOL    HW238739   3.066   3.157   1.348  3.3060 -0.0855  0.4989
 9035SOL     OW38740   2.583   1.342   4.205  0.0286  0.1131 -0.2520
 9035SOL    HW138741   2.588   1.378   4.294  2.2039  2.5344 -1.3887
 9035SOL    HW238742   2.555   1.416   4.151  0.1715  0.6258  0.3767
 9036SOL     OW38743   0.317   2.083   0.256  0.0658  0.1930 -0.1442
 9036SOL    HW138744   0.397   2.032   0.267 -0.5882 -1.0828 -1.2265
 9036SOL    HW238745   0.320   2.102   0.162  1.2703  1.7917  0.2325
 9037SOL     OW38746   1.202   1.317  10.191  0.7457 -0.0228  0.5426
 9037SOL    HW138747   1.253   1.387  10.151  0.8372  0.3121  1.2329
 9037SOL    HW238748   1.257   1.295  10.267  0.0160  2.0515  1.6689
 9038SOL     OW38749   2.327   0.834  17.493 -0.1030  0.2086 -0.1684
 9038SOL    HW138750   2.356   0.862  17.580 -0.7984 -2.2973  0.8545
 9038SOL    HW238751   2.236   0.810  17.512  0.1295 -0.7939 -0.3120
 9039SOL     OW38752   4.067   3.852  11.714  0.0066 -0.7253 -0.0734
 9039SOL    HW138753   4.117   3.909  11.773  0.3899  0.0871 -1.1750
 9039SOL    HW238754   4.026   3.784  11.766  0.4847 -0.4049  0.7257
 9040SOL     OW38755   1.072   3.384   6.877 -0.1148  0.0922  0.0040
 9040SOL    HW138756   0.981   3.375   6.849 -0.0221 -0.2914 -0.1689
 9040SOL    HW238757   1.052   3.377   6.971  1.2695 -0.3723  0.2636
 9041SOL     OW38758   1.016   2.288   6.352  0.7024 -0.3738  0.0402
 9041SOL    HW138759   1.086   2.232   6.385 -2.1970 -2.4056  2.6956
 9041SOL    HW238760   1.055   2.374   6.369 -1.4190  0.8918 -1.4371
 9042SOL     OW38761   3.563   2.069  12.086 -0.2471 -0.3964 -0.0433
 9042SOL    HW138762   3.642   2.042  12.134 -0.3348  1.0317  0.9046
 9042SOL    HW238763   3.583   2.020  12.006  0.0101 -1.4420  0.6557
 9043SOL     OW38764   0.587   3.005  12.487  0.3439  0.2415 -0.8439
 9043SOL    HW138765   0.612   3.066  12.557  2.1153 -0.7834 -0.5651
 9043SOL    HW238766   0.494   3.026  12.483 -0.0047 -1.6434 -2.8019
 9044SOL     OW38767   4.403   3.500   3.411 -0.2711 -0.5805 -0.0186
 9044SOL    HW138768   4.399   3.591   3.440 -1.6229 -0.8652  0.6987
 9044SOL    HW238769   4.491   3.495   3.373  0.6194 -0.1054  1.9805
 9045SOL     OW38770   1.086   2.812   8.411 -0.2997  0.4768  0.3255
 9045SOL    HW138771   1.130   2.849   8.488  0.2821  0.0791  0.1794
 9045SOL    HW238772   1.040   2.889   8.378 -0.0734 -0.1119 -1.3642
 9046SOL     OW38773   3.062   0.801   6.242 -0.0041  0.0774 -0.6718
 9046SOL    HW138774   3.069   0.782   6.148 -2.3087 -2.4882 -0.3247
 9046SOL    HW238775   3.097   0.718   6.275 -0.3945  1.2434  2.6617
 9047SOL     OW38776   1.016   4.185   1.921  0.1412  0.2249 -0.8917
 9047SOL    HW138777   1.031   4.109   1.978 -1.3896  0.1234 -0.6221
 9047SOL    HW238778   0.937   4.224   1.958  1.0645  2.0250 -0.8103
 9048SOL     OW38779   0.242   1.926   6.936  0.6289 -0.3586  0.0375
 9048SOL    HW138780   0.305   1.856   6.919  1.3945  0.5368 -0.7818
 9048SOL    HW238781   0.260   1.975   6.856 -0.2361  0.3631  0.2879
 9049SOL     OW38782   3.135   0.151   8.457  0.3249 -0.0069 -0.2339
 9049SOL    HW138783   3.066   0.207   8.493  1.5849  0.2827  1.7190
 9049SOL    HW238784   3.093   0.075   8.498 -1.9443  0.4688 -1.6542
 9050SOL     OW38785   2.503   4.360   2.023 -0.2257  0.0512  0.1625
 9050SOL    HW138786   2.479   4.452   2.023  0.2659  0.1818 -0.1718
 9050SOL    HW238787   2.450   4.327   2.095 -0.7408 -1.1089 -0.7479
 9051SOL     OW38788   4.368   0.950   2.202 -0.6957  0.7303  0.2676
 9051SOL    HW138789   4.391   0.941   2.295 -1.9547  0.7880  0.5859
 9051SOL    HW238790   4.277   0.921   2.203 -0.3778 -0.2588 -1.0713
 9052SOL     OW38791   4.269   0.756  16.414 -0.1500 -0.4427  0.2502
 9052SOL    HW138792   4.182   0.717  16.423  0.7867 -2.7361 -0.7989
 9052SOL    HW238793   4.329   0.695  16.456 -1.0295  0.0734  2.2445
 9053SOL     OW38794   2.106   1.608  11.179 -0.4060  0.1306 -0.1269
 9053SOL    HW138795   2.023   1.650  11.203  0.5121  0.9516  1.5640
 9053SOL    HW238796   2.088   1.543  11.111  0.3646 -0.6398  0.4176
 9054SOL     OW38797   3.966   1.703   3.948 -0.0295  0.1064 -0.0524
 9054SOL    HW138798   3.910   1.665   3.881  0.7389  0.9635 -1.1723
 9054SOL    HW238799   3.923   1.666   4.025  3.0058 -2.7611  0.2557
 9055SOL     OW38800   1.811   4.211   6.811 -0.3234  0.1429  0.3916
 9055SOL    HW138801   1.849   4.251   6.733  0.6782  0.0656  0.8449
 9055SOL    HW238802   1.809   4.118   6.788  0.6631  0.5514 -1.3112
 9056SOL     OW38803   4.694   2.946   4.589  0.2884  0.9608  0.2012
 9056SOL    HW138804   4.612   2.897   4.593  1.2025 -0.5587  0.3542
 9056SOL    HW238805   4.666   3.018   4.532  0.1625  1.4093  0.8358
 9057SOL     OW38806   3.342   0.364   6.277  0.4058 -0.1059  0.8521
 9057SOL    HW138807   3.291   0.309   6.336 -0.7140  0.4790  0.4319
 9057SOL    HW238808   3.319   0.452   6.304  1.0163  0.0172  0.9834
 9058SOL     OW38809   4.124   0.981   7.894  0.3733  0.0114  0.3441
 9058SOL    HW138810   4.067   1.053   7.922 -1.8524 -1.2810 -0.9371
 9058SOL    HW238811   4.163   1.016   7.814  0.0169  1.4354  0.7856
 9059SOL     OW38812   0.228   1.002  17.578 -0.4737 -0.2538  0.7435
 9059SOL    HW138813   0.171   0.931  17.549  0.6240 -1.7238  2.1920
 9059SOL    HW238814   0.317   0.970  17.562 -1.4094 -2.5865  0.1628
 9060SOL     OW38815   3.533   2.565   7.174  0.1563  0.1280 -0.5294
 9060SOL    HW138816   3.619   2.578   7.134  0.4463 -1.2973 -0.3711
 9060SOL    HW238817   3.479   2.571   7.095  1.6394 -1.8198 -1.6912
 9061SOL     OW38818   2.230   2.518   5.537 -0.4848 -0.8594 -0.2213
 9061SOL    HW138819   2.181   2.598   5.558  1.5706  0.6847 -1.2873
 9061SOL    HW238820   2.318   2.553   5.525 -0.5389 -1.1734 -1.4933
 9062SOL     OW38821   4.292   1.385   7.339  0.2925 -0.4553  0.2571
 9062SOL    HW138822   4.260   1.296   7.353 -1.0779  0.0975  0.5546
 9062SOL    HW238823   4.251   1.412   7.256 -1.1031 -0.7202  0.8665
 9063SOL     OW38824   0.732   3.422   8.713  0.2869  0.3435  0.2998
 9063SOL    HW138825   0.645   3.426   8.752 -0.7140  2.5240 -2.1258
 9063SOL    HW238826   0.788   3.436   8.789 -0.6192 -0.0502  1.0352
 9064SOL     OW38827   0.742   3.982   5.922 -0.1502  0.0160 -0.4400
 9064SOL    HW138828   0.694   3.977   6.005  0.4803  0.3414 -0.0556
 9064SOL    HW238829   0.805   3.910   5.923 -1.8200 -1.4209  1.5751
 9065SOL     OW38830   2.836   3.544   6.946  0.1761  0.4929  0.1458
 9065SOL    HW138831   2.810   3.636   6.945 -1.5636  0.0267  0.7151
 9065SOL    HW238832   2.887   3.549   7.027 -0.9514  0.2211  0.8890
 9066SOL     OW38833   0.480   0.737   2.617  0.0877  0.0992 -0.3237
 9066SOL    HW138834   0.560   0.686   2.605  0.4859  0.7207 -0.3245
 9066SOL    HW238835   0.516   0.820   2.585 -0.1348 -0.4086 -1.9239
 9067SOL     OW38836   0.493   0.809   0.932 -0.0099  0.1656  0.1656
 9067SOL    HW138837   0.573   0.851   0.965 -0.1508  0.4635  0.1224
 9067SOL    HW238838   0.516   0.716   0.932 -0.6396  0.0125  0.3789
 9068SOL     OW38839   2.194   1.347   9.437 -0.1191  0.1387  0.5135
 9068SOL    HW138840   2.248   1.295   9.378 -1.5889 -0.2328 -0.5106
 9068SOL    HW238841   2.228   1.334   9.525 -0.6511 -3.3578  0.2372
 9069SOL     OW38842   1.982   2.198   5.845 -0.6496 -0.2997 -0.5099
 9069SOL    HW138843   1.935   2.263   5.793 -0.1994  0.2045 -0.2903
 9069SOL    HW238844   2.019   2.149   5.771 -3.2797 -0.1751 -1.8911
 9070SOL     OW38845   2.926   0.191  11.751 -0.3729  0.4017  0.7303
 9070SOL    HW138846   2.843   0.225  11.784 -1.5768 -1.8108  0.0288
 9070SOL    HW238847   2.987   0.228  11.814 -0.7690  1.7413  0.3186
 9071SOL     OW38848   3.184   4.077  17.535  0.4346 -0.1658 -0.6068
 9071SOL    HW138849   3.125   4.079  17.460 -0.7046  1.0118  0.3119
 9071SOL    HW238850   3.252   4.137  17.503  0.1935 -0.0166 -0.8376
 9072SOL     OW38851   0.006   0.354   9.165 -0.5565  0.0328 -0.2723
 9072SOL    HW138852   0.049   0.430   9.125  0.9486 -0.9088 -0.4014
 9072SOL    HW238853   4.660   0.382   9.202  0.5672 -0.3434  2.5497
 9073SOL     OW38854   4.462   2.114   9.180  0.0716  0.4813 -0.1969
 9073SOL    HW138855   4.394   2.116   9.248 -0.3875  0.2350 -0.6463
 9073SOL    HW238856   4.414   2.128   9.099  3.0912  0.5770 -1.9558
 9074SOL     OW38857   3.199   0.674   1.754  0.0518  0.1289  0.3353
 9074SOL    HW138858   3.241   0.724   1.824 -1.1792  0.4439  0.8572
 9074SOL    HW238859   3.153   0.747   1.714 -2.0111 -1.4050 -0.0715
 9075SOL     OW38860   0.387   1.448   0.606  0.2228  0.1155 -0.4591
 9075SOL    HW138861   0.327   1.391   0.654 -0.4353  1.8935  0.8677
 9075SOL    HW238862   0.453   1.382   0.586 -1.0432 -0.5386 -2.4406
 9076SOL     OW38863   3.967   3.286   7.113 -0.2141 -0.2830  0.3685
 9076SOL    HW138864   3.890   3.323   7.155 -0.8781 -0.8787 -0.3353
 9076SOL    HW238865   3.985   3.354   7.049 -1.2802 -0.1014  0.2598
 9077SOL     OW38866   4.681   2.929  14.548  0.5711  0.1730  0.3120
 9077SOL    HW138867   0.012   2.955  14.487  0.7111  1.8206  1.1713
 9077SOL    HW238868   4.602   2.972  14.516  1.4251  0.7158 -1.0454
 9078SOL     OW38869   2.800   0.646  13.374 -0.0660  0.1558  0.3252
 9078SOL    HW138870   2.801   0.611  13.285 -0.6943  2.4632 -0.5806
 9078SOL    HW238871   2.724   0.604  13.416 -2.0632  2.1377 -1.2863
 9079SOL     OW38872   2.980   1.226   5.474 -0.0127  0.1577 -0.3008
 9079SOL    HW138873   2.919   1.258   5.541  1.3336 -0.7834  1.3813
 9079SOL    HW238874   2.926   1.154   5.440  1.0646  1.0349 -3.7897
 9080SOL     OW38875   3.953   4.167   2.222 -0.4309 -0.5789  0.2593
 9080SOL    HW138876   4.036   4.123   2.203  0.2556  0.8043  0.0567
 9080SOL    HW238877   3.910   4.098   2.273 -3.7922  1.0910 -0.2730
 9081SOL     OW38878   4.270   4.292  15.115  0.6836  0.0189 -0.1088
 9081SOL    HW138879   4.187   4.327  15.082  1.2852  1.6976  0.1484
 9081SOL    HW238880   4.273   4.212  15.063  1.4724 -1.4602  2.2007
 9082SOL     OW38881   2.251   3.075   3.247 -0.6579 -0.1640  0.1627
 9082SOL    HW138882   2.236   3.116   3.332 -2.0803 -1.4038  0.5040
 9082SOL    HW238883   2.237   3.148   3.187  0.4197  0.9707  1.2944
 9083SOL     OW38884   0.979   4.425   3.506  0.0097  0.2988 -0.0197
 9083SOL    HW138885   1.037   4.357   3.542 -0.5620  0.6130  1.4832
 9083SOL    HW238886   1.027   4.503   3.534 -0.9305  0.1479  1.9795
 9084SOL     OW38887   4.518   4.530   7.136 -0.2491  0.1918  0.4572
 9084SOL    HW138888   4.584   4.593   7.165  1.2724 -0.8938 -0.6368
 9084SOL    HW238889   4.509   4.485   7.220  0.4071  0.6444  0.7684
 9085SOL     OW38890   4.705   4.088   9.010 -0.6327 -0.2143 -0.4313
 9085SOL    HW138891   4.648   4.033   8.957  0.7660 -1.8724 -0.2112
 9085SOL    HW238892   4.674   4.172   8.976 -4.3032 -0.9507  1.1025
 9086SOL     OW38893   0.905   0.290  12.414  0.1945 -0.5934  0.2678
 9086SOL    HW138894   0.959   0.233  12.469  0.5715 -1.0919 -0.6109
 9086SOL    HW238895   0.838   0.319  12.476 -0.2356  0.9565 -0.9154
 9087SOL     OW38896   0.594   1.302   6.569 -0.7676 -0.0551 -0.2976
 9087SOL    HW138897   0.517   1.340   6.525 -0.4379 -1.1210 -1.7842
 9087SOL    HW238898   0.585   1.335   6.658 -3.7538 -0.9430 -0.2588
 9088SOL     OW38899   2.359   1.129   4.651  0.3783 -0.4548  0.2239
 9088SOL    HW138900   2.346   1.108   4.558 -1.4696 -1.6221  0.7402
 9088SOL    HW238901   2.436   1.186   4.647 -1.2449  1.7983  1.0937
 9089SOL     OW38902   2.037   2.175   7.497 -0.0866 -0.1811  0.0392
 9089SOL    HW138903   1.965   2.169   7.434 -0.4159  1.5252  0.2370
 9089SOL    HW238904   2.017   2.104   7.557 -1.4063 -0.6192 -0.9019
 9090SOL     OW38905   2.443   4.032   8.367 -0.9119 -0.0921 -0.4918
 9090SOL    HW138906   2.394   4.032   8.449  0.5184  0.1563  0.3557
 9090SOL    HW238907   2.385   3.977   8.314  0.9711 -1.0664 -1.5127
 9091SOL     OW38908   3.729   0.059   5.960 -0.1062 -0.0695  0.0010
 9091SOL    HW138909   3.782   4.735   6.009 -0.7576 -1.8947 -1.6156
 9091SOL    HW238910   3.642   0.050   5.999 -0.5120 -2.3572 -1.4585
 9092SOL     OW38911   2.588   3.389   3.025 -0.6595  0.9069 -0.0751
 9092SOL    HW138912   2.588   3.439   3.107 -1.3605 -0.2387  0.6147
 9092SOL    HW238913   2.678   3.359   3.038 -0.1632  1.8826 -1.2723
 9093SOL     OW38914   0.618   4.317   6.548 -0.0126  0.6164 -0.6059
 9093SOL    HW138915   0.696   4.344   6.500 -0.4026 -0.9870 -2.1270
 9093SOL    HW238916   0.646   4.230   6.574  0.1488  0.5285 -1.0702
 9094SOL     OW38917   0.843   4.709   6.096  0.0425 -0.3015 -0.1308
 9094SOL    HW138918   0.879   0.047   6.140  0.2448  1.4382 -3.3161
 9094SOL    HW238919   0.760   4.697   6.141 -0.3729  1.3583 -0.4572
 9095SOL     OW38920   3.966   1.613  11.694 -0.1752  0.9114  0.3088
 9095SOL    HW138921   4.004   1.540  11.744 -1.5866 -0.4157 -0.5560
 9095SOL    HW238922   4.022   1.687  11.717  0.0461  1.0956 -0.8054
 9096SOL     OW38923   2.517   4.450   6.710  0.4719 -0.2906 -0.3450
 9096SOL    HW138924   2.474   4.535   6.706 -0.3270 -0.7638 -1.6598
 9096SOL    HW238925   2.561   4.446   6.625  0.1166 -1.2070 -0.4864
 9097SOL     OW38926   1.247   4.034   7.451 -0.0015  0.2673  0.5228
 9097SOL    HW138927   1.253   4.098   7.380  0.8526 -0.2707  0.1090
 9097SOL    HW238928   1.217   4.097   7.517  0.4864 -0.9033  1.8590
 9098SOL     OW38929   2.353   1.443  10.101 -0.2354 -0.4517 -0.3856
 9098SOL    HW138930   2.342   1.406  10.188  0.7456 -0.0754 -0.1004
 9098SOL    HW238931   2.340   1.538  10.111  2.3784 -0.2067  0.8101
 9099SOL     OW38932   1.936   1.997  17.609  0.3434  0.2880 -0.3359
 9099SOL    HW138933   1.943   2.085  17.571 -1.3921  0.9134  0.8015
 9099SOL    HW238934   1.958   2.020  17.699 -1.3014  1.7844 -0.3291
 9100SOL     OW38935   3.088   0.192   7.368 -0.2179  0.1701  0.2131
 9100SOL    HW138936   3.101   0.247   7.445 -0.7125  1.3698 -0.5583
 9100SOL    HW238937   3.170   0.143   7.359 -0.0251  0.0202  2.7342
 9101SOL     OW38938   1.483   2.568  13.752 -0.2952 -0.4595 -0.0095
 9101SOL    HW138939   1.484   2.472  13.748 -2.2337 -0.5048  0.3114
 9101SOL    HW238940   1.536   2.588  13.829  0.7991  1.8037 -1.3683
 9102SOL     OW38941   4.640   0.320   3.494  0.4882  0.6275 -0.0309
 9102SOL    HW138942   4.653   0.407   3.457 -0.0403 -0.4683 -2.7616
 9102SOL    HW238943   4.619   0.345   3.584 -0.8543 -1.7486  0.3078
 9103SOL     OW38944   2.430   3.683   8.576 -0.1027  0.0150  0.7437
 9103SOL    HW138945   2.412   3.770   8.613  2.3845  0.4683  0.9354
 9103SOL    HW238946   2.526   3.687   8.581 -0.0471  2.3046 -2.2649
 9104SOL     OW38947   3.334   1.557  15.963 -0.5637  0.4160  0.1785
 9104SOL    HW138948   3.287   1.555  15.880 -0.9110 -0.7176  0.4035
 9104SOL    HW238949   3.324   1.652  15.971  0.5581  0.4474  1.1196
 9105SOL     OW38950   3.230   3.675   4.773 -0.8165 -0.3630 -1.1481
 9105SOL    HW138951   3.284   3.729   4.716  1.1377 -1.9483 -0.7813
 9105SOL    HW238952   3.149   3.726   4.781  0.0754  0.9305 -0.3643
 9106SOL     OW38953   4.181   0.966   6.956 -0.4113  0.0275  0.1228
 9106SOL    HW138954   4.244   1.031   6.984 -1.2830  0.3250  1.3870
 9106SOL    HW238955   4.198   0.964   6.862 -0.6984  2.0605  0.0335
 9107SOL     OW38956   0.103   0.206   8.390  0.0368 -0.0289 -0.0634
 9107SOL    HW138957   0.030   0.230   8.448  0.9951  0.2290  1.0306
 9107SOL    HW238958   0.155   0.158   8.453  0.8612  0.6685 -0.2137
 9108SOL     OW38959   0.148   0.408   8.189  0.5861 -0.7522 -0.0808
 9108SOL    HW138960   0.184   0.356   8.117 -0.4372 -2.6175  0.7429
 9108SOL    HW238961   0.126   0.337   8.250  0.3363  0.9383  1.7810
 9109SOL     OW38962   1.722   0.907  14.959 -0.0088  0.4287 -0.0177
 9109SOL    HW138963   1.635   0.911  14.919 -0.7548 -0.0006  1.5443
 9109SOL    HW238964   1.772   0.974  14.913 -1.9947  1.6149 -0.4792
 9110SOL     OW38965   1.463   4.267   4.850 -0.1727 -0.0434  0.2827
 9110SOL    HW138966   1.434   4.178   4.867  1.0612 -0.7046 -0.9629
 9110SOL    HW238967   1.447   4.279   4.756 -2.0219 -2.9388  0.2339
 9111SOL     OW38968   2.927   1.510   8.864  0.0329  0.2070  0.2049
 9111SOL    HW138969   3.008   1.502   8.914  0.1719  0.7337  0.0562
 9111SOL    HW238970   2.871   1.551   8.930  0.0253  0.5265 -0.0035
 9112SOL     OW38971   1.780   4.632  11.051  0.3715  0.0357  0.1981
 9112SOL    HW138972   1.832   4.614  11.130  1.3108 -0.8303 -0.6219
 9112SOL    HW238973   1.782   4.727  11.039 -0.6848  0.3587  2.5484
 9113SOL     OW38974   2.155   0.875   7.592  0.1213 -0.6869 -0.7841
 9113SOL    HW138975   2.095   0.884   7.518 -0.6867 -2.5793 -0.3627
 9113SOL    HW238976   2.096   0.825   7.649  1.2228  0.6589  1.5353
 9114SOL     OW38977   0.855   2.375   7.700  0.3961  0.0197 -1.1564
 9114SOL    HW138978   0.775   2.327   7.679  1.2136 -2.6356  1.8925
 9114SOL    HW238979   0.856   2.354   7.793  0.0954  0.5068 -1.0421
 9115SOL     OW38980   2.394   1.293   6.746  0.0099 -0.1452  0.0247
 9115SOL    HW138981   2.483   1.310   6.774 -0.0665  2.8335 -1.5468
 9115SOL    HW238982   2.386   1.199   6.763  0.5156 -0.2978 -0.6212
 9116SOL     OW38983   1.529   0.532   8.039  0.5228 -0.1655 -0.3450
 9116SOL    HW138984   1.527   0.545   7.944 -1.0670 -0.3945 -0.3487
 9116SOL    HW238985   1.581   0.452   8.036 -0.9570 -1.0432 -2.3217
 9117SOL     OW38986   0.981   2.146   4.693  0.5609 -0.0885 -0.0625
 9117SOL    HW138987   0.921   2.117   4.762  2.3471  1.3197  2.0971
 9117SOL    HW238988   0.916   2.146   4.623 -0.0131 -1.2666  0.4822
 9118SOL     OW38989   3.755   0.035   1.717  0.1371  0.3336 -0.7582
 9118SOL    HW138990   3.707   4.731   1.789  1.3831 -0.6880 -0.5369
 9118SOL    HW238991   3.713   4.726   1.646 -0.5207 -0.8890  0.4360
 9119SOL     OW38992   4.639   2.480   6.635 -0.5453  0.3091  0.5726
 9119SOL    HW138993   4.591   2.420   6.693  2.0900 -2.3970 -0.0213
 9119SOL    HW238994   4.585   2.555   6.612  0.0298  0.3428 -0.6662
 9120SOL     OW38995   4.729   1.129   5.958 -0.2195  0.3098  0.2720
 9120SOL    HW138996   4.723   1.181   5.878 -0.3546 -0.7907 -0.4302
 9120SOL    HW238997   0.081   1.145   5.987 -0.4912  3.2968 -0.5194
 9121SOL     OW38998   2.829   2.302   5.860 -0.0707  0.1308  0.1746
 9121SOL    HW138999   2.827   2.246   5.937  0.2180  1.1937  0.9669
 9121SOL    HW239000   2.753   2.256   5.824 -1.3933  1.5779  1.1032
 9122SOL     OW39001   3.653   1.087   9.297  0.3898  0.7721 -1.0352
 9122SOL    HW139002   3.603   1.007   9.315  2.7090 -0.2649  0.8431
 9122SOL    HW239003   3.706   1.055   9.224 -1.9067 -2.2966 -1.4015
 9123SOL     OW39004   1.624   4.342   5.056 -0.0959 -0.0408  0.5661
 9123SOL    HW139005   1.559   4.346   4.987  0.5630  0.1170 -0.0458
 9123SOL    HW239006   1.680   4.265   5.043 -0.7192 -0.0896 -1.7750
 9124SOL     OW39007   0.413   2.959   3.875 -0.0636  0.1918 -0.0120
 9124SOL    HW139008   0.342   2.985   3.933  0.2562  0.5219  0.2327
 9124SOL    HW239009   0.481   2.933   3.937 -0.2378 -0.4899 -0.1099
 9125SOL     OW39010   4.047   2.120  16.379 -0.0809  0.2863 -0.6973
 9125SOL    HW139011   4.005   2.055  16.436 -1.0333  2.5326  1.1307
 9125SOL    HW239012   4.096   2.172  16.442 -0.8244  1.2709 -0.9388
 9126SOL     OW39013   4.289   1.535   5.710 -0.8936  0.7057 -0.1530
 9126SOL    HW139014   4.347   1.595   5.663 -0.1290  1.0845  1.2845
 9126SOL    HW239015   4.218   1.595   5.732 -1.2394 -0.1436  1.0977
 9127SOL     OW39016   2.627   4.448   4.950 -0.1414 -0.2227 -0.1863
 9127SOL    HW139017   2.586   4.522   4.995 -0.6621  0.2934 -1.5058
 9127SOL    HW239018   2.640   4.491   4.865  0.2668 -1.3776 -0.7085
 9128SOL     OW39019   1.605   0.374  16.502  0.4072 -0.7646 -0.0715
 9128SOL    HW139020   1.645   0.296  16.540  0.6995 -0.6553 -0.1533
 9128SOL    HW239021   1.537   0.392  16.567  1.2427  0.8161  0.3890
 9129SOL     OW39022   1.991   2.893  14.544  0.5162 -0.6317  0.4348
 9129SOL    HW139023   1.974   2.801  14.522 -2.7180 -0.1410  0.8100
 9129SOL    HW239024   2.057   2.881  14.613  3.0234 -0.4485 -1.9659
 9130SOL     OW39025   1.270   1.453   6.419 -0.3318 -0.0896 -0.1187
 9130SOL    HW139026   1.192   1.408   6.450 -1.1782  1.0235 -0.6113
 9130SOL    HW239027   1.324   1.378   6.395  0.1267  0.3672 -0.5430
 9131SOL     OW39028   0.990   2.137   3.195 -0.6408  0.1813 -0.6895
 9131SOL    HW139029   1.023   2.087   3.270  0.8696 -0.3481 -1.7194
 9131SOL    HW239030   0.912   2.161   3.246  0.9368  0.6645  1.4947
 9132SOL     OW39031   4.656   4.228   1.768  0.0910 -0.4728 -0.5355
 9132SOL    HW139032   4.627   4.289   1.699 -1.7085 -0.7314 -0.0030
 9132SOL    HW239033   4.722   4.172   1.727 -0.3376 -2.4856  1.5580
 9133SOL     OW39034   2.036   3.557  14.494  0.1199 -0.0871  0.5077
 9133SOL    HW139035   1.979   3.556  14.417  0.6180 -0.3115  0.1411
 9133SOL    HW239036   2.095   3.481  14.494  1.2204  0.7605 -3.5093
 9134SOL     OW39037   1.629   2.845   0.600  0.1762 -0.0272 -0.2504
 9134SOL    HW139038   1.657   2.770   0.652  0.1682 -1.1013 -1.7990
 9134SOL    HW239039   1.560   2.885   0.652  1.4237  3.4799 -1.2609
 9135SOL     OW39040   2.572   2.475   8.888 -0.4122 -0.5860  0.1716
 9135SOL    HW139041   2.497   2.534   8.897  1.9684  2.3092  1.2059
 9135SOL    HW239042   2.639   2.530   8.846 -0.1659 -0.4742  0.7183
 9136SOL     OW39043   2.040   2.015  10.566  0.6262 -0.3093 -0.8503
 9136SOL    HW139044   2.089   2.015  10.484  1.8088  0.0024 -0.1379
 9136SOL    HW239045   1.982   2.090  10.559  1.3137  0.2477 -0.6026
 9137SOL     OW39046   4.070   4.149   5.070  0.6051 -0.2045 -0.1982
 9137SOL    HW139047   4.164   4.141   5.059  0.5294 -1.7838  0.2903
 9137SOL    HW239048   4.047   4.229   5.023  0.1484 -0.3282 -0.1921
 9138SOL     OW39049   4.513   3.682   4.095 -0.0731  0.4996  0.0958
 9138SOL    HW139050   4.524   3.636   4.178  1.7021 -2.1992 -1.6570
 9138SOL    HW239051   4.431   3.645   4.062  0.5382 -0.3596 -0.4604
 9139SOL     OW39052   1.136   1.704   4.195  0.0464 -0.1150  0.2253
 9139SOL    HW139053   1.213   1.750   4.162 -1.8459  4.2086  1.9215
 9139SOL    HW239054   1.168   1.648   4.266  2.8986  0.2748 -0.7445
 9140SOL     OW39055   0.323   2.998   8.101  0.1506 -0.3327  0.1248
 9140SOL    HW139056   0.235   2.989   8.063  1.9236 -1.3236 -3.7307
 9140SOL    HW239057   0.311   3.029   8.191  3.3056 -0.7928  0.6828
 9141SOL     OW39058   4.467   2.830  12.257 -0.3171 -0.6489 -0.2103
 9141SOL    HW139059   4.480   2.868  12.170 -2.0068  0.6406  0.0944
 9141SOL    HW239060   4.537   2.864  12.313 -0.1709 -2.3838  0.6786
 9142SOL     OW39061   4.525   2.339   4.983 -0.1592 -0.0906  0.0535
 9142SOL    HW139062   4.480   2.337   4.899  2.5379  1.2462 -1.3975
 9142SOL    HW239063   4.613   2.362   4.953  1.0940 -2.7320  1.6730
 9143SOL     OW39064   4.218   4.094   2.146  0.7559 -0.5620 -0.2032
 9143SOL    HW139065   4.279   4.098   2.220  0.5056  0.4373 -0.0542
 9143SOL    HW239066   4.235   4.168   2.089  1.9854 -0.4089  0.3671
 9144SOL     OW39067   2.794   2.188   5.132 -0.0859 -0.5036 -0.3012
 9144SOL    HW139068   2.763   2.104   5.164 -3.0742  0.5077 -0.5402
 9144SOL    HW239069   2.712   2.221   5.095  0.3619  3.2691  2.0989
 9145SOL     OW39070   0.779   0.930   4.078  0.7398 -0.4235 -0.0821
 9145SOL    HW139071   0.854   0.890   4.034  0.9948 -1.1834  1.0193
 9145SOL    HW239072   0.800   1.023   4.089  0.6870 -0.4332  0.1026
 9146SOL     OW39073   0.456   3.656  10.413 -0.5156  0.2600 -0.0969
 9146SOL    HW139074   0.527   3.629  10.355  1.5497  1.8857  1.6812
 9146SOL    HW239075   0.389   3.593  10.387  3.3668 -2.8764 -2.3552
 9147SOL     OW39076   3.591   1.772   4.929 -0.3814 -0.0550  0.6040
 9147SOL    HW139077   3.566   1.778   4.837  0.6104 -2.7355  0.1639
 9147SOL    HW239078   3.629   1.684   4.931  1.8259  0.8989  0.0478
 9148SOL     OW39079   0.732   0.948  11.906 -0.1334 -0.1142 -0.3425
 9148SOL    HW139080   0.684   0.942  11.823 -1.8653 -0.7188  0.6931
 9148SOL    HW239081   0.691   1.025  11.944  1.6813  0.5110  0.3651
 9149SOL     OW39082   1.053   1.268  14.862 -0.0490 -0.0550 -0.1300
 9149SOL    HW139083   1.023   1.228  14.780 -0.6990  0.3872 -0.1101
 9149SOL    HW239084   1.068   1.361  14.847  2.2888 -0.5679 -0.8920
 9150SOL     OW39085   0.899   4.378   6.536 -0.3116  0.3244 -0.5045
 9150SOL    HW139086   0.940   4.464   6.538 -0.7900  0.5497 -0.3021
 9150SOL    HW239087   0.929   4.344   6.451  1.4283  1.7848 -0.4652
 9151SOL     OW39088   0.272   1.731  17.203 -0.1558 -0.1751 -0.2289
 9151SOL    HW139089   0.294   1.808  17.151 -0.6465 -0.4460 -0.8507
 9151SOL    HW239090   0.322   1.750  17.282  2.2709 -0.9310 -1.5933
 9152SOL     OW39091   3.415   4.106   0.450  0.1981  0.3190 -0.1091
 9152SOL    HW139092   3.422   4.012   0.434 -1.8161  0.3009 -0.9011
 9152SOL    HW239093   3.336   4.129   0.400  0.1806  0.5155  0.0090
 9153SOL     OW39094   3.582   2.808  12.083 -0.1700  0.4500 -0.3625
 9153SOL    HW139095   3.557   2.855  12.004 -0.7578 -1.7705 -1.5002
 9153SOL    HW239096   3.618   2.727  12.046  1.9544  1.4003 -0.4096
 9154SOL     OW39097   0.110   1.342   2.029  0.4110 -0.3028 -0.2701
 9154SOL    HW139098   0.145   1.295   1.954  1.6082 -1.2365  0.8699
 9154SOL    HW239099   0.152   1.423   2.004  0.2061  0.1076  0.7160
 9155SOL     OW39100   2.314   2.668   0.988  0.6873 -0.6841 -0.2794
 9155SOL    HW139101   2.294   2.601   1.053 -1.1542 -0.8188 -1.0037
 9155SOL    HW239102   2.391   2.711   1.026  0.8241 -0.7525 -0.4781
 9156SOL     OW39103   3.628   2.778  17.293 -0.2408  0.3022 -0.1606
 9156SOL    HW139104   3.592   2.811  17.376  0.7174  1.1528 -0.0853
 9156SOL    HW239105   3.651   2.689  17.321 -1.0597 -0.2815 -1.3969
 9157SOL     OW39106   4.455   1.114   0.701 -0.1873  0.8583  0.2700
 9157SOL    HW139107   4.411   1.191   0.667 -0.7981  0.5313  0.3231
 9157SOL    HW239108   4.380   1.055   0.713  0.5896 -0.2779 -0.4301
 9158SOL     OW39109   1.649   3.810   5.940 -0.2982  0.4293  0.5749
 9158SOL    HW139110   1.686   3.752   6.005  3.1428 -1.2270 -2.8720
 9158SOL    HW239111   1.603   3.869   5.999  2.3052  1.9791  1.0494
 9159SOL     OW39112   1.959   4.738   4.898  0.9601 -0.0917  0.2106
 9159SOL    HW139113   2.021   4.686   4.846  2.0010  0.0278  1.3276
 9159SOL    HW239114   1.927   4.666   4.952  1.6342 -0.4395  0.1568
 9160SOL     OW39115   0.922   4.127   5.178 -0.3941 -0.4821 -0.0935
 9160SOL    HW139116   1.010   4.089   5.189 -0.7727 -1.0377  0.9367
 9160SOL    HW239117   0.947   4.220   5.175  1.8876 -1.1103 -0.8136
 9161SOL     OW39118   2.099   0.939   0.850  0.1742 -0.3426 -0.4166
 9161SOL    HW139119   2.124   0.913   0.761  1.0909  0.8992 -0.5258
 9161SOL    HW239120   2.029   0.878   0.873 -1.6416  1.2493 -1.7986
 9162SOL     OW39121   2.394   1.592   4.379 -0.3167 -0.0536 -0.0610
 9162SOL    HW139122   2.368   1.608   4.469 -1.5591 -0.2055 -0.3907
 9162SOL    HW239123   2.437   1.673   4.353  0.8455 -1.1390 -1.5545
 9163SOL     OW39124   3.979   3.623  15.195  0.0131  0.6969  0.5623
 9163SOL    HW139125   4.040   3.591  15.261  0.7030 -1.1581 -0.9837
 9163SOL    HW239126   3.981   3.717  15.216 -4.0347  0.8978  0.1429
 9164SOL     OW39127   3.456   0.687   3.026  0.0019  0.6911  0.1846
 9164SOL    HW139128   3.481   0.694   3.118 -0.1389  0.1234  0.2674
 9164SOL    HW239129   3.365   0.715   3.032  0.9169  3.4716  1.2707
 9165SOL     OW39130   0.328   2.101   4.986 -0.4400  0.3763  0.1002
 9165SOL    HW139131   0.351   2.147   4.905 -0.8681  0.9238  0.2938
 9165SOL    HW239132   0.395   2.032   4.992 -0.8188 -0.0500 -0.5471
 9166SOL     OW39133   3.959   1.673   3.064 -0.3441  0.3682  0.1083
 9166SOL    HW139134   3.973   1.626   2.982  3.1528  1.2177  0.2301
 9166SOL    HW239135   3.865   1.691   3.057 -0.3251  0.3762 -0.1102
 9167SOL     OW39136   2.552   0.758   6.731 -0.3928  0.6120  0.0404
 9167SOL    HW139137   2.571   0.755   6.638 -2.1176  0.8340 -0.3233
 9167SOL    HW239138   2.560   0.665   6.751  1.0561  0.6093 -0.5732
 9168SOL     OW39139   0.547   4.245   7.408  0.1026 -0.2252  0.0611
 9168SOL    HW139140   0.532   4.272   7.317  0.6729 -1.1198 -0.3059
 9168SOL    HW239141   0.493   4.311   7.451 -0.4799 -0.1718 -0.7339
 9169SOL     OW39142   1.442   0.308  14.935 -0.3701 -0.0742 -0.4089
 9169SOL    HW139143   1.357   0.273  14.960 -0.6279 -0.1385 -1.3813
 9169SOL    HW239144   1.433   0.404  14.941 -0.2362 -0.2155  1.8767
 9170SOL     OW39145   2.842   1.662   9.859 -0.1904 -0.7468  0.9305
 9170SOL    HW139146   2.769   1.675   9.919 -1.1588  0.3338 -0.4896
 9170SOL    HW239147   2.916   1.696   9.910  0.7107 -0.4096 -0.6239
 9171SOL     OW39148   0.449   1.218   5.126  0.3873  1.2000 -0.5124
 9171SOL    HW139149   0.488   1.275   5.060 -0.0415  0.8923 -1.0359
 9171SOL    HW239150   0.465   1.269   5.206 -0.6463  1.5952 -0.5581
 9172SOL     OW39151   0.659   3.698  10.226 -0.8499 -0.9746 -0.1865
 9172SOL    HW139152   0.689   3.732  10.142 -0.4365 -0.0804  0.3183
 9172SOL    HW239153   0.724   3.631  10.246 -0.7348 -0.9148 -0.3619
 9173SOL     OW39154   1.608   2.118   6.857 -0.1617  0.2193  1.1676
 9173SOL    HW139155   1.532   2.174   6.839  0.8750  1.1852 -0.2578
 9173SOL    HW239156   1.568   2.031   6.855 -0.1314  0.2307 -0.2182
 9174SOL     OW39157   3.242   4.444   9.519  0.3210  0.2881  0.2943
 9174SOL    HW139158   3.316   4.417   9.573  0.9024  1.6946  0.2166
 9174SOL    HW239159   3.251   4.398   9.436 -1.6181 -0.9615  0.7883
 9175SOL     OW39160   2.010   3.516   7.678  0.1267 -0.1558  0.0914
 9175SOL    HW139161   1.938   3.578   7.673  1.3210  1.1135 -1.1054
 9175SOL    HW239162   2.025   3.504   7.585 -1.5495  1.3774 -0.3686
 9176SOL     OW39163   1.846   3.839  14.478  0.2477 -0.3018  0.1759
 9176SOL    HW139164   1.931   3.826  14.437  0.3904 -0.6363  0.5833
 9176SOL    HW239165   1.788   3.804  14.410 -0.6364 -0.8250  1.2015
 9177SOL     OW39166   3.499   0.612   5.845  0.2229 -0.3396  0.1016
 9177SOL    HW139167   3.407   0.598   5.821 -0.5275  1.2126  1.9781
 9177SOL    HW239168   3.519   0.698   5.807  0.3894 -0.2088  0.4830
 9178SOL     OW39169   1.015   3.427   3.479  0.0148 -0.2494 -0.2124
 9178SOL    HW139170   1.040   3.513   3.446  0.5772  0.2891  1.5766
 9178SOL    HW239171   1.075   3.422   3.554 -1.3507 -1.7060  0.7998
 9179SOL     OW39172   2.700   2.287   6.310  0.0910  0.5207  0.6442
 9179SOL    HW139173   2.774   2.232   6.284 -1.0025  0.1229 -1.6981
 9179SOL    HW239174   2.635   2.250   6.249 -0.3027  2.4555 -0.1021
 9180SOL     OW39175   4.559   3.104   7.005 -0.2177 -0.7794  0.4856
 9180SOL    HW139176   4.467   3.112   7.032  0.1938 -0.3141  1.7338
 9180SOL    HW239177   4.602   3.177   7.050  0.2242 -0.2148 -0.8708
 9181SOL     OW39178   1.205   4.294   5.771 -0.1664  0.1409 -0.1757
 9181SOL    HW139179   1.258   4.252   5.839 -1.8327 -1.4658  0.1458
 9181SOL    HW239180   1.140   4.337   5.826 -0.1554  0.1452 -0.1659
 9182SOL     OW39181   1.241   3.375   5.691 -0.6538  0.4205 -0.1763
 9182SOL    HW139182   1.308   3.359   5.757 -0.6168 -0.7650 -0.5102
 9182SOL    HW239183   1.278   3.338   5.611 -0.5258 -2.4300  1.2050
 9183SOL     OW39184   3.569   0.553   1.000  0.3381  0.4549  0.2168
 9183SOL    HW139185   3.600   0.583   0.915 -2.7554  1.5554 -0.5102
 9183SOL    HW239186   3.648   0.503   1.023  1.6569  1.7757 -1.4020
 9184SOL     OW39187   3.747   2.434   7.967  0.1646  0.0404  0.0419
 9184SOL    HW139188   3.795   2.499   7.916  2.5923 -1.4760  0.4031
 9184SOL    HW239189   3.783   2.465   8.050  0.3342 -1.6491  0.6122
 9185SOL     OW39190   2.684   2.898   1.311 -0.9483 -0.1751  0.0404
 9185SOL    HW139191   2.777   2.914   1.324 -0.6090 -0.1332 -2.4363
 9185SOL    HW239192   2.653   2.902   1.402 -2.2066 -1.2563 -0.3366
 9186SOL     OW39193   4.362   3.968   7.474 -0.6313 -0.4668  0.8565
 9186SOL    HW139194   4.303   4.010   7.537  0.6989  1.9662  0.4424
 9186SOL    HW239195   4.379   3.888   7.524  0.2534 -2.2941 -2.3737
 9187SOL     OW39196   3.618   2.838   6.111  0.8053 -0.1424 -0.3193
 9187SOL    HW139197   3.585   2.781   6.042 -2.0463 -0.1152  0.9939
 9187SOL    HW239198   3.551   2.907   6.118 -0.2569 -1.3623  1.6309
 9188SOL     OW39199   3.229   1.132   4.344 -0.3996  0.4619 -0.0092
 9188SOL    HW139200   3.133   1.126   4.345 -0.3595  0.0050  0.8165
 9188SOL    HW239201   3.235   1.082   4.262 -2.3590  0.4519 -0.1548
 9189SOL     OW39202   3.492   2.105   8.040 -0.4000  0.0682  0.2193
 9189SOL    HW139203   3.487   2.183   8.096  4.0303  0.9756 -0.6416
 9189SOL    HW239204   3.582   2.101   8.006 -0.2516  0.8207  0.5161
 9190SOL     OW39205   2.418   4.397  14.894 -0.6904 -0.5480  0.3325
 9190SOL    HW139206   2.460   4.482  14.909 -1.6717  0.2579 -1.4412
 9190SOL    HW239207   2.365   4.402  14.974  0.0966  0.3373  0.7967
 9191SOL     OW39208   3.272   4.507   1.985  0.3082 -0.0315 -0.1020
 9191SOL    HW139209   3.221   4.513   2.066  1.7841 -0.5129  0.8547
 9191SOL    HW239210   3.329   4.583   1.994  2.2858 -1.4089 -1.0848
 9192SOL     OW39211   3.713   0.812   4.735  0.4309  0.6357  0.7038
 9192SOL    HW139212   3.664   0.858   4.803 -2.5992  0.4946 -1.3776
 9192SOL    HW239213   3.707   0.868   4.658 -2.0629  0.1066  0.5097
 9193SOL     OW39214   3.918   3.533   6.096 -0.3463  0.1895  0.7843
 9193SOL    HW139215   3.847   3.516   6.158 -0.5407 -1.3948  0.1302
 9193SOL    HW239216   3.906   3.453   6.044  1.7696 -0.4225  1.2263
 9194SOL     OW39217   2.773   0.914  13.252  0.0458  0.0858 -0.5132
 9194SOL    HW139218   2.863   0.914  13.285 -0.7144 -0.1050  1.5399
 9194SOL    HW239219   2.744   0.834  13.294  2.7990 -0.9811 -0.6488
 9195SOL     OW39220   4.628   2.513   4.480  0.4464 -0.0186 -0.1954
 9195SOL    HW139221   4.632   2.609   4.472 -0.0917  0.0995  0.8816
 9195SOL    HW239222   4.538   2.487   4.460 -0.0172  0.5516  1.0971
 9196SOL     OW39223   2.546   0.087  13.225  0.4314  0.6217 -0.4069
 9196SOL    HW139224   2.616   0.022  13.216  0.0252  0.0904  0.3274
 9196SOL    HW239225   2.535   0.104  13.131 -0.4617 -0.5439 -0.4993
 9197SOL     OW39226   2.439   1.573   0.021 -0.3841  0.2500 -0.0348
 9197SOL    HW139227   2.470   1.649   0.070 -0.3019 -0.6243  1.2491
 9197SOL    HW239228   2.452   1.614  17.686  2.3226 -0.7539 -0.1062
 9198SOL     OW39229   4.128   3.625   4.717  0.0371 -0.6235  0.2442
 9198SOL    HW139230   4.150   3.694   4.779  2.7122 -1.5320  0.2835
 9198SOL    HW239231   4.066   3.571   4.766  1.0650 -0.4803  1.6869
 9199SOL     OW39232   2.529   3.635  11.392 -0.3965  0.3952 -0.0279
 9199SOL    HW139233   2.467   3.708  11.390  0.5971  1.2266 -0.7948
 9199SOL    HW239234   2.530   3.609  11.300 -1.2719 -1.0400  0.3751
 9200SOL     OW39235   4.629   0.669  14.357  0.0475 -0.1290 -0.3524
 9200SOL    HW139236   4.641   0.680  14.451  0.4915 -2.8399 -0.0957
 9200SOL    HW239237   4.707   0.622  14.329  1.0481  1.0325  0.5251
 9201SOL     OW39238   0.128   3.521  13.644 -0.2979  0.1494 -0.1330
 9201SOL    HW139239   0.061   3.548  13.707 -0.8169 -0.9703 -0.1987
 9201SOL    HW239240   0.136   3.598  13.589 -1.2640 -1.6762 -2.8295
 9202SOL     OW39241   0.017   4.697   0.281  0.1699 -0.4391 -0.3186
 9202SOL    HW139242   0.110   4.713   0.296  0.1844 -2.9266  2.2739
 9202SOL    HW239243   4.718   0.045   0.299  3.3213  1.0965 -1.1574
 9203SOL     OW39244   2.154   4.013  13.672 -0.1607  0.7630  0.7075
 9203SOL    HW139245   2.065   4.033  13.644 -0.4305  0.8355  1.5938
 9203SOL    HW239246   2.185   4.095  13.711  2.8919  1.5033 -3.2863
 9204SOL     OW39247   3.862   1.712  10.028  0.3355  0.3868  0.4053
 9204SOL    HW139248   3.883   1.658   9.951 -0.6762 -4.0393  3.2487
 9204SOL    HW239249   3.876   1.795   9.984  1.0857  0.8893  1.6055
 9205SOL     OW39250   1.494   2.233  17.298  0.5073 -0.3601 -0.1294
 9205SOL    HW139251   1.473   2.302  17.236  2.6259  0.0880 -0.3390
 9205SOL    HW239252   1.543   2.281  17.365  1.0324  0.2330 -0.9415
 9206SOL     OW39253   1.743   3.747   7.938  0.4713  0.0557 -0.5438
 9206SOL    HW139254   1.801   3.806   7.987 -0.0460  0.2644 -0.1771
 9206SOL    HW239255   1.726   3.685   8.010  1.3431 -0.9935 -1.2468
 9207SOL     OW39256   4.635   2.428   5.742 -0.0534  0.6829 -0.1745
 9207SOL    HW139257   4.546   2.396   5.730  0.4815 -0.4138 -1.2238
 9207SOL    HW239258   4.655   2.449   5.651  0.7990 -0.2215 -0.1967
 9208SOL     OW39259   2.468   0.988   3.484 -0.1359  0.1787  0.0098
 9208SOL    HW139260   2.497   1.010   3.573 -1.7000 -1.3166  0.8801
 9208SOL    HW239261   2.414   0.916   3.517 -0.4237 -0.0333 -0.9299
 9209SOL     OW39262   1.554   1.862   0.957  0.6376 -0.2166  0.0833
 9209SOL    HW139263   1.566   1.840   0.865 -1.6692 -1.6226  0.1119
 9209SOL    HW239264   1.608   1.793   0.996 -1.3567 -1.1310  1.2633
 9210SOL     OW39265   0.796   4.569  10.052 -0.6676 -0.4191 -0.1017
 9210SOL    HW139266   0.879   4.522  10.043 -0.4965 -0.7764  3.4023
 9210SOL    HW239267   0.750   4.564   9.968  2.2069 -0.4741 -1.6822
 9211SOL     OW39268   1.568   0.806  11.508 -0.0504  0.4772  0.1033
 9211SOL    HW139269   1.530   0.795  11.595 -0.6114 -1.1624 -0.3555
 9211SOL    HW239270   1.501   0.860  11.465 -0.7057 -0.4621 -0.0393
 9212SOL     OW39271   3.378   4.587   8.097 -0.0513 -0.4353 -0.3615
 9212SOL    HW139272   3.404   4.515   8.156  1.4607 -1.3208 -2.1170
 9212SOL    HW239273   3.342   4.646   8.163 -0.7249  0.5496 -1.6097
 9213SOL     OW39274   3.923   2.970   5.751  0.1261  0.3491 -0.2120
 9213SOL    HW139275   3.860   2.946   5.683  0.7639 -1.1241 -0.2789
 9213SOL    HW239276   4.003   2.975   5.699  0.4467  0.5936  0.3025
 9214SOL     OW39277   1.566   0.512   7.771 -0.1984 -0.3106 -0.1667
 9214SOL    HW139278   1.648   0.557   7.755  0.5412 -1.3180  0.7211
 9214SOL    HW239279   1.576   0.461   7.691 -1.5816 -0.1307 -0.4598
 9215SOL     OW39280   2.436   1.508   7.165  0.3625  0.0152  0.3485
 9215SOL    HW139281   2.459   1.600   7.178  1.2854 -0.1462 -0.1796
 9215SOL    HW239282   2.350   1.511   7.122 -0.3120  1.9971  1.8246
 9216SOL     OW39283   1.759   1.532   8.818 -0.3339 -0.7350  0.2884
 9216SOL    HW139284   1.787   1.441   8.806 -1.6530 -1.2943  1.5081
 9216SOL    HW239285   1.770   1.566   8.729 -0.0152 -4.5187 -1.1242
 9217SOL     OW39286   3.685   1.603   8.310 -0.0162  0.2781  0.5510
 9217SOL    HW139287   3.663   1.576   8.221  2.5948  1.3230 -0.4247
 9217SOL    HW239288   3.716   1.689   8.282 -0.2202  0.0153 -0.4685
 9218SOL     OW39289   4.659   2.533  10.881 -0.2701  0.2226 -0.2968
 9218SOL    HW139290   4.668   2.597  10.810  0.0666  0.7972  0.2659
 9218SOL    HW239291   4.690   2.594  10.948  0.7786  1.0757 -1.5511
 9219SOL     OW39292   3.030   4.476  16.136 -0.1284 -0.0288 -0.2721
 9219SOL    HW139293   3.065   4.460  16.049 -1.6084  1.1321 -1.0765
 9219SOL    HW239294   3.089   4.430  16.196 -0.3903  1.8131  1.4234
 9220SOL     OW39295   1.372   1.815   0.024  0.1296 -0.4229 -0.0451
 9220SOL    HW139296   1.319   1.782   0.097  0.6514 -1.9093 -0.3394
 9220SOL    HW239297   1.418   1.888   0.064 -2.8424  0.9424  0.8872
 9221SOL     OW39298   4.334   1.217   7.951 -0.2106  0.3556 -0.6089
 9221SOL    HW139299   4.373   1.172   8.026  1.2033  1.9057 -0.3866
 9221SOL    HW239300   4.245   1.221   7.987 -0.1528 -0.2343 -0.4092
 9222SOL     OW39301   3.789   2.992   0.918  0.3236  0.0882  0.4066
 9222SOL    HW139302   3.709   2.968   0.966  0.3121 -1.3342 -0.3321
 9222SOL    HW239303   3.784   3.088   0.913 -3.1605 -0.2174 -1.7217
 9223SOL     OW39304   2.312   4.238   7.031 -0.0406 -0.1559  1.0632
 9223SOL    HW139305   2.330   4.315   7.085 -0.8599 -0.2419  1.4640
 9223SOL    HW239306   2.220   4.245   7.004 -0.2204 -0.1407  1.6792
 9224SOL     OW39307   2.764   4.171   4.769 -0.2834  0.2754 -0.3129
 9224SOL    HW139308   2.722   4.216   4.696  0.3306  0.7556 -0.3678
 9224SOL    HW239309   2.692   4.170   4.832 -0.2242  3.0121 -0.1998
 9225SOL     OW39310   2.695   3.613   1.431  0.7123  0.0925 -0.0536
 9225SOL    HW139311   2.685   3.694   1.381 -4.0066 -1.2084 -1.2259
 9225SOL    HW239312   2.738   3.645   1.511 -1.3132 -0.0786  1.1121
 9226SOL     OW39313   1.630   3.478   5.715 -0.0375  0.8016 -0.0848
 9226SOL    HW139314   1.605   3.427   5.791  0.8457  0.3866 -0.0767
 9226SOL    HW239315   1.553   3.535   5.709  0.2276  1.0976 -0.6858
 9227SOL     OW39316   3.486   1.075   8.456 -0.3308 -1.0684 -0.2429
 9227SOL    HW139317   3.451   0.988   8.438 -0.5647 -1.8531  4.0070
 9227SOL    HW239318   3.410   1.127   8.430 -1.1327 -2.8196 -1.4225
 9228SOL     OW39319   0.163   2.518   7.883 -0.0389 -0.7334  0.1902
 9228SOL    HW139320   0.150   2.451   7.949 -1.3241 -0.9952 -0.3215
 9228SOL    HW239321   0.205   2.589   7.932 -1.0089 -0.1449  0.1710
 9229SOL     OW39322   4.370   4.143   1.165 -0.3494  0.2271  0.3177
 9229SOL    HW139323   4.369   4.050   1.145  0.7909  0.3961 -0.5410
 9229SOL    HW239324   4.424   4.173   1.091 -0.9027 -2.9969 -1.3944
 9230SOL     OW39325   2.425   4.517   8.714  0.1601 -0.0473 -0.0107
 9230SOL    HW139326   2.364   4.581   8.678 -1.6628 -0.9030  1.5582
 9230SOL    HW239327   2.382   4.485   8.794 -1.0245 -0.1841 -0.7071
 9231SOL     OW39328   3.471   3.376   4.024  0.1195  0.3638 -0.2562
 9231SOL    HW139329   3.448   3.467   4.004  1.7330  0.7422 -0.3849
 9231SOL    HW239330   3.384   3.337   4.017 -0.6046  2.0637 -0.6875
 9232SOL     OW39331   3.092   2.792   6.431 -0.1252  0.5547 -0.2618
 9232SOL    HW139332   3.112   2.780   6.339 -1.4821 -2.4451 -0.1740
 9232SOL    HW239333   2.998   2.808   6.426  0.1904  2.0941 -1.1997
 9233SOL     OW39334   0.190   2.983  15.075 -0.2476 -0.0152  0.3535
 9233SOL    HW139335   0.136   3.009  15.149 -2.0520  1.3002 -1.4275
 9233SOL    HW239336   0.267   2.950  15.121  1.1069 -0.5514 -2.3150
 9234SOL     OW39337   3.324   3.172   6.951  0.1134 -0.3658  0.2588
 9234SOL    HW139338   3.415   3.199   6.966  0.7978 -2.2514 -0.5286
 9234SOL    HW239339   3.288   3.249   6.906  0.4343 -0.5102 -0.2434
 9235SOL     OW39340   2.757   3.641   8.797 -0.2648  0.3647  0.2735
 9235SOL    HW139341   2.772   3.609   8.886  0.1846 -1.7250 -0.5500
 9235SOL    HW239342   2.778   3.557   8.756  0.5897  1.9882 -2.5701
 9236SOL     OW39343   2.146   2.050   6.373  0.1543 -0.4902 -0.0770
 9236SOL    HW139344   2.144   2.017   6.283  0.6309 -0.0771 -0.2341
 9236SOL    HW239345   2.058   2.073   6.403  0.7110 -1.4506  2.2596
 9237SOL     OW39346   3.678   1.193   8.316  0.4902 -0.3644  0.5183
 9237SOL    HW139347   3.593   1.155   8.336  0.9602  1.1240  5.3433
 9237SOL    HW239348   3.714   1.210   8.403  0.8632  0.0856  0.2789
 9238SOL     OW39349   3.805   1.770   6.137  0.1448 -0.3277 -0.1125
 9238SOL    HW139350   3.725   1.720   6.121  0.6378 -1.2875  0.3807
 9238SOL    HW239351   3.863   1.695   6.149 -0.3022 -0.5183  0.8808
 9239SOL     OW39352   0.585   1.265   1.379  0.1087 -0.3082 -0.4752
 9239SOL    HW139353   0.552   1.280   1.468 -3.0297  0.0506 -1.7096
 9239SOL    HW239354   0.605   1.354   1.350 -1.1363 -0.0877 -0.6820
 9240SOL     OW39355   0.856   4.096   3.002 -0.2027  0.2571 -1.1530
 9240SOL    HW139356   0.926   4.152   2.967 -0.3014  0.5019 -0.9579
 9240SOL    HW239357   0.828   4.042   2.928 -1.0239  1.3833 -1.6636
 9241SOL     OW39358   4.120   3.272  17.378  0.2692 -0.0378 -0.4075
 9241SOL    HW139359   4.183   3.332  17.418 -0.3362 -0.8997  1.8710
 9241SOL    HW239360   4.124   3.196  17.437 -0.7777  1.8346  2.1105
 9242SOL     OW39361   2.101   0.490   5.539  0.3077  0.5711 -0.0022
 9242SOL    HW139362   2.059   0.575   5.552 -0.0391  0.3806  0.1389
 9242SOL    HW239363   2.168   0.519   5.478  1.0118 -0.8822  0.0620
 9243SOL     OW39364   1.245   0.522   6.109 -0.5414  0.0532 -0.0819
 9243SOL    HW139365   1.158   0.533   6.146 -1.1625  2.0438 -2.1042
 9243SOL    HW239366   1.271   0.614   6.100 -0.6454 -0.0968 -1.9351
 9244SOL     OW39367   2.415   2.214   8.098 -0.3839 -0.0942  0.4430
 9244SOL    HW139368   2.320   2.224   8.110 -0.5696  0.6106 -1.6360
 9244SOL    HW239369   2.438   2.297   8.057  3.6776 -2.2614 -1.5963
 9245SOL     OW39370   0.060   1.690   5.627 -0.0803  0.8238  0.5042
 9245SOL    HW139371   0.058   1.622   5.559 -2.7924  0.7832  0.6312
 9245SOL    HW239372   0.035   1.638   5.704 -1.8610  1.5809  0.4297
 9246SOL     OW39373   2.406   3.176  17.236  0.0387  0.3976  0.6564
 9246SOL    HW139374   2.438   3.095  17.276 -0.5318 -0.8670 -1.4826
 9246SOL    HW239375   2.413   3.159  17.142  1.0198  1.4542  0.5396
 9247SOL     OW39376   1.958   4.207  16.794 -0.4226  0.1407 -0.2184
 9247SOL    HW139377   1.990   4.117  16.807 -0.9333  0.0664  0.4789
 9247SOL    HW239378   2.038   4.250  16.762 -1.4379  2.4695  0.4552
 9248SOL     OW39379   1.511   0.134   7.380  0.1600 -0.0831 -0.8599
 9248SOL    HW139380   1.512   0.072   7.453  0.6804 -0.0685 -0.8577
 9248SOL    HW239381   1.557   0.076   7.319 -1.1846  0.7649 -2.6878
 9249SOL     OW39382   1.050   1.011  14.238  0.4369 -0.0723 -0.1679
 9249SOL    HW139383   1.074   0.981  14.150  1.2221 -1.1342  0.4019
 9249SOL    HW239384   1.122   0.981  14.294 -0.3755 -0.7888  0.4912
 9250SOL     OW39385   0.451   1.490   4.998 -0.0079 -0.5882  0.4335
 9250SOL    HW139386   0.484   1.560   5.055 -2.7464  1.7916 -0.9000
 9250SOL    HW239387   0.373   1.538   4.971 -0.2997 -0.4672  1.4928
 9251SOL     OW39388   4.404   3.597  14.296 -0.1504 -0.0190  0.1453
 9251SOL    HW139389   4.432   3.585  14.387 -0.3895 -1.1776  0.0738
 9251SOL    HW239390   4.436   3.517  14.255  1.2791  0.0543  1.1076
 9252SOL     OW39391   0.982   2.955   6.311  0.3480  0.5424  0.3444
 9252SOL    HW139392   1.019   2.914   6.233  0.7766  0.1983  0.7210
 9252SOL    HW239393   1.039   2.912   6.375 -0.4595  0.5819  1.0923
 9253SOL     OW39394   1.161   1.505   7.227  0.1062 -0.4411 -0.3722
 9253SOL    HW139395   1.242   1.456   7.238 -0.7012 -1.3317  1.6082
 9253SOL    HW239396   1.152   1.514   7.132 -0.5154 -1.6756 -0.4386
 9254SOL     OW39397   3.958   4.661  12.227  0.3204  0.4910 -0.2150
 9254SOL    HW139398   3.903   4.672  12.149 -0.8506 -0.1958  0.5253
 9254SOL    HW239399   3.910   4.673  12.308  1.4131 -1.6843  0.7480
 9255SOL     OW39400   2.619   2.146   6.543  0.4812  0.5015 -0.0659
 9255SOL    HW139401   2.698   2.105   6.578 -0.9818  0.5464  3.2559
 9255SOL    HW239402   2.665   2.205   6.483  0.8595  1.9309  1.6263
 9256SOL     OW39403   1.497   0.898   8.848 -0.2534 -0.2410 -0.0778
 9256SOL    HW139404   1.554   0.854   8.911 -1.9773  1.9211  2.9219
 9256SOL    HW239405   1.424   0.837   8.836 -1.1007  0.6933  0.3837
 9257SOL     OW39406   4.080   4.441   3.312  0.2166 -0.0026  0.1537
 9257SOL    HW139407   4.079   4.517   3.253  0.5148 -0.1414 -0.0269
 9257SOL    HW239408   4.166   4.454   3.352  0.9348 -1.8581 -0.7800
 9258SOL     OW39409   1.271   2.656   8.305 -0.5570 -0.1288  0.3634
 9258SOL    HW139410   1.214   2.717   8.351 -0.1115 -1.7530  3.1222
 9258SOL    HW239411   1.252   2.681   8.215 -1.9458  2.8188  1.4843
 9259SOL     OW39412   4.737   0.554   2.194  0.0320 -0.2133  0.1206
 9259SOL    HW139413   4.670   0.612   2.160  0.7495  0.8475  0.5093
 9259SOL    HW239414   4.687   0.501   2.256  0.9327 -0.5278  0.5745
 9260SOL     OW39415   2.776   2.440  17.631 -0.2451  0.0561  0.0246
 9260SOL    HW139416   2.829   2.504  17.679  0.3929 -1.1082  0.8767
 9260SOL    HW239417   2.693   2.485  17.641  0.7946  1.2975  3.1533
 9261SOL     OW39418   0.341   4.203   2.351 -0.5819 -0.4303 -0.0773
 9261SOL    HW139419   0.300   4.179   2.268 -0.7051  2.4899 -0.8665
 9261SOL    HW239420   0.294   4.150   2.416 -3.0093  1.8231  0.0035
 9262SOL     OW39421   0.868   4.483  16.341  0.2214  0.1487 -0.0538
 9262SOL    HW139422   0.824   4.558  16.381 -0.2972 -0.6478  0.8838
 9262SOL    HW239423   0.952   4.493  16.386 -0.2255  1.3521  0.5204
 9263SOL     OW39424   3.234   2.499   7.186 -0.2674 -0.1743 -0.3545
 9263SOL    HW139425   3.296   2.428   7.170  1.2530  1.0665  0.0110
 9263SOL    HW239426   3.231   2.498   7.282 -1.5766 -0.0723 -0.3974
 9264SOL     OW39427   1.349   2.194   5.727 -0.3742 -0.0230 -0.2059
 9264SOL    HW139428   1.297   2.272   5.710 -0.4534 -0.3330 -1.4094
 9264SOL    HW239429   1.346   2.165   5.636 -0.0392  0.9029 -0.5087
 9265SOL     OW39430   3.844   3.317  13.728 -0.7170 -0.7226 -0.2281
 9265SOL    HW139431   3.936   3.311  13.700 -1.4008  2.2366 -3.0068
 9265SOL    HW239432   3.813   3.271  13.650 -1.1068 -1.6262  0.4425
 9266SOL     OW39433   1.924   1.655   5.018 -0.0226  0.4043  0.1522
 9266SOL    HW139434   1.915   1.751   5.020  2.8142  0.6193  1.5080
 9266SOL    HW239435   1.924   1.632   4.925 -0.8437 -0.6554  0.4155
 9267SOL     OW39436   4.080   1.839  11.778  0.0311  0.5596  0.1869
 9267SOL    HW139437   4.172   1.851  11.804  0.8236 -1.3890 -1.7673
 9267SOL    HW239438   4.031   1.879  11.850  2.7330  1.0416  1.7871
 9268SOL     OW39439   0.055   4.608   4.800  0.0625 -0.8875 -0.3640
 9268SOL    HW139440   0.106   4.527   4.809 -2.4441 -2.7151 -2.7787
 9268SOL    HW239441   0.019   4.616   4.712  0.3550  0.3861 -0.3655
 9269SOL     OW39442   4.333   1.298   6.821 -0.3313  0.0870 -0.3996
 9269SOL    HW139443   4.347   1.315   6.914  1.6310 -0.1920 -0.6303
 9269SOL    HW239444   4.315   1.388   6.795  0.4193  0.6235  0.9049
 9270SOL     OW39445   4.622   3.864  14.705  0.7643 -0.0253 -0.1291
 9270SOL    HW139446   4.553   3.930  14.710  1.4859  0.8833 -1.8474
 9270SOL    HW239447   4.636   3.846  14.797 -1.2984  1.6478  0.5206
 9271SOL     OW39448   0.203   1.012   7.509  0.0610 -0.0719 -0.3875
 9271SOL    HW139449   0.173   0.927   7.541  0.4605 -0.0599  0.0312
 9271SOL    HW239450   0.126   1.064   7.488  1.9771  1.8451 -2.5104
 9272SOL     OW39451   0.407   0.718   0.537  0.0427  0.0185 -0.2114
 9272SOL    HW139452   0.346   0.648   0.555 -0.7361  0.9307  0.7019
 9272SOL    HW239453   0.346   0.790   0.520 -1.6971 -1.3824  0.0985
 9273SOL     OW39454   4.388   2.852   7.316  0.1413 -0.6306  0.5448
 9273SOL    HW139455   4.380   2.774   7.371  0.3602 -1.9621 -1.2842
 9273SOL    HW239456   4.351   2.828   7.231  0.8479 -3.1929  0.9600
 9274SOL     OW39457   4.720   3.561   2.803  0.2150 -0.5092 -0.0459
 9274SOL    HW139458   4.718   3.528   2.713  0.5332  0.1289 -0.2795
 9274SOL    HW239459   4.626   3.560   2.821  0.2996 -0.5000  0.3791
 9275SOL     OW39460   2.530   0.644   2.082 -0.2741 -0.7778  0.0009
 9275SOL    HW139461   2.488   0.700   2.017  0.7587 -2.1487 -1.8556
 9275SOL    HW239462   2.574   0.710   2.136  1.0167  0.2969 -2.3328
 9276SOL     OW39463   0.597   2.028   1.373 -0.5110  0.5059 -0.2972
 9276SOL    HW139464   0.617   2.064   1.460 -0.5731 -3.2859  1.3065
 9276SOL    HW239465   0.625   2.096   1.313 -2.1526  1.0147 -0.4816
 9277SOL     OW39466   2.404   0.841  15.184  0.3979  0.0091 -0.0403
 9277SOL    HW139467   2.329   0.859  15.240  0.3244 -0.1188 -0.0966
 9277SOL    HW239468   2.415   0.748  15.204 -2.2613  0.3037  2.7530
 9278SOL     OW39469   1.344   0.058   0.811  0.4565 -0.1885 -0.0932
 9278SOL    HW139470   1.411   4.728   0.812 -0.7259 -1.3183  1.6536
 9278SOL    HW239471   1.397   0.131   0.842  0.0747 -0.3247  0.8982
 9279SOL     OW39472   1.396   2.897   3.343  0.1442  0.8541 -0.0166
 9279SOL    HW139473   1.447   2.870   3.419 -1.0918 -0.7680  0.2415
 9279SOL    HW239474   1.389   2.813   3.296  0.4901  0.6490  0.2965
 9280SOL     OW39475   0.752   3.621  11.605  0.4193 -0.8706 -0.3622
 9280SOL    HW139476   0.743   3.541  11.656  1.5997 -1.5845 -1.2894
 9280SOL    HW239477   0.837   3.647  11.641  0.3782 -0.3164 -0.6664
 9281SOL     OW39478   4.027   3.522   6.941 -0.1248 -0.2291  0.2626
 9281SOL    HW139479   4.023   3.614   6.967 -0.9047  0.2347 -1.5552
 9281SOL    HW239480   4.008   3.530   6.848 -0.2675 -1.2656  0.2071
 9282SOL     OW39481   4.500   0.101  14.617  0.2509 -0.4088 -0.3318
 9282SOL    HW139482   4.413   0.135  14.598  0.5852 -0.5661 -2.1611
 9282SOL    HW239483   4.518   0.040  14.545  2.5757  1.0458 -0.9848
 9283SOL     OW39484   4.393   4.195   4.331 -0.0018  0.0265  0.0934
 9283SOL    HW139485   4.366   4.125   4.390  1.2930 -1.8180 -1.4888
 9283SOL    HW239486   4.484   4.167   4.320 -0.2695  0.3471 -2.8914
 9284SOL     OW39487   0.383   2.138   5.309 -0.1922  0.0579 -0.0741
 9284SOL    HW139488   0.446   2.095   5.251  0.7590 -1.6868  2.2895
 9284SOL    HW239489   0.420   2.138   5.397 -0.9826 -2.7881  0.2596
 9285SOL     OW39490   1.730   1.718  17.012 -0.1036 -1.1662  0.3218
 9285SOL    HW139491   1.717   1.813  17.010  0.8541 -1.0651 -0.8933
 9285SOL    HW239492   1.664   1.695  17.077 -1.9763  4.6251  0.4615
 9286SOL     OW39493   0.744   4.642   5.618 -0.0848 -0.1771 -0.1417
 9286SOL    HW139494   0.835   4.667   5.604 -0.4235  0.2261 -1.6033
 9286SOL    HW239495   0.713   4.616   5.532  1.8356 -1.8583 -0.3130
 9287SOL     OW39496   2.504   2.343   1.543 -0.1583  0.3875 -0.0441
 9287SOL    HW139497   2.490   2.432   1.575  1.4930  1.0504 -1.1482
 9287SOL    HW239498   2.549   2.310   1.621  0.0535 -0.9821 -0.7484
 9288SOL     OW39499   2.057   3.768   8.431 -0.1302 -0.8487 -0.0573
 9288SOL    HW139500   2.056   3.858   8.463  0.9916 -0.6876 -0.4841
 9288SOL    HW239501   1.968   3.738   8.452 -0.4427 -0.7662 -1.2543
 9289SOL     OW39502   2.424   1.046   1.114 -0.4743  0.6715  0.9205
 9289SOL    HW139503   2.474   1.123   1.088  1.2011 -0.8172 -0.2849
 9289SOL    HW239504   2.497   0.991   1.143  0.7730  0.7583 -2.1435
 9290SOL     OW39505   2.705   1.536   4.415  0.4801  1.1686  0.1064
 9290SOL    HW139506   2.671   1.609   4.364  1.2649  1.4257 -0.0374
 9290SOL    HW239507   2.776   1.510   4.357 -1.0013 -3.4988  0.3527
 9291SOL     OW39508   1.392   4.018   4.163  0.3926 -0.1304  0.0594
 9291SOL    HW139509   1.375   4.035   4.256 -0.4709 -0.0183 -0.1206
 9291SOL    HW239510   1.309   4.028   4.117  0.2747  1.7727  0.6851
 9292SOL     OW39511   0.267   3.867   7.031 -0.3341 -0.3601  0.3095
 9292SOL    HW139512   0.191   3.855   7.087 -1.7351 -0.0275 -1.5350
 9292SOL    HW239513   0.208   3.894   6.961  0.4206 -2.2394 -1.0541
 9293SOL     OW39514   1.814   2.889   5.899 -0.7780  0.1051 -0.6293
 9293SOL    HW139515   1.826   2.935   5.982 -1.7024  2.2446 -1.6654
 9293SOL    HW239516   1.899   2.917   5.865 -2.0173  1.0435 -2.9349
 9294SOL     OW39517   3.523   1.684   2.391 -0.1309  0.2159  0.6261
 9294SOL    HW139518   3.478   1.685   2.476 -0.0679 -0.2288  0.6612
 9294SOL    HW239519   3.454   1.715   2.332 -0.0625 -0.3094  0.2752
 9295SOL     OW39520   2.467   4.305  16.983 -0.1057  0.0919  0.0426
 9295SOL    HW139521   2.544   4.348  17.021 -0.5981  1.2304 -0.2657
 9295SOL    HW239522   2.484   4.330  16.892 -2.3046  0.1705 -0.3356
 9296SOL     OW39523   0.460   1.038   7.576  0.0325 -0.1829 -1.0246
 9296SOL    HW139524   0.382   1.038   7.520  0.5511 -0.0001 -1.7525
 9296SOL    HW239525   0.504   1.115   7.539  0.6951  0.1354  0.4203
 9297SOL     OW39526   4.168   1.408  16.292  0.3412 -0.2827  0.1574
 9297SOL    HW139527   4.116   1.360  16.227  0.1673 -1.2912  1.0574
 9297SOL    HW239528   4.165   1.349  16.367  3.2960 -0.5108  0.1015
 9298SOL     OW39529   2.465   3.235   2.660  0.2624  0.5698 -0.4390
 9298SOL    HW139530   2.490   3.260   2.749 -0.7287 -0.9395  0.2572
 9298SOL    HW239531   2.543   3.250   2.607 -0.0316 -1.0921 -1.3372
 9299SOL     OW39532   2.650   4.368   9.935 -0.0392  0.1952  0.5864
 9299SOL    HW139533   2.617   4.348   9.847 -2.4753 -1.6822  1.9018
 9299SOL    HW239534   2.602   4.307   9.992  1.0319  0.1192  1.4130
 9300SOL     OW39535   0.268   3.010  10.354  0.4005  0.2774  0.3942
 9300SOL    HW139536   0.239   2.920  10.368  1.2672  0.1015  1.0339
 9300SOL    HW239537   0.210   3.057  10.415  1.3873  1.4024  0.4731
 9301SOL     OW39538   1.214   1.186   7.171 -0.1474  0.0282 -0.5323
 9301SOL    HW139539   1.285   1.248   7.153 -2.0497  2.5146  0.5849
 9301SOL    HW239540   1.233   1.175   7.264 -0.2770 -0.8243 -0.6072
 9302SOL     OW39541   0.140   2.708   7.347 -0.0495 -0.4783 -0.7696
 9302SOL    HW139542   0.073   2.775   7.355 -0.0611 -0.4606 -1.0272
 9302SOL    HW239543   0.218   2.758   7.322  0.0490 -0.4100 -0.3287
 9303SOL     OW39544   0.786   3.046   7.934  0.0425 -0.4532 -0.5522
 9303SOL    HW139545   0.854   3.109   7.914 -0.1610  0.1569  0.7309
 9303SOL    HW239546   0.844   2.975   7.962  3.0515  1.9501 -0.7215
 9304SOL     OW39547   4.464   1.250   3.953 -0.1599 -0.4678 -0.0781
 9304SOL    HW139548   4.555   1.244   3.923  0.4453 -1.0871  1.8944
 9304SOL    HW239549   4.473   1.289   4.040 -0.5974  0.5279 -0.4739
 9305SOL     OW39550   1.972   0.334   7.151  0.4724 -0.1243 -0.3820
 9305SOL    HW139551   1.888   0.369   7.182 -0.7990 -2.9333 -0.6345
 9305SOL    HW239552   2.035   0.383   7.204 -1.2306 -0.7852  2.2473
 9306SOL     OW39553   0.833   1.855   3.717 -0.1309 -0.0118  0.5323
 9306SOL    HW139554   0.843   1.942   3.680 -1.2986  0.7234  1.9465
 9306SOL    HW239555   0.920   1.832   3.750  0.0227 -0.7165 -0.3549
 9307SOL     OW39556   3.094   1.995   5.579 -0.2737  0.7536 -0.4032
 9307SOL    HW139557   3.123   2.050   5.652 -0.1591  1.2552 -0.8352
 9307SOL    HW239558   3.138   2.027   5.501 -0.4786 -0.2404 -0.9277
 9308SOL     OW39559   0.718   2.443   2.211 -0.3578 -0.1074  0.6431
 9308SOL    HW139560   0.697   2.518   2.267 -0.1739 -1.0850  2.0224
 9308SOL    HW239561   0.669   2.372   2.252 -1.8572 -0.3736 -1.6613
 9309SOL     OW39562   4.245   0.414   6.939 -0.2023  0.7525 -0.9532
 9309SOL    HW139563   4.222   0.503   6.911  0.8689  1.1440 -0.5799
 9309SOL    HW239564   4.200   0.353   6.881 -0.2898  0.7365 -0.8696
 9310SOL     OW39565   1.413   4.237   3.118 -0.1352 -0.0834  0.1838
 9310SOL    HW139566   1.412   4.146   3.148  1.8806 -0.1891 -0.0914
 9310SOL    HW239567   1.464   4.282   3.186  0.0377  0.7777 -0.5121
 9311SOL     OW39568   1.576   1.645   6.460  0.3399  0.5674  0.0054
 9311SOL    HW139569   1.531   1.723   6.493  2.7333  1.3361  1.4380
 9311SOL    HW239570   1.660   1.633   6.503 -0.9673  0.1532  2.4540
 9312SOL     OW39571   1.517   0.746   7.366 -0.1987  0.3073  0.3623
 9312SOL    HW139572   1.437   0.714   7.409  1.2316 -1.3843  1.7291
 9312SOL    HW239573   1.489   0.789   7.285  0.2527 -0.3270 -0.1276
 9313SOL     OW39574   3.267   3.127  10.221 -0.5582 -0.3308  0.8058
 9313SOL    HW139575   3.357   3.115  10.192 -0.1089  1.7536  1.3178
 9313SOL    HW239576   3.253   3.221  10.212  1.3781 -0.2123 -1.1042
 9314SOL     OW39577   3.385   2.794   8.581 -0.1375  0.1532  0.2708
 9314SOL    HW139578   3.373   2.736   8.656  3.0085 -1.6120 -0.6200
 9314SOL    HW239579   3.318   2.756   8.524 -1.0278  0.0421  1.3657
 9315SOL     OW39580   0.833   2.965  13.443  0.5907 -0.0370 -0.2443
 9315SOL    HW139581   0.750   2.933  13.409  0.6587 -1.6767  1.1403
 9315SOL    HW239582   0.828   2.958  13.538 -0.8436 -2.7047 -0.5316
 9316SOL     OW39583   2.792   3.591   5.866  0.5572 -0.6070  0.1800
 9316SOL    HW139584   2.799   3.548   5.952 -2.9557  0.3441  0.9311
 9316SOL    HW239585   2.804   3.524   5.799 -1.7281 -1.7125  0.8776
 9317SOL     OW39586   0.880   1.832  11.885  0.2213  0.1509 -0.1644
 9317SOL    HW139587   0.892   1.887  11.962 -0.1709  1.4330 -1.0299
 9317SOL    HW239588   0.969   1.799  11.874  0.2704  0.3888 -0.4823
 9318SOL     OW39589   3.725   3.341   7.257  0.2559 -0.1772  0.3921
 9318SOL    HW139590   3.655   3.369   7.198  0.1636 -1.4025 -0.0778
 9318SOL    HW239591   3.700   3.249   7.261  0.8150 -0.3071  0.9052
 9319SOL     OW39592   0.443   4.503  11.477  0.8264  0.2295  0.0204
 9319SOL    HW139593   0.533   4.535  11.475  0.6756  0.7917  2.2991
 9319SOL    HW239594   0.392   4.571  11.434  0.1122  0.3745  1.1078
 9320SOL     OW39595   0.971   1.670   8.516 -0.2162 -0.0587 -0.1930
 9320SOL    HW139596   0.891   1.617   8.513  0.7164 -1.5952  1.6813
 9320SOL    HW239597   0.982   1.700   8.426 -1.8870 -0.5552 -0.5787
 9321SOL     OW39598   1.538   0.389   1.474 -0.6251  0.4357 -0.1781
 9321SOL    HW139599   1.470   0.361   1.412 -0.0093 -0.8787 -0.2508
 9321SOL    HW239600   1.556   0.479   1.447  3.1173 -0.0121  0.9363
 9322SOL     OW39601   3.404   1.677   7.971  0.2964  0.2477  0.3431
 9322SOL    HW139602   3.426   1.600   7.918 -1.7899  0.4283 -0.7633
 9322SOL    HW239603   3.346   1.726   7.914  0.3271 -1.4712 -1.1442
 9323SOL     OW39604   2.128   2.851   6.347  0.2162  0.1396 -0.8810
 9323SOL    HW139605   2.198   2.797   6.310 -1.4288 -2.6267 -0.0201
 9323SOL    HW239606   2.160   2.853   6.437  0.5621  0.6799 -1.0159
 9324SOL     OW39607   4.525   3.570   1.447  0.3988 -0.1460 -0.0828
 9324SOL    HW139608   4.463   3.506   1.480  1.4811 -0.5249  1.2082
 9324SOL    HW239609   4.553   3.615   1.527  0.2309  0.4062 -0.3350
 9325SOL     OW39610   1.720   1.338   3.043 -0.1288  0.1148  0.1118
 9325SOL    HW139611   1.774   1.396   2.990  0.2002 -0.2325  0.0669
 9325SOL    HW239612   1.779   1.308   3.112  1.4420  1.0818 -0.8041
 9326SOL     OW39613   0.463   2.436   7.034  0.4128  0.0279 -0.7680
 9326SOL    HW139614   0.501   2.357   6.997  0.3017  0.3530 -1.5661
 9326SOL    HW239615   0.517   2.507   6.999  2.0070 -0.3059  1.0106
 9327SOL     OW39616   2.524   0.564   4.684 -0.7289 -0.6161  0.1098
 9327SOL    HW139617   2.549   0.510   4.759 -1.7756 -0.6860  0.4043
 9327SOL    HW239618   2.541   0.649   4.724  0.5377  0.5752 -2.9765
 9328SOL     OW39619   3.504   0.061  13.709 -0.0399  0.0285 -0.1918
 9328SOL    HW139620   3.411   0.081  13.710 -0.6262 -2.7198 -0.7383
 9328SOL    HW239621   3.498   4.710  13.743 -0.3056  0.4758  0.9294
 9329SOL     OW39622   1.121   3.673   7.827  0.0193  0.0254  0.2035
 9329SOL    HW139623   1.072   3.754   7.838  0.3630  0.3498 -0.6730
 9329SOL    HW239624   1.055   3.604   7.834 -2.0902  2.1962  1.3766
 9330SOL     OW39625   1.644   0.354   9.618 -0.1420  0.4468 -0.4760
 9330SOL    HW139626   1.582   0.426   9.605 -0.9347  0.0928  1.3432
 9330SOL    HW239627   1.593   0.283   9.578  1.0957 -0.0609 -1.1556
 9331SOL     OW39628   0.220   3.929  16.733 -0.4925 -0.1230  0.2384
 9331SOL    HW139629   0.159   3.901  16.802  1.3117 -0.3197  1.7411
 9331SOL    HW239630   0.203   4.023  16.737 -1.9896 -0.2903 -2.0653
 9332SOL     OW39631   0.031   1.276  15.948  0.2997 -0.1720  0.0917
 9332SOL    HW139632   0.085   1.337  15.897  1.9071 -1.6368  0.0552
 9332SOL    HW239633   0.080   1.276  16.030 -2.2987 -0.9812  1.6544
 9333SOL     OW39634   0.763   0.496   2.857 -0.5880 -0.4101 -0.0201
 9333SOL    HW139635   0.814   0.540   2.925 -2.4227  0.7174  0.6208
 9333SOL    HW239636   0.833   0.495   2.792  0.1393 -0.4899  0.7713
 9334SOL     OW39637   1.389   1.246   6.832  0.3547  0.2531 -0.1991
 9334SOL    HW139638   1.378   1.234   6.738  0.1940  1.9265 -0.3930
 9334SOL    HW239639   1.305   1.217   6.867  1.0961  1.4467  2.6012
 9335SOL     OW39640   2.199   3.908   8.072  0.2261  0.0973  0.1544
 9335SOL    HW139641   2.113   3.895   8.034 -0.3894  2.8914  0.5736
 9335SOL    HW239642   2.210   3.822   8.113  2.3034 -0.3666 -1.3363
 9336SOL     OW39643   1.183   3.645   3.450 -1.0454 -0.8796  0.0186
 9336SOL    HW139644   1.221   3.676   3.531 -1.2304  0.3740 -0.3795
 9336SOL    HW239645   1.234   3.687   3.381  0.6951  1.5325  2.8084
 9337SOL     OW39646   3.607   0.359   6.283 -0.0391 -0.0756  0.5679
 9337SOL    HW139647   3.628   0.368   6.190  0.4223 -0.7596  0.6118
 9337SOL    HW239648   3.514   0.335   6.280 -0.1700  0.6135 -0.6611
 9338SOL     OW39649   2.206   0.449   4.491  0.4493  0.7428  0.3882
 9338SOL    HW139650   2.125   0.409   4.521  0.9040  1.0968  2.1300
 9338SOL    HW239651   2.192   0.528   4.543 -1.5930 -0.0309  1.0113
 9339SOL     OW39652   3.668   3.478   6.616  0.0726  0.1915 -0.4679
 9339SOL    HW139653   3.587   3.500   6.662  1.1255  1.9595  0.4951
 9339SOL    HW239654   3.692   3.393   6.654  2.7770  0.7099 -1.0092
 9340SOL     OW39655   1.244   0.845  14.348 -0.2141 -0.4720 -0.1716
 9340SOL    HW139656   1.209   0.798  14.424 -0.0023  0.8940  0.7776
 9340SOL    HW239657   1.326   0.799  14.330  0.7107  0.2636  2.1322
 9341SOL     OW39658   4.309   0.448   3.075 -0.3312 -0.1011 -0.1951
 9341SOL    HW139659   4.284   0.503   3.001  1.0714  0.3854 -0.3081
 9341SOL    HW239660   4.399   0.430   3.048 -0.5802  2.9010 -2.9589
 9342SOL     OW39661   3.096   2.587   7.472  0.2269  0.3474 -0.0834
 9342SOL    HW139662   3.176   2.570   7.522  1.6805  1.7717 -1.9111
 9342SOL    HW239663   3.034   2.621   7.536  0.4273  1.1289 -0.3092
 9343SOL     OW39664   1.967   1.778   7.304  0.4678 -0.6716  0.3739
 9343SOL    HW139665   2.052   1.757   7.343  2.8580  2.5954 -3.0631
 9343SOL    HW239666   1.984   1.821   7.220  0.5579 -0.4995  0.4800
 9344SOL     OW39667   3.513   4.316   5.460  0.4904 -0.1430 -0.6716
 9344SOL    HW139668   3.505   4.273   5.374 -2.6805  0.3425 -0.6381
 9344SOL    HW239669   3.568   4.257   5.512 -0.8303 -0.8875 -0.1081
 9345SOL     OW39670   4.504   3.452   6.026  0.1851 -0.0770 -0.3198
 9345SOL    HW139671   4.511   3.366   6.069 -1.0435  0.1277  0.2929
 9345SOL    HW239672   4.597   3.475   6.021 -0.4208  2.2598 -0.8704
 9346SOL     OW39673   1.024   2.092  11.199 -0.4002  0.0778  0.2026
 9346SOL    HW139674   1.074   2.013  11.220 -0.4924 -0.0997 -0.2465
 9346SOL    HW239675   0.995   2.122  11.285  0.9759  0.5355  0.5128
 9347SOL     OW39676   3.958   3.055  11.154 -0.2107  0.0982  0.5303
 9347SOL    HW139677   3.951   3.082  11.062  0.5210 -0.8557  0.1908
 9347SOL    HW239678   4.019   2.983  11.138 -1.0690 -0.2905 -1.0936
 9348SOL     OW39679   0.997   4.679   8.956  0.0354 -0.6935 -0.0894
 9348SOL    HW139680   0.987   4.606   8.896  2.0927  0.0220 -1.3065
 9348SOL    HW239681   0.957   0.016   8.912  0.7900 -1.7103 -2.5254
 9349SOL     OW39682   3.956   0.537  17.156  0.1543  0.5038 -0.0453
 9349SOL    HW139683   4.014   0.613  17.162 -0.6274  0.9989  1.1714
 9349SOL    HW239684   3.887   0.577  17.103 -1.2896 -3.0870 -0.8647
 9350SOL     OW39685   1.777   1.842  16.659  0.6532  0.6500  0.1279
 9350SOL    HW139686   1.689   1.865  16.630  1.4832  3.9633  0.1931
 9350SOL    HW239687   1.794   1.749  16.646 -1.2728  0.2340  0.6267
 9351SOL     OW39688   1.676   2.561  15.360  0.0123 -0.3172 -0.3891
 9351SOL    HW139689   1.602   2.595  15.409 -0.8488 -2.0873 -0.4388
 9351SOL    HW239690   1.757   2.584  15.405 -0.0739  0.0732 -0.4374
 9352SOL     OW39691   2.089   4.507   4.665  0.1987 -0.3432  0.3049
 9352SOL    HW139692   2.097   4.428   4.613 -2.6626  0.7621 -1.8518
 9352SOL    HW239693   2.020   4.558   4.621  0.5075 -0.6899 -0.5754
 9353SOL     OW39694   4.200   3.536   3.236  0.5156  0.0484 -0.2549
 9353SOL    HW139695   4.282   3.542   3.285  1.0014  0.5197 -1.1421
 9353SOL    HW239696   4.191   3.444   3.210 -2.2162  0.3515 -0.3903
 9354SOL     OW39697   4.345   4.252   3.993  0.0166  0.3795 -0.0093
 9354SOL    HW139698   4.334   4.298   3.910 -1.5969 -0.1768 -0.1099
 9354SOL    HW239699   4.255   4.265   4.024  0.8193  1.1037  2.0255
 9355SOL     OW39700   4.431   0.508   8.425 -0.5985 -0.2100 -0.0794
 9355SOL    HW139701   4.464   0.593   8.456  0.1232 -0.5129 -0.0245
 9355SOL    HW239702   4.356   0.541   8.375 -1.9056 -1.9832  0.7593
 9356SOL     OW39703   0.253   1.051  14.233 -1.0593  0.3284  0.2851
 9356SOL    HW139704   0.187   1.001  14.280 -0.3083 -2.0045 -1.1066
 9356SOL    HW239705   0.282   1.105  14.306  1.6357  0.4368 -0.8670
 9357SOL     OW39706   3.158   3.183   9.713 -0.2540  0.0397  0.1197
 9357SOL    HW139707   3.066   3.181   9.736 -0.6572  3.1860 -1.1780
 9357SOL    HW239708   3.146   3.251   9.647 -0.7101  1.7087  1.9391
 9358SOL     OW39709   1.554   0.042   8.523  0.0935 -0.8169 -0.2194
 9358SOL    HW139710   1.564   4.714   8.591  1.6850 -0.6533 -0.2883
 9358SOL    HW239711   1.467   0.014   8.494  0.6945 -1.1125 -1.7921
 9359SOL     OW39712   2.840   1.482   4.191  0.4038  0.0733 -0.6576
 9359SOL    HW139713   2.911   1.427   4.158  0.4819  0.3626 -0.9681
 9359SOL    HW239714   2.851   1.562   4.140  2.6631  0.4536  0.4419
 9360SOL     OW39715   3.431   3.606   8.876  0.5200 -0.4835 -0.1155
 9360SOL    HW139716   3.404   3.697   8.861  1.5932  0.0024  0.8820
 9360SOL    HW239717   3.514   3.597   8.830  1.0396  5.2139 -0.2258
 9361SOL     OW39718   2.365   3.814   9.423 -0.6599 -0.3974 -0.0761
 9361SOL    HW139719   2.297   3.813   9.491  1.7350 -0.1182  2.3262
 9361SOL    HW239720   2.349   3.736   9.370  0.9250 -0.0108 -1.1101
 9362SOL     OW39721   0.310   4.148  11.888 -0.3858  0.1535  0.6529
 9362SOL    HW139722   0.279   4.228  11.845 -1.6883 -0.3983  0.5736
 9362SOL    HW239723   0.391   4.134  11.838 -1.2150 -0.5553 -0.4769
 9363SOL     OW39724   2.506   1.152  16.769  0.3499  0.2417 -0.5234
 9363SOL    HW139725   2.479   1.187  16.684 -0.1856  1.9360  0.3418
 9363SOL    HW239726   2.469   1.215  16.831 -0.8191 -0.3919 -0.5600
 9364SOL     OW39727   4.626   3.171   7.542 -0.6505 -0.4365 -0.1889
 9364SOL    HW139728   4.688   3.218   7.487  0.1743 -1.7302 -0.3615
 9364SOL    HW239729   4.542   3.169   7.497 -0.1773 -1.0025 -1.0366
 9365SOL     OW39730   3.379   2.525  17.255  0.0920  0.4647  0.6913
 9365SOL    HW139731   3.344   2.598  17.306  1.3780  0.5207  1.4868
 9365SOL    HW239732   3.297   2.486  17.223  0.9522 -0.5145 -0.3230
 9366SOL     OW39733   1.965   1.326   5.164  0.7147 -0.6121  0.0653
 9366SOL    HW139734   1.962   1.301   5.256 -0.6112  0.8847  0.4306
 9366SOL    HW239735   2.014   1.408   5.157  2.1507 -1.4324  0.5216
 9367SOL     OW39736   3.522   2.521  12.273 -0.1418  0.1800  0.0145
 9367SOL    HW139737   3.555   2.558  12.191 -0.8772 -1.8095 -1.1697
 9367SOL    HW239738   3.592   2.541  12.335 -0.6743  1.1035  0.3206
 9368SOL     OW39739   0.762   4.448   6.983  0.1097  0.2503 -0.0555
 9368SOL    HW139740   0.791   4.370   7.031  0.1810 -0.5588 -1.4076
 9368SOL    HW239741   0.782   4.513   7.050  1.6434  1.3571 -1.5810
 9369SOL     OW39742   3.569   3.882   1.457  0.2793  0.6090 -0.4715
 9369SOL    HW139743   3.624   3.960   1.452  2.1892 -0.6249  1.0987
 9369SOL    HW239744   3.581   3.855   1.366 -0.7709  2.6938 -1.2270
 9370SOL     OW39745   0.932   0.667   4.295 -0.0184 -0.3346  0.3177
 9370SOL    HW139746   0.965   0.722   4.366  0.9408 -1.6461  0.8912
 9370SOL    HW239747   0.998   0.699   4.233  0.3487 -0.0375  0.8591
 9371SOL     OW39748   3.185   4.176   0.304  0.3069  0.9054  0.3389
 9371SOL    HW139749   3.106   4.225   0.327 -1.3065 -0.4545 -2.3241
 9371SOL    HW239750   3.167   4.154   0.213  0.9160  1.3025  0.1224
 9372SOL     OW39751   3.829   0.302   6.730  0.5550 -0.1487  0.8373
 9372SOL    HW139752   3.805   0.389   6.698  1.2828  0.4520  1.9316
 9372SOL    HW239753   3.802   0.245   6.658  1.3626  0.2085  0.2537
 9373SOL     OW39754   1.754   4.150   3.238  0.1131  0.0744 -0.7886
 9373SOL    HW139755   1.782   4.100   3.315 -1.1550  0.8544  0.1745
 9373SOL    HW239756   1.732   4.087   3.170  0.2938  0.1777 -0.9439
 9374SOL     OW39757   2.484   2.090   2.497 -0.2113  0.0335  0.0525
 9374SOL    HW139758   2.437   2.021   2.451  0.2606 -0.4002  0.2173
 9374SOL    HW239759   2.446   2.081   2.584  0.7336  0.4913  0.5204
 9375SOL     OW39760   2.821   1.853   5.773 -0.2657 -0.2987  0.6546
 9375SOL    HW139761   2.858   1.786   5.715  0.9683  0.1845  0.8854
 9375SOL    HW239762   2.778   1.801   5.841  0.2988  0.1767  1.3746
 9376SOL     OW39763   1.376   2.526   1.293  0.1104  0.2096 -1.1969
 9376SOL    HW139764   1.286   2.520   1.264  0.2709 -0.1852 -1.6127
 9376SOL    HW239765   1.408   2.439   1.268  1.5293 -0.0064  1.3552
 9377SOL     OW39766   4.060   0.020   1.218 -0.0870 -0.3208 -0.1482
 9377SOL    HW139767   4.042   0.012   1.312  0.1855 -0.1936 -0.0868
 9377SOL    HW239768   3.975   4.717   1.197 -0.8870  0.3796  1.7499
 9378SOL     OW39769   1.479   3.126   7.421  0.3845 -0.4147  0.4962
 9378SOL    HW139770   1.450   3.095   7.506 -2.4184  0.5522 -0.1081
 9378SOL    HW239771   1.492   3.040   7.380 -1.9685 -0.1943 -0.7353
 9379SOL     OW39772   1.548   0.028   6.152  0.1989 -0.2365  0.0515
 9379SOL    HW139773   1.571   0.056   6.064 -3.4111 -1.7083 -1.3671
 9379SOL    HW239774   1.600   0.081   6.212  0.7681 -1.9978  1.1048
 9380SOL     OW39775   0.189   1.982   1.754  0.7018 -0.3971  0.2328
 9380SOL    HW139776   0.201   1.904   1.808 -0.1715 -1.0091 -0.4624
 9380SOL    HW239777   0.276   1.989   1.715  1.1218 -1.5233  0.9563
 9381SOL     OW39778   1.918   0.350   6.398 -0.0125  0.3270  0.3241
 9381SOL    HW139779   1.895   0.439   6.424 -1.4587  0.7067 -2.1804
 9381SOL    HW239780   1.987   0.334   6.462  0.2247  1.3725  0.3271
 9382SOL     OW39781   1.217   2.319   4.475 -0.4117  0.2949 -0.3769
 9382SOL    HW139782   1.268   2.257   4.527 -0.2908 -0.3763 -1.2913
 9382SOL    HW239783   1.160   2.271   4.416  0.6162 -1.9907  0.5065
 9383SOL     OW39784   0.465   1.818   3.521  0.4881 -0.6257 -0.3287
 9383SOL    HW139785   0.442   1.737   3.476 -0.3238 -1.3130  1.3323
 9383SOL    HW239786   0.425   1.809   3.607  0.9008  0.7591  0.0156
 9384SOL     OW39787   2.636   2.301   8.551 -0.3155 -0.0355  0.1295
 9384SOL    HW139788   2.653   2.231   8.488 -1.4300 -0.9834  0.8853
 9384SOL    HW239789   2.721   2.306   8.595  0.4610  2.1969 -1.6711
 9385SOL     OW39790   4.112   0.442  14.910 -0.0316  0.1973  0.2690
 9385SOL    HW139791   4.131   0.492  14.990 -1.4420 -1.1461  1.4551
 9385SOL    HW239792   4.044   0.499  14.874  0.3938  0.5691  0.0489
 9386SOL     OW39793   1.637   2.312  16.851 -0.0491  0.3770  0.2667
 9386SOL    HW139794   1.588   2.393  16.869  2.7192  2.3493 -1.0785
 9386SOL    HW239795   1.725   2.349  16.844 -0.1235  0.5064  0.0333
 9387SOL     OW39796   1.153   0.605  12.943  0.3860 -0.1143  0.4270
 9387SOL    HW139797   1.126   0.517  12.919 -1.6713  0.7117 -0.2677
 9387SOL    HW239798   1.122   0.603  13.033 -0.7564  0.4075  0.0421
 9388SOL     OW39799   1.731   4.065   8.524 -0.4590  0.1910  0.1674
 9388SOL    HW139800   1.696   4.015   8.598 -1.4403  0.5837 -0.0255
 9388SOL    HW239801   1.698   4.153   8.543  2.0952  1.0679  0.5631
 9389SOL     OW39802   3.644   4.109   6.160  0.5948 -0.2296 -0.5389
 9389SOL    HW139803   3.685   4.190   6.190  0.9108 -0.2077 -1.0297
 9389SOL    HW239804   3.554   4.114   6.192  0.6550 -1.1395 -0.2411
 9390SOL     OW39805   3.791   3.172   8.868  0.2038 -0.1346 -0.1374
 9390SOL    HW139806   3.879   3.206   8.883 -0.0044  0.7706 -0.9857
 9390SOL    HW239807   3.799   3.149   8.776  3.0168 -1.8318  0.5365
 9391SOL     OW39808   3.840   2.868  17.598  0.3318 -0.1981 -0.2447
 9391SOL    HW139809   3.805   2.779  17.596  1.3789 -0.6612  1.6735
 9391SOL    HW239810   3.847   2.880  17.693 -1.0130  1.5807 -0.3640
 9392SOL     OW39811   1.613   0.864   1.860 -0.2627  0.4492  0.3930
 9392SOL    HW139812   1.570   0.859   1.945  1.5968  1.9859  1.4212
 9392SOL    HW239813   1.701   0.886   1.891 -1.6134  3.2618  2.2115
 9393SOL     OW39814   1.568   2.159   8.256 -0.6667  0.4784 -0.1780
 9393SOL    HW139815   1.499   2.094   8.241  0.3290 -0.3898 -1.0475
 9393SOL    HW239816   1.505   2.224   8.285 -0.7567 -1.3061  3.5832
 9394SOL     OW39817   1.319   1.143   8.855 -0.1568  0.1948  0.0072
 9394SOL    HW139818   1.395   1.202   8.857  0.0878 -0.1124 -0.3336
 9394SOL    HW239819   1.331   1.077   8.787  2.4398 -2.3322  2.9208
 9395SOL     OW39820   3.181   0.873   5.660 -0.0123  0.0371 -0.3123
 9395SOL    HW139821   3.100   0.823   5.675  1.2169 -1.3934  1.5485
 9395SOL    HW239822   3.193   0.911   5.746 -1.5773  1.4198 -0.7110
 9396SOL     OW39823   4.548   0.029  14.335 -0.2569 -0.4093 -0.4639
 9396SOL    HW139824   4.558   4.673  14.326 -0.5989 -0.6432  1.6969
 9396SOL    HW239825   4.465   0.043  14.288 -0.4240 -0.0542 -0.0712
 9397SOL     OW39826   2.593   3.187   8.401 -0.0988  0.4638 -0.7631
 9397SOL    HW139827   2.588   3.091   8.396  0.5604  0.3006  1.6584
 9397SOL    HW239828   2.571   3.197   8.494 -0.6194  1.0562 -0.9583
 9398SOL     OW39829   1.307   3.293   7.281  0.3997 -0.7180  0.4741
 9398SOL    HW139830   1.378   3.250   7.330 -1.6931 -3.2470  1.2389
 9398SOL    HW239831   1.296   3.375   7.329 -0.9997 -1.7985  2.0010
 9399SOL     OW39832   4.707   0.355   5.507  0.3911  0.2760 -0.5313
 9399SOL    HW139833   4.677   0.400   5.428  0.7485 -0.0343 -0.8418
 9399SOL    HW239834   0.060   0.333   5.487 -0.1701 -1.2053 -1.4674
 9400SOL     OW39835   1.854   2.535   8.297 -0.0628  0.3312  0.4949
 9400SOL    HW139836   1.914   2.478   8.344  0.9364 -0.5469 -1.8572
 9400SOL    HW239837   1.860   2.622   8.337  1.0804  0.2681  0.4462
 9401SOL     OW39838   4.571   3.844  10.149 -0.0850  0.5801  0.0921
 9401SOL    HW139839   4.493   3.877  10.105 -0.5430  1.2200  1.3820
 9401SOL    HW239840   4.548   3.811  10.236 -2.8342  1.4779 -0.2883
 9402SOL     OW39841   3.293   3.626  11.045  0.2494  0.2512  0.4874
 9402SOL    HW139842   3.220   3.688  11.033 -0.8029 -0.5937  2.5196
 9402SOL    HW239843   3.358   3.643  10.977 -1.4402  1.2384 -0.8883
 9403SOL     OW39844   1.070   1.200   2.599 -0.2107  0.3939  0.4606
 9403SOL    HW139845   1.114   1.177   2.517 -0.9859  1.6657 -0.3208
 9403SOL    HW239846   0.984   1.202   2.558 -0.0310  2.1573  0.1787
 9404SOL     OW39847   3.468   0.956   4.399 -0.0780 -0.1277  0.1579
 9404SOL    HW139848   3.527   0.895   4.354 -1.2143  1.2040 -3.1298
 9404SOL    HW239849   3.388   0.942   4.349  0.2448  3.6933 -1.4240
 9405SOL     OW39850   1.775   1.660   8.573 -0.3487 -0.0289  0.2083
 9405SOL    HW139851   1.857   1.708   8.574 -0.1364 -0.3613 -0.6838
 9405SOL    HW239852   1.786   1.623   8.485 -2.7709  0.0854 -0.1547
 9406SOL     OW39853   0.315   1.470   6.536  0.0954  0.8322 -0.8179
 9406SOL    HW139854   0.237   1.446   6.487  2.3439  1.1078 -4.4976
 9406SOL    HW239855   0.280   1.505   6.618 -1.7490  0.4835 -1.4412
 9407SOL     OW39856   4.424   0.819   2.427  0.1659  0.4506 -0.1949
 9407SOL    HW139857   4.477   0.818   2.507 -0.2807 -2.5383  0.0428
 9407SOL    HW239858   4.344   0.778   2.458  0.8789 -0.9251 -0.2093
 9408SOL     OW39859   4.391   2.268  12.075  0.3219  0.3898 -0.4261
 9408SOL    HW139860   4.434   2.341  12.029  0.9424  0.2047 -0.1429
 9408SOL    HW239861   4.463   2.211  12.102 -0.3539 -0.7536 -1.0166
 9409SOL     OW39862   1.439   2.972   6.078  0.0067  0.3372  0.0442
 9409SOL    HW139863   1.400   3.016   6.154  1.2314 -0.0495  0.8827
 9409SOL    HW239864   1.523   2.934   6.102 -0.1931 -0.3347 -0.3081
 9410SOL     OW39865   2.470   2.430   5.994  0.4204  0.1985 -0.0198
 9410SOL    HW139866   2.403   2.399   5.934 -1.6348  3.2558  0.7203
 9410SOL    HW239867   2.546   2.377   5.968  0.7338 -0.2370  1.7680
 9411SOL     OW39868   3.458   2.689   4.428  0.3229 -0.2134  0.4764
 9411SOL    HW139869   3.526   2.643   4.475 -0.4083  0.1189  1.8684
 9411SOL    HW239870   3.497   2.677   4.341  0.1157  2.3761  0.0262
 9412SOL     OW39871   2.398   1.662  13.398  0.2807 -0.1819 -0.4132
 9412SOL    HW139872   2.305   1.667  13.421  1.0636  2.0032  2.3433
 9412SOL    HW239873   2.404   1.756  13.385 -0.5800 -0.0800 -0.0969
 9413SOL     OW39874   3.173   4.414   5.305  0.2170 -0.4376 -0.3674
 9413SOL    HW139875   3.202   4.412   5.396  1.6556 -0.5884 -0.8242
 9413SOL    HW239876   3.257   4.387   5.267 -0.0058 -1.6127 -0.0195
 9414SOL     OW39877   2.997   1.611   1.855 -0.2782  0.1739 -0.1661
 9414SOL    HW139878   3.038   1.628   1.770 -2.3534 -0.4704 -1.2980
 9414SOL    HW239879   3.076   1.623   1.907  0.2111  1.4697 -1.2179
 9415SOL     OW39880   3.781   2.892   3.448 -0.1782 -0.0197 -0.2165
 9415SOL    HW139881   3.815   2.974   3.413 -0.6322 -0.3313 -1.3657
 9415SOL    HW239882   3.832   2.865   3.525  0.6578  0.5477 -0.5821
 9416SOL     OW39883   1.970   3.436   4.507  0.1438  0.1192  0.1423
 9416SOL    HW139884   1.909   3.385   4.560  1.2099 -1.5872 -0.2904
 9416SOL    HW239885   1.937   3.409   4.421  0.3925  1.0489 -0.2384
 9417SOL     OW39886   3.722   4.190   3.172 -0.2593 -0.4361 -0.3420
 9417SOL    HW139887   3.759   4.234   3.095  2.1352 -1.5713  0.1465
 9417SOL    HW239888   3.791   4.210   3.234 -0.7837 -0.5784  0.2849
 9418SOL     OW39889   2.654   3.972   7.672 -0.1433  0.4610  0.3765
 9418SOL    HW139890   2.718   3.983   7.601  1.1616 -3.2559  0.9914
 9418SOL    HW239891   2.709   3.933   7.741  0.2525  1.6056  0.7186
 9419SOL     OW39892   1.389   2.400   1.763 -0.1675 -0.2502 -0.3051
 9419SOL    HW139893   1.402   2.469   1.698  1.2305 -1.6608 -1.5445
 9419SOL    HW239894   1.303   2.418   1.800 -0.9804 -1.3879 -1.6464
 9420SOL     OW39895   0.131   2.199  15.645 -0.0014 -0.0834  0.5907
 9420SOL    HW139896   0.036   2.204  15.658 -0.3396 -2.5921 -0.9620
 9420SOL    HW239897   0.133   2.210  15.550 -2.9371 -2.1184  0.2862
 9421SOL     OW39898   2.064   0.562   8.836  0.5729  0.5591  0.6384
 9421SOL    HW139899   2.076   0.624   8.764  0.3301  1.0119  0.9840
 9421SOL    HW239900   2.133   0.596   8.894  1.6866 -2.6240  1.1962
 9422SOL     OW39901   1.091   2.647  15.861 -0.0855  0.5821  0.7694
 9422SOL    HW139902   1.029   2.588  15.905 -0.2013  0.9087  1.0461
 9422SOL    HW239903   1.095   2.723  15.920 -0.9300  0.6015  0.8039
 9423SOL     OW39904   4.482   3.231   1.642  0.3349 -0.3880 -0.0995
 9423SOL    HW139905   4.489   3.301   1.707 -1.2005 -0.9892  0.7135
 9423SOL    HW239906   4.523   3.155   1.683  1.7668 -0.0603 -0.9111
 9424SOL     OW39907   3.768   1.449  11.288 -0.5789  0.2084  0.1125
 9424SOL    HW139908   3.810   1.463  11.203 -0.3499  0.4326  0.2641
 9424SOL    HW239909   3.763   1.535  11.330 -1.2670  0.0353  0.3892
 9425SOL     OW39910   2.321   2.612   2.815 -0.0597 -0.3455  0.1405
 9425SOL    HW139911   2.377   2.538   2.839 -0.4476 -0.9429 -0.7936
 9425SOL    HW239912   2.323   2.607   2.719 -0.5832  0.4864  0.0846
 9426SOL     OW39913   3.001   4.346   4.748 -0.3358  0.1017  0.1812
 9426SOL    HW139914   2.954   4.269   4.781  0.1160 -1.1988 -2.1446
 9426SOL    HW239915   3.088   4.329   4.782 -1.5456 -2.8135  1.8452
 9427SOL     OW39916   1.205   0.213  15.035 -0.6156 -0.0181  0.5832
 9427SOL    HW139917   1.140   0.260  14.983 -1.2786 -1.0496  0.4736
 9427SOL    HW239918   1.160   0.128  15.037  0.6460 -0.6819  0.7540
 9428SOL     OW39919   4.439   3.145   2.862  0.7276  0.1479 -0.8858
 9428SOL    HW139920   4.513   3.107   2.910  0.4880  1.3705  0.4276
 9428SOL    HW239921   4.464   3.146   2.770  1.7094  1.3691 -0.6003
 9429SOL     OW39922   3.037   3.190   2.287 -0.2898  0.2807  0.2556
 9429SOL    HW139923   3.006   3.190   2.377  0.2968  1.0443  0.4563
 9429SOL    HW239924   3.127   3.159   2.297 -0.7255 -1.8625 -2.4096
 9430SOL     OW39925   3.329   4.569   5.705  0.6336  0.0245  0.5404
 9430SOL    HW139926   3.385   4.534   5.774  2.5064  0.1415 -0.9524
 9430SOL    HW239927   3.269   4.620   5.761  0.7545  0.3244  0.3957
 9431SOL     OW39928   3.620   4.317   6.570  0.5840 -0.0792  0.2264
 9431SOL    HW139929   3.678   4.332   6.496 -0.9429 -0.7108 -1.0972
 9431SOL    HW239930   3.586   4.231   6.545 -0.3395  0.7573 -1.3822
 9432SOL     OW39931   4.117   4.348   7.712 -0.2599  0.6655  0.1982
 9432SOL    HW139932   4.039   4.373   7.762 -0.4862  1.3944 -0.5252
 9432SOL    HW239933   4.087   4.383   7.628  2.5650 -0.3002 -1.2220
 9433SOL     OW39934   2.110   2.225   2.435 -0.0429 -0.1489  0.2351
 9433SOL    HW139935   2.094   2.183   2.350 -2.5811  0.3482  0.4951
 9433SOL    HW239936   2.174   2.165   2.474 -0.5849  0.0349  1.3845
 9434SOL     OW39937   0.269   3.497  16.175 -0.2819  0.1209  0.0623
 9434SOL    HW139938   0.244   3.440  16.248  0.4849 -3.0141 -2.1323
 9434SOL    HW239939   0.319   3.559  16.229 -2.1148 -1.5062  3.6518
 9435SOL     OW39940   2.566   0.553  14.337  0.1796 -0.4817  0.3475
 9435SOL    HW139941   2.545   0.647  14.338 -0.0574 -0.5519  2.1973
 9435SOL    HW239942   2.649   0.559  14.291  0.1386 -1.7744  0.1029
 9436SOL     OW39943   4.648   2.855  15.007 -0.4308  0.2579 -0.3641
 9436SOL    HW139944   4.553   2.860  14.995  0.0836  2.4973 -3.4588
 9436SOL    HW239945   4.647   2.822  15.097 -2.4731 -3.6157 -1.8333
 9437SOL     OW39946   2.761   4.456   8.752  0.5283 -0.4170 -0.1976
 9437SOL    HW139947   2.799   4.451   8.664  1.2260  1.3458  0.0030
 9437SOL    HW239948   2.817   4.408   8.813  2.9604 -0.3810 -2.3981
 9438SOL     OW39949   0.611   2.738   3.672 -0.2956  0.2964  0.1266
 9438SOL    HW139950   0.548   2.678   3.633  0.3503  0.6126 -1.3902
 9438SOL    HW239951   0.566   2.822   3.668  0.5405  0.7712  0.6790
 9439SOL     OW39952   2.870   1.052   7.997 -0.5425 -0.0894  0.1820
 9439SOL    HW139953   2.963   1.068   7.980 -0.2590 -0.2068  1.6145
 9439SOL    HW239954   2.872   0.987   8.066  2.3647 -1.0540 -0.8063
 9440SOL     OW39955   1.548   1.907   3.162 -0.6806 -0.4223 -0.2170
 9440SOL    HW139956   1.479   1.968   3.190 -1.6790 -0.8401 -1.8238
 9440SOL    HW239957   1.606   1.957   3.106  1.1544 -0.4876  1.6122
 9441SOL     OW39958   4.076   0.159   8.186  0.2172 -0.3206  0.4581
 9441SOL    HW139959   4.038   0.143   8.099  1.4709 -4.7741  0.7179
 9441SOL    HW239960   4.018   0.227   8.220 -0.3082  0.1671 -1.4157
 9442SOL     OW39961   1.256   0.755   6.713 -0.1123 -0.3682  0.6549
 9442SOL    HW139962   1.280   0.719   6.628 -0.0050 -0.9996  0.9586
 9442SOL    HW239963   1.162   0.744   6.696 -0.4290  2.4808  0.4453
 9443SOL     OW39964   2.236   1.087   4.974  0.2129 -0.0388 -0.1733
 9443SOL    HW139965   2.278   1.107   5.058  1.2192  0.0010 -0.6861
 9443SOL    HW239966   2.307   1.107   4.913 -0.4698 -1.1580 -1.3350
 9444SOL     OW39967   2.844   1.436  12.566  0.5865 -0.0783 -0.0880
 9444SOL    HW139968   2.761   1.440  12.614 -0.1527  1.4319 -1.4625
 9444SOL    HW239969   2.813   1.428  12.475 -1.6692  2.0137  0.4871
 9445SOL     OW39970   0.895   2.347   1.385  0.2872  0.4786 -0.0897
 9445SOL    HW139971   0.879   2.333   1.291 -0.2185 -1.7390  0.3169
 9445SOL    HW239972   0.923   2.257   1.403  1.6838  0.6327 -1.5517
 9446SOL     OW39973   0.276   2.673   6.855 -0.0474 -0.3929 -0.0986
 9446SOL    HW139974   0.365   2.664   6.890 -1.0113  1.7294  2.9042
 9446SOL    HW239975   0.287   2.720   6.772  1.9473  0.6570  0.7515
 9447SOL     OW39976   2.125   2.450   8.397  0.0923 -0.1828 -0.3511
 9447SOL    HW139977   2.199   2.494   8.437 -0.7845  0.7238  0.2826
 9447SOL    HW239978   2.086   2.412   8.476  0.5219  2.1791  0.9960
 9448SOL     OW39979   1.697   0.730   7.737  0.3053 -0.5415 -0.0299
 9448SOL    HW139980   1.631   0.787   7.777  0.0170 -0.9419  0.0591
 9448SOL    HW239981   1.720   0.767   7.651 -0.8047 -1.5701 -0.7636
 9449SOL     OW39982   0.330   0.567   4.948  0.4286  0.2471 -0.1607
 9449SOL    HW139983   0.364   0.481   4.973  2.3845  2.0795  3.4257
 9449SOL    HW239984   0.259   0.576   5.011  1.1615  0.7100  0.5975
 9450SOL     OW39985   0.841   4.145   6.874  0.1034  0.0114  0.4917
 9450SOL    HW139986   0.931   4.139   6.907  0.5273  0.4460 -0.5780
 9450SOL    HW239987   0.791   4.149   6.955  1.3855  1.1306  1.2323
 9451SOL     OW39988   4.672   0.884   6.627  0.0638 -0.4630 -0.0699
 9451SOL    HW139989   4.728   0.809   6.607 -0.0079 -0.5378  0.0109
 9451SOL    HW239990   4.615   0.892   6.551  1.3254  2.0142 -0.7589
 9452SOL     OW39991   3.431   0.966   2.765 -0.6707  0.3269  0.1902
 9452SOL    HW139992   3.395   0.989   2.850 -1.3568  2.2312 -0.6114
 9452SOL    HW239993   3.524   0.973   2.783 -0.8728  1.5607  0.7444
 9453SOL     OW39994   2.077   1.739   4.496 -0.8408  0.0005  0.3275
 9453SOL    HW139995   2.166   1.731   4.531 -1.4542  2.0483  2.3165
 9453SOL    HW239996   2.084   1.807   4.430 -2.0809 -1.1520 -0.9932
 9454SOL     OW39997   1.572   3.198   8.093 -0.2490  0.6333 -0.5582
 9454SOL    HW139998   1.528   3.123   8.053 -1.3605  0.9865 -0.0048
 9454SOL    HW239999   1.646   3.212   8.033 -1.1111 -1.8436 -2.2102
 9455SOL     OW40000   1.186   3.057  12.642  0.3696  0.1905  0.1617
 9455SOL    HW140001   1.276   3.087  12.631  0.7280 -0.8498  0.2741
 9455SOL    HW240002   1.137   3.130  12.603 -1.0917  0.0717  1.7779
 9456SOL     OW40003   2.301   0.048   6.943  0.6082  0.3128  0.4375
 9456SOL    HW140004   2.234   0.050   7.011  0.9624 -1.9003  0.8321
 9456SOL    HW240005   2.253   0.038   6.860  1.3257 -0.9364  0.1739
 9457SOL     OW40006   1.813   1.276   5.907  0.6972 -0.1086  0.6888
 9457SOL    HW140007   1.805   1.260   5.813  0.3950 -1.6216  0.9775
 9457SOL    HW240008   1.830   1.186   5.933 -1.6852 -0.1482  2.0963
 9458SOL     OW40009   4.463   4.246   6.230 -0.3354  0.5361 -0.5115
 9458SOL    HW140010   4.483   4.152   6.240 -1.4875  0.5962  2.3712
 9458SOL    HW240011   4.376   4.254   6.269 -0.1753  2.8174 -0.6724
 9459SOL     OW40012   2.047   0.504   5.136  0.4303 -0.2290 -0.3564
 9459SOL    HW140013   1.995   0.426   5.116  1.5876 -1.1691  0.3015
 9459SOL    HW240014   1.984   0.571   5.109 -1.3334 -0.6909  2.6292
 9460SOL     OW40015   0.621   1.560   5.348  0.5803  0.0665  0.4291
 9460SOL    HW140016   0.566   1.485   5.369 -0.7094  0.9362  0.1956
 9460SOL    HW240017   0.684   1.561   5.419  0.8581  0.7598  0.1744
 9461SOL     OW40018   3.203   0.386   2.715 -0.2965 -0.0530  0.4234
 9461SOL    HW140019   3.155   0.419   2.639 -1.7374  0.5157  1.5818
 9461SOL    HW240020   3.238   0.307   2.674  1.3453  0.8848  0.0406
 9462SOL     OW40021   3.066   2.421   3.630  0.2743  0.0079  1.0657
 9462SOL    HW140022   3.026   2.497   3.672 -1.5052 -0.3029 -0.0824
 9462SOL    HW240023   3.151   2.456   3.605 -0.7755  1.1946 -0.7863
 9463SOL     OW40024   1.203   2.268   3.060  0.2267 -0.6459 -0.4548
 9463SOL    HW140025   1.166   2.355   3.044 -0.1714 -0.8680 -0.7398
 9463SOL    HW240026   1.126   2.223   3.094  0.5108 -1.6076 -1.0986
 9464SOL     OW40027   2.962   1.766   2.671  0.6771 -0.3731 -0.0758
 9464SOL    HW140028   2.937   1.791   2.582  1.6003  1.3731  0.1541
 9464SOL    HW240029   3.042   1.718   2.650  1.1047  0.1159  0.4185
 9465SOL     OW40030   0.064   2.558   8.409 -0.2738  0.1552 -0.2323
 9465SOL    HW140031   4.736   2.621   8.434 -0.3341 -0.1631  0.3996
 9465SOL    HW240032   0.116   2.543   8.488 -0.8309  1.5897  0.4006
 9466SOL     OW40033   0.847   1.466   3.778  0.0441  0.4446 -0.1357
 9466SOL    HW140034   0.779   1.505   3.833 -1.2274 -0.7420 -0.8538
 9466SOL    HW240035   0.929   1.478   3.824  0.5772 -1.4043 -0.6306
 9467SOL     OW40036   2.006   2.333   0.170 -0.4242 -0.2955 -0.0825
 9467SOL    HW140037   2.008   2.396   0.242  2.2444 -0.8888  0.3450
 9467SOL    HW240038   2.054   2.382   0.103 -0.5034  2.3475  1.7953
 9468SOL     OW40039   2.523   3.665   7.238  0.6281  0.3828 -0.5262
 9468SOL    HW140040   2.599   3.615   7.212 -0.1664 -0.4372 -1.2811
 9468SOL    HW240041   2.526   3.737   7.175 -2.7755  0.3100 -0.8188
 9469SOL     OW40042   4.581   2.598   0.103 -0.1234 -0.0036  0.1960
 9469SOL    HW140043   4.627   2.661   0.158 -0.6165 -0.3818  1.0449
 9469SOL    HW240044   4.651   2.548   0.059  1.1244 -1.0139  3.3210
 9470SOL     OW40045   2.035   3.788   6.710 -0.4141  0.0864 -0.1445
 9470SOL    HW140046   2.085   3.868   6.726  1.0944 -0.3971 -2.4766
 9470SOL    HW240047   2.106   3.732   6.742 -3.3336 -1.5295  3.4548
 9471SOL     OW40048   2.140   3.753   6.015  0.7307  0.4010  0.3661
 9471SOL    HW140049   2.075   3.685   5.995 -1.6571  1.7603  3.4905
 9471SOL    HW240050   2.087   3.820   6.059  0.1106 -1.3295  2.2737
 9472SOL     OW40051   1.518   2.471  17.732 -0.1947  0.2101  0.3587
 9472SOL    HW140052   1.595   2.473   0.038 -0.6809 -1.7989  1.0848
 9472SOL    HW240053   1.459   2.407   0.020 -0.3587  1.1043  1.5598
 9473SOL     OW40054   0.908   0.478   6.962 -0.0680 -0.2643 -0.1014
 9473SOL    HW140055   0.888   0.498   6.870 -2.5914  0.9329  0.6954
 9473SOL    HW240056   0.958   0.552   6.994  0.5914 -0.3213 -0.9938
 9474SOL     OW40057   3.545   2.166   8.921  0.1723  0.5093 -0.2952
 9474SOL    HW140058   3.530   2.133   8.832 -2.0282  0.3093  0.1342
 9474SOL    HW240059   3.566   2.259   8.907 -0.2267  0.6045 -0.2625
 9475SOL     OW40060   1.451   2.465  14.701 -0.2074  0.0057  0.5302
 9475SOL    HW140061   1.520   2.452  14.767 -0.4860 -0.2160  0.7791
 9475SOL    HW240062   1.482   2.546  14.661  2.3324 -0.3054  1.8860
 9476SOL     OW40063   1.262   3.244   4.944 -0.6496  0.5402  0.2860
 9476SOL    HW140064   1.199   3.315   4.958 -2.8315 -1.3438 -0.0951
 9476SOL    HW240065   1.257   3.206   5.032  0.4053  1.6143  0.8080
 9477SOL     OW40066   3.823   4.228   8.907 -0.1780  0.0269  0.5301
 9477SOL    HW140067   3.793   4.222   8.997 -1.8348  0.0227 -0.0192
 9477SOL    HW240068   3.808   4.322   8.895 -0.7568 -0.2649 -1.1198
 9478SOL     OW40069   2.072   1.084   8.917 -0.2545 -0.0392 -0.5523
 9478SOL    HW140070   2.041   1.057   8.831  0.8315 -0.5689 -0.7650
 9478SOL    HW240071   2.166   1.079   8.905  0.0662  0.1677  1.7887
 9479SOL     OW40072   1.076   1.797  11.242 -0.7376  0.2001  0.0376
 9479SOL    HW140073   1.105   1.769  11.155 -0.0291  2.7569 -0.5305
 9479SOL    HW240074   1.159   1.798  11.289 -0.9476 -1.8291  0.4818
 9480SOL     OW40075   2.958   0.340   8.540  0.1927 -0.5149 -0.1996
 9480SOL    HW140076   2.908   0.385   8.472  0.1429 -2.6258 -1.5705
 9480SOL    HW240077   2.903   0.332   8.617 -2.5012 -0.4357 -2.1188
 9481SOL     OW40078   0.365   3.159  13.015  0.3736  0.3322 -0.1579
 9481SOL    HW140079   0.362   3.083  12.956  0.8941 -0.5195  0.9093
 9481SOL    HW240080   0.450   3.145  13.058  0.0963 -2.6175 -0.5317
 9482SOL     OW40081   4.358   3.222   2.218  0.2079 -0.2845 -0.3700
 9482SOL    HW140082   4.354   3.215   2.314  1.9316 -2.3719 -0.4558
 9482SOL    HW240083   4.266   3.237   2.197  0.6239 -3.1587 -4.1301
 9483SOL     OW40084   1.866   3.122   6.128 -0.0759  0.2933 -0.0821
 9483SOL    HW140085   1.944   3.131   6.184 -0.3442  0.1775  0.3039
 9483SOL    HW240086   1.808   3.075   6.188  1.9011  0.0079  1.6094
 9484SOL     OW40087   1.500   1.109   7.690 -0.1016 -0.1150  0.2222
 9484SOL    HW140088   1.588   1.124   7.656  1.1506 -1.1305  3.0498
 9484SOL    HW240089   1.467   1.199   7.696 -0.6379 -0.2508 -0.6725
 9485SOL     OW40090   0.880   2.985   1.776  0.1575  0.4057 -0.3597
 9485SOL    HW140091   0.786   2.989   1.792  0.3458  2.6140  0.2019
 9485SOL    HW240092   0.885   2.889   1.779  0.7146  0.3984 -1.3306
 9486SOL     OW40093   3.563   3.404  14.423  0.4263 -0.3856 -0.0740
 9486SOL    HW140094   3.659   3.400  14.413  0.3172  0.5212 -1.5318
 9486SOL    HW240095   3.533   3.320  14.457  0.9115  0.8013  3.2517
 9487SOL     OW40096   2.643   3.633   9.545  0.2565  0.2234  0.8075
 9487SOL    HW140097   2.654   3.684   9.465 -0.9087  0.0757  0.5511
 9487SOL    HW240098   2.723   3.581   9.539  0.3302  0.5546 -1.1513
 9488SOL     OW40099   2.423   2.366  12.179 -0.2668 -0.1511  0.2734
 9488SOL    HW140100   2.453   2.292  12.231 -1.8660 -1.8408 -1.2022
 9488SOL    HW240101   2.501   2.416  12.203 -1.2645  1.0615  0.9511
 9489SOL     OW40102   2.282   2.651   8.045 -0.0123 -0.1567  0.5329
 9489SOL    HW140103   2.239   2.728   8.081  2.5956  0.8956  1.4235
 9489SOL    HW240104   2.216   2.587   8.019  1.1910 -0.9688 -0.5159
 9490SOL     OW40105   1.328   2.853   6.449  0.5428  0.0733 -0.3451
 9490SOL    HW140106   1.402   2.864   6.508 -0.2689  4.1773 -0.0435
 9490SOL    HW240107   1.312   2.947   6.434 -0.6620  0.0048  0.5178
 9491SOL     OW40108   3.875   1.252   8.534 -0.4004 -0.1143  0.0089
 9491SOL    HW140109   3.959   1.237   8.577 -1.3680 -1.7542  1.3330
 9491SOL    HW240110   3.875   1.348   8.527  2.7397 -0.3604 -2.8829
 9492SOL     OW40111   2.642   0.003   2.455 -0.4760 -0.0485  0.6111
 9492SOL    HW140112   2.550   4.716   2.460 -1.0509  1.4763 -2.1503
 9492SOL    HW240113   2.666   0.052   2.376  0.5729  1.0017  1.6025
 9493SOL     OW40114   1.979   3.898  12.867  0.0339 -0.1776 -0.1454
 9493SOL    HW140115   1.976   3.844  12.945 -0.0263 -1.3888 -0.9892
 9493SOL    HW240116   2.066   3.887  12.829  0.7186 -0.4289  1.5320
 9494SOL     OW40117   1.965   1.203  11.087  0.3610 -0.0964 -0.1113
 9494SOL    HW140118   2.034   1.219  11.150 -0.1043 -1.4462  0.7379
 9494SOL    HW240119   1.963   1.290  11.046 -1.4169 -0.4611 -0.8154
 9495SOL     OW40120   4.209   1.668  12.350 -0.5068 -0.0689  0.1205
 9495SOL    HW140121   4.221   1.727  12.276 -1.4925  0.9611  0.7806
 9495SOL    HW240122   4.221   1.723  12.427  0.9737  1.8331 -1.4706
 9496SOL     OW40123   0.714   4.245   1.527  0.0592 -0.5250 -0.0226
 9496SOL    HW140124   0.768   4.180   1.571 -0.2201 -0.4937  0.3655
 9496SOL    HW240125   0.746   4.237   1.437 -1.0323 -1.0562 -0.3665
 9497SOL     OW40126   3.101   0.392  11.424  0.4940  0.5679  0.4576
 9497SOL    HW140127   3.175   0.451  11.444 -0.7986  2.6871 -1.0357
 9497SOL    HW240128   3.079   0.402  11.332 -4.3662  0.8208  1.6468
 9498SOL     OW40129   1.366   2.191  14.490 -0.1981  0.0035  0.1914
 9498SOL    HW140130   1.346   2.238  14.409  0.7848  1.1110  0.5966
 9498SOL    HW240131   1.334   2.255  14.554 -0.3280  1.7721 -1.6509
 9499SOL     OW40132   3.686   3.632  17.321  1.2465 -0.0263 -0.2515
 9499SOL    HW140133   3.673   3.638  17.416  0.3929 -1.7665 -0.2444
 9499SOL    HW240134   3.780   3.644  17.314  1.3096  0.3164  1.1883
 9500SOL     OW40135   0.082   0.354   7.673  0.2376 -0.3053 -0.5120
 9500SOL    HW140136   0.131   0.306   7.739  2.2308 -0.7675 -2.3298
 9500SOL    HW240137   0.032   0.413   7.731  1.9848 -0.3020  0.9787
 9501SOL     OW40138   1.017   0.602   4.832 -0.6575  0.5294  0.4527
 9501SOL    HW140139   1.020   0.513   4.796  0.3927  0.3464  0.9645
 9501SOL    HW240140   1.091   0.588   4.892  0.5680  0.2211 -1.1394
 9502SOL     OW40141   1.020   3.706   1.574  0.4716  0.6023  0.5102
 9502SOL    HW140142   0.948   3.743   1.625  1.0933  0.1144  1.7241
 9502SOL    HW240143   0.995   3.737   1.487 -0.5725 -2.7352 -0.3681
 9503SOL     OW40144   0.434   1.509   5.735  0.7045  0.6422 -0.4439
 9503SOL    HW140145   0.353   1.467   5.707 -0.5613  2.2180  0.9328
 9503SOL    HW240146   0.502   1.452   5.699  0.8311  0.0252  0.7727
 9504SOL     OW40147   1.335   3.583   7.698 -0.3097  0.1908  0.6172
 9504SOL    HW140148   1.261   3.606   7.753  1.3293 -1.7943  3.6806
 9504SOL    HW240149   1.375   3.664   7.666 -1.4703  0.6698  0.3903
 9505SOL     OW40150   3.024   3.204  11.793  0.2549  0.0413  0.7481
 9505SOL    HW140151   2.980   3.180  11.874 -0.6474 -0.3017  0.1495
 9505SOL    HW240152   3.004   3.297  11.782 -1.1304 -0.1879  1.3647
 9506SOL     OW40153   2.785   1.727   6.290  0.6966  0.1490  0.3474
 9506SOL    HW140154   2.843   1.693   6.358  0.2389  0.7434  1.0367
 9506SOL    HW240155   2.702   1.751   6.330  0.7781 -0.2963  0.7876
 9507SOL     OW40156   0.410   2.044   2.267 -0.0925  0.2149 -0.0909
 9507SOL    HW140157   0.443   2.122   2.311  0.7072 -0.3091  0.2361
 9507SOL    HW240158   0.463   2.034   2.188 -0.5435 -3.6027  0.0912
 9508SOL     OW40159   1.278   0.720   8.410  0.0163 -0.2118  0.5553
 9508SOL    HW140160   1.280   0.661   8.334 -1.4610  1.3308 -0.6577
 9508SOL    HW240161   1.317   0.801   8.378 -0.3885 -0.2299  0.0258
 9509SOL     OW40162   1.286   0.213  17.604 -0.0064  0.3043  0.0083
 9509SOL    HW140163   1.204   0.194  17.559  0.4853  0.4297 -0.9453
 9509SOL    HW240164   1.257   0.298  17.638  4.6491  2.0306 -0.3780
 9510SOL     OW40165   0.166   4.330  15.679  0.3219 -0.1084 -0.0946
 9510SOL    HW140166   0.078   4.295  15.690 -0.3842  1.6079 -0.2412
 9510SOL    HW240167   0.152   4.422  15.703  0.5507 -0.1021  0.0180
 9511SOL     OW40168   1.429   2.627   1.595 -0.1590  0.0933 -0.2396
 9511SOL    HW140169   1.491   2.684   1.549  0.6632 -0.0437  0.6947
 9511SOL    HW240170   1.348   2.666   1.561 -0.3110  0.4803  0.5696
 9512SOL     OW40171   2.015   3.910  11.434 -0.2755  0.0987  1.0303
 9512SOL    HW140172   2.044   3.823  11.462  0.0067 -0.3743 -0.7136
 9512SOL    HW240173   1.945   3.880  11.375  0.9700 -2.2198  0.7139
 9513SOL     OW40174   0.709   2.037   6.274 -0.2710 -0.1889 -0.0912
 9513SOL    HW140175   0.762   1.958   6.283  2.6103  1.6258 -1.3561
 9513SOL    HW240176   0.768   2.097   6.229 -2.4618  2.3574  0.4242
 9514SOL     OW40177   1.611   0.700   5.158  0.3274  0.9386 -1.0790
 9514SOL    HW140178   1.633   0.682   5.249 -0.2981  0.2819 -1.0541
 9514SOL    HW240179   1.698   0.680   5.124  0.6026  0.8616 -0.3198
 9515SOL     OW40180   2.661   4.504  14.713 -0.5415 -0.1248 -0.2060
 9515SOL    HW140181   2.583   4.532  14.667 -0.9548 -0.8178  0.0684
 9515SOL    HW240182   2.641   4.524  14.804 -2.1663 -2.3789 -0.0611
 9516SOL     OW40183   2.220   1.411  11.696 -0.0970  0.1487 -0.2842
 9516SOL    HW140184   2.182   1.446  11.616  1.1323  2.5401  0.1776
 9516SOL    HW240185   2.254   1.325  11.671  1.3960  0.3401  1.1292
 9517SOL     OW40186   3.530   3.164   5.294 -0.1890  0.3501  0.4396
 9517SOL    HW140187   3.459   3.161   5.358  2.1310 -2.7274  2.8468
 9517SOL    HW240188   3.606   3.153   5.351  0.6130  2.3635 -0.2339
 9518SOL     OW40189   3.610   0.625   7.094  0.1659 -0.4465  0.1344
 9518SOL    HW140190   3.613   0.609   7.188  0.9481 -0.1923  0.1556
 9518SOL    HW240191   3.546   0.557   7.074 -0.8348  0.2193  1.1150
 9519SOL     OW40192   1.618   3.963   4.871  0.5928  0.6636 -0.2644
 9519SOL    HW140193   1.713   3.971   4.884  0.1370  1.8797  2.1939
 9519SOL    HW240194   1.616   4.016   4.791 -1.9850  2.1468  0.8116
 9520SOL     OW40195   0.872   2.179   0.167  0.1226  0.1480 -0.0183
 9520SOL    HW140196   0.883   2.196   0.074 -0.5628  0.3580 -0.0627
 9520SOL    HW240197   0.791   2.227   0.182 -1.3690 -1.4910 -2.8950
 9521SOL     OW40198   0.624   0.356   5.294  0.6418 -0.1104  0.1999
 9521SOL    HW140199   0.715   0.385   5.297  0.9084 -0.9259  0.1616
 9521SOL    HW240200   0.631   0.303   5.214  0.1956  0.8579 -0.4715
 9522SOL     OW40201   2.264   1.219   6.490 -0.1856  0.2020  0.0971
 9522SOL    HW140202   2.187   1.193   6.541 -0.2880  2.1473  0.9596
 9522SOL    HW240203   2.326   1.258   6.552  1.5137 -0.7975 -0.9876
 9523SOL     OW40204   0.499   3.916  11.843 -0.2800 -0.2404 -0.1023
 9523SOL    HW140205   0.420   3.953  11.882 -0.0113  1.3370 -1.0498
 9523SOL    HW240206   0.510   3.838  11.897 -1.3011 -0.9526 -0.9286
 9524SOL     OW40207   1.157   1.384   7.591  0.1508 -0.1563  0.0443
 9524SOL    HW140208   1.216   1.337   7.650  0.7257  0.1938 -0.2410
 9524SOL    HW240209   1.229   1.427   7.544  0.1160  2.1418  2.1111
 9525SOL     OW40210   1.867   2.924   4.739  0.2959 -0.0015 -0.0118
 9525SOL    HW140211   1.899   2.940   4.828  1.1451 -0.1328 -0.2876
 9525SOL    HW240212   1.952   2.903   4.700  1.4177  1.2244  1.7493
 9526SOL     OW40213   0.251   2.154  11.556  0.4091  0.1999  0.7771
 9526SOL    HW140214   0.340   2.151  11.593  0.4754  1.3360  0.7052
 9526SOL    HW240215   0.199   2.089  11.603  1.2612 -2.4104 -1.8920
 9527SOL     OW40216   4.345   0.912  14.013  0.6602  0.1322  0.3771
 9527SOL    HW140217   4.305   0.962  13.942 -0.1008  0.4720  1.0449
 9527SOL    HW240218   4.417   0.874  13.964  0.8283  2.6428 -1.3093
 9528SOL     OW40219   2.390   0.137   5.072 -0.8623  0.6591  0.5467
 9528SOL    HW140220   2.298   0.154   5.094 -0.2055  1.1522  2.9423
 9528SOL    HW240221   2.400   0.043   5.057 -1.2093  0.8616 -0.9535
 9529SOL     OW40222   2.934   4.596   6.723 -0.7820 -0.2350 -0.3733
 9529SOL    HW140223   3.003   4.565   6.780  0.4460 -0.3511 -1.9220
 9529SOL    HW240224   2.975   4.621   6.640 -0.5432 -3.4891 -1.2562
 9530SOL     OW40225   2.088   3.482   7.139  0.0204 -0.1527 -0.0032
 9530SOL    HW140226   2.171   3.450   7.103  0.7593  1.2195  0.5005
 9530SOL    HW240227   2.038   3.504   7.061  0.3139 -0.8373 -0.3835
 9531SOL     OW40228   3.888   0.769   3.359 -0.2677  0.4497 -0.0220
 9531SOL    HW140229   3.884   0.802   3.270 -0.0213 -0.6229 -0.4318
 9531SOL    HW240230   3.928   0.683   3.347  0.3958  0.7753 -0.1328
 9532SOL     OW40231   0.727   1.887   2.963 -0.0453 -0.9938  0.4773
 9532SOL    HW140232   0.645   1.845   2.938  0.2436  0.0461 -2.1702
 9532SOL    HW240233   0.716   1.883   3.058  0.1194  2.1659  0.6201
 9533SOL     OW40234   4.199   0.397  14.668 -0.7129 -0.0001  0.2411
 9533SOL    HW140235   4.156   0.461  14.612 -2.1983 -0.2625  1.0666
 9533SOL    HW240236   4.174   0.425  14.756  2.5221  1.5666  0.6414
 9534SOL     OW40237   1.293   3.837  16.619 -0.0323 -0.4256 -0.3157
 9534SOL    HW140238   1.374   3.889  16.619 -0.9770  1.0676  0.3323
 9534SOL    HW240239   1.231   3.898  16.580  0.6663  0.3997 -0.1452
 9535SOL     OW40240   3.661   3.450   1.693 -0.1669 -0.1499 -0.5488
 9535SOL    HW140241   3.590   3.495   1.739 -1.5060 -0.4479 -2.3313
 9535SOL    HW240242   3.663   3.492   1.607 -0.4958 -1.2806 -1.1043
 9536SOL     OW40243   4.248   4.583   1.112 -0.8126  0.1859 -0.0942
 9536SOL    HW140244   4.324   4.600   1.168 -0.2334  0.9639 -1.1244
 9536SOL    HW240245   4.181   4.641   1.150 -1.5220 -0.7096  0.0189
 9537SOL     OW40246   0.763   2.346   3.928 -0.3156 -0.1277 -0.8624
 9537SOL    HW140247   0.773   2.337   3.833 -0.7775  2.2339 -1.1470
 9537SOL    HW240248   0.671   2.372   3.926  0.0070  1.3200  2.7109
 9538SOL     OW40249   4.691   4.586  16.484  0.3956  0.0503  0.1894
 9538SOL    HW140250   4.688   4.681  16.472  0.5042  0.1633  1.0320
 9538SOL    HW240251   4.607   4.580  16.530  0.0751 -1.4309 -0.5838
 9539SOL     OW40252   3.160   4.205   6.085  0.2271 -0.3218  1.1750
 9539SOL    HW140253   3.192   4.179   5.999 -0.0288 -0.2065  1.0434
 9539SOL    HW240254   3.188   4.296   6.074 -0.8899  0.1975  2.5797
 9540SOL     OW40255   0.194   1.349   4.260  0.2267  0.1008  0.3312
 9540SOL    HW140256   0.203   1.317   4.171 -0.2104 -1.5464  0.8819
 9540SOL    HW240257   0.244   1.279   4.300  2.7360  1.3040 -0.7175
 9541SOL     OW40258   3.487   4.137  15.301  0.1389 -0.3109  0.7390
 9541SOL    HW140259   3.453   4.048  15.292 -0.5208  0.0163 -0.0212
 9541SOL    HW240260   3.418   4.188  15.260  0.8010  1.1191  1.3735
 9542SOL     OW40261   2.686   2.206  12.584  0.0662 -0.6165 -0.3408
 9542SOL    HW140262   2.777   2.232  12.592  0.8238 -2.4790 -2.9684
 9542SOL    HW240263   2.694   2.115  12.613  0.5406  0.0892  1.7024
 9543SOL     OW40264   3.991   3.438   4.852 -0.1553 -0.1348  0.3221
 9543SOL    HW140265   4.045   3.404   4.924  1.1684 -0.9787 -1.0914
 9543SOL    HW240266   3.910   3.392   4.877  0.2142 -0.7210  0.4451
 9544SOL     OW40267   3.769   3.253  13.483 -0.1792 -0.3762 -0.2044
 9544SOL    HW140268   3.705   3.323  13.473 -0.0678 -0.3427 -0.7062
 9544SOL    HW240269   3.723   3.176  13.451  0.3855 -0.1831 -1.4689
 9545SOL     OW40270   0.178   1.938   3.298 -0.0559 -0.2102  0.8188
 9545SOL    HW140271   0.093   1.949   3.342 -1.4658 -2.0433 -1.4773
 9545SOL    HW240272   0.152   1.882   3.225 -0.9747 -0.3891  1.2850
 9546SOL     OW40273   1.956   0.906   6.649 -0.0209  0.3127  0.0026
 9546SOL    HW140274   1.933   0.941   6.736  1.4325 -0.7132  0.8114
 9546SOL    HW240275   1.952   0.992   6.608 -1.1426 -0.1654 -0.8886
 9547SOL     OW40276   0.857   0.619   5.124  0.0731 -0.6566  0.2500
 9547SOL    HW140277   0.837   0.537   5.080  0.4448  0.3644 -1.7927
 9547SOL    HW240278   0.935   0.595   5.174  1.6560  0.5084 -1.6833
 9548SOL     OW40279   3.680   1.638   3.052  0.3640 -0.5549  0.6289
 9548SOL    HW140280   3.653   1.684   3.131 -0.2131  0.3999 -0.1324
 9548SOL    HW240281   3.639   1.552   3.060  0.9573 -1.1583 -2.7710
 9549SOL     OW40282   3.102   0.129   1.170 -0.1496  0.1691 -0.0987
 9549SOL    HW140283   3.184   0.131   1.121  0.1830  1.4713  0.5268
 9549SOL    HW240284   3.075   0.219   1.153  0.0339  0.2470  0.0338
 9550SOL     OW40285   0.580   3.940   6.141  0.2278  0.3350  1.1245
 9550SOL    HW140286   0.489   3.920   6.121  0.3983  0.5924  0.0628
 9550SOL    HW240287   0.618   3.859   6.176  0.1864 -0.1809 -0.0369
 9551SOL     OW40288   2.271   1.525   3.443 -0.7000  1.3280  0.2100
 9551SOL    HW140289   2.272   1.439   3.484 -0.0311  0.7415 -1.0493
 9551SOL    HW240290   2.192   1.564   3.482 -1.3568  0.5498 -0.3308
 9552SOL     OW40291   4.092   4.265   4.527 -0.0284 -0.2456 -0.7552
 9552SOL    HW140292   4.068   4.174   4.514  0.2567 -0.4868  0.4407
 9552SOL    HW240293   4.066   4.303   4.443  0.0384  0.3362 -0.5175
 9553SOL     OW40294   4.377   2.639   8.129 -0.5035 -0.2530 -0.8126
 9553SOL    HW140295   4.456   2.655   8.076  0.0621  2.9369  0.9351
 9553SOL    HW240296   4.319   2.602   8.062 -1.6727 -0.0533  0.0970
 9554SOL     OW40297   2.027   3.427   6.437  0.3579  0.3389  0.3008
 9554SOL    HW140298   1.933   3.411   6.427  0.6513 -1.7195  0.9317
 9554SOL    HW240299   2.045   3.424   6.531 -0.3747 -0.4267  0.4163
 9555SOL     OW40300   0.237   4.202   1.813 -0.0458  0.1597 -0.4528
 9555SOL    HW140301   0.209   4.294   1.819  1.1608  0.5420 -0.5674
 9555SOL    HW240302   0.291   4.216   1.734 -0.5981 -1.4415 -1.1043
 9556SOL     OW40303   0.050   4.703   1.879  0.6253  0.2230 -0.0177
 9556SOL    HW140304   0.080   4.705   1.970 -0.8179 -1.2597  0.5129
 9556SOL    HW240305   4.713   4.646   1.898 -0.4667  1.5252 -0.4757
 9557SOL     OW40306   3.660   1.038  13.785 -0.2859  0.2152  0.0055
 9557SOL    HW140307   3.731   0.975  13.772  0.2697  0.9812 -0.6446
 9557SOL    HW240308   3.669   1.100  13.713  0.6867  1.4671  1.1917
 9558SOL     OW40309   3.544   0.923  14.175  0.3299 -0.0744  0.1106
 9558SOL    HW140310   3.453   0.944  14.198 -0.3719 -0.3440 -2.4489
 9558SOL    HW240311   3.560   0.996  14.115 -0.6144 -0.2807 -0.3882
 9559SOL     OW40312   1.700   0.641  15.393 -0.0880  0.3767 -0.5480
 9559SOL    HW140313   1.605   0.641  15.384 -0.0556 -0.4812 -0.8864
 9559SOL    HW240314   1.716   0.660  15.301  0.6082  2.5548  0.0346
 9560SOL     OW40315   2.777   0.425  12.280 -0.3998  0.2527 -0.6690
 9560SOL    HW140316   2.866   0.457  12.265 -0.4332 -0.5439 -2.6181
 9560SOL    HW240317   2.723   0.504  12.279  1.8055  1.7585  0.6006
 9561SOL     OW40318   1.043   3.973  14.284  0.3408 -0.3052 -0.4463
 9561SOL    HW140319   1.077   3.911  14.220 -0.8914 -1.4988  0.0554
 9561SOL    HW240320   1.065   3.923  14.362 -0.2668 -2.3258 -1.5780
 9562SOL     OW40321   3.044   0.136   5.147  0.0954  0.1018  0.0578
 9562SOL    HW140322   3.005   0.054   5.117  0.2852 -1.2247  3.3718
 9562SOL    HW240323   3.105   0.154   5.076  0.1406 -0.3954 -0.0256
 9563SOL     OW40324   1.262   1.550   8.225  0.1511  0.2286  0.5669
 9563SOL    HW140325   1.233   1.626   8.276 -4.6296 -0.6092 -0.9250
 9563SOL    HW240326   1.175   1.514   8.212  0.2205  0.3528 -0.2612
 9564SOL     OW40327   3.200   3.488   6.940  0.0827  0.0614 -0.0936
 9564SOL    HW140328   3.164   3.474   7.028 -0.0676  0.3031 -0.1170
 9564SOL    HW240329   3.219   3.581   6.954 -0.2317  0.1468 -0.2502
 9565SOL     OW40330   2.896   2.111   4.484 -0.3473  0.4070 -0.2290
 9565SOL    HW140331   2.896   2.106   4.388  0.5237 -2.5905 -0.0842
 9565SOL    HW240332   2.991   2.115   4.498 -0.3403  2.4465 -0.8388
 9566SOL     OW40333   4.328   0.400   3.975  0.1814  0.1744  0.1458
 9566SOL    HW140334   4.311   0.494   3.966  1.1374  0.2553 -0.9467
 9566SOL    HW240335   4.419   0.403   3.944  0.7794  1.4908  2.0632
 9567SOL     OW40336   3.703   0.493   1.703  0.0135 -0.3511  0.2082
 9567SOL    HW140337   3.757   0.421   1.734  1.0736  0.3557  0.0025
 9567SOL    HW240338   3.768   0.562   1.711 -0.8550  0.4639  0.2667
 9568SOL     OW40339   0.063   3.003   7.688  0.3706 -0.2827 -0.1100
 9568SOL    HW140340   0.109   2.991   7.605 -0.4044  0.4162 -0.6451
 9568SOL    HW240341   0.014   3.081   7.661  2.0894  0.6815 -0.4295
 9569SOL     OW40342   4.120   0.733   1.713 -1.3334  0.1318  0.0800
 9569SOL    HW140343   4.112   0.739   1.618  1.4329  0.9648 -0.0847
 9569SOL    HW240344   4.212   0.743   1.734 -1.1661 -0.6224 -0.2883
   4.73820   4.73820  17.75084
